Membrane in water
40167
    1TCq1    O1    1   2.635   1.037  11.273  0.0228  0.4783  0.0716
    1TCq1    C1    2   2.714   1.080  11.381  0.2848 -0.2098 -0.0060
    1TCq1    O2    3   2.671   1.149  11.476 -0.0033  0.1184 -0.1845
    1TCq1    C2    4   2.816   0.979  11.395 -0.3106 -0.0028 -0.3846
    1TCq1    C3    5   2.892   0.936  11.291  0.0260 -0.4668 -0.3182
    1TCq1    C4    6   2.985   0.846  11.308  0.7129  0.7657 -0.3973
    1TCq1    C5    7   3.003   0.794  11.439 -0.0928  0.3935  0.3409
    1TCq1    C6    8   2.936   0.845  11.547 -0.4556  0.2089  0.8732
    1TCq1    C7    9   2.842   0.939  11.526 -0.6678 -0.2525 -0.1677
    1TCq1    C8   10   2.963   0.784  11.675 -0.1201  0.2492  0.0089
    1TCq1    O4   11   2.914   0.840  11.769  0.1457 -0.5578  0.2092
    1TCq1    C9   12   3.055   0.790  11.198  0.0680  0.4181  0.1495
    1TCq1    O5   13   3.107   0.677  11.212 -0.1230 -0.1777  0.0213
    1TCq1    O6   14   3.014   0.825  11.081  0.5981  0.0440  0.0086
    1TCq1    H1   15   2.697   0.982  11.220  1.1382  2.3057 -0.5165
    1TCq1    H2   16   2.877   0.963  11.187  0.1360  1.2419  0.1155
    1TCq1    H3   17   3.080   0.717  11.441 -0.0730  0.4829  2.5694
    1TCq1    H4   18   2.786   0.981  11.608  0.6959  1.5470 -0.1534
    2MPD2     C   19   3.240   0.461  11.963 -0.0941 -0.2028 -0.0960
    2MPD2    C1   20   3.193   0.591  11.990 -0.5247  0.0141 -0.2842
    2MPD2    C2   21   3.112   0.651  11.894 -0.0504 -0.2260  0.1535
    2MPD2    C3   22   3.101   0.599  11.768  0.1972 -0.0115 -0.5285
    2MPD2    C4   23   3.165   0.482  11.736  0.2260  0.2209  0.0024
    2MPD2    C5   24   3.218   0.408  11.840 -0.4292 -0.1692 -0.8670
    2MPD2     H   25   3.070   0.748  11.917 -0.6136  0.2090 -2.6673
    2MPD2    H1   26   3.173   0.438  11.637  1.3122  1.0566 -0.2748
    2MPD2    H2   27   3.299   0.402  12.032  1.3772  1.1221 -0.2231
    2MPD2    H3   28   3.266   0.312  11.820 -1.1551 -0.9955  1.3644
    2MPD2     N   29   3.035   0.665  11.668  0.2919  0.3355  0.0474
    2MPD2    H5   30   3.029   0.613  11.581  0.9793 -1.0860  0.8654
    2MPD2    N1   31   3.189   0.650  12.113 -0.1288  0.2072 -0.1910
    2MPD2    H7   32   3.155   0.746  12.106 -2.2892 -0.4561  1.3439
    3TCq1    O1   33   2.907   2.954  11.563 -0.0637  0.0196  0.1054
    3TCq1    C1   34   3.021   2.913  11.503 -0.1866 -0.0596 -0.8908
    3TCq1    O2   35   3.135   2.949  11.527  0.0443 -0.3855  0.0402
    3TCq1    C2   36   2.992   2.806  11.420  0.6307 -0.0291 -0.4488
    3TCq1    C3   37   3.083   2.699  11.415  0.5057 -0.5220 -0.4832
    3TCq1    C4   38   3.056   2.584  11.342  0.0990  0.2810 -0.0463
    3TCq1    C5   39   2.939   2.586  11.270 -0.4714  0.4587 -0.0075
    3TCq1    C6   40   2.858   2.700  11.270 -0.3318  0.2366 -0.2708
    3TCq1    C7   41   2.877   2.809  11.348  0.0174 -0.2647 -0.2912
    3TCq1    C8   42   2.738   2.694  11.197 -0.2326  0.8392 -0.4133
    3TCq1    O4   43   2.752   2.625  11.095 -0.1002 -0.1334  0.4207
    3TCq1    C9   44   3.128   2.462  11.359  0.2839 -0.1990 -0.1006
    3TCq1    O5   45   3.229   2.470  11.434 -0.9192  0.0566  0.4414
    3TCq1    O6   46   3.095   2.371  11.276 -0.0330  0.5161 -0.7601
    3TCq1    H1   47   2.833   2.901  11.527 -0.7238 -0.8407  2.7002
    3TCq1    H2   48   3.166   2.697  11.484  0.5272  0.2851 -0.4947
    3TCq1    H3   49   2.900   2.496  11.224  1.6747 -0.0923 -0.7259
    3TCq1    H4   50   2.813   2.896  11.342 -0.1185 -0.4497 -1.6042
    4MPD2     C   51   2.259   2.812  11.037 -0.5205 -0.0038  0.0288
    4MPD2    C1   52   2.288   2.888  11.146 -0.7236  0.4276  0.5744
    4MPD2    C2   53   2.412   2.880  11.207 -0.1027 -0.1982  0.0596
    4MPD2    C3   54   2.512   2.789  11.160  0.5787 -0.2316 -0.1197
    4MPD2    C4   55   2.473   2.728  11.046 -0.2709  0.6225 -0.4447
    4MPD2    C5   56   2.354   2.738  10.977 -0.1342 -0.0974  0.6545
    4MPD2     H   57   2.431   2.950  11.288 -1.0640  0.9877 -0.7387
    4MPD2    H1   58   2.541   2.655  11.003  0.4099  0.4537  0.9221
    4MPD2    H2   59   2.161   2.817  10.991 -0.4427  0.2498 -0.1066
    4MPD2    H3   60   2.335   2.674  10.891 -0.1646  0.5012  0.2229
    4MPD2     N   61   2.631   2.781  11.233 -0.6388  0.1236 -0.5573
    4MPD2    H5   62   2.644   2.840  11.314 -0.5262 -0.7336  0.0435
    4MPD2    N1   63   2.207   2.995  11.195 -0.4376 -0.5100 -0.0833
    4MPD2    H7   64   2.247   3.055  11.266  2.9644 -1.2635 -1.3731
    5TCq1    O1   65   2.993   3.794  11.758  0.0409 -0.4095 -0.2233
    5TCq1    C1   66   3.015   3.666  11.761  0.1604 -0.0444  0.0253
    5TCq1    O2   67   3.120   3.607  11.789 -0.1734  0.1254  0.2663
    5TCq1    C2   68   2.912   3.605  11.683 -0.1249 -0.4855 -0.5558
    5TCq1    C3   69   2.782   3.613  11.718 -0.0414 -0.2058  0.6068
    5TCq1    C4   70   2.691   3.547  11.641  0.0082 -0.4685 -0.4185
    5TCq1    C5   71   2.731   3.457  11.538 -0.1079 -0.0924  1.0917
    5TCq1    C6   72   2.867   3.440  11.519  0.5070  0.1698  0.0648
    5TCq1    C7   73   2.951   3.513  11.592 -0.0054  0.5430 -0.4867
    5TCq1    C8   74   2.924   3.339  11.433  0.2388  0.3916 -0.2138
    5TCq1    O4   75   3.040   3.308  11.428  0.2423  0.3954 -0.2305
    5TCq1    C9   76   2.552   3.554  11.679  0.2353 -0.6672  0.4002
    5TCq1    O5   77   2.516   3.642  11.761  0.2611  0.1820 -0.2424
    5TCq1    O6   78   2.475   3.470  11.623  0.3973  0.2607  0.3284
    5TCq1    H1   79   2.904   3.817  11.723 -0.1920  0.5635  0.9796
    5TCq1    H2   80   2.747   3.672  11.802  3.1240  0.8341  1.1881
    5TCq1    H3   81   2.652   3.403  11.487 -0.4547  1.6692 -0.2431
    5TCq1    H4   82   3.055   3.484  11.581 -0.3784 -1.2783  0.8975
    6MPD2     C   83   2.716   3.161  11.183 -0.7458 -0.1498 -0.0829
    6MPD2    C1   84   2.829   3.192  11.256 -0.0984 -0.1096 -0.7765
    6MPD2    C2   85   2.943   3.122  11.224 -0.2560 -0.1264  0.2177
    6MPD2    C3   86   2.950   3.019  11.133 -0.4963  0.3504 -0.0801
    6MPD2    C4   87   2.834   2.991  11.063  0.3623  0.1514 -0.0883
    6MPD2    C5   88   2.729   3.070  11.082  0.2571 -0.0789 -0.1653
    6MPD2     H   89   3.037   3.158  11.264  0.4198 -0.5740 -0.9549
    6MPD2    H1   90   2.829   2.905  10.997  0.9019  1.1598 -1.4499
    6MPD2    H2   91   2.619   3.204  11.207 -0.8348 -1.0253  1.0631
    6MPD2    H3   92   2.636   3.045  11.034  0.0999  1.5149 -0.7160
    6MPD2     N   93   3.067   2.945  11.111  0.2213  0.5878 -0.1479
    6MPD2    H5   94   3.149   2.974  11.163  0.3259 -0.3154  0.1911
    6MPD2    N1   95   2.822   3.290  11.352 -0.0366 -0.8783  0.3072
    6MPD2    H7   96   2.730   3.331  11.368  0.3438 -0.6316  1.9417
    7TCq1    O1   97   0.142   3.359  13.121 -0.0005 -0.3989 -0.0354
    7TCq1    C1   98   0.234   3.306  13.030  0.6131 -0.1811 -0.1083
    7TCq1    O2   99   0.295   3.369  12.945 -0.1951 -0.2502 -1.0148
    7TCq1    C2  100   0.197   3.164  13.017 -0.6403  0.1317 -0.0597
    7TCq1    C3  101   0.192   3.097  12.896  0.7932 -0.6265 -0.4179
    7TCq1    C4  102   0.158   2.974  12.893 -0.2922 -0.5303  0.0691
    7TCq1    C5  103   0.133   2.903  13.008  0.1609 -0.7474  0.1941
    7TCq1    C6  104   0.137   2.963  13.124  0.6007 -0.0271 -0.0110
    7TCq1    C7  105   0.180   3.094  13.132 -0.6390  0.6907 -0.8154
    7TCq1    C8  106   0.088   2.892  13.239 -0.1642  0.3307 -0.1762
    7TCq1    O4  107   0.120   2.770  13.246 -0.4548  0.5968  0.0513
    7TCq1    C9  108   0.160   2.908  12.767 -0.8407 -0.1362  0.4371
    7TCq1    O5  109   0.194   2.972  12.664  0.0450  0.1140  0.0202
    7TCq1    O6  110   0.107   2.792  12.763  0.1598 -0.5246 -0.4361
    7TCq1    H1  111   0.091   3.293  13.172  1.1419 -0.4337  1.0750
    7TCq1    H2  112   0.210   3.153  12.805  0.3767  0.5529  0.2156
    7TCq1    H3  113   0.098   2.802  12.995 -0.6602 -0.0298 -3.2325
    7TCq1    H4  114   0.206   3.139  13.227 -0.5688  0.1788 -0.5900
    8MPD2     C  115   4.701   2.883  13.732  0.0342  0.0743 -0.3990
    8MPD2    C1  116   0.071   2.815  13.661  0.1133  0.9416  0.1784
    8MPD2    C2  117   0.072   2.836  13.522 -0.1577  0.0241  0.3868
    8MPD2    C3  118   4.713   2.928  13.459 -0.3463 -0.2787 -0.4224
    8MPD2    C4  119   4.633   3.007  13.538 -0.0158 -0.1791 -0.4700
    8MPD2    C5  120   4.624   2.982  13.675  0.2142 -0.0101 -0.2968
    8MPD2     H  121   0.148   2.782  13.468 -0.3341  1.3188 -1.1527
    8MPD2    H1  122   4.562   3.083  13.505 -0.8899 -0.6641  0.2910
    8MPD2    H2  123   4.697   2.880  13.840  1.1419  0.9311 -0.3355
    8MPD2    H3  124   4.566   3.049  13.737  0.6871  2.0807 -2.0782
    8MPD2     N  125   0.008   2.965  13.325  0.1015 -0.0065  0.7866
    8MPD2    H5  126   4.707   3.060  13.297  1.7072  0.6862  1.7109
    8MPD2    N1  127   0.173   2.745  13.735 -0.2221 -0.5176  0.0942
    8MPD2    H7  128   0.149   2.733  13.833 -2.3982  3.6306  0.0657
    9TCq1    O1  129   3.470   1.255  10.772 -0.0175 -0.2286 -0.0063
    9TCq1    C1  130   3.594   1.299  10.802  1.0171  0.1074  0.6623
    9TCq1    O2  131   3.671   1.354  10.723 -0.2089 -0.0957 -0.4332
    9TCq1    C2  132   3.647   1.224  10.913  0.3991  0.2773  0.4537
    9TCq1    C3  133   3.780   1.203  10.904 -0.3682 -1.0203  0.0822
    9TCq1    C4  134   3.840   1.118  10.989  0.3730  0.1314  0.6253
    9TCq1    C5  135   3.779   1.062  11.097 -0.5137  0.8114  1.0216
    9TCq1    C6  136   3.644   1.086  11.102  0.2939 -0.4055 -0.2253
    9TCq1    C7  137   3.577   1.157  11.012 -0.0611 -0.0956  0.2246
    9TCq1    C8  138   3.569   1.023  11.210 -0.6780  0.4194 -0.1545
    9TCq1    O4  139   3.631   0.933  11.260  0.1274 -0.2435 -0.3665
    9TCq1    C9  140   3.988   1.115  10.991 -0.5771 -0.3180 -0.2669
    9TCq1    O5  141   4.063   1.167  10.903  0.2559  0.3557 -0.3329
    9TCq1    O6  142   4.028   1.058  11.092  0.0778  0.3620  0.4158
    9TCq1    H1  143   3.428   1.196  10.838  2.4237 -0.9334  0.9054
    9TCq1    H2  144   3.842   1.250  10.828 -1.2767  0.4474  0.2286
    9TCq1    H3  145   3.825   1.004  11.177 -1.3754 -0.8143  0.3361
    9TCq1    H4  146   3.469   1.155  11.023 -0.0697 -3.0443 -0.4496
   10MPD2     C  147   3.398   0.944  11.424  0.2995 -0.4066 -0.2285
   10MPD2    C1  148   3.371   1.053  11.357  0.0808 -0.6468 -0.3330
   10MPD2    C2  149   3.277   1.141  11.410  0.4446  0.0438  0.6897
   10MPD2    C3  150   3.213   1.113  11.533 -0.0835 -0.3757  0.3605
   10MPD2    C4  151   3.239   0.990  11.595 -0.9565 -0.7267  0.2720
   10MPD2    C5  152   3.332   0.906  11.538  0.1746 -0.2677  0.2295
   10MPD2     H  153   3.254   1.233  11.358 -1.2957 -2.2768 -2.6062
   10MPD2    H1  154   3.190   0.955  11.685  1.2973 -1.1565  1.3224
   10MPD2    H2  155   3.467   0.861  11.408  1.3567  0.6216 -0.9306
   10MPD2    H3  156   3.369   0.825  11.600 -2.2762 -0.6984  1.1023
   10MPD2     N  157   3.126   1.203  11.604 -0.2716 -0.0556  0.1686
   10MPD2    H5  158   3.087   1.169  11.691  1.2306  1.0625  1.2814
   10MPD2    N1  159   3.450   1.089  11.243 -0.3987 -0.1726 -0.5034
   10MPD2    H7  160   3.439   1.183  11.206  0.0344  0.4915  1.0199
   11TCq1    O1  161   4.193   2.414  14.364 -0.0726  0.0200 -0.1413
   11TCq1    C1  162   4.126   2.295  14.373 -0.1214  0.2152  0.5576
   11TCq1    O2  163   4.018   2.289  14.313  0.0760  0.2352 -0.5274
   11TCq1    C2  164   4.127   2.243  14.507  0.1642 -0.7892 -0.0402
   11TCq1    C3  165   4.248   2.232  14.575  0.2628  0.4792 -0.1204
   11TCq1    C4  166   4.233   2.184  14.704  0.8980  1.4676  0.0733
   11TCq1    C5  167   4.117   2.134  14.761  0.2843  0.0301 -0.5717
   11TCq1    C6  168   4.001   2.147  14.687  0.1464  0.6464 -1.1829
   11TCq1    C7  169   4.005   2.201  14.558 -0.2004  0.0645 -0.3790
   11TCq1    C8  170   3.875   2.087  14.742 -0.0559 -0.3990 -0.6494
   11TCq1    O4  171   3.867   2.075  14.862  0.1637 -0.0692  0.6283
   11TCq1    C9  172   4.359   2.179  14.782 -0.8346 -0.1285  0.6289
   11TCq1    O5  173   4.446   2.257  14.734 -0.4369  0.0547 -0.1397
   11TCq1    O6  174   4.357   2.129  14.900 -0.0342 -0.6104  0.1275
   11TCq1    H1  175   4.276   2.419  14.416  0.0801 -1.7592 -0.2073
   11TCq1    H2  176   4.343   2.265  14.534  0.6005  1.9184  1.8282
   11TCq1    H3  177   4.104   2.098  14.863  0.8730  0.8251 -0.2104
   11TCq1    H4  178   3.914   2.231  14.508 -1.0807  0.1539  1.2599
   12MPD2     C  179   3.592   2.030  14.809  0.4983  0.1818  0.1974
   12MPD2    C1  180   3.646   2.009  14.687  0.7465 -0.2042 -0.0632
   12MPD2    C2  181   3.572   1.942  14.593 -0.3655 -0.3659 -0.1174
   12MPD2    C3  182   3.445   1.894  14.612 -0.3783  0.6445 -0.5140
   12MPD2    C4  183   3.395   1.921  14.742  0.1903  0.2643  0.5683
   12MPD2    C5  184   3.463   1.992  14.835 -0.4074  0.6022 -0.9718
   12MPD2     H  185   3.621   1.920  14.499 -1.4997  0.5487 -0.9088
   12MPD2    H1  186   3.299   1.882  14.774  0.9571 -0.4466  1.9996
   12MPD2    H2  187   3.645   2.076  14.892 -0.0168  0.3634  0.4265
   12MPD2    H3  188   3.428   2.016  14.935 -1.4224 -0.3793 -1.0916
   12MPD2     N  189   3.376   1.818  14.516 -0.0473  0.0211 -0.4002
   12MPD2    H5  190   3.421   1.806  14.426 -2.5183  1.0560 -1.7757
   12MPD2    N1  191   3.778   2.046  14.654 -0.0983 -0.1748 -0.1210
   12MPD2    H7  192   3.792   2.041  14.553  0.7665  0.5569 -0.0367
   13TCq1    O1  193   3.042   1.413  10.744 -0.7008  0.3154 -0.2014
   13TCq1    C1  194   3.013   1.323  10.644  0.2797 -0.2668  0.2801
   13TCq1    O2  195   3.096   1.305  10.559 -0.0283 -0.1276 -0.0884
   13TCq1    C2  196   2.870   1.323  10.620  0.3927 -0.3540 -0.0005
   13TCq1    C3  197   2.829   1.361  10.498 -0.1530  0.1950 -0.5209
   13TCq1    C4  198   2.701   1.344  10.463 -0.2881  0.6590  0.3199
   13TCq1    C5  199   2.606   1.292  10.550 -0.8608  0.1950  0.1821
   13TCq1    C6  200   2.649   1.266  10.678 -0.1544 -0.4352  0.4433
   13TCq1    C7  201   2.784   1.278  10.710 -0.2669 -0.5341  0.0954
   13TCq1    C8  202   2.562   1.240  10.791 -0.0301 -0.0001 -0.3375
   13TCq1    O4  203   2.615   1.215  10.898 -0.1059 -0.5821  0.1688
   13TCq1    C9  204   2.672   1.357  10.315 -0.5007  0.0846  0.5488
   13TCq1    O5  205   2.554   1.335  10.271 -0.5992 -0.0849  0.1556
   13TCq1    O6  206   2.767   1.372  10.231  0.8051 -0.5996 -0.4490
   13TCq1    H1  207   2.968   1.430  10.806 -1.4719 -0.4896 -0.9028
   13TCq1    H2  208   2.900   1.395  10.424  0.4573 -1.2599 -0.6148
   13TCq1    H3  209   2.512   1.254  10.512 -0.9942  1.0064 -0.2999
   13TCq1    H4  210   2.822   1.249  10.807  0.4750  1.0074  0.2664
   14MPD2     C  211   2.192   1.178  10.813  0.5875 -0.0855 -0.3286
   14MPD2    C1  212   2.325   1.182  10.858 -0.1220 -0.1263  0.3884
   14MPD2    C2  213   2.352   1.135  10.985 -0.4704  0.3166 -0.1596
   14MPD2    C3  214   2.257   1.110  11.077 -0.3558  0.5027 -0.3621
   14MPD2    C4  215   2.121   1.110  11.037  0.1103  0.2259 -0.7166
   14MPD2    C5  216   2.095   1.148  10.909 -0.4791  0.3563  0.6317
   14MPD2     H  217   2.453   1.129  11.024 -0.6117  2.2690  0.4731
   14MPD2    H1  218   2.034   1.084  11.096  0.7317 -0.7739 -0.2526
   14MPD2    H2  219   2.155   1.205  10.715  2.6861 -1.8426 -1.6125
   14MPD2    H3  220   1.989   1.154  10.889 -0.7730  0.6437  2.3051
   14MPD2     N  221   2.292   1.078  11.208  0.7186  0.0720 -0.2853
   14MPD2    H5  222   2.391   1.073  11.228  0.8641 -0.6727 -1.2066
   14MPD2    N1  223   2.430   1.230  10.766 -0.2518 -0.0833  0.4515
   14MPD2    H7  224   2.406   1.250  10.669  0.8093 -2.5624 -0.2979
   15TCq1    O1  225   0.196   2.168   2.145  0.2740  0.4922 -0.2167
   15TCq1    C1  226   0.225   2.037   2.124 -0.7159 -0.3861  0.2177
   15TCq1    O2  227   0.325   1.980   2.159  0.8257  0.0912 -0.7893
   15TCq1    C2  228   0.137   1.982   2.023 -0.7688  0.2506  0.2937
   15TCq1    C3  229   0.059   2.060   1.935  0.6821 -0.2816 -0.3983
   15TCq1    C4  230   4.712   1.988   1.837  0.2587  0.0252  0.0023
   15TCq1    C5  231   4.719   1.850   1.827  0.1810  0.3937 -0.3648
   15TCq1    C6  232   0.077   1.782   1.906  0.0229 -0.0690 -0.2694
   15TCq1    C7  233   0.141   1.845   2.006  0.5303 -0.3597 -0.1303
   15TCq1    C8  234   0.087   1.635   1.898 -0.0808 -0.5850  0.0355
   15TCq1    O4  235   0.191   1.591   1.939 -0.4703 -0.0056 -0.1076
   15TCq1    C9  236   4.634   2.065   1.735  0.0220 -0.4775  0.0369
   15TCq1    O5  237   4.631   2.190   1.746  0.2386  0.6432  0.1343
   15TCq1    O6  238   4.566   1.991   1.662  0.1919 -0.2074 -0.1778
   15TCq1    H1  239   0.114   2.201   2.103 -0.0942  2.2955  1.9322
   15TCq1    H2  240   0.051   2.168   1.940 -0.1654 -0.3057 -1.0274
   15TCq1    H3  241   4.662   1.808   1.745  0.1669  0.2216 -0.2678
   15TCq1    H4  242   0.220   1.790   2.054  1.1796  0.5502 -0.1504
   16MPD2     C  243   4.544   1.374   1.852 -0.2159  0.1491  0.0171
   16MPD2    C1  244   4.671   1.430   1.854 -0.3621  0.6988  0.0980
   16MPD2    C2  245   0.048   1.338   1.856 -0.6516 -0.2824  0.2266
   16MPD2    C3  246   0.026   1.203   1.844  0.1944  0.2542  0.1706
   16MPD2    C4  247   4.619   1.160   1.833  0.4401  0.2735  0.7886
   16MPD2    C5  248   4.516   1.246   1.833 -0.0436 -0.1199  0.1283
   16MPD2     H  249   0.152   1.368   1.851 -0.5162 -1.0597 -1.9374
   16MPD2    H1  250   4.592   1.055   1.837  1.1526  0.0571 -0.3297
   16MPD2    H2  251   4.456   1.438   1.848 -0.1235  0.3405  1.0657
   16MPD2    H3  252   4.416   1.206   1.842  1.1945 -3.0919  0.4831
   16MPD2     N  253   0.137   1.115   1.871 -0.1255 -0.4063 -0.8357
   16MPD2    H5  254   0.229   1.142   1.903 -0.2700  2.7312 -3.0245
   16MPD2    N1  255   4.689   1.571   1.861  0.4474  0.5803  0.6845
   16MPD2    H7  256   4.610   1.629   1.835 -0.8787 -1.8720 -0.7732
   17TCq1    O1  257   2.545   0.710  11.397  0.3155  0.8994 -0.6085
   17TCq1    C1  258   2.578   0.687  11.266  0.2141 -0.2800  0.2087
   17TCq1    O2  259   2.686   0.673  11.209  0.5510 -0.1284 -0.5801
   17TCq1    C2  260   2.460   0.730  11.190 -0.0602  0.0547 -0.1036
   17TCq1    C3  261   2.329   0.714  11.242 -0.8520  0.7059  0.1700
   17TCq1    C4  262   2.227   0.726  11.145 -0.1459 -0.3486 -0.1205
   17TCq1    C5  263   2.249   0.771  11.014 -0.0256 -0.0136 -0.3438
   17TCq1    C6  264   2.379   0.795  10.972  0.2593 -0.4570  0.1274
   17TCq1    C7  265   2.486   0.778  11.064  0.0643 -0.2036 -0.1376
   17TCq1    C8  266   2.400   0.807  10.831 -1.0962 -0.0306  0.2513
   17TCq1    O4  267   2.307   0.785  10.758 -0.2401  0.5508 -0.9271
   17TCq1    C9  268   2.088   0.706  11.179  0.0932  0.3524 -0.5632
   17TCq1    O5  269   1.997   0.755  11.104 -0.2000  0.2988 -0.7844
   17TCq1    O6  270   2.064   0.689  11.302 -0.2960 -0.6222  0.0185
   17TCq1    H1  271   2.452   0.715  11.426  0.4810  0.1262  0.0637
   17TCq1    H2  272   2.314   0.664  11.336 -0.7370 -1.4941 -0.9916
   17TCq1    H3  273   2.168   0.774  10.942  0.9279 -0.3074 -1.4110
   17TCq1    H4  274   2.588   0.776  11.025  0.8772 -0.1386  1.9974
   18MPD2     C  275   2.496   0.871  10.563 -0.0925  0.0372 -0.4121
   18MPD2    C1  276   2.575   0.882  10.673  0.4190  0.0056 -0.2349
   18MPD2    C2  277   2.710   0.898  10.652 -0.6508 -0.6798  0.0276
   18MPD2    C3  278   2.767   0.926  10.527  0.3547 -0.2132  0.0803
   18MPD2    C4  279   2.684   0.918  10.422 -0.3364  0.1747 -0.8247
   18MPD2    C5  280   2.552   0.895  10.439 -0.3069 -0.3241  0.0106
   18MPD2     H  281   2.779   0.892  10.735 -1.4194 -1.3840  0.6177
   18MPD2    H1  282   2.711   0.935  10.318  1.8671  0.2741 -0.2340
   18MPD2    H2  283   2.388   0.866  10.569  0.1024 -3.3682 -0.0594
   18MPD2    H3  284   2.481   0.890  10.357 -0.5204 -0.4075  0.2002
   18MPD2     N  285   2.905   0.947  10.498 -0.2526 -0.2855 -0.5002
   18MPD2    H5  286   2.926   0.963  10.400  1.2491  1.2940  0.1023
   18MPD2    N1  287   2.523   0.857  10.799 -0.4774  0.2070 -0.5006
   18MPD2    H7  288   2.587   0.883  10.873  0.0268 -0.5257 -0.6784
   19TMC2    C1  289   0.133   1.780  14.279 -0.1418  0.0423  0.1564
   19TMC2    C2  290   0.136   1.895  14.201  0.7378 -0.4579  1.0023
   19TMC2    C3  291   0.022   1.932  14.144 -0.7832  0.2980 -0.0291
   19TMC2    C4  292   0.024   1.699  14.294 -0.1904  0.4416  0.0374
   19TMC2    C5  293   4.637   1.741  14.225  0.3746 -0.0279 -0.4582
   19TMC2    C6  294   4.628   1.861  14.150 -0.7745  0.4737 -0.1537
   19TMC2     C  295   0.267   1.726  14.304  0.2982  0.1234  0.4535
   19TMC2     O  296   0.359   1.778  14.234  0.6074  0.6984 -0.4654
   19TMC2     H  297   0.227   1.952  14.187  1.7832 -1.9716  1.7592
   19TMC2    H1  298   0.033   1.601  14.338 -0.3009  1.2696  1.9021
   19TMC2    H2  299   4.537   1.912  14.120 -0.0360  1.9122  0.0753
   19TMC2    C7  300   4.505   1.678  14.256 -0.2975  0.6126  0.4480
   19TMC2    C8  301   0.034   2.011  14.021 -0.2887 -0.7566 -0.3151
   19TMC2    O1  302   4.517   1.604  14.352  0.1086 -0.2565 -0.3947
   19TMC2    O2  303   0.136   2.078  14.003  0.2075  0.3418  0.5536
   19TMC2    O5  304   4.719   1.916  13.931  0.5105  0.1201  0.8003
   19TMC2    H5  305   4.628   1.879  13.937 -0.3240  1.9869 -0.3743
   20MPD2     C  306   0.512   1.657  14.453 -0.1288 -0.0092  0.4595
   20MPD2    C1  307   0.387   1.620  14.493  0.3406 -0.0756  0.1485
   20MPD2    C2  308   0.371   1.563  14.611 -0.5294  0.1445  0.3134
   20MPD2    C3  309   0.483   1.542  14.695 -0.0381  0.7306 -1.0191
   20MPD2    C4  310   0.607   1.579  14.651  0.1361  0.0234 -0.3003
   20MPD2    C5  311   0.620   1.637  14.529 -0.0927 -0.0158 -0.3086
   20MPD2     H  312   0.273   1.536  14.650 -0.7134  0.9948  0.4408
   20MPD2    H1  313   0.692   1.552  14.713 -0.7501  0.5225  1.1403
   20MPD2    H2  314   0.526   1.707  14.358  0.0105 -3.6134 -1.4037
   20MPD2    H3  315   0.719   1.666  14.495  0.8423 -1.0902  1.4386
   20MPD2     N  316   0.478   1.479  14.818  0.2107  0.4240  0.4180
   20MPD2    H5  317   0.564   1.461  14.868 -0.2099  1.4591  1.5112
   20MPD2    N1  318   0.267   1.652  14.418 -0.4231  0.2362 -0.0223
   20MPD2    H7  319   0.183   1.612  14.459  1.3345 -3.0152  0.4123
   21MPD2     C  320   1.996   1.766  14.625 -0.0244 -0.7411  0.0863
   21MPD2    C1  321   2.122   1.763  14.674 -0.1358 -0.2667  0.5544
   21MPD2    C2  322   2.145   1.813  14.803  0.5306  0.8921  0.4964
   21MPD2    C3  323   2.037   1.871  14.871  0.1359  0.7596  0.2814
   21MPD2    C4  324   1.910   1.863  14.823 -0.1216  0.0090 -0.5159
   21MPD2    C5  325   1.894   1.815  14.695 -0.0741 -0.0155 -0.9720
   21MPD2     H  326   2.248   1.807  14.836  0.8312 -0.0168 -0.6036
   21MPD2    H1  327   1.825   1.900  14.879 -0.2454 -0.7313 -0.2130
   21MPD2    H2  328   1.967   1.726  14.529  2.1359  1.5596 -1.5219
   21MPD2    H3  329   1.801   1.821  14.641 -1.4639 -0.9039  1.3499
   21MPD2     N  330   2.056   1.920  14.993  0.0239 -0.4375  0.0163
   21MPD2    H5  331   1.980   1.981  15.022 -0.1857 -1.4031  1.4244
   21MPD2    N1  332   2.223   1.712  14.593 -0.9088 -0.5692 -0.4289
   21MPD2    H7  333   2.183   1.671  14.508  0.6007 -1.2047 -0.8345
   22TCq2    C1  334   2.177   1.917  15.064  0.6701 -0.4363 -0.6920
   22TCq2    O2  335   2.276   1.846  15.057 -0.0047 -0.0674  0.1084
   22TCq2    C2  336   2.179   2.017  15.174  0.7287 -0.3160  0.5643
   22TCq2    C3  337   2.269   1.989  15.270  0.5152 -0.1922  0.5869
   22TCq2    C4  338   2.248   2.029  15.397  0.5469  0.0863 -0.1971
   22TCq2    C5  339   2.137   2.115  15.420  0.8526 -0.1829  0.0540
   22TCq2    C6  340   2.058   2.157  15.317 -0.5829 -0.1006 -0.2827
   22TCq2    C7  341   2.074   2.109  15.189  0.8867  0.7633  0.3961
   22TCq2    C8  342   1.984   2.283  15.345 -0.0056  0.1196  1.1583
   22TCq2    O4  343   1.991   2.313  15.462 -0.5954 -0.7301  0.0780
   22TCq2    C9  344   2.365   2.015  15.483  0.0671 -0.1233 -0.4345
   22TCq2    O5  345   2.479   1.985  15.437 -0.4598 -0.2498 -0.8014
   22TCq2    O6  346   2.350   2.052  15.603  0.3639 -1.1931  0.1616
   22TCq2    H2  347   2.354   1.922  15.256 -0.2029 -0.5412 -2.0656
   22TCq2    H3  348   2.148   2.164  15.516  2.6653 -2.1936  0.8503
   22TCq2    H4  349   2.022   2.147  15.101  2.9559  0.8032 -0.8159
   23MPD2     C  350   4.160   2.660  14.625 -0.0679  0.5101 -0.0228
   23MPD2    C1  351   4.095   2.697  14.743  0.8392 -0.2195 -0.2062
   23MPD2    C2  352   4.004   2.800  14.736 -0.4255  0.3361 -0.4039
   23MPD2    C3  353   3.977   2.859  14.614  0.0123 -0.7917  0.0170
   23MPD2    C4  354   4.050   2.821  14.500 -0.4859  0.2918  0.0525
   23MPD2    C5  355   4.138   2.725  14.506  0.2639  0.1240  0.5306
   23MPD2     H  356   3.955   2.836  14.826 -1.1883 -1.6376 -0.0436
   23MPD2    H1  357   4.042   2.884  14.412 -0.5449  0.0009 -0.1480
   23MPD2    H2  358   4.237   2.584  14.632 -2.1392 -1.5995  0.0167
   23MPD2    H3  359   4.191   2.686  14.419  2.4999  2.3805  0.8601
   23MPD2     N  360   3.900   2.982  14.610 -0.6429 -0.7450  0.1567
   23MPD2    H5  361   3.902   3.045  14.530 -1.1341 -0.8573  0.0576
   23MPD2    N1  362   4.121   2.642  14.871  1.0671  0.2995  0.7052
   23MPD2    H7  363   4.068   2.686  14.945 -2.5751 -2.1576 -0.4513
   24TCq2    C1  364   3.813   3.015  14.712 -0.0989 -0.3420 -0.2974
   24TCq2    O2  365   3.769   2.944  14.801  0.7577  0.2886 -0.0208
   24TCq2    C2  366   3.750   3.148  14.698 -0.1660  0.3819 -0.2898
   24TCq2    C3  367   3.789   3.241  14.596  0.1743  0.4857 -0.5993
   24TCq2    C4  368   3.713   3.353  14.566  0.1079  0.3516  0.4158
   24TCq2    C5  369   3.605   3.376  14.642  0.7523 -0.1409  0.4022
   24TCq2    C6  370   3.565   3.288  14.734 -0.2685  0.0340 -0.1793
   24TCq2    C7  371   3.632   3.169  14.763  0.4251  0.0702  0.1445
   24TCq2    C8  372   3.449   3.320  14.815  0.6568 -0.3134  0.6098
   24TCq2    O4  373   3.434   3.271  14.926 -0.2705 -0.1982  0.4840
   24TCq2    C9  374   3.777   3.452  14.486 -0.1271  0.1778  0.0585
   24TCq2    O5  375   3.885   3.414  14.430 -0.2877 -0.1095  0.1944
   24TCq2    O6  376   3.733   3.567  14.472 -0.1207 -0.4144  0.4739
   24TCq2    H2  377   3.886   3.235  14.547  0.6604 -0.8715  0.5398
   24TCq2    H3  378   3.561   3.470  14.610  4.0234  0.1923 -3.1725
   24TCq2    H4  379   3.605   3.114  14.853 -2.2269  0.9459 -0.1134
   25TMC2    C1  380   2.539   0.369  11.503 -0.5701 -0.0246  0.4196
   25TMC2    C2  381   2.666   0.331  11.458  0.2354 -0.1284 -0.4313
   25TMC2    C3  382   2.772   0.377  11.513 -0.9790  0.7369  0.8150
   25TMC2    C4  383   2.537   0.454  11.607  0.4857 -0.7947  0.0795
   25TMC2    C5  384   2.648   0.497  11.665 -0.6242 -0.5503 -0.6955
   25TMC2    C6  385   2.772   0.454  11.623 -0.5730 -0.0122  0.0212
   25TMC2     C  386   2.423   0.359  11.412 -0.2836 -0.0306  0.3637
   25TMC2     O  387   2.331   0.444  11.428  0.6089  0.3557  0.0833
   25TMC2     H  388   2.673   0.268  11.370 -2.5906 -2.5305  1.0459
   25TMC2    H1  389   2.447   0.508  11.631 -0.7796 -3.1080  0.5166
   25TMC2    H2  390   2.872   0.472  11.660 -0.8136  1.7940 -0.2065
   25TMC2    C7  391   2.636   0.523  11.807 -0.5300  0.5521 -0.0516
   25TMC2    C8  392   2.887   0.328  11.456  0.0591  0.4435 -0.3373
   25TMC2    O1  393   2.527   0.541  11.863 -0.2573 -0.4447 -0.5278
   25TMC2    O2  394   2.991   0.393  11.464 -0.1985  0.4722 -0.4247
   25TMC2    O5  395   2.888   0.197  11.477  0.6048  0.1934  0.7260
   25TMC2    H5  396   2.801   0.161  11.504  0.0395  0.5617 -0.6368
   26MPD2     C  397   2.163   0.176  11.025 -0.0159  0.1279 -0.4433
   26MPD2    C1  398   2.220   0.072  11.089  0.5207  0.2507  0.4736
   26MPD2    C2  399   2.311   0.096  11.185 -0.9680 -0.3500  0.5429
   26MPD2    C3  400   2.328   0.228  11.232  0.1544 -0.3675 -0.0884
   26MPD2    C4  401   2.265   0.337  11.168 -0.8266 -0.1740  0.1473
   26MPD2    C5  402   2.187   0.310  11.053 -0.9890 -0.3016 -0.2612
   26MPD2     H  403   2.365   0.016  11.235  0.6860  0.5198  0.1448
   26MPD2    H1  404   2.288   0.438  11.200  1.7680 -1.3171  1.9097
   26MPD2    H2  405   2.086   0.158  10.951 -0.3730  0.1493 -0.0813
   26MPD2    H3  406   2.145   0.394  10.998  2.1571  2.0662  0.9250
   26MPD2     N  407   2.425   0.246  11.331  0.5104  0.2663 -0.0095
   26MPD2    H5  408   2.497   0.175  11.341 -0.1628 -0.6020 -1.3699
   26MPD2    N1  409   2.178   4.667  11.048 -0.7375 -0.1717  0.0756
   26MPD2    H7  410   2.105   4.655  10.979 -1.5046  3.4744  0.2268
   27TMC2    C1  411   1.190   2.691  12.373  0.4291  0.1420  0.3070
   27TMC2    C2  412   1.310   2.681  12.306 -0.1656 -0.5826  0.1434
   27TMC2    C3  413   1.375   2.800  12.271 -0.4543 -0.3073  0.5331
   27TMC2    C4  414   1.143   2.814  12.404 -0.0497 -0.0087  0.3809
   27TMC2    C5  415   1.210   2.924  12.369  0.7009  0.3855 -0.3845
   27TMC2    C6  416   1.322   2.923  12.293  0.5392  0.0171 -0.1579
   27TMC2     C  417   1.176   2.581  12.467 -0.6279  0.1522 -0.4866
   27TMC2     O  418   1.232   2.479  12.447 -0.1413 -0.4514 -0.1753
   27TMC2     H  419   1.369   2.590  12.308 -0.7676 -1.0092 -1.3675
   27TMC2    H1  420   1.046   2.833  12.451 -0.5369 -1.0279 -0.2291
   27TMC2    H2  421   1.376   3.011  12.263 -1.7996  1.5536  0.1500
   27TMC2    C7  422   1.146   3.054  12.377 -0.8516  0.0020  0.5124
   27TMC2    C8  423   1.504   2.782  12.210  0.3281  0.6325  0.3628
   27TMC2    O1  424   1.170   3.127  12.281  0.3749  0.4862 -0.1956
   27TMC2    O2  425   1.594   2.855  12.248  0.1382 -0.3475 -0.2435
   27TMC2    O5  426   1.517   2.671  12.139 -0.2289 -0.1562  0.7448
   27TMC2    H5  427   1.437   2.625  12.106  0.3699 -0.4389 -0.3040
   28MPD2     C  428   1.040   2.375  12.907 -0.0497 -0.2458 -0.5628
   28MPD2    C1  429   0.971   2.490  12.899  0.1755 -0.0143 -0.1165
   28MPD2    C2  430   0.990   2.581  12.792  0.2596  0.0802  0.9263
   28MPD2    C3  431   1.083   2.539  12.696  0.6548  0.6489  0.6023
   28MPD2    C4  432   1.152   2.423  12.709 -0.3872  0.3918 -0.1009
   28MPD2    C5  433   1.132   2.341  12.810 -0.3044 -0.7668 -0.1381
   28MPD2     H  434   0.940   2.676  12.783  2.2457  0.9962 -0.4870
   28MPD2    H1  435   1.214   2.380  12.632  0.8958 -0.4452  1.3917
   28MPD2    H2  436   1.026   2.301  12.985  0.9900 -2.2963 -2.3060
   28MPD2    H3  437   1.198   2.255  12.817 -1.5779 -1.5613  2.1791
   28MPD2     N  438   1.108   2.618  12.578  0.0820 -0.0871  0.0926
   28MPD2    H5  439   1.063   2.709  12.576  0.6625  0.2181  0.7467
   28MPD2    N1  440   0.885   2.532  13.007  0.1968 -0.0611 -0.0565
   28MPD2    H7  441   0.876   2.467  13.085  1.4023 -0.9628 -0.6744
   29MPD2     C  442   0.695   0.381  14.140  0.0038 -0.1605  0.4927
   29MPD2    C1  443   0.776   0.302  14.217 -0.1387 -0.2888  0.9482
   29MPD2    C2  444   0.775   0.332  14.354  0.3766 -0.3280  0.0095
   29MPD2    C3  445   0.686   0.423  14.407 -0.3146 -0.6986  0.0146
   29MPD2    C4  446   0.614   0.501  14.325 -0.1044  0.6447 -0.1138
   29MPD2    C5  447   0.615   0.477  14.191  0.1619 -0.1308 -0.6020
   29MPD2     H  448   0.838   0.266  14.413  0.6121 -1.0943 -1.1046
   29MPD2    H1  449   0.549   0.579  14.365  0.4554  0.6751  0.7544
   29MPD2    H2  450   0.707   0.368  14.033  0.8274 -0.5677  0.6344
   29MPD2    H3  451   0.557   0.540  14.125  1.3145  1.7292  0.1815
   29MPD2     N  452   0.673   0.453  14.546 -0.0801  0.5445  0.0255
   29MPD2    H5  453   0.596   0.513  14.574  0.1349  0.8056  0.0571
   29MPD2    N1  454   0.875   0.209  14.168  0.1755 -0.0115 -0.2832
   29MPD2    H7  455   0.928   0.163  14.241 -1.7132 -0.2397  0.9534
   30TCq2    C1  456   0.732   0.391  14.650  0.8958  0.2891 -0.1359
   30TCq2    O2  457   0.816   0.300  14.652  0.0842 -0.0973 -0.1761
   30TCq2    C2  458   0.711   0.465  14.775  0.5527 -0.4254  0.1736
   30TCq2    C3  459   0.773   0.427  14.889 -0.4070  0.1624  0.2770
   30TCq2    C4  460   0.748   0.481  15.012 -1.3452  0.6790 -0.1288
   30TCq2    C5  461   0.673   0.594  15.011  0.1609  0.3347  0.4622
   30TCq2    C6  462   0.614   0.644  14.896  0.1208  0.2321 -0.0693
   30TCq2    C7  463   0.624   0.577  14.778 -0.0251  0.6368  0.0960
   30TCq2    C8  464   0.584   0.786  14.877  0.1473  0.1854  0.0528
   30TCq2    O4  465   0.488   0.812  14.806 -0.0905 -0.0057  0.2399
   30TCq2    C9  466   0.816   0.440  15.133  0.2051 -0.5974  0.3444
   30TCq2    O5  467   0.842   0.535  15.212  0.3853  0.9083  0.0907
   30TCq2    O6  468   0.871   0.329  15.134  0.1610  0.1075  1.0222
   30TCq2    H2  469   0.832   0.336  14.885 -1.5491 -0.5424 -0.3984
   30TCq2    H3  470   0.663   0.641  15.108 -1.2307  2.7508 -0.8524
   30TCq2    H4  471   0.588   0.621  14.686 -0.8036  0.3178  0.2499
   31MPD2     C  472   3.945   4.398  14.653 -0.4606  0.2654  0.2558
   31MPD2    C1  473   3.828   4.344  14.620 -0.3806 -0.0750  0.3809
   31MPD2    C2  474   3.769   4.235  14.683  0.3639 -0.9839  0.2456
   31MPD2    C3  475   3.848   4.176  14.786  0.2379 -0.5082  1.2884
   31MPD2    C4  476   3.970   4.240  14.827  0.5763 -0.1963 -0.2114
   31MPD2    C5  477   4.014   4.354  14.761 -0.5209 -0.3411  0.4490
   31MPD2     H  478   3.671   4.195  14.662  0.9163 -2.0862 -0.2115
   31MPD2    H1  479   4.032   4.204  14.909 -1.0465  0.7853  1.4463
   31MPD2    H2  480   3.989   4.481  14.598  1.7732  0.3219  2.1450
   31MPD2    H3  481   4.108   4.404  14.781 -1.0735  1.0569 -0.4223
   31MPD2     N  482   3.799   4.058  14.851 -0.0015 -0.2279 -0.7041
   31MPD2    H5  483   3.712   4.018  14.819 -0.4897  0.1369  0.1452
   31MPD2    N1  484   3.761   4.406  14.505 -0.1944 -0.8351 -1.0577
   31MPD2    H7  485   3.805   4.491  14.470  0.5598 -0.2491  1.2985
   32TCq2    C1  486   3.859   3.982  14.948  0.1242  0.1181 -0.4365
   32TCq2    O2  487   3.979   3.986  14.980 -0.2822  0.2178  0.0440
   32TCq2    C2  488   3.765   3.879  14.988  0.8464  0.0997 -0.7773
   32TCq2    C3  489   3.635   3.911  14.990  0.2372 -0.7676 -0.0739
   32TCq2    C4  490   3.546   3.811  15.036  0.0136 -0.1831  0.3180
   32TCq2    C5  491   3.587   3.680  15.066  0.2576  0.1561 -0.4887
   32TCq2    C6  492   3.721   3.654  15.045  0.7525  0.1890 -0.0342
   32TCq2    C7  493   3.808   3.752  15.002  0.1423  0.0508 -0.2150
   32TCq2    C8  494   3.760   3.510  15.041  0.1457 -0.2830  0.1027
   32TCq2    O4  495   3.685   3.433  15.097 -0.0923  0.2330 -0.1681
   32TCq2    C9  496   3.403   3.852  15.052  0.1389 -0.1229 -0.2470
   32TCq2    O5  497   3.367   3.967  15.006 -0.0022  0.2134  0.0042
   32TCq2    O6  498   3.327   3.766  15.097  0.4582 -0.8480 -0.0811
   32TCq2    H2  499   3.611   4.016  14.979  1.6637 -1.0161 -5.6478
   32TCq2    H3  500   3.515   3.604  15.095 -1.3954  1.5509 -0.9158
   32TCq2    H4  501   3.913   3.733  14.987  0.1805 -0.0214  0.1576
   33MPD2     C  502   3.102   0.770   9.941  0.3873 -0.5132  0.3139
   33MPD2    C1  503   3.210   0.837   9.993  0.2374  0.5487 -0.0615
   33MPD2    C2  504   3.320   0.854   9.907  0.7296 -0.0954 -0.0139
   33MPD2    C3  505   3.324   0.794   9.782 -0.3729  0.1072  0.0162
   33MPD2    C4  506   3.220   0.714   9.741 -0.7562  0.8154 -0.0055
   33MPD2    C5  507   3.114   0.698   9.819 -0.1101  0.3663  0.1478
   33MPD2     H  508   3.400   0.915   9.948 -0.5508 -0.0730  2.4013
   33MPD2    H1  509   3.228   0.670   9.643 -0.5195 -0.0911  0.4264
   33MPD2    H2  510   3.012   0.761  10.000  0.0468 -1.6995 -0.3691
   33MPD2    H3  511   3.030   0.639   9.783 -0.3011  0.4572  0.4369
   33MPD2     N  512   3.432   0.820   9.686  0.5714 -0.1636 -0.9308
   33MPD2    H5  513   3.415   0.774   9.597  1.9089 -0.7709 -0.8873
   33MPD2    N1  514   3.200   0.886  10.127 -0.4111  1.1906  1.0137
   33MPD2    H7  515   3.117   0.852  10.175 -0.9566  1.3871  0.2046
   34TCq2    C1  516   3.548   0.874   9.718 -0.0262 -0.0938  0.2953
   34TCq2    O2  517   3.599   0.910   9.826  0.2387 -0.9074 -0.2534
   34TCq2    C2  518   3.627   0.913   9.602  0.5166  0.0226 -0.4674
   34TCq2    C3  519   3.582   0.884   9.476  0.2950 -0.0964  0.0131
   34TCq2    C4  520   3.644   0.945   9.374 -0.0642 -1.2132 -0.0980
   34TCq2    C5  521   3.735   1.043   9.388 -0.4339  0.3319 -0.0228
   34TCq2    C6  522   3.766   1.086   9.515  0.0193 -0.3210  0.3303
   34TCq2    C7  523   3.716   1.018   9.628  0.4473  0.5249 -0.4561
   34TCq2    C8  524   3.857   1.208   9.534 -0.4081  0.5800 -0.4418
   34TCq2    O4  525   3.863   1.250   9.650 -0.0605  0.4421  0.1399
   34TCq2    C9  526   3.579   0.921   9.247  0.0282 -0.7155 -0.2362
   34TCq2    O5  527   3.637   0.981   9.150  0.1188 -0.1707  0.6264
   34TCq2    O6  528   3.468   0.858   9.240 -0.4297  0.4645  0.1665
   34TCq2    H2  529   3.514   0.802   9.451  0.9865 -0.7281  0.2051
   34TCq2    H3  530   3.780   1.091   9.302  2.4218  0.4538  1.5469
   34TCq2    H4  531   3.753   1.041   9.728  1.1209 -1.2400 -0.3035
   35MPD2     C  532   0.363   2.938  12.198 -0.2243 -0.3201  0.2280
   35MPD2    C1  533   0.403   2.814  12.167 -0.0855 -0.0682  0.9786
   35MPD2    C2  534   0.377   2.761  12.045  0.0648 -0.3300  0.0009
   35MPD2    C3  535   0.337   2.841  11.941  0.3308 -0.2495  0.9747
   35MPD2    C4  536   0.315   2.975  11.966 -0.2053 -0.4525 -0.0069
   35MPD2    C5  537   0.339   3.026  12.095 -0.0057 -0.0677 -0.7557
   35MPD2     H  538   0.398   2.658  12.018  0.7171  0.1555 -1.3671
   35MPD2    H1  539   0.277   3.049  11.896 -1.8973  0.1379  1.5514
   35MPD2    H2  540   0.366   2.980  12.298  4.4533  0.5956 -0.2738
   35MPD2    H3  541   0.315   3.128  12.123 -0.3987  0.3440 -2.5925
   35MPD2     N  542   0.310   2.789  11.814  0.3563 -0.3395  0.1495
   35MPD2    H5  543   0.309   2.687  11.808  3.6962 -0.4144  0.7190
   35MPD2    N1  544   0.428   2.732  12.274 -0.3895  0.4033  0.2826
   35MPD2    H7  545   0.401   2.768  12.365 -2.1113  0.0753 -0.1075
   36TCq2    C1  546   0.272   2.851  11.702  0.1474 -0.0741  0.1461
   36TCq2    O2  547   0.284   2.973  11.690 -0.2339 -0.5585 -0.0336
   36TCq2    C2  548   0.211   2.785  11.590  0.2231  0.0421 -0.8062
   36TCq2    C3  549   0.203   2.864  11.478 -0.2391 -0.3942 -0.7475
   36TCq2    C4  550   0.134   2.805  11.373  0.5482  0.0768  0.2720
   36TCq2    C5  551   0.089   2.678  11.374 -0.0178  0.2330 -0.2599
   36TCq2    C6  552   0.109   2.600  11.490 -0.5324 -0.3559 -0.3313
   36TCq2    C7  553   0.175   2.650  11.597  0.0485  1.0597  0.0353
   36TCq2    C8  554   0.020   2.488  11.508  0.0267 -0.0382 -0.5787
   36TCq2    O4  555   4.661   2.465  11.422 -0.1755 -0.1403 -0.1487
   36TCq2    C9  556   0.099   2.890  11.258 -0.6327  0.2967 -0.1336
   36TCq2    O5  557   0.072   2.830  11.153 -0.4755  0.9239 -0.1176
   36TCq2    O6  558   0.067   3.013  11.267 -0.3192 -0.5828  0.1813
   36TCq2    H2  559   0.228   2.969  11.470 -0.4323 -0.3056 -0.1758
   36TCq2    H3  560   0.025   2.646  11.292 -0.4136 -1.0042  0.5236
   36TCq2    H4  561   0.201   2.600  11.689 -0.8473  0.5722  0.0179
   37TMC2    C1  562   2.022   2.734  11.456 -0.4074 -0.0362 -0.1735
   37TMC2    C2  563   1.973   2.619  11.395 -0.2773 -0.4069  0.2232
   37TMC2    C3  564   2.053   2.539  11.319 -0.5414 -0.4142 -0.0391
   37TMC2    C4  565   2.159   2.751  11.463  0.0929 -0.1400  0.3242
   37TMC2    C5  566   2.229   2.649  11.414 -0.0092 -0.6772  0.0703
   37TMC2    C6  567   2.186   2.546  11.339 -0.5446  0.5783  0.0062
   37TMC2     C  568   1.943   2.779  11.570 -0.3409  0.4341  0.1139
   37TMC2     O  569   1.826   2.751  11.572 -0.6434  0.2977 -0.2145
   37TMC2     H  570   1.865   2.618  11.383 -0.2267 -0.2519 -0.2336
   37TMC2    H1  571   2.204   2.842  11.502  0.1755  0.1401 -0.4020
   37TMC2    H2  572   2.259   2.474  11.305  0.0138  1.1743 -0.0602
   37TMC2    C7  573   2.364   2.643  11.481  0.1689 -0.0673  0.3154
   37TMC2    C8  574   1.983   2.429  11.248 -0.1893 -0.2900  0.1515
   37TMC2    O1  575   2.404   2.740  11.538  1.1934  0.4114 -0.3936
   37TMC2    O2  576   1.859   2.424  11.238  0.0624  0.0010 -0.2777
   37TMC2    O5  577   2.065   2.363  11.162  0.6694  0.1510 -0.4961
   37TMC2    H5  578   2.152   2.403  11.180 -0.1854  1.7723  0.0250
   38MPD2     C  579   1.901   2.890  12.070 -0.5422  0.3826 -0.0525
   38MPD2    C1  580   2.034   2.909  12.036  0.8442  0.0264  0.2067
   38MPD2    C2  581   2.073   2.890  11.904  0.0413  0.9230  0.1547
   38MPD2    C3  582   1.975   2.851  11.810 -0.1305  0.3840  0.2242
   38MPD2    C4  583   1.845   2.830  11.851 -0.0411 -1.0910  0.9384
   38MPD2    C5  584   1.809   2.847  11.976  0.0763 -0.2206 -0.7176
   38MPD2     H  585   2.178   2.901  11.880 -0.4261  0.4735 -2.1663
   38MPD2    H1  586   1.767   2.808  11.778  1.0261 -0.9662 -0.2229
   38MPD2    H2  587   1.857   2.898  12.169 -3.6013 -0.7947 -1.3288
   38MPD2    H3  588   1.705   2.821  11.995 -0.0514  0.0934 -0.9711
   38MPD2     N  589   2.023   2.832  11.672  0.5451 -0.3671 -0.2664
   38MPD2    H5  590   2.117   2.864  11.651 -0.1800  2.9134  1.4274
   38MPD2    N1  591   2.140   2.941  12.125 -0.1942 -0.1789 -0.3338
   38MPD2    H7  592   2.230   2.955  12.082 -0.0053 -0.2974  0.0212
   39MPD2     C  593   0.600   0.349   2.112  0.2199 -0.5000 -0.3823
   39MPD2    C1  594   0.516   0.457   2.145 -0.3081  0.2100 -0.9202
   39MPD2    C2  595   0.384   0.456   2.094 -0.4255 -0.3211  0.3358
   39MPD2    C3  596   0.337   0.345   2.020 -0.0668  0.3422 -0.1086
   39MPD2    C4  597   0.414   0.237   1.998  0.9108 -0.0407  0.3706
   39MPD2    C5  598   0.545   0.247   2.041 -0.3359 -0.5447 -0.1468
   39MPD2     H  599   0.327   0.544   2.125 -0.0037 -0.3397  1.1710
   39MPD2    H1  600   0.384   0.152   1.937 -0.5342  0.2502  0.6624
   39MPD2    H2  601   0.705   0.353   2.137  0.3539 -0.3030 -0.9950
   39MPD2    H3  602   0.608   0.164   2.014 -0.0597 -0.9273  1.6824
   39MPD2     N  603   0.209   0.341   1.963  0.0273  0.0909 -0.5074
   39MPD2    H5  604   0.182   0.263   1.904  1.4122 -0.2266 -0.7166
   39MPD2    N1  605   0.581   0.578   2.204  0.3208  0.8627 -0.1074
   39MPD2    H7  606   0.681   0.575   2.217  0.2294  2.0126  0.8048
   40TCq2    C1  607   0.521   0.699   2.226  0.4836 -0.4531  0.2326
   40TCq2    O2  608   0.402   0.721   2.236  0.0742 -0.7494 -0.5040
   40TCq2    C2  609   0.615   0.807   2.262  0.6550 -0.6574 -0.3875
   40TCq2    C3  610   0.573   0.924   2.317 -0.5737  0.6744 -0.0011
   40TCq2    C4  611   0.657   1.027   2.332  0.3928 -0.7083 -0.2390
   40TCq2    C5  612   0.793   1.017   2.298  0.2342 -0.2724  0.2848
   40TCq2    C6  613   0.831   0.897   2.243 -0.1009 -0.3891 -0.0239
   40TCq2    C7  614   0.745   0.791   2.226  0.6977  0.9289  0.2368
   40TCq2    C8  615   0.971   0.865   2.201 -0.2386 -0.6824  0.5372
   40TCq2    O4  616   0.996   0.748   2.193 -0.7443  0.0942  0.1913
   40TCq2    C9  617   0.620   1.149   2.396  0.3469 -0.3832 -0.1450
   40TCq2    O5  618   0.718   1.222   2.433  0.3110 -0.1438 -0.5330
   40TCq2    O6  619   0.497   1.185   2.392 -0.0493 -0.0113 -0.3628
   40TCq2    H2  620   0.472   0.918   2.358 -0.4380 -0.0003  0.2380
   40TCq2    H3  621   0.853   1.107   2.302 -1.5600  1.0062 -1.4838
   40TCq2    H4  622   0.785   0.702   2.178 -0.2285  0.2712  0.6916
   41TMC2    C1  623   4.229   2.932  13.696  0.4151 -0.2097  0.2110
   41TMC2    C2  624   4.120   2.990  13.754 -0.3581 -0.7256  0.1986
   41TMC2    C3  625   4.045   3.077  13.671  0.3907  0.1816  0.1687
   41TMC2    C4  626   4.267   2.958  13.564 -0.2880 -0.1415 -0.4737
   41TMC2    C5  627   4.201   3.053  13.499  0.1646  0.1698  0.0049
   41TMC2    C6  628   4.081   3.100  13.543 -0.0845 -0.4477 -0.1954
   41TMC2     C  629   4.327   2.860  13.773  0.2886  0.4547  0.4410
   41TMC2     O  630   4.368   2.754  13.732 -0.6897  0.5121  0.5897
   41TMC2     H  631   4.086   2.963  13.853  1.8551 -0.5496  1.0015
   41TMC2    H1  632   4.358   2.914  13.524 -0.1622 -1.8594  1.6927
   41TMC2    H2  633   4.028   3.163  13.473  1.1555 -0.9310 -1.5721
   41TMC2    C7  634   4.244   3.105  13.360  0.1527  0.7028 -0.6395
   41TMC2    C8  635   3.921   3.141  13.728 -0.1773  0.5006 -0.5114
   41TMC2    O1  636   4.203   3.209  13.321  0.1950 -0.5118 -0.1297
   41TMC2    O2  637   3.900   3.164  13.849 -0.0814 -0.5376  0.0933
   41TMC2    O5  638   3.848   3.180  13.622  0.3631  0.4339 -0.1686
   41TMC2    H5  639   3.882   3.142  13.539  0.4710 -0.4222  0.2706
   42MPD2     C  640   4.490   2.747  13.995 -0.0731 -0.1308 -0.5346
   42MPD2    C1  641   4.403   2.849  14.015 -0.3046 -0.1058 -0.2384
   42MPD2    C2  642   4.381   2.894  14.147  0.3369  0.1652 -0.2573
   42MPD2    C3  643   4.443   2.832  14.252  0.4391 -0.1537 -0.3802
   42MPD2    C4  644   4.518   2.722  14.228 -0.2447  0.5106  0.2953
   42MPD2    C5  645   4.548   2.682  14.103  0.2919 -0.4592  0.2402
   42MPD2     H  646   4.315   2.978  14.164 -0.8926 -0.6810 -0.9060
   42MPD2    H1  647   4.569   2.660  14.301 -0.1008  0.1581 -0.1077
   42MPD2    H2  648   4.518   2.715  13.896  1.9037  0.6217 -0.2166
   42MPD2    H3  649   4.615   2.598  14.093  2.1787  1.1113 -0.3801
   42MPD2     N  650   4.443   2.875  14.389 -1.0072 -0.4001  0.0588
   42MPD2    H5  651   4.508   2.824  14.447 -0.6146  2.6603  2.3455
   42MPD2    N1  652   4.340   2.910  13.903  0.2056 -0.0669  0.1853
   42MPD2    H7  653   4.294   2.997  13.928  2.1705  1.4750 -1.6292
   43MPD2     C  654   1.081   1.737   0.255  0.1198 -0.3314 -0.5165
   43MPD2    C1  655   1.127   1.679   0.376 -0.6071 -0.3860  0.1271
   43MPD2    C2  656   1.143   1.754   0.488 -0.4572 -0.2196 -0.4726
   43MPD2    C3  657   1.124   1.891   0.480 -0.0320 -0.0536  0.6726
   43MPD2    C4  658   1.068   1.942   0.361  0.0109 -0.2785 -0.0952
   43MPD2    C5  659   1.066   1.870   0.249 -0.1207 -0.4550 -0.1754
   43MPD2     H  660   1.174   1.707   0.580 -0.5584 -0.8966 -0.7817
   43MPD2    H1  661   1.037   2.046   0.361  3.7152  0.8289  0.1493
   43MPD2    H2  662   1.064   1.678   0.166  1.5273 -2.7574  0.8113
   43MPD2    H3  663   1.027   1.919   0.160 -1.9905 -2.7520 -0.6128
   43MPD2     N  664   1.127   1.963   0.604  0.4662  0.3340  0.1251
   43MPD2    H5  665   1.060   2.038   0.610 -1.0548 -1.0120 -0.0511
   43MPD2    N1  666   1.136   1.541   0.395  1.2142 -0.8404  0.3318
   43MPD2    H7  667   1.185   1.519   0.481 -0.9030 -2.4496  1.1209
   44TCq2    C1  668   1.208   1.951   1.183  0.0370  0.2937 -0.0753
   44TCq2    O2  669   1.318   1.899   1.179 -0.1651 -0.7181  0.1241
   44TCq2    C2  670   1.163   2.013   1.055 -0.4097  0.7335 -0.1718
   44TCq2    C3  671   1.063   2.107   1.047  0.1071 -0.5762 -0.3167
   44TCq2    C4  672   1.031   2.165   0.929  0.1238 -0.5253  0.1831
   44TCq2    C5  673   1.109   2.130   0.819 -0.1391 -0.2522 -0.2094
   44TCq2    C6  674   1.203   2.035   0.824 -0.2322 -0.2239 -0.3614
   44TCq2    C7  675   1.234   1.970   0.941 -0.7573 -0.4821 -0.7824
   44TCq2    C8  676   1.220   1.948   0.706 -0.3137 -0.3778  0.2880
   44TCq2    O4  677   1.311   1.869   0.709  0.6043  0.2446 -0.2599
   44TCq2    C9  678   0.924   2.260   0.918 -0.5281  0.3647  0.3454
   44TCq2    O5  679   0.894   2.299   0.799 -0.2841 -0.2754 -0.1430
   44TCq2    O6  680   0.849   2.276   1.012 -0.4190 -0.4830  0.3599
   44TCq2    H2  681   1.036   2.165   1.134  0.7534 -0.4420 -0.2094
   44TCq2    H3  682   1.098   2.189   0.729 -0.1963  0.1404  0.0546
   44TCq2    H4  683   1.304   1.886   0.941 -0.2052 -0.0226 -0.4390
   45TMC2    C1  684   2.051   2.336  10.271  0.2819  0.4070 -1.1289
   45TMC2    C2  685   2.174   2.357  10.319 -0.5885 -0.8361  0.4459
   45TMC2    C3  686   2.220   2.481  10.308  0.5265 -0.1276 -0.3673
   45TMC2    C4  687   1.963   2.434  10.240  0.4416  0.7817 -0.2571
   45TMC2    C5  688   2.012   2.557  10.241  0.7593  0.0033 -0.1402
   45TMC2    C6  689   2.142   2.586  10.270  0.1778 -0.5892 -0.4169
   45TMC2     C  690   2.025   2.197  10.235  0.2301  0.4427 -0.7736
   45TMC2     O  691   2.092   2.112  10.292 -0.1393 -0.1817  0.0159
   45TMC2     H  692   2.242   2.274  10.336  0.0002 -0.5800 -0.6951
   45TMC2    H1  693   1.859   2.408  10.224  0.7426  0.3633 -1.5029
   45TMC2    H2  694   2.172   2.690  10.272  0.8495 -0.8164  1.8163
   45TMC2    C7  695   1.925   2.661  10.281  0.0473  0.2376 -0.1391
   45TMC2    C8  696   2.367   2.499  10.319 -0.0061  0.3393  0.0770
   45TMC2    O1  697   1.952   2.723  10.379  0.2032  0.3407  0.0012
   45TMC2    O2  698   2.434   2.428  10.391  0.7303  0.0305 -0.4521
   45TMC2    O5  699   2.411   2.607  10.262 -0.1220  0.3278  0.2219
   45TMC2    H5  700   2.371   2.621  10.173  0.7586  1.1653 -0.0408
   46MPD2     C  701   1.920   1.942  10.094 -0.0297 -0.5342  0.0780
   46MPD2    C1  702   1.872   2.069  10.080  0.0274 -0.6503 -0.0765
   46MPD2    C2  703   1.785   2.097   9.980  0.2242 -0.6460  0.0275
   46MPD2    C3  704   1.729   2.001   9.895  0.0067 -0.5169  0.1486
   46MPD2    C4  705   1.779   1.874   9.907  0.0614  0.4790 -0.2509
   46MPD2    C5  706   1.872   1.846  10.006  0.6755 -0.4468 -0.0069
   46MPD2     H  707   1.753   2.199   9.961  2.3650  0.1399  0.6661
   46MPD2    H1  708   1.737   1.792   9.849  2.6753  0.1767 -1.7237
   46MPD2    H2  709   2.002   1.917  10.161 -0.3661  0.7632  0.9639
   46MPD2    H3  710   1.909   1.745  10.015  1.4894 -0.0863  0.6557
   46MPD2     N  711   1.634   2.046   9.799 -0.2087  0.5788 -0.6802
   46MPD2    H5  712   1.613   2.145   9.800 -1.0772  0.4084 -1.8380
   46MPD2    N1  713   1.918   2.185  10.147 -0.1659 -0.4182 -0.6452
   46MPD2    H7  714   1.877   2.272  10.115 -0.7870 -0.1700  0.8433
   47TMC2    C1  715   3.697   3.393   9.396  0.2360  0.6496  0.4201
   47TMC2    C2  716   3.733   3.275   9.339 -0.2187  0.3034  0.1361
   47TMC2    C3  717   3.634   3.202   9.287  0.3696 -0.5558 -0.4678
   47TMC2    C4  718   3.563   3.440   9.401  0.0557 -0.3111 -0.1065
   47TMC2    C5  719   3.466   3.357   9.349  0.4910  0.0781  0.4794
   47TMC2    C6  720   3.502   3.237   9.293 -0.4465 -0.1131  0.2130
   47TMC2     C  721   3.800   3.460   9.469  0.6754 -0.3385  0.0822
   47TMC2     O  722   3.773   3.574   9.500 -0.1898 -0.0944  0.0369
   47TMC2     H  723   3.836   3.257   9.310 -0.2164  0.0592  0.3047
   47TMC2    H1  724   3.541   3.537   9.443  1.6312 -0.9039  2.0772
   47TMC2    H2  725   3.425   3.175   9.250 -3.3443  2.2581  1.9450
   47TMC2    C7  726   3.324   3.370   9.381  0.0524  0.0429  0.4105
   47TMC2    C8  727   3.659   3.093   9.193  0.0882  0.3424  0.5155
   47TMC2    O1  728   3.265   3.262   9.392  0.7496 -0.0873  0.4175
   47TMC2    O2  729   3.755   3.100   9.123 -0.4662 -0.1094 -0.4200
   47TMC2    O5  730   3.631   2.989   9.267  0.1108 -0.1906 -0.7106
   47TMC2    H5  731   3.581   3.017   9.347  2.4294  2.1604 -0.0841
   48MPD2     C  732   4.034   3.553   9.650 -0.2967  0.1647 -1.0015
   48MPD2    C1  733   4.013   3.429   9.602  0.6419  0.1759 -0.1459
   48MPD2    C2  734   4.101   3.327   9.637  0.1618 -0.4969  0.8161
   48MPD2    C3  735   4.206   3.351   9.720 -0.0430  0.2055 -0.0588
   48MPD2    C4  736   4.234   3.478   9.749  0.1440 -0.1466 -0.7038
   48MPD2    C5  737   4.145   3.583   9.718 -0.2495 -0.0395  0.9304
   48MPD2     H  738   4.078   3.228   9.601  0.4468 -0.7079  1.2256
   48MPD2    H1  739   4.326   3.500   9.801 -0.3945 -1.5000  0.8094
   48MPD2    H2  740   3.967   3.628   9.609  0.3968  1.1451 -0.3403
   48MPD2    H3  741   4.167   3.685   9.749  1.0619  0.3990 -1.3997
   48MPD2     N  742   4.302   3.251   9.748  0.1828  0.1582 -0.5429
   48MPD2    H5  743   4.279   3.165   9.699  1.2284 -0.7563  0.5608
   48MPD2    N1  744   3.904   3.387   9.517 -0.4805 -0.5564  0.2151
   48MPD2    H7  745   3.909   3.288   9.493  1.3213 -0.1337 -1.1293
   49MPD2     C  746   1.782   0.874  10.612  0.4077  0.1676  0.8662
   49MPD2    C1  747   1.741   0.739  10.601 -0.5544 -0.5387  0.3929
   49MPD2    C2  748   1.776   0.644  10.694 -0.2237 -0.0381 -0.7164
   49MPD2    C3  749   1.848   0.689  10.804  0.2300  0.6150 -0.1592
   49MPD2    C4  750   1.887   0.820  10.813 -0.6588 -0.1170 -1.1281
   49MPD2    C5  751   1.854   0.908  10.722  0.3928 -0.1099 -0.4002
   49MPD2     H  752   1.731   0.546  10.686  0.0940 -0.1805 -0.7588
   49MPD2    H1  753   1.927   0.859  10.906  0.3277 -1.9615 -0.7814
   49MPD2    H2  754   1.754   0.940  10.530 -1.1041  2.7345  3.4589
   49MPD2    H3  755   1.885   1.012  10.730 -1.2235  0.3579 -0.2379
   49MPD2     N  756   1.872   0.604  10.915  0.0887  0.0648 -0.0030
   49MPD2    H5  757   1.919   0.650  10.992  0.1390  1.9769 -1.1815
   49MPD2    N1  758   1.660   0.690  10.493  0.1044  0.1441 -0.2954
   49MPD2    H7  759   1.648   0.589  10.496 -1.2566  0.2397 -2.4622
   50TCq2    C1  760   1.610   0.759  10.389  0.0013  0.3754  0.2991
   50TCq2    O2  761   1.634   0.875  10.356  0.4864 -0.1269  0.1563
   50TCq2    C2  762   1.537   0.670  10.297  0.1959 -0.0460 -0.7699
   50TCq2    C3  763   1.518   0.534  10.324 -0.0460  0.1646  0.4877
   50TCq2    C4  764   1.443   0.463  10.235 -0.3408 -0.4780  0.1904
   50TCq2    C5  765   1.381   0.515  10.126 -0.5631 -0.1881 -0.2876
   50TCq2    C6  766   1.386   0.650  10.112  0.0139  0.2693 -0.2351
   50TCq2    C7  767   1.462   0.726  10.194 -0.6751  0.0272 -0.3824
   50TCq2    C8  768   1.311   0.710  10.003 -0.3856 -0.4299 -0.2887
   50TCq2    O4  769   1.328   0.827   9.984  0.2511 -0.0021 -0.6125
   50TCq2    C9  770   1.434   0.317  10.262 -0.3283  0.3853 -0.2111
   50TCq2    O5  771   1.493   0.259  10.363 -0.3439  0.3848 -0.0691
   50TCq2    O6  772   1.351   0.249  10.195  0.4004  0.3979 -0.5503
   50TCq2    H2  773   1.554   0.482  10.411 -0.2700  0.9609  1.0543
   50TCq2    H3  774   1.325   0.446  10.064  0.0740 -1.9387  1.0912
   50TCq2    H4  775   1.468   0.833  10.178 -0.3142  0.2772  1.4178
   51MPD2     C  776   3.745   4.301   1.612  0.0479  0.2713 -0.3175
   51MPD2    C1  777   3.611   4.347   1.604  0.7060  0.4908 -0.9023
   51MPD2    C2  778   3.543   4.402   1.716 -0.2839  0.0243 -0.4169
   51MPD2    C3  779   3.617   4.417   1.834 -0.4204 -0.1373 -0.5060
   51MPD2    C4  780   3.746   4.368   1.844 -0.3299  1.2235  0.5786
   51MPD2    C5  781   3.808   4.311   1.739 -0.1354  0.2294 -0.1350
   51MPD2     H  782   3.442   4.441   1.704 -0.6496  0.0954  2.8130
   51MPD2    H1  783   3.788   4.374   1.944  0.7029 -0.1955  0.2143
   51MPD2    H2  784   3.786   4.233   1.539  0.3934  0.5324 -0.3682
   51MPD2    H3  785   3.908   4.270   1.752 -1.4770 -3.0362 -0.0618
   51MPD2     N  786   3.570   4.477   1.954 -0.1261 -0.0882 -0.0604
   51MPD2    H5  787   3.625   4.468   2.038  0.3225 -2.0598 -0.5568
   51MPD2    N1  788   3.532   4.331   1.487  0.4956  0.0571 -0.6553
   51MPD2    H7  789   3.440   4.372   1.492  0.5819  0.2922 -1.0346
   52TCq2    C1  790   3.452   4.547   1.967  0.5830 -0.0630  0.3987
   52TCq2    O2  791   3.389   4.599   1.874 -0.2055  0.2054 -0.1601
   52TCq2    C2  792   3.427   4.582   2.111 -0.2313  1.0771 -0.1324
   52TCq2    C3  793   3.507   4.535   2.211 -0.3318  0.4458  0.0816
   52TCq2    C4  794   3.522   4.606   2.325  0.3777 -0.0191 -0.6957
   52TCq2    C5  795   3.448   4.719   2.345  0.1132  0.2696  0.3610
   52TCq2    C6  796   3.358   0.037   2.252 -0.4043 -0.0558 -0.9296
   52TCq2    C7  797   3.348   4.690   2.136  0.6193  0.5285 -0.2450
   52TCq2    C8  798   3.244   0.111   2.296  0.1309  0.0095  0.3270
   52TCq2    O4  799   3.181   0.158   2.201  0.2107 -0.6917  0.1568
   52TCq2    C9  800   3.593   4.546   2.435  0.0125  0.3578  0.1804
   52TCq2    O5  801   3.687   4.472   2.409 -0.2591  0.0026 -0.6280
   52TCq2    O6  802   3.578   4.603   2.548 -0.3676 -0.0522 -1.5080
   52TCq2    H2  803   3.535   4.431   2.199 -0.0437  0.5546 -0.1869
   52TCq2    H3  804   3.460   0.039   2.444 -1.6611 -3.3655  2.1774
   52TCq2    H4  805   3.277   4.715   2.058 -1.9105 -1.7523  1.3632
   53TMC2    C1  806   3.007   2.699  11.839  0.2048 -0.3353  0.2574
   53TMC2    C2  807   3.133   2.755  11.839 -0.8085 -0.0262 -0.2101
   53TMC2    C3  808   3.152   2.870  11.912 -0.2648 -0.9463 -1.1205
   53TMC2    C4  809   2.904   2.771  11.905 -0.1255  0.5736 -0.3425
   53TMC2    C5  810   2.933   2.889  11.981  0.7713  0.0550  0.0027
   53TMC2    C6  811   3.063   2.937  11.984 -0.0076 -0.3095 -0.9040
   53TMC2     C  812   2.980   2.597  11.737  0.7634  0.2355 -0.0035
   53TMC2     O  813   3.073   2.525  11.702  0.5750 -0.4598 -0.2837
   53TMC2     H  814   3.210   2.697  11.791 -1.4622 -0.3337 -0.8949
   53TMC2    H1  815   2.802   2.734  11.902 -0.0806  0.4841 -0.7389
   53TMC2    H2  816   3.082   3.040  12.010  2.1318 -1.4140  1.9712
   53TMC2    C7  817   2.833   2.951  12.055  0.0561 -0.0110  0.0270
   53TMC2    C8  818   3.287   2.919  11.911  0.1022 -0.2337 -0.2428
   53TMC2    O1  819   2.721   2.951  12.005  0.6126  0.2789  0.3317
   53TMC2    O2  820   3.361   2.931  11.813 -0.7047  0.2205  0.2502
   53TMC2    O5  821   3.311   2.959  12.037  0.1764 -0.3326  0.2322
   53TMC2    H5  822   3.248   2.920  12.101 -2.5708 -1.2508 -3.0326
   54MPD2     C  823   2.828   2.400  11.569  0.1200 -0.7757 -0.0435
   54MPD2    C1  824   2.775   2.519  11.616 -0.8996 -0.1570  0.3371
   54MPD2    C2  825   2.646   2.556  11.583 -0.6303  0.1144  0.3884
   54MPD2    C3  826   2.561   2.483  11.503 -0.1587 -0.3083  0.7294
   54MPD2    C4  827   2.616   2.366  11.450  0.6019  0.0973 -0.0583
   54MPD2    C5  828   2.745   2.329  11.491  0.0432 -0.0382 -0.2809
   54MPD2     H  829   2.614   2.651  11.624  0.7642  0.9248 -0.3853
   54MPD2    H1  830   2.565   2.309  11.373  3.6523  0.3643 -2.2578
   54MPD2    H2  831   2.930   2.367  11.581 -1.0520 -3.2287  3.0907
   54MPD2    H3  832   2.784   2.236  11.452 -0.8004  0.2512 -1.7949
   54MPD2     N  833   2.426   2.522  11.458 -0.1724 -0.3204 -0.0123
   54MPD2    H5  834   2.372   2.452  11.407 -0.1281  0.5393 -1.2302
   54MPD2    N1  835   2.847   2.610  11.696 -0.0250 -0.0505 -0.0637
   54MPD2    H7  836   2.808   2.701  11.717 -0.0940 -0.9740  3.7426
   55MPD2     C  837   3.842   4.234  17.652  0.6038 -0.1795  0.4652
   55MPD2    C1  838   3.872   4.368  17.664  0.2657 -0.3305  0.5302
   55MPD2    C2  839   3.785   4.459  17.611 -0.4220 -0.5295 -0.5174
   55MPD2    C3  840   3.657   4.424  17.574  0.6834  0.2537  0.3205
   55MPD2    C4  841   3.619   4.290  17.579  0.6122  0.9129  0.3704
   55MPD2    C5  842   3.710   4.196  17.617  0.0029  0.0546 -0.1386
   55MPD2     H  843   3.809   4.565  17.608 -0.2434 -0.4973  1.5550
   55MPD2    H1  844   3.518   4.255  17.561  1.2729  0.2142 -2.0071
   55MPD2    H2  845   3.908   4.150  17.671 -0.1368 -1.2484 -1.6757
   55MPD2    H3  846   3.675   4.093  17.614  0.0507 -0.0188  1.4023
   55MPD2     N  847   3.564   4.523  17.535  0.5517  0.6745  0.2757
   55MPD2    H5  848   3.593   4.618  17.555  2.0498  0.6652 -1.8463
   55MPD2    N1  849   4.000   4.402   0.022  0.2546 -0.2331  0.1831
   55MPD2    H7  850   4.056   4.326   0.060 -1.8212 -1.1258  1.4891
   56TCq2    C1  851   4.048   4.532   0.023 -0.5437 -0.1528  0.1952
   56TCq2    O2  852   3.977   4.635   0.009  0.2328  0.0695  0.3803
   56TCq2    C2  853   4.176   4.544   0.101 -0.0669 -0.5416 -0.4322
   56TCq2    C3  854   4.274   4.441   0.102 -0.1411 -0.7617 -0.2082
   56TCq2    C4  855   4.375   4.461   0.187  0.1573 -0.0263 -0.2964
   56TCq2    C5  856   4.400   4.580   0.249 -0.6931 -0.5921 -0.6315
   56TCq2    C6  857   4.314   4.685   0.225  0.1297 -0.0654  0.2406
   56TCq2    C7  858   4.202   4.668   0.153  0.1885 -0.2218 -0.0932
   56TCq2    C8  859   4.315   0.076   0.314  0.2061  0.1673  0.2768
   56TCq2    O4  860   4.422   0.106   0.356  0.0173 -0.3429 -0.3991
   56TCq2    C9  861   4.466   4.348   0.212 -0.9195 -0.1860  0.3459
   56TCq2    O5  862   4.560   4.359   0.299 -0.1547  0.2860 -0.1540
   56TCq2    O6  863   4.445   4.243   0.146 -0.1574  0.3384 -0.0668
   56TCq2    H2  864   4.259   4.351   0.044 -0.3857 -0.2446 -0.9461
   56TCq2    H3  865   4.480   4.582   0.323 -0.1177  0.2339 -1.2755
   56TCq2    H4  866   4.139   0.028   0.125  0.7220 -0.3305 -1.6042
   57TMC2    C1  867   2.916   1.920  14.015 -0.3048  0.8230 -0.3019
   57TMC2    C2  868   3.031   1.915  14.094  0.1712 -0.5265  0.0531
   57TMC2    C3  869   3.154   1.915  14.026 -0.6176 -0.4635  0.2711
   57TMC2    C4  870   2.929   1.930  13.878  0.5908  0.0953  0.0102
   57TMC2    C5  871   3.053   1.933  13.824  0.9044  0.5507 -0.2647
   57TMC2    C6  872   3.170   1.927  13.895 -0.2445 -0.5305 -0.0136
   57TMC2     C  873   2.787   1.912  14.078 -0.2716 -0.6729  0.7424
   57TMC2     O  874   2.778   1.941  14.195  0.0765  0.3733  0.3011
   57TMC2     H  875   3.022   1.904  14.201  2.5554  1.6790  0.4584
   57TMC2    H1  876   2.842   1.920  13.814 -0.3029 -1.9298  1.5347
   57TMC2    H2  877   3.261   1.964  13.850 -1.3729  0.5058 -1.4537
   57TMC2    C7  878   3.065   1.954  13.679 -0.1193 -0.1398  0.0297
   57TMC2    C8  879   3.270   1.896  14.107  0.0870 -0.6801  0.4768
   57TMC2    O1  880   2.980   2.027  13.630 -0.5006 -1.0398 -0.0938
   57TMC2    O2  881   3.280   1.924  14.229  0.8741  0.0083  0.3469
   57TMC2    O5  882   3.346   1.811  14.041 -0.7935  0.0232 -0.3236
   57TMC2    H5  883   3.315   1.808  13.948 -0.8753  0.1864 -0.3023
   58MPD2     C  884   2.273   1.892  14.097  0.3320 -0.5643  0.2705
   58MPD2    C1  885   2.365   1.926  14.188 -0.5514 -0.1141  0.5167
   58MPD2    C2  886   2.498   1.928  14.163 -0.0205  0.4106  0.5341
   58MPD2    C3  887   2.545   1.886  14.036 -0.2036 -0.7096  0.4857
   58MPD2    C4  888   2.453   1.825  13.947 -0.4385 -0.7043  0.3040
   58MPD2    C5  889   2.317   1.848  13.975  1.1204  0.7783  0.1927
   58MPD2     H  890   2.563   1.957  14.245 -0.0148  1.1073  0.2799
   58MPD2    H1  891   2.476   1.787  13.848  0.6210 -1.4215  0.8317
   58MPD2    H2  892   2.165   1.884  14.106  0.4392 -2.5069  0.0356
   58MPD2    H3  893   2.246   1.814  13.900  1.7673  2.9629 -1.3933
   58MPD2     N  894   2.678   1.882  13.999  0.2920 -0.4728 -0.1678
   58MPD2    H5  895   2.701   1.840  13.910 -0.6656  0.2068 -0.7291
   58MPD2    N1  896   2.317   1.968  14.316  0.1391 -0.7668  0.4291
   58MPD2    H7  897   2.387   2.008  14.379  0.5135  0.4535 -0.7507
   59MPD2     C  898   0.899   2.003  13.686  0.3995 -0.1072  0.5964
   59MPD2    C1  899   0.973   2.034  13.570  0.1378  0.2443 -0.4106
   59MPD2    C2  900   1.053   2.147  13.570 -0.6741 -0.4225 -0.1551
   59MPD2    C3  901   1.061   2.223  13.689  0.0403 -0.1316  0.2418
   59MPD2    C4  902   0.994   2.195  13.799  0.3022 -0.5630  1.0800
   59MPD2    C5  903   0.910   2.084  13.792 -0.1266  0.1698 -0.1210
   59MPD2     H  904   1.105   2.175  13.479  0.5391  0.7508  0.8938
   59MPD2    H1  905   0.994   2.259  13.886  1.0185 -0.1024  0.7382
   59MPD2    H2  906   0.835   1.915  13.688  1.2248 -0.7552 -1.6366
   59MPD2    H3  907   0.845   2.069  13.878  0.6726 -0.9523  0.2904
   59MPD2     N  908   1.136   2.345  13.689 -0.0496  0.2424  0.0467
   59MPD2    H5  909   1.095   2.421  13.744 -0.0042  1.7174 -1.9539
   59MPD2    N1  910   0.966   1.962  13.450  0.4169 -0.2936 -0.2132
   59MPD2    H7  911   1.022   1.987  13.369 -1.4784  0.5124 -1.2898
   60TCq2    C1  912   0.885   1.851  13.430 -0.3068 -0.1647 -0.0045
   60TCq2    O2  913   0.828   1.776  13.508  0.5513  0.0857  0.2604
   60TCq2    C2  914   0.870   1.817  13.284  0.4857 -0.3572 -0.0267
   60TCq2    C3  915   0.752   1.754  13.259 -0.0671 -0.0889 -0.1520
   60TCq2    C4  916   0.702   1.753  13.133  0.1248 -0.4541  0.0885
   60TCq2    C5  917   0.760   1.809  13.027 -0.2731  0.1848 -0.0339
   60TCq2    C6  918   0.886   1.866  13.052  0.0809  0.3281  0.5742
   60TCq2    C7  919   0.938   1.872  13.179  0.4969  0.1010  0.2936
   60TCq2    C8  920   0.958   1.919  12.935 -0.0217 -0.0967 -0.6802
   60TCq2    O4  921   1.075   1.947  12.951 -0.2008 -0.1917  0.4927
   60TCq2    C9  922   0.588   1.670  13.112 -0.4584 -0.1041 -0.1740
   60TCq2    O5  923   0.564   1.627  12.997  0.3083  0.4652 -0.1885
   60TCq2    O6  924   0.523   1.636  13.217 -0.4667 -0.0892 -0.6638
   60TCq2    H2  925   0.688   1.720  13.340  0.4427 -0.4839  0.0830
   60TCq2    H3  926   0.700   1.808  12.937 -2.7290  0.2072  1.6071
   60TCq2    H4  927   1.019   1.944  13.190  0.4772  0.0330  0.8972
   61MPD2     C  928   4.681   3.237  14.407 -0.4052  0.6980  0.5235
   61MPD2    C1  929   0.059   3.295  14.472 -0.1844  0.3351 -0.6104
   61MPD2    C2  930   0.116   3.412  14.418 -0.1211 -0.2194  0.6718
   61MPD2    C3  931   0.070   3.459  14.293 -0.0176  0.3701 -0.3961
   61MPD2    C4  932   4.692   3.396  14.230  0.3229  0.0614  0.6220
   61MPD2    C5  933   4.644   3.275  14.280  0.6227  0.1405  0.0206
   61MPD2     H  934   0.194   3.455  14.480  0.2624  1.9317 -1.3302
   61MPD2    H1  935   4.660   3.430  14.132 -2.3640  1.5468  2.0239
   61MPD2    H2  936   4.644   3.141  14.442  1.0428  0.8927  2.5963
   61MPD2    H3  937   4.562   3.229  14.226  1.6779 -1.6512 -0.0612
   61MPD2     N  938   0.120   3.579  14.237 -0.3082 -0.5506  0.2038
   61MPD2    H5  939   0.050   3.624  14.179  0.7745  0.9307  0.0741
   61MPD2    N1  940   0.100   3.262  14.600 -0.7666 -0.1046 -0.1360
   61MPD2    H7  941   0.177   3.317  14.635 -2.4314  3.1720 -1.5528
   62TCq2    C1  942   0.054   3.158  14.679  0.3092  0.6796  0.2382
   62TCq2    O2  943   4.723   3.052  14.649 -0.3068 -0.1666  0.0701
   62TCq2    C2  944   0.106   3.179  14.814  0.3758 -0.8087 -0.2757
   62TCq2    C3  945   0.117   3.078  14.896 -0.1419 -0.3959  0.4083
   62TCq2    C4  946   0.136   3.098  15.033  0.4176 -0.5571  0.2494
   62TCq2    C5  947   0.153   3.232  15.072  0.3996  0.7924  0.4229
   62TCq2    C6  948   0.148   3.330  14.985  0.0462 -0.0873  0.6662
   62TCq2    C7  949   0.120   3.311  14.857  0.7117  0.2852 -0.1041
   62TCq2    C8  950   0.153   3.472  15.024  0.1687 -0.0617  0.4200
   62TCq2    O4  951   0.183   3.562  14.943  0.0601 -0.3928 -0.2353
   62TCq2    C9  952   0.151   2.986  15.117  0.1429  0.1709 -0.8252
   62TCq2    O5  953   0.101   2.876  15.076 -0.0648 -0.7496  0.3137
   62TCq2    O6  954   0.202   3.006  15.232  0.0627  0.4678 -0.1828
   62TCq2    H2  955   0.112   2.982  14.846 -0.1699 -0.3883  0.3968
   62TCq2    H3  956   0.172   3.247  15.178  0.6879 -1.6662  0.7128
   62TCq2    H4  957   0.096   3.402  14.805  2.9349 -0.4142 -2.3289
   63TMC2    C1  958   4.020   2.857  10.519  0.6693  0.8907 -0.7552
   63TMC2    C2  959   4.084   2.869  10.635 -0.1314  0.5136 -0.1664
   63TMC2    C3  960   4.135   2.992  10.660 -0.0011  0.3944  0.2545
   63TMC2    C4  961   4.006   2.965  10.429 -0.5654  0.0732 -0.1304
   63TMC2    C5  962   4.060   3.084  10.460 -0.2234 -0.2251  0.6035
   63TMC2    C6  963   4.128   3.098  10.576  0.1881 -0.4410  0.0256
   63TMC2     C  964   3.958   2.734  10.481 -0.4430 -0.7527  0.6517
   63TMC2     O  965   3.895   2.734  10.373  0.3436  0.1734 -0.0154
   63TMC2     H  966   4.089   2.790  10.709 -0.1750  1.6134  1.0114
   63TMC2    H1  967   3.947   2.951  10.339 -0.8615 -0.3498  0.1316
   63TMC2    H2  968   4.180   3.188  10.604 -2.0483  0.5670  0.9867
   63TMC2    C7  969   4.006   3.191  10.378  0.9271  1.1036 -0.3134
   63TMC2    C8  970   4.212   3.020  10.777  0.0311 -0.5172 -0.0709
   63TMC2    O1  971   3.889   3.194  10.359  0.1025  0.3303  0.2127
   63TMC2    O2  972   4.321   3.074  10.776 -0.7688  0.1838  0.0384
   63TMC2    O5  973   4.170   2.941  10.881  0.4580 -0.0744  0.1443
   63TMC2    H5  974   4.077   2.913  10.870 -0.1376  2.7005 -1.9423
   64MPD2     C  975   3.861   2.241  10.520  0.4958 -0.0684  0.5481
   64MPD2    C1  976   3.991   2.259  10.572 -0.0179 -0.2944  0.2452
   64MPD2    C2  977   4.039   2.392  10.588 -0.2703 -0.0837 -0.0301
   64MPD2    C3  978   3.966   2.491  10.535 -0.3448  0.7826 -0.5968
   64MPD2    C4  979   3.847   2.470  10.476  0.1797 -0.2620  0.5860
   64MPD2    C5  980   3.793   2.349  10.468  0.0812  0.1272 -0.3514
   64MPD2     H  981   4.124   2.418  10.649  0.6347 -1.8380 -0.5407
   64MPD2    H1  982   3.784   2.556  10.456 -0.1329 -0.4139  0.9047
   64MPD2    H2  983   3.816   2.142  10.513  1.3506 -0.2545 -2.5147
   64MPD2    H3  984   3.692   2.337  10.429 -0.6041  0.7448  1.2440
   64MPD2     N  985   4.013   2.623  10.549 -0.2759  0.3465 -0.1718
   64MPD2    H5  986   4.091   2.637  10.612 -0.8122  1.8230  0.1761
   64MPD2    N1  987   4.070   2.150  10.620 -0.2283 -0.4221 -0.0487
   64MPD2    H7  988   4.145   2.165  10.687  0.5540  1.6673 -1.3933
   65MPD2     C  989   0.450   2.781  15.910 -0.0613  0.2039 -0.0433
   65MPD2    C1  990   0.412   2.761  15.781 -0.0479  0.1120  0.8226
   65MPD2    C2  991   0.483   2.677  15.700  0.4813  0.1708  0.1797
   65MPD2    C3  992   0.594   2.611  15.747 -0.7109 -0.2155  0.1244
   65MPD2    C4  993   0.628   2.632  15.879  0.3291  0.5027  0.6559
   65MPD2    C5  994   0.564   2.725  15.959  0.0221 -0.1454  0.1845
   65MPD2     H  995   0.447   2.665  15.599  0.3060  1.6364  0.0752
   65MPD2    H1  996   0.702   2.571  15.929 -0.2740  0.3049  1.3026
   65MPD2    H2  997   0.399   2.840  15.985  0.7310  0.1361  0.5437
   65MPD2    H3  998   0.598   2.744  16.060  2.4591  1.0300 -0.8652
   65MPD2     N  999   0.668   2.515  15.673  0.2206 -0.2900  1.1852
   65MPD2    H5 1000   0.746   2.471  15.720  1.0863 -0.3701 -0.3277
   65MPD2    N1 1001   0.310   2.837  15.717  0.1533  0.3423 -0.0106
   65MPD2    H7 1002   0.290   2.812  15.621 -0.4546 -1.3209  0.5437
   66TCq2    C1 1003   0.240   2.937  15.769 -0.0271 -0.4244  0.3793
   66TCq2    O2 1004   0.266   3.005  15.868  0.1467 -0.1560  0.0474
   66TCq2    C2 1005   0.133   2.977  15.674 -0.0503  0.4680 -0.1861
   66TCq2    C3 1006   0.084   2.896  15.571  0.3365  0.9541  0.1142
   66TCq2    C4 1007   4.706   2.940  15.487 -0.7459  0.1984  0.8631
   66TCq2    C5 1008   4.648   3.066  15.519  0.4214 -0.3802 -0.3264
   66TCq2    C6 1009   4.695   3.133  15.622  0.1019  0.2667 -0.0061
   66TCq2    C7 1010   0.071   3.094  15.705  0.1699 -0.3348 -0.0060
   66TCq2    C8 1011   4.612   3.249  15.670 -0.2644  0.4225  0.8052
   66TCq2    O4 1012   4.496   3.251  15.638  0.2176  0.1963  0.1624
   66TCq2    C9 1013   4.659   2.868  15.372 -0.1524  0.0060 -0.1712
   66TCq2    O5 1014   4.555   2.902  15.311  0.6698  0.3564 -0.8653
   66TCq2    O6 1015   0.004   2.772  15.336 -0.0914 -0.6508  0.4754
   66TCq2    H2 1016   0.123   2.798  15.545  2.5988  1.6562  0.8372
   66TCq2    H3 1017   4.569   3.108  15.458 -1.0334 -0.9570  1.1944
   66TCq2    H4 1018   0.089   3.143  15.800 -1.6912 -1.0313  0.6977
   67MPD2     C 1019   0.667   2.335  13.993  0.3070 -0.9229 -0.5109
   67MPD2    C1 1020   0.623   2.394  14.113  0.6161 -0.6281  0.9413
   67MPD2    C2 1021   0.488   2.386  14.149 -0.3998  0.4835 -0.1442
   67MPD2    C3 1022   0.394   2.326  14.064 -0.1773 -0.4420 -0.6924
   67MPD2    C4 1023   0.443   2.281  13.943  0.1090 -0.0643 -0.3355
   67MPD2    C5 1024   0.576   2.272  13.912  0.2401  0.2550  0.0776
   67MPD2     H 1025   0.450   2.415  14.247 -1.2424 -1.0233 -0.0156
   67MPD2    H1 1026   0.368   2.244  13.873 -1.1948 -1.3825  1.7512
   67MPD2    H2 1027   0.771   2.333  13.962 -0.0603  0.4852 -1.8124
   67MPD2    H3 1028   0.608   2.243  13.812  2.3969 -0.6672  1.0419
   67MPD2     N 1029   0.258   2.317  14.103 -0.3666 -0.1946  0.7362
   67MPD2    H5 1030   0.202   2.248  14.053  1.4262 -0.3655 -1.0525
   67MPD2    N1 1031   0.711   2.464  14.205 -0.2919 -0.1673  0.5062
   67MPD2    H7 1032   0.670   2.498  14.292  1.0870 -0.0969  1.1269
   68TCq2    C1 1033   0.848   2.487  14.184  0.0242  0.4821 -0.0554
   68TCq2    O2 1034   0.931   2.450  14.101  0.2307  0.5500  0.1681
   68TCq2    C2 1035   0.900   2.564  14.296 -0.6913 -0.2744 -0.0351
   68TCq2    C3 1036   0.829   2.652  14.365 -0.0307 -0.0247 -0.1575
   68TCq2    C4 1037   0.898   2.702  14.475  0.1080  0.3055  0.2746
   68TCq2    C5 1038   1.026   2.664  14.523 -0.4034  0.4759  0.4377
   68TCq2    C6 1039   1.086   2.569  14.446 -0.3969 -1.1779 -0.3843
   68TCq2    C7 1040   1.026   2.520  14.335 -0.0494 -0.1042 -0.4064
   68TCq2    C8 1041   1.190   2.492  14.506 -0.6428  0.3852  0.4021
   68TCq2    O4 1042   1.253   2.407  14.445 -0.4264  0.3439  0.0811
   68TCq2    C9 1043   0.830   2.800  14.555 -0.3023 -0.7453  0.2489
   68TCq2    O5 1044   0.706   2.789  14.566 -0.0793  0.2704  0.1760
   68TCq2    O6 1045   0.892   2.877  14.631 -0.3633 -0.0418  0.3226
   68TCq2    H2 1046   0.732   2.687  14.333  0.3570  1.1428 -0.0393
   68TCq2    H3 1047   1.076   2.728  14.595 -0.5519  2.3715 -1.1339
   68TCq2    H4 1048   1.084   2.446  14.281 -0.5258 -0.0852 -0.9486
   69TMC2    C1 1049   2.690   3.533  12.541  0.0060  0.4437 -0.2000
   69TMC2    C2 1050   2.575   3.573  12.490 -0.1277 -0.3404 -0.0810
   69TMC2    C3 1051   2.565   3.593  12.353  0.0099  0.0792 -0.1980
   69TMC2    C4 1052   2.796   3.495  12.464  0.4360 -0.0675  0.6786
   69TMC2    C5 1053   2.780   3.497  12.333  0.9955 -0.8348 -0.5853
   69TMC2    C6 1054   2.663   3.544  12.272  0.3139  0.3707 -0.0429
   69TMC2     C 1055   2.688   3.474  12.674 -0.0569 -0.1291 -0.0315
   69TMC2     O 1056   2.790   3.426  12.721  0.1203 -0.2482 -0.0579
   69TMC2     H 1057   2.490   3.606  12.548 -0.2676 -2.9133  1.1836
   69TMC2    H1 1058   2.893   3.475  12.507  0.6518 -0.2975  0.0860
   69TMC2    H2 1059   2.641   3.553  12.167  0.8195  1.2261 -0.0732
   69TMC2    C7 1060   2.893   3.439  12.254  0.4691  0.0553  0.1096
   69TMC2    C8 1061   2.450   3.666  12.302  0.1729  0.2412  0.5050
   69TMC2    O1 1062   3.000   3.429  12.312  0.6518  0.3666  0.4949
   69TMC2    O2 1063   2.351   3.684  12.363 -0.2426  0.3923  0.3624
   69TMC2    O5 1064   2.492   3.760  12.209 -0.5161 -0.7229 -0.6620
   69TMC2    H5 1065   2.579   3.738  12.171  0.9750  1.9602  1.2336
   70MPD2     C 1066   2.414   3.472  12.921 -0.7579  0.2105  0.1044
   70MPD2    C1 1067   2.530   3.427  12.854  0.2844  0.6834  0.5217
   70MPD2    C2 1068   2.598   3.320  12.900  0.0048  0.4363 -0.0096
   70MPD2    C3 1069   2.530   3.241  12.991  0.3023 -0.8517 -0.5466
   70MPD2    C4 1070   2.410   3.279  13.052  0.6282 -0.2595  0.5609
   70MPD2    C5 1071   2.352   3.397  13.016 -0.2690 -0.4042 -0.0558
   70MPD2     H 1072   2.692   3.282  12.861  1.1457  3.0366  0.2321
   70MPD2    H1 1073   2.365   3.224  13.134 -0.9773  0.6888  0.3276
   70MPD2    H2 1074   2.381   3.567  12.882  0.5368  1.1997  1.4109
   70MPD2    H3 1075   2.253   3.424  13.051 -1.5505 -2.6992 -1.8491
   70MPD2     N 1076   2.596   3.114  13.027  0.8324 -0.8416  0.1872
   70MPD2    H5 1077   2.687   3.095  12.986  2.0253  0.2229  2.3569
   70MPD2    N1 1078   2.572   3.502  12.740 -0.0567  0.0846 -0.0423
   70MPD2    H7 1079   2.516   3.584  12.719 -2.6389 -1.8059 -0.5580
   71TMC2    C1 1080   4.270   0.174   2.254  0.3491 -0.0510 -0.7872
   71TMC2    C2 1081   4.331   0.252   2.342 -0.2503  0.0935 -0.1541
   71TMC2    C3 1082   4.255   0.319   2.435 -0.3809 -0.2960 -0.3148
   71TMC2    C4 1083   4.137   0.186   2.234 -0.4669  0.1724 -0.0676
   71TMC2    C5 1084   4.063   0.257   2.323  0.3853  0.0941  0.2940
   71TMC2    C6 1085   4.116   0.313   2.434 -0.4081  0.6930  0.5097
   71TMC2     C 1086   4.353   0.110   2.145 -0.2286 -0.5807  0.0117
   71TMC2     O 1087   4.467   0.148   2.132 -0.1430  0.7352  0.0041
   71TMC2     H 1088   4.437   0.237   2.359  0.0963  0.9991 -1.4807
   71TMC2    H1 1089   4.105   0.155   2.136  0.9382 -0.2750 -0.3935
   71TMC2    H2 1090   4.046   0.359   2.503  1.3750 -1.0895  3.4835
   71TMC2    C7 1091   3.918   0.264   2.302 -0.0907  0.0322  0.0110
   71TMC2    C8 1092   4.335   0.394   2.532 -0.6700  0.1869 -0.7933
   71TMC2    O1 1093   3.861   0.325   2.389  0.2075 -0.0638  0.1421
   71TMC2    O2 1094   4.444   0.434   2.500  0.8880 -0.3741 -0.4100
   71TMC2    O5 1095   4.291   0.384   2.660 -0.4471  0.5232  0.3513
   71TMC2    H5 1096   4.201   0.345   2.670  0.2357 -1.0379  0.3308
   72MPD2     C 1097   4.386   4.534   1.723  0.1769  0.1311 -0.7022
   72MPD2    C1 1098   4.480   4.618   1.773 -0.6470  0.5715  0.4563
   72MPD2    C2 1099   4.452   4.682   1.898 -0.4846  0.5175 -0.6061
   72MPD2    C3 1100   4.331   4.672   1.963  0.1365 -0.0537 -0.1889
   72MPD2    C4 1101   4.235   4.589   1.899 -0.2587  0.0786  0.0116
   72MPD2    C5 1102   4.262   4.523   1.783  0.1684 -0.4666 -0.4568
   72MPD2     H 1103   4.532   0.018   1.942 -0.0490  0.2566 -1.0401
   72MPD2    H1 1104   4.133   4.584   1.936  0.2214 -1.5698  1.1329
   72MPD2    H2 1105   4.394   4.473   1.634  0.5202 -1.4061  0.3809
   72MPD2    H3 1106   4.181   4.468   1.738 -0.1503 -0.4405  0.0963
   72MPD2     N 1107   4.285   0.009   2.082 -0.5764 -0.2851 -0.1175
   72MPD2    H5 1108   4.202   4.696   2.128 -0.8075 -1.2503 -1.3107
   72MPD2    N1 1109   4.621   4.612   1.733  0.7073  0.0521  0.2623
   72MPD2    H7 1110   4.692   4.646   1.797 -1.7104  3.0744  1.3182
   73TMC2    C1 1111   4.645   1.151  14.469 -0.7255 -0.1039  0.0061
   73TMC2    C2 1112   4.600   1.205  14.594  0.0854  0.2927  0.0198
   73TMC2    C3 1113   4.689   1.212  14.699 -0.3317 -0.5952  0.0448
   73TMC2    C4 1114   0.052   1.100  14.469  0.1169 -0.0800  0.4339
   73TMC2    C5 1115   0.135   1.115  14.579 -0.0401 -0.3634 -0.8021
   73TMC2    C6 1116   0.091   1.152  14.695 -0.3847 -0.2867  0.3590
   73TMC2     C 1117   4.623   1.243  14.352 -0.5447  0.4925  0.0332
   73TMC2     O 1118   4.720   1.308  14.341  0.0804 -0.3241  0.0927
   73TMC2     H 1119   4.506   1.260  14.596 -0.2591 -0.3114  0.4135
   73TMC2    H1 1120   0.092   1.074  14.371 -0.9197 -0.4114  0.1011
   73TMC2    H2 1121   0.154   1.153  14.783 -1.7135  2.4206  1.2784
   73TMC2    C7 1122   0.270   1.138  14.533  0.0274 -0.3737 -0.7122
   73TMC2    C8 1123   4.634   1.242  14.830  0.0618 -0.1614  0.2928
   73TMC2    O1 1124   0.363   1.081  14.587  0.6852  0.2764 -0.0180
   73TMC2    O2 1125   4.515   1.249  14.857 -0.2264  0.4420 -0.1946
   73TMC2    O5 1126   0.003   1.326  14.889 -0.4771 -0.1165  0.2011
   73TMC2    H5 1127   0.084   1.330  14.833  0.0466  0.9549  1.0594
   74MPD2     C 1128   4.412   1.438  13.930  0.4205  0.5991 -0.0081
   74MPD2    C1 1129   4.535   1.452  13.988  0.7262 -0.2445  0.3280
   74MPD2    C2 1130   4.566   1.389  14.116  0.6246  0.5240 -0.1045
   74MPD2    C3 1131   4.472   1.313  14.169 -0.0104 -0.5540  0.4380
   74MPD2    C4 1132   4.341   1.303  14.118  0.8552 -0.5807 -0.0029
   74MPD2    C5 1133   4.318   1.364  13.999 -0.0022 -0.3689  0.4502
   74MPD2     H 1134   4.669   1.386  14.149  1.1589  0.2601 -1.7591
   74MPD2    H1 1135   4.270   1.233  14.162  0.1300 -1.2450 -2.1898
   74MPD2    H2 1136   4.375   1.479  13.836  1.5041 -0.4908 -0.9120
   74MPD2    H3 1137   4.221   1.345  13.956 -0.1131  0.1402  0.4751
   74MPD2     N 1138   4.494   1.243  14.291 -0.1178 -0.2867 -0.3113
   74MPD2    H5 1139   4.422   1.182  14.328 -0.2658  0.2713  0.3048
   74MPD2    N1 1140   4.628   1.521  13.911 -0.7533  0.3789 -0.3547
   74MPD2    H7 1141   4.597   1.554  13.820  1.3527 -0.3142 -1.3439
   75TCq2    C1 1142   0.198   2.404  14.188 -0.6360 -0.5311  0.0684
   75TCq2    O2 1143   0.238   2.512  14.229 -0.3697  0.3222  0.0069
   75TCq2    C2 1144   0.054   2.374  14.218  0.3010  0.1518 -0.0864
   75TCq2    C3 1145   4.722   2.430  14.328  0.7515  0.0037 -0.0719
   75TCq2    C4 1146   4.587   2.406  14.346  0.6921  0.1592  1.1987
   75TCq2    C5 1147   4.507   2.342  14.263  0.1062 -0.4341  0.3628
   75TCq2    C6 1148   4.568   2.289  14.156  0.2382  0.1315 -0.6291
   75TCq2    C7 1149   4.699   2.314  14.125  0.0049 -0.5060 -0.2238
   75TCq2    C8 1150   4.499   2.306  14.034 -0.5468 -0.1214 -0.1188
   75TCq2    O4 1151   4.521   2.228  13.947 -0.4315 -0.1208  0.0816
   75TCq2    C9 1152   4.544   2.463  14.471 -0.1568  0.1213 -0.1527
   75TCq2    O5 1153   4.627   2.493  14.558  0.0133  0.1462 -0.2518
   75TCq2    O6 1154   4.417   2.460  14.487 -0.2185 -0.1270  0.2952
   75TCq2    H2 1155   0.064   2.477  14.400  0.4709 -0.8138  0.7210
   75TCq2    H3 1156   4.405   2.321  14.294 -0.0600  0.7046  0.6091
   75TCq2    H4 1157   0.014   2.284  14.029  1.3699 -0.6954  0.3833
   76MPD2     C 1158   3.916   2.955  12.342  0.3346 -0.0666 -0.0960
   76MPD2    C1 1159   3.871   2.925  12.216  0.0691 -0.1035  0.2408
   76MPD2    C2 1160   3.894   2.810  12.159  0.5177  0.3413  0.3265
   76MPD2    C3 1161   3.972   2.714  12.225  0.4036 -0.1207  0.6997
   76MPD2    C4 1162   4.013   2.742  12.348 -0.0036 -0.0899 -0.0515
   76MPD2    C5 1163   3.988   2.864  12.403 -0.1930  0.2257  0.9859
   76MPD2     H 1164   3.883   2.785  12.054  1.4110  0.5435  0.1790
   76MPD2    H1 1165   4.063   2.663  12.403 -2.3494 -1.5099  0.0385
   76MPD2    H2 1166   3.892   3.051  12.385 -0.7693 -1.4715  2.4791
   76MPD2    H3 1167   4.026   2.883  12.503  2.5100  1.7912 -0.3496
   76MPD2     N 1168   3.992   2.581  12.174  0.4039 -0.2972 -0.1088
   76MPD2    H5 1169   4.039   2.512  12.231  1.3641  0.9427  0.5878
   76MPD2    N1 1170   3.811   3.021  12.135 -0.4631 -0.3067  0.1064
   76MPD2    H7 1171   3.776   2.983  12.047 -0.1628 -0.6631  0.1421
   77TCq2    C1 1172   3.921   2.531  12.060  0.7619  0.5226  0.2695
   77TCq2    O2 1173   3.873   2.597  11.973  0.1572  0.6292 -0.1477
   77TCq2    C2 1174   3.928   2.389  12.030 -0.4347  0.0337 -0.3344
   77TCq2    C3 1175   3.813   2.333  11.977 -0.1360  1.0902 -0.4007
   77TCq2    C4 1176   3.791   2.195  11.981 -0.4256 -0.1573  0.2199
   77TCq2    C5 1177   3.889   2.114  12.036 -0.4133 -0.2625  0.3891
   77TCq2    C6 1178   4.000   2.175  12.093 -0.1617  0.3681 -0.6981
   77TCq2    C7 1179   4.021   2.309  12.092  0.0356  0.4495 -0.0299
   77TCq2    C8 1180   4.109   2.085  12.128  0.5491 -0.7347 -0.1519
   77TCq2    O4 1181   4.125   1.993  12.053  0.0496 -0.5977  1.2228
   77TCq2    C9 1182   3.667   2.135  11.917 -0.5432 -0.2356 -0.0315
   77TCq2    O5 1183   3.622   2.189  11.814 -0.2859 -0.6382 -0.4139
   77TCq2    O6 1184   3.635   2.020  11.956  0.1099 -0.2930 -0.2006
   77TCq2    H2 1185   3.743   2.401  11.929  0.1326  1.0121 -0.9070
   77TCq2    H3 1186   3.888   2.006  12.032 -2.5345 -0.2922  2.0130
   77TCq2    H4 1187   4.115   2.356  12.117 -0.7564  2.3487 -0.6251
   78MPD1     C 1188   1.227   3.555   1.398 -0.2471 -0.9392 -0.0151
   78MPD1    C1 1189   1.262   3.479   1.292 -0.1925  0.8076 -0.2177
   78MPD1    C2 1190   1.379   3.514   1.223  0.7225  0.0877  0.3691
   78MPD1    C3 1191   1.482   3.593   1.277 -1.0161 -0.9751  0.5704
   78MPD1    C4 1192   1.448   3.659   1.399  0.7498  0.6254  0.0901
   78MPD1    C5 1193   1.318   3.651   1.447 -1.0385 -0.6679  0.7355
   78MPD1     H 1194   1.390   3.486   1.118  2.0525 -0.3328  0.6217
   78MPD1    H1 1195   1.518   3.728   1.444  0.0169  1.8989 -0.7219
   78MPD1    H2 1196   1.138   3.538   1.456 -2.1430  0.3690 -2.5449
   78MPD1    H3 1197   1.286   3.710   1.533 -0.3308  1.5561 -0.5165
   78MPD1     N 1198   1.608   3.623   1.216 -0.8431 -0.0113 -0.4808
   78MPD1    H5 1199   1.660   3.690   1.271  0.1114 -1.2361  0.1157
   78MPD1    N1 1200   1.154   3.429   1.215 -0.2025 -0.7585 -0.5045
   78MPD1    H6 1201   1.176   3.345   1.161  0.4751 -1.3241  0.6525
   78MPD1    H7 1202   1.083   3.389   1.276  0.0586  0.3808  0.5501
   79TCq2    C1 1203   1.658   3.579   1.099 -0.0236  0.1043  1.4222
   79TCq2    O2 1204   1.598   3.504   1.025 -0.0125  0.3393  0.1466
   79TCq2    C2 1205   1.772   3.652   1.048  0.3003 -0.4180 -0.4866
   79TCq2    C3 1206   1.778   3.658   0.911 -0.5447  0.2944 -0.2676
   79TCq2    C4 1207   1.885   3.715   0.857 -0.2304 -0.4129  0.2223
   79TCq2    C5 1208   1.978   3.781   0.934  0.0101  0.0886 -0.2511
   79TCq2    C6 1209   1.965   3.775   1.073 -0.5186 -0.1395 -0.0819
   79TCq2    C7 1210   1.868   3.705   1.131 -0.7845 -0.1581 -0.3915
   79TCq2    C8 1211   2.051   3.864   1.149 -0.1745 -0.7982  0.4076
   79TCq2    O4 1212   2.155   3.894   1.095 -0.0681 -0.8897 -0.4923
   79TCq2    C9 1213   1.900   3.736   0.721  0.4249  0.1373  0.9842
   79TCq2    O5 1214   1.798   3.705   0.652 -0.0136  0.2206 -0.0419
   79TCq2    O6 1215   1.997   3.806   0.678  0.6896 -0.4168 -0.5016
   79TCq2    H2 1216   1.700   3.599   0.863 -0.7197 -1.4213  2.0816
   79TCq2    H3 1217   2.052   3.851   0.899 -0.7604  0.3198 -1.4203
   79TCq2    H4 1218   1.873   3.700   1.239 -1.0356 -0.0714 -0.3759
   80MPD2     C 1219   2.992   2.515  12.272 -0.0469 -0.0125 -0.0701
   80MPD2    C1 1220   2.891   2.522  12.188 -0.3074 -0.0527 -0.0855
   80MPD2    C2 1221   2.781   2.598  12.221 -0.1239  0.2150 -0.3972
   80MPD2    C3 1222   2.770   2.661  12.342 -0.2629  0.5406  0.0070
   80MPD2    C4 1223   2.877   2.661  12.431  0.8256  0.5023 -0.1118
   80MPD2    C5 1224   2.992   2.585  12.389 -0.1678 -0.1654 -0.3263
   80MPD2     H 1225   2.690   2.606  12.163  0.2776 -2.0170 -1.3626
   80MPD2    H1 1226   2.876   2.723  12.520 -0.9576  1.1835 -0.6013
   80MPD2    H2 1227   3.078   2.451  12.257  0.4610  0.7454 -0.4069
   80MPD2    H3 1228   3.067   2.576  12.467  0.4611 -0.7653 -1.0007
   80MPD2     N 1229   2.657   2.733  12.386  0.1054  0.2290 -0.0588
   80MPD2    H5 1230   2.658   2.781  12.475  0.0517 -1.8211  1.0473
   80MPD2    N1 1231   2.891   2.449  12.068  0.5133 -0.5764  0.1295
   80MPD2    H7 1232   2.802   2.448  12.018 -0.0387  1.1171  1.0619
   81TCq2    C1 1233   3.003   2.399  12.009 -0.2293 -0.1171  0.2367
   81TCq2    O2 1234   3.119   2.433  12.028  0.2638  0.4358  0.1734
   81TCq2    C2 1235   2.972   2.286  11.924  0.6941  0.8969  0.2632
   81TCq2    C3 1236   3.058   2.262  11.822 -0.3250  0.3028 -0.5486
   81TCq2    C4 1237   3.024   2.183  11.723  0.8299 -0.3552  0.0163
   81TCq2    C5 1238   2.908   2.120  11.720  0.5097 -0.1822  0.5341
   81TCq2    C6 1239   2.818   2.144  11.823  0.7523 -0.0691 -0.1288
   81TCq2    C7 1240   2.846   2.230  11.921  0.5689  0.3964  0.0830
   81TCq2    C8 1241   2.697   2.064  11.830  0.1367  0.4330 -0.7788
   81TCq2    O4 1242   2.644   2.037  11.720 -0.4572  0.1893 -0.2732
   81TCq2    C9 1243   3.126   2.159  11.619  0.1052  0.4282 -0.2696
   81TCq2    O5 1244   3.238   2.219  11.633 -0.3930  0.3260 -0.4889
   81TCq2    O6 1245   3.087   2.111  11.511 -0.2845  0.4016 -0.0374
   81TCq2    H2 1246   3.153   2.315  11.831 -1.0138  1.7986 -2.1234
   81TCq2    H3 1247   2.897   2.043  11.645 -3.3088  2.4793 -1.6137
   81TCq2    H4 1248   2.763   2.266  11.982  1.3052  0.3356  1.1268
   82MPD2     C 1249   1.211   2.216  11.080  0.0713 -0.2058 -0.2004
   82MPD2    C1 1250   1.187   2.094  11.021  0.3133 -0.7699 -0.5619
   82MPD2    C2 1251   1.249   1.978  11.078  0.2385  0.5376  0.2135
   82MPD2    C3 1252   1.313   1.984  11.202  1.4129 -0.0214 -0.1507
   82MPD2    C4 1253   1.342   2.108  11.247 -0.2094 -0.4451  0.3744
   82MPD2    C5 1254   1.301   2.220  11.186 -0.0181  0.0896  0.3772
   82MPD2     H 1255   1.231   1.880  11.036 -0.7384  2.2210 -3.2372
   82MPD2    H1 1256   1.401   2.113  11.338 -0.4866  0.7589  0.4900
   82MPD2    H2 1257   1.159   2.306  11.048 -2.1013 -1.0679  0.8937
   82MPD2    H3 1258   1.331   2.312  11.234  0.6119 -0.4352  0.9903
   82MPD2     N 1259   1.373   1.867  11.261 -0.8545  0.1779 -0.4669
   82MPD2    H5 1260   1.444   1.878  11.332 -2.2986 -1.4594  1.2452
   82MPD2    N1 1261   1.099   2.085  10.908  0.2802  0.2695  0.6249
   82MPD2    H7 1262   1.045   2.168  10.884 -0.4154 -0.7683 -1.4080
   83TCq2    C1 1263   1.338   1.735  11.229 -0.2777  0.4152 -0.7143
   83TCq2    O2 1264   1.233   1.695  11.176  0.0793  0.0425 -0.3446
   83TCq2    C2 1265   1.412   1.634  11.301  0.7480  0.2865 -0.5749
   83TCq2    C3 1266   1.518   1.675  11.382  0.0929 -0.0098 -0.2872
   83TCq2    C4 1267   1.538   1.612  11.499  0.0282  0.2080  0.2500
   83TCq2    C5 1268   1.449   1.514  11.538 -0.5009 -0.0288  0.5386
   83TCq2    C6 1269   1.364   1.464  11.450 -0.1900 -0.1727 -0.0570
   83TCq2    C7 1270   1.346   1.521  11.324  0.0326  0.1998 -0.3919
   83TCq2    C8 1271   1.294   1.341  11.490 -0.1588 -0.2150  0.9603
   83TCq2    O4 1272   1.291   1.314  11.610 -0.1161  0.1781  0.2547
   83TCq2    C9 1273   1.648   1.654  11.586 -0.6092  0.3624  0.2439
   83TCq2    O5 1274   1.666   1.594  11.696 -0.6617  0.2856  0.2421
   83TCq2    O6 1275   1.714   1.756  11.551  0.0355 -0.2803 -0.2245
   83TCq2    H2 1276   1.582   1.754  11.344  0.2194 -0.7172 -1.5578
   83TCq2    H3 1277   1.464   1.470  11.636  0.6343  0.7980  0.7491
   83TCq2    H4 1278   1.255   1.503  11.268 -0.6031  1.7614  0.1437
   84TCq2    C1 1279   1.856   0.467  10.912 -0.0607  0.0685 -0.8428
   84TCq2    O2 1280   1.847   0.395  10.815  0.0964  0.7091 -0.0466
   84TCq2    C2 1281   1.849   0.403  11.044  0.6107  0.2174 -0.3432
   84TCq2    C3 1282   1.832   0.269  11.044 -0.4196 -0.2977 -0.3228
   84TCq2    C4 1283   1.807   0.212  11.167 -0.2065 -0.3441 -0.4847
   84TCq2    C5 1284   1.793   0.295  11.281  0.2888 -0.1356  0.6645
   84TCq2    C6 1285   1.792   0.428  11.268  0.5954 -0.5598  0.9747
   84TCq2    C7 1286   1.820   0.485  11.145 -0.1423 -0.1075  0.0727
   84TCq2    C8 1287   1.744   0.514  11.372 -0.2046 -0.0669  0.1448
   84TCq2    O4 1288   1.760   0.638  11.350  0.6060 -0.7756 -0.1305
   84TCq2    C9 1289   1.799   0.073  11.192  0.8469 -0.0893 -0.4486
   84TCq2    O5 1290   1.773   0.005  11.083  0.4186  0.0266 -0.0388
   84TCq2    O6 1291   1.807   0.033  11.308 -0.1280  0.0833  0.0287
   84TCq2    H2 1292   1.860   0.201  10.965  2.9369  2.0012 -1.1008
   84TCq2    H3 1293   1.788   0.250  11.380 -0.4320 -0.1542  0.6177
   84TCq2    H4 1294   1.823   0.593  11.136 -0.6544 -0.1286 -0.3084
   85MPD2     C 1295   2.720   3.927  16.288  0.2444  0.1961  0.1672
   85MPD2    C1 1296   2.840   3.867  16.294  0.0620  0.2391  0.4855
   85MPD2    C2 1297   2.953   3.942  16.264 -0.8980 -0.0037 -0.7328
   85MPD2    C3 1298   2.949   4.080  16.241 -0.0688 -0.8204  0.4668
   85MPD2    C4 1299   2.835   4.144  16.253  0.6973  0.5730  0.1503
   85MPD2    C5 1300   2.724   4.065  16.274 -0.5442 -0.6506 -0.3785
   85MPD2     H 1301   3.046   3.888  16.249 -0.5171  0.9962 -1.9266
   85MPD2    H1 1302   2.834   4.251  16.240  0.2930  0.6459  0.7550
   85MPD2    H2 1303   2.621   3.883  16.295  0.0681  0.6255  0.3520
   85MPD2    H3 1304   2.633   4.121  16.292  1.3712  1.8524  1.5160
   85MPD2     N 1305   3.060   4.146  16.176  0.0600  0.0787  0.0143
   85MPD2    H5 1306   3.134   4.077  16.161 -2.1160 -2.3949  0.6912
   85MPD2    N1 1307   2.850   3.730  16.317 -1.0007 -0.0295 -0.0166
   85MPD2    H7 1308   2.943   3.694  16.298 -1.4712  0.0192 -2.3383
   86TCq2    C1 1309   3.085   4.273  16.135  0.0180 -0.4401 -0.3606
   86TCq2    O2 1310   3.004   4.370  16.138 -0.6042  0.2868 -0.1158
   86TCq2    C2 1311   3.219   4.314  16.105 -0.0285 -0.1929 -0.2572
   86TCq2    C3 1312   3.239   4.453  16.095 -0.3862 -0.2351 -0.1696
   86TCq2    C4 1313   3.335   4.500  16.009 -0.1768 -0.0177  0.1173
   86TCq2    C5 1314   3.416   4.419  15.936  0.7714  0.0568 -0.2990
   86TCq2    C6 1315   3.396   4.281  15.948 -1.1395  0.5812  0.5625
   86TCq2    C7 1316   3.296   4.224  16.031 -0.2390  0.3202  0.2630
   86TCq2    C8 1317   3.467   4.194  15.852 -0.1516 -0.1462 -0.0466
   86TCq2    O4 1318   3.469   4.076  15.884  0.1288 -0.1960  0.1690
   86TCq2    C9 1319   3.349   4.641  16.004  0.6854 -0.2447 -0.3811
   86TCq2    O5 1320   3.412   4.697  15.907  0.3491 -0.7865  0.0620
   86TCq2    O6 1321   3.269   4.705  16.071  0.0718  0.0420  0.0991
   86TCq2    H2 1322   3.183   4.519  16.160 -3.0601 -0.8578 -1.8441
   86TCq2    H3 1323   3.497   4.460  15.876  1.5338  0.0751  0.7419
   86TCq2    H4 1324   3.291   4.117  16.049  2.7448  0.5912  2.5906
   87MPD2     C 1325   0.574   2.522   1.273 -0.7257 -0.0344  0.8131
   87MPD2    C1 1326   0.611   2.627   1.358  0.1092 -0.4452 -0.6438
   87MPD2    C2 1327   0.518   2.732   1.371 -0.3604  0.7876 -0.0174
   87MPD2    C3 1328   0.412   2.744   1.293  0.0562  0.3062 -0.5865
   87MPD2    C4 1329   0.377   2.641   1.206  0.5617  0.1489 -0.3322
   87MPD2    C5 1330   0.450   2.530   1.214  0.7735 -0.9517  0.6176
   87MPD2     H 1331   0.548   2.812   1.438 -1.7181  1.3074 -0.0232
   87MPD2    H1 1332   0.288   2.644   1.145  1.9917 -0.4207 -2.4647
   87MPD2    H2 1333   0.638   2.436   1.261 -1.0770  0.2021 -2.7864
   87MPD2    H3 1334   0.408   2.451   1.153 -0.8846 -1.4623  2.4315
   87MPD2     N 1335   0.331   2.863   1.285  0.2217 -0.2380 -0.1329
   87MPD2    H5 1336   0.281   2.860   1.197 -0.0028  0.2333 -0.0210
   87MPD2    N1 1337   0.736   2.606   1.427  0.6498  0.0052  0.1507
   87MPD2    H7 1338   0.794   2.533   1.387  0.6792  0.3374 -0.4190
   88TCq2    C1 1339   0.778   2.693   1.525 -0.1433 -0.7676  0.3798
   88TCq2    O2 1340   0.704   2.761   1.591  0.0800 -0.7564  0.2282
   88TCq2    C2 1341   0.916   2.669   1.579 -1.0423  0.5601 -0.3636
   88TCq2    C3 1342   0.948   2.734   1.696 -0.9222 -0.8191 -0.4716
   88TCq2    C4 1343   1.073   2.789   1.710 -0.5480 -0.4895 -0.2476
   88TCq2    C5 1344   1.164   2.778   1.615 -0.1133 -0.2928  0.1842
   88TCq2    C6 1345   1.140   2.705   1.503  0.5214  0.0489 -0.3477
   88TCq2    C7 1346   1.013   2.652   1.485  0.4544  0.0846 -0.3546
   88TCq2    C8 1347   1.247   2.686   1.404  0.0102 -0.8554  0.3477
   88TCq2    O4 1348   1.359   2.732   1.425 -0.4485  0.6298  0.3628
   88TCq2    C9 1349   1.106   2.847   1.833  0.8383  0.4297  0.1139
   88TCq2    O5 1350   1.033   2.810   1.930  0.3439 -0.2942 -0.1392
   88TCq2    O6 1351   1.202   2.934   1.839  0.5029 -0.1420  0.1900
   88TCq2    H2 1352   0.882   2.731   1.782  1.0429  0.5896  1.0927
   88TCq2    H3 1353   1.266   2.811   1.632  0.1888 -2.8968  3.4899
   88TCq2    H4 1354   0.985   2.595   1.397 -0.6397  0.8923 -0.5330
   89MPD2     C 1355   1.257   0.882   2.104  0.3840  0.1703 -0.0480
   89MPD2    C1 1356   1.161   0.973   2.085  0.0544 -0.2080 -0.7222
   89MPD2    C2 1357   1.185   1.086   2.008  0.2083  0.9385 -0.0980
   89MPD2    C3 1358   1.301   1.106   1.941  1.1884 -0.9101 -0.3454
   89MPD2    C4 1359   1.402   1.009   1.963 -0.2082  0.2803 -0.9459
   89MPD2    C5 1360   1.378   0.897   2.041 -0.0621  0.7939  0.5367
   89MPD2     H 1361   1.113   1.166   2.000 -0.1537  0.6437  0.1833
   89MPD2    H1 1362   1.502   1.018   1.923  0.5097 -1.7771  0.4422
   89MPD2    H2 1363   1.240   0.796   2.169  0.9012  0.0273 -0.0969
   89MPD2    H3 1364   1.458   0.823   2.040  0.4269  1.3412 -0.5369
   89MPD2     N 1365   1.319   1.228   1.873  0.1794  0.0778  0.2868
   89MPD2    H5 1366   1.239   1.291   1.874  0.1875  0.0817  0.7164
   89MPD2    N1 1367   1.027   0.976   2.141 -0.2322  0.4665 -0.1370
   89MPD2    H7 1368   0.969   1.056   2.120  0.2215  0.1580 -2.5044
   90TCq2    C1 1369   1.439   1.270   1.818 -0.2879  0.2991 -0.5023
   90TCq2    O2 1370   1.552   1.222   1.816 -0.6801  0.1365  0.3521
   90TCq2    C2 1371   1.421   1.397   1.753 -0.1930 -0.0499  0.3096
   90TCq2    C3 1372   1.536   1.466   1.749 -0.6109 -0.2881 -0.1946
   90TCq2    C4 1373   1.562   1.545   1.637  0.3773 -0.2021  0.1047
   90TCq2    C5 1374   1.475   1.536   1.530 -0.1963  0.8083  0.7580
   90TCq2    C6 1375   1.352   1.470   1.544  0.1517 -0.1839 -0.3700
   90TCq2    C7 1376   1.317   1.410   1.663 -0.5542  0.7252  0.5097
   90TCq2    C8 1377   1.276   1.447   1.433  0.2870 -0.2351 -0.7359
   90TCq2    O4 1378   1.174   1.381   1.452 -0.3331 -0.3165  0.0086
   90TCq2    C9 1379   1.686   1.617   1.642 -0.4661 -0.5480 -0.9757
   90TCq2    O5 1380   1.721   1.672   1.534  0.0447  0.2872 -0.1732
   90TCq2    O6 1381   1.722   1.658   1.751  0.0577 -0.1566  0.1505
   90TCq2    H2 1382   1.601   1.480   1.835 -1.1276  1.3951 -0.0674
   90TCq2    H3 1383   1.504   1.588   1.440 -0.3298  1.4907  1.1064
   90TCq2    H4 1384   1.230   1.345   1.663 -1.0886  1.4308 -0.3206
   91TMC2    C1 1385   3.020   0.065  16.333  0.1075 -0.0979  0.4021
   91TMC2    C2 1386   3.060   0.127  16.216  0.4497  0.4809 -0.2066
   91TMC2    C3 1387   2.954   0.187  16.144 -0.2397 -0.0082 -0.4128
   91TMC2    C4 1388   2.892   0.063  16.374  0.3056 -0.2222  0.2687
   91TMC2    C5 1389   2.791   0.106  16.294 -0.0976  0.1599  0.0422
   91TMC2    C6 1390   2.822   0.177  16.181  0.6376 -0.0206  0.8046
   91TMC2     C 1391   3.114   4.713  16.407 -0.8983 -0.0560  0.1562
   91TMC2     O 1392   3.065   4.666  16.514 -0.1268 -0.0329  0.5519
   91TMC2     H 1393   3.163   0.137  16.184  0.0195  2.5554 -0.9216
   91TMC2    H1 1394   2.867   4.722  16.457  0.2042 -0.3829  0.1104
   91TMC2    H2 1395   2.747   0.213  16.112  2.6415 -0.6732 -1.7197
   91TMC2    C7 1396   2.649   0.088  16.335 -0.3887  0.0256  0.5880
   91TMC2    C8 1397   2.988   0.226  16.008 -0.1727  0.6768 -1.0609
   91TMC2    O1 1398   2.623   0.073  16.451 -0.0608 -0.4623 -0.3477
   91TMC2    O2 1399   2.910   0.282  15.937  0.2784  0.3357 -0.8825
   91TMC2    O5 1400   3.076   0.136  15.953 -0.2016  0.1125  0.3541
   91TMC2    H5 1401   3.109   0.071  16.018  2.6212  0.4287 -0.7497
   92MPD2     C 1402   3.331   4.553  16.520 -0.5395  0.0943  0.3513
   92MPD2    C1 1403   3.345   4.644  16.415  0.3484 -0.1886 -0.3357
   92MPD2    C2 1404   3.468   4.672  16.359 -0.1940  0.3744 -0.4533
   92MPD2    C3 1405   3.578   4.603  16.407  0.4879  0.1399 -0.4748
   92MPD2    C4 1406   3.566   4.513  16.511 -0.2555 -0.7132  0.2422
   92MPD2    C5 1407   3.437   4.489  16.566 -0.0916 -0.1771 -0.5184
   92MPD2     H 1408   3.473   0.013  16.273  0.8626 -0.0627 -0.7167
   92MPD2    H1 1409   3.638   4.452  16.565  0.5260 -1.9166 -2.1820
   92MPD2    H2 1410   3.233   4.523  16.554 -1.3002  0.3683 -1.5926
   92MPD2    H3 1411   3.421   4.426  16.652  0.7382 -0.3305 -0.4835
   92MPD2     N 1412   3.704   4.644  16.350 -0.0987  0.0026 -0.8309
   92MPD2    H5 1413   3.704   4.718  16.280 -2.2943  0.5286 -0.2771
   92MPD2    N1 1414   3.239   4.708  16.354 -0.3923  0.5334  0.9415
   92MPD2    H7 1415   3.254   0.023  16.261 -3.0766 -1.1490 -0.1971
   93MPD2     C 1416   4.724   1.132  13.821 -0.4311  0.5007  0.7985
   93MPD2    C1 1417   4.663   1.054  13.916  0.3682  0.4386 -0.2972
   93MPD2    C2 1418   4.525   1.044  13.912  0.4186 -0.5650  0.4586
   93MPD2    C3 1419   4.447   1.090  13.808  0.3959  0.1472  0.0006
   93MPD2    C4 1420   4.508   1.155  13.704 -0.7228  0.7445 -0.3653
   93MPD2    C5 1421   4.645   1.189  13.719 -0.3510 -1.2035  0.3536
   93MPD2     H 1422   4.482   0.989  13.995 -1.2806  0.5029  0.2815
   93MPD2    H1 1423   4.449   1.186  13.618  0.4049  1.6426 -0.8207
   93MPD2    H2 1424   0.104   1.161  13.832 -0.1287  0.3533 -1.5828
   93MPD2    H3 1425   4.685   1.245  13.636 -2.5584  1.0488  0.8320
   93MPD2     N 1426   4.305   1.076  13.798  0.2020  0.7640  0.2180
   93MPD2    H5 1427   4.266   1.100  13.707  0.2829 -1.7671 -0.4728
   93MPD2    N1 1428   0.007   0.980  14.016  0.0570  0.1912  0.8028
   93MPD2    H7 1429   4.674   0.947  14.093  0.6855 -1.7651  0.4410
   94TCq2    C1 1430   0.143   0.985  14.034 -0.2812  0.1072  0.1853
   94TCq2    O2 1431   0.227   1.036  13.959 -0.1294 -0.0838  0.1054
   94TCq2    C2 1432   0.198   0.918  14.145  0.4541 -0.1358  0.3883
   94TCq2    C3 1433   0.118   0.840  14.230 -0.4981  0.5370 -0.3440
   94TCq2    C4 1434   0.174   0.778  14.336 -0.1985  0.2089 -0.3732
   94TCq2    C5 1435   0.312   0.796  14.363  0.3093 -0.0335  0.3018
   94TCq2    C6 1436   0.388   0.872  14.273 -0.0176 -0.4204 -0.2473
   94TCq2    C7 1437   0.330   0.936  14.168  0.5637  0.0309  0.6910
   94TCq2    C8 1438   0.531   0.856  14.276  0.0184  0.5168  0.0732
   94TCq2    O4 1439   0.599   0.881  14.179  0.3568 -0.4283  0.6210
   94TCq2    C9 1440   0.098   0.691  14.412 -0.9596  0.1890  0.1624
   94TCq2    O5 1441   4.701   0.705  14.405 -0.4859  0.2563 -0.3855
   94TCq2    O6 1442   0.153   0.642  14.512  0.1025 -0.2404  0.4792
   94TCq2    H2 1443   0.010   0.837  14.215 -0.5525  0.7216  0.0289
   94TCq2    H3 1444   0.355   0.741  14.447  1.4842  0.2020 -0.1382
   94TCq2    H4 1445   0.392   1.003  14.109 -0.7880 -0.0014 -0.7802
   95TMC2    C1 1446   0.127   1.849  16.116 -0.1953 -0.1460  0.6007
   95TMC2    C2 1447   0.095   1.963  16.187 -0.1649 -0.1396 -0.2955
   95TMC2    C3 1448   0.037   1.954  16.311  0.2548  0.6757 -0.0204
   95TMC2    C4 1449   0.117   1.728  16.177  0.1258  0.3732 -0.0773
   95TMC2    C5 1450   0.068   1.723  16.310 -0.7470  0.0413 -0.2247
   95TMC2    C6 1451   0.019   1.835  16.378 -0.2410  0.6382  0.2707
   95TMC2     C 1452   0.198   1.865  15.990  0.4273 -0.1669 -0.4129
   95TMC2     O 1453   0.258   1.977  15.978  0.1762  0.0075  0.1240
   95TMC2     H 1454   0.122   2.059  16.146  1.9682 -1.3486 -1.7313
   95TMC2    H1 1455   0.165   1.639  16.138 -0.0907  0.9021 -1.5699
   95TMC2    H2 1456   4.709   1.825  16.480 -0.9877  1.6777  0.1163
   95TMC2    C7 1457   0.059   1.599  16.389 -0.5151 -0.2983 -0.7058
   95TMC2    C8 1458   0.043   2.059  16.414 -0.2781  0.2707 -0.3398
   95TMC2    O1 1459   0.041   1.609  16.511 -0.8762  0.0823  0.3859
   95TMC2    O2 1460   0.032   2.037  16.530 -0.4493  0.2445  0.7274
   95TMC2    O5 1461   0.125   2.152  16.360 -0.1526  0.2259  0.2799
   95TMC2    H5 1462   0.089   2.175  16.271 -0.5785 -0.9132  0.1619
   96MPD2     C 1463   0.385   1.712  15.551 -0.6790  0.4296 -0.5656
   96MPD2    C1 1464   0.422   1.821  15.624 -0.2989 -0.7502 -0.1526
   96MPD2    C2 1465   0.366   1.832  15.750  0.1225  0.1357 -0.0427
   96MPD2    C3 1466   0.284   1.732  15.801 -0.7772 -0.1541  0.4405
   96MPD2    C4 1467   0.267   1.611  15.737 -1.2835 -0.6191  0.5783
   96MPD2    C5 1468   0.313   1.609  15.605  0.2773 -0.1399  1.0066
   96MPD2     H 1469   0.382   1.928  15.797  0.9988  0.2928 -0.6685
   96MPD2    H1 1470   0.227   1.525  15.790 -3.3005  0.6180  1.0457
   96MPD2    H2 1471   0.415   1.692  15.449  0.7036  1.6361 -0.4011
   96MPD2    H3 1472   0.299   1.525  15.537 -0.0003  2.8334 -2.5817
   96MPD2     N 1473   0.199   1.752  15.912 -0.2168  0.1600 -0.6227
   96MPD2    H5 1474   0.137   1.674  15.930 -1.2109  0.9139 -0.7846
   96MPD2    N1 1475   0.505   1.926  15.572  0.3118  0.5492  0.3204
   96MPD2    H7 1476   0.539   1.912  15.477  0.6737  1.5991  0.2977
   97MPD2     C 1477   1.994   4.577   1.883 -0.1106 -0.0223  0.3774
   97MPD2    C1 1478   2.043   4.665   1.788 -0.3018 -0.5340  0.3038
   97MPD2    C2 1479   2.059   4.626   1.654 -1.0763 -0.2257 -0.2281
   97MPD2    C3 1480   2.001   4.509   1.621  0.2116 -0.5615  0.4409
   97MPD2    C4 1481   1.936   4.428   1.709  1.1225  0.2730 -0.2470
   97MPD2    C5 1482   1.937   4.463   1.841  1.1500 -0.3531  0.3260
   97MPD2     H 1483   2.113   4.688   1.584 -0.7374 -0.4285 -0.1462
   97MPD2    H1 1484   1.888   4.332   1.688  1.0011  0.0974  0.8551
   97MPD2    H2 1485   1.983   4.604   1.987  0.6153 -1.1040  0.7313
   97MPD2    H3 1486   1.888   4.394   1.909 -1.1089  0.0504 -0.8979
   97MPD2     N 1487   2.023   4.469   1.488 -0.3593 -0.2763  0.2890
   97MPD2    H5 1488   2.081   4.522   1.425 -2.4585  2.6355  0.8077
   97MPD2    N1 1489   2.067   0.073   1.829 -0.5110  0.3923  0.5966
   97MPD2    H7 1490   2.069   0.081   1.930  0.4817  0.2198  0.5925
   98TCq2    C1 1491   1.966   4.358   1.427 -0.6113 -0.4773 -0.0214
   98TCq2    O2 1492   1.865   4.292   1.452  0.2812  0.0151  0.0672
   98TCq2    C2 1493   2.029   4.331   1.297  0.4652  0.4216 -0.3145
   98TCq2    C3 1494   1.950   4.309   1.191 -0.5737  0.1747 -0.2317
   98TCq2    C4 1495   2.013   4.274   1.069  0.0321 -0.3669  0.3775
   98TCq2    C5 1496   2.152   4.283   1.061  0.5658 -0.0427 -0.9707
   98TCq2    C6 1497   2.224   4.331   1.169 -0.1965 -0.3341  0.5315
   98TCq2    C7 1498   2.162   4.346   1.290  0.1864  1.3582  0.1349
   98TCq2    C8 1499   2.366   4.367   1.153 -0.0494 -0.5342  0.1467
   98TCq2    O4 1500   2.416   4.335   1.048  0.3006  0.3795 -0.1693
   98TCq2    C9 1501   1.939   4.231   0.950  0.1809  0.9917 -0.4300
   98TCq2    O5 1502   2.010   4.193   0.857 -0.0900 -1.2305 -0.9512
   98TCq2    O6 1503   1.815   4.236   0.947 -0.3808 -0.5057  0.1873
   98TCq2    H2 1504   1.843   4.298   1.201 -0.6967 -2.1380 -3.8818
   98TCq2    H3 1505   2.192   4.267   0.961  1.5088 -0.2585 -0.5599
   98TCq2    H4 1506   2.223   4.353   1.379  0.3050  0.4058  0.1287
   99MPD2     C 1507   1.157   1.912   1.693 -0.3910 -0.1252  0.0351
   99MPD2    C1 1508   1.029   1.933   1.647  0.1247 -0.0711 -0.2824
   99MPD2    C2 1509   1.020   1.941   1.503 -0.0929  0.1313  1.3596
   99MPD2    C3 1510   1.124   1.921   1.419 -0.1847 -0.2821 -0.7731
   99MPD2    C4 1511   1.250   1.889   1.472 -0.1431  0.3074  0.9395
   99MPD2    C5 1512   1.265   1.891   1.612 -0.5733  0.4455 -0.1241
   99MPD2     H 1513   0.924   1.969   1.461 -0.5428 -2.3921  0.7449
   99MPD2    H1 1514   1.342   1.879   1.416  0.2241  1.5535  1.3393
   99MPD2    H2 1515   1.180   1.912   1.799 -0.7916  1.9580  0.1326
   99MPD2    H3 1516   1.366   1.895   1.652 -0.1133 -1.3955 -1.0958
   99MPD2     N 1517   1.107   1.963   1.287  0.0893  0.2879 -0.4324
   99MPD2    H5 1518   1.019   2.005   1.256 -0.6696  0.5961  2.1758
   99MPD2    N1 1519   0.918   1.966   1.732 -0.3336 -0.6081  0.3521
   99MPD2    H7 1520   0.834   1.977   1.676  0.1229 -0.2629 -0.2771
  100TCq2    C1 1521   0.917   1.974   1.869 -0.3732  0.5019 -0.0886
  100TCq2    O2 1522   1.000   1.970   1.958 -0.2034 -0.5108 -0.1077
  100TCq2    C2 1523   0.790   2.018   1.927  0.9201  1.0361 -0.1026
  100TCq2    C3 1524   0.797   2.087   2.048  0.8160 -0.9751 -0.4582
  100TCq2    C4 1525   0.685   2.143   2.092  0.1368 -0.1584 -0.5541
  100TCq2    C5 1526   0.572   2.140   2.025  0.6955 -0.6001  0.1836
  100TCq2    C6 1527   0.566   2.071   1.909  0.4072 -0.7133  0.5292
  100TCq2    C7 1528   0.676   2.006   1.855  0.3565 -0.5121  0.2313
  100TCq2    C8 1529   0.446   2.079   1.827  0.1895  0.1256 -0.3852
  100TCq2    O4 1530   0.373   2.175   1.855 -0.3956  0.0314  0.3927
  100TCq2    C9 1531   0.682   2.202   2.227 -0.6244  0.1643 -0.5912
  100TCq2    O5 1532   0.580   2.266   2.266  0.1001 -0.0147 -0.4751
  100TCq2    O6 1533   0.794   2.228   2.274 -0.0916  0.1576  0.2903
  100TCq2    H2 1534   0.885   2.092   2.110 -0.0542  1.7205  0.5282
  100TCq2    H3 1535   0.485   2.181   2.076  0.5894 -0.5348 -0.0492
  100TCq2    H4 1536   0.667   1.967   1.754 -1.2764  1.6508 -0.4539
  101MPD2     C 1537   1.736   2.924  13.059  0.0705  0.1359 -0.3345
  101MPD2    C1 1538   1.598   2.956  13.086  0.4983 -0.3359  0.3751
  101MPD2    C2 1539   1.543   2.892  13.204  0.8031  0.0930 -0.1619
  101MPD2    C3 1540   1.614   2.800  13.279  0.2929 -0.3012 -0.2717
  101MPD2    C4 1541   1.742   2.770  13.246  0.1354 -0.1816  0.8835
  101MPD2    C5 1542   1.804   2.830  13.140 -0.4114 -0.0539 -0.7796
  101MPD2     H 1543   1.436   2.896  13.221  0.9059  0.9301  0.2938
  101MPD2    H1 1544   1.808   2.700  13.296 -0.9645 -1.5225  0.4692
  101MPD2    H2 1545   1.801   2.959  12.980  1.2744 -1.7516 -0.1709
  101MPD2    H3 1546   1.910   2.807  13.132 -0.3932  0.3290 -1.5545
  101MPD2     N 1547   1.554   2.739  13.400  0.6139  0.6784  0.1592
  101MPD2    H5 1548   1.453   2.744  13.415  0.3248 -0.5506 -1.3728
  101MPD2    N1 1549   1.525   3.045  12.996 -0.3333  0.0226  0.3471
  101MPD2    H7 1550   1.573   3.074  12.912 -1.6873 -0.3382 -0.5628
  102TCq2    C1 1551   1.537   3.418  12.702  0.0367  0.4906  0.1710
  102TCq2    O2 1552   1.616   3.334  12.657  0.3506  0.4183  0.1322
  102TCq2    C2 1553   1.430   3.373  12.786  1.4145 -0.2482  0.2995
  102TCq2    C3 1554   1.299   3.403  12.756 -0.2268  0.2781  0.1092
  102TCq2    C4 1555   1.202   3.332  12.823 -0.2440  0.4183  0.1995
  102TCq2    C5 1556   1.235   3.234  12.908  0.3311  0.0761  0.0219
  102TCq2    C6 1557   1.366   3.197  12.919 -0.1344  0.9421  0.8814
  102TCq2    C7 1558   1.466   3.264  12.858 -0.6110 -0.8113  0.5200
  102TCq2    C8 1559   1.401   3.103  13.025 -0.3726  0.8348  0.2418
  102TCq2    O4 1560   1.309   3.072  13.099  0.3350  0.0598 -0.4951
  102TCq2    C9 1561   1.063   3.364  12.797  0.2136  0.4042  0.3446
  102TCq2    O5 1562   1.033   3.445  12.702  0.2465  0.4465  0.2147
  102TCq2    O6 1563   0.972   3.330  12.878 -0.3237  0.0906  0.4242
  102TCq2    H2 1564   1.277   3.488  12.692 -0.3462 -0.9452 -1.4850
  102TCq2    H3 1565   1.151   3.199  12.967  1.4899 -1.6074  0.6694
  102TCq2    H4 1566   1.572   3.265  12.882 -0.6675 -1.7129  0.8274
  103TMC2    C1 1567   4.555   2.352  12.748  0.1199 -0.4544 -0.2376
  103TMC2    C2 1568   4.689   2.349  12.735 -0.3273  0.4948  0.0889
  103TMC2    C3 1569   0.040   2.448  12.791  0.4157  0.0125  0.0911
  103TMC2    C4 1570   4.491   2.455  12.806 -0.0134  0.0857  0.0544
  103TMC2    C5 1571   4.572   2.549  12.874 -0.3682  0.1977 -0.1356
  103TMC2    C6 1572   4.710   2.544  12.867  0.5059 -0.0362 -0.4911
  103TMC2     C 1573   4.464   2.301  12.642  0.1113  0.2200  0.3735
  103TMC2     O 1574   4.345   2.341  12.637 -0.1813  0.3467 -0.3287
  103TMC2     H 1575   0.009   2.277  12.667 -0.8657  0.4266 -0.1901
  103TMC2    H1 1576   4.385   2.456  12.827  0.0029 -0.5790  0.1442
  103TMC2    H2 1577   0.041   2.610  12.933 -0.2781 -0.7237  0.8578
  103TMC2    C7 1578   4.508   2.647  12.959  0.5821 -0.4377 -0.4571
  103TMC2    C8 1579   0.185   2.444  12.800 -0.2149 -0.2880 -0.3110
  103TMC2    O1 1580   4.420   2.607  13.037 -0.1315  0.3054  0.0974
  103TMC2    O2 1581   0.248   2.342  12.774 -0.5920  0.0100 -0.4590
  103TMC2    O5 1582   0.230   2.562  12.763 -0.8479 -0.3562  0.2238
  103TMC2    H5 1583   0.164   2.634  12.763 -1.6343 -1.0874  0.7348
  104MPD2     C 1584   4.536   2.024  12.406 -0.0179 -0.0852  0.4454
  104MPD2    C1 1585   4.471   2.136  12.452  0.2665 -0.2703  0.9412
  104MPD2    C2 1586   4.359   2.180  12.380  0.2511 -0.0003  0.2728
  104MPD2    C3 1587   4.313   2.111  12.270 -0.3662 -0.3736  0.1110
  104MPD2    C4 1588   4.384   2.005  12.216 -0.2317 -0.0092  0.0706
  104MPD2    C5 1589   4.493   1.962  12.290 -0.8126  0.3348 -0.5886
  104MPD2     H 1590   4.305   2.271  12.402 -0.3589 -0.1844 -0.4483
  104MPD2    H1 1591   4.341   1.954  12.131  2.6269 -1.1750 -0.6816
  104MPD2    H2 1592   4.621   1.987  12.462  0.1166 -1.1486 -0.4643
  104MPD2    H3 1593   4.549   1.879  12.251 -0.2432  0.1974  0.5175
  104MPD2     N 1594   4.179   2.144  12.229 -0.6957 -0.0528  0.4734
  104MPD2    H5 1595   4.123   2.209  12.283 -0.1689 -2.3286  3.7061
  104MPD2    N1 1596   4.528   2.202  12.566 -0.0682  0.1570 -0.3742
  104MPD2    H7 1597   4.624   2.173  12.576 -0.5911 -1.8371 -1.1926
  105MPD2     C 1598   2.070   2.199   0.269 -0.0489 -0.3288  0.0584
  105MPD2    C1 1599   1.951   2.226   0.315  0.1242 -0.2839 -0.0032
  105MPD2    C2 1600   1.939   2.286   0.437 -0.5224  0.7286  0.5395
  105MPD2    C3 1601   2.052   2.305   0.518  0.4509 -0.1430  0.0514
  105MPD2    C4 1602   2.170   2.248   0.476  0.6138 -0.6568  0.4908
  105MPD2    C5 1603   2.181   2.192   0.353 -0.2233 -0.3083  0.7707
  105MPD2     H 1604   1.840   2.312   0.470 -1.1405  1.2671 -1.7207
  105MPD2    H1 1605   2.265   2.255   0.528  1.0220 -0.1645 -0.3121
  105MPD2    H2 1606   2.086   2.147   0.175 -2.0136  1.8530 -1.4823
  105MPD2    H3 1607   2.282   2.180   0.314  0.4519  0.1212  2.3819
  105MPD2     N 1608   2.025   2.371   0.646  0.1624 -0.3896  0.3205
  105MPD2    H5 1609   1.929   2.401   0.661 -0.2558 -0.9203 -1.2266
  105MPD2    N1 1610   1.826   2.208   0.248  0.6437 -0.2522  0.4666
  105MPD2    H7 1611   1.738   2.241   0.287  0.6580 -0.4546  0.6667
  106TCq2    C1 1612   2.120   2.408   0.743 -0.0900  0.1049 -0.8331
  106TCq2    O2 1613   2.241   2.405   0.740  0.3312  0.5306 -0.1932
  106TCq2    C2 1614   2.057   2.478   0.855  0.4356 -0.3766  0.1164
  106TCq2    C3 1615   2.118   2.579   0.927  0.4330  0.2351  0.5184
  106TCq2    C4 1616   2.047   2.654   1.012 -0.2387  0.0580  0.3883
  106TCq2    C5 1617   1.914   2.634   1.030 -0.6727  0.1893 -0.5730
  106TCq2    C6 1618   1.853   2.534   0.957 -0.1831  0.1592  0.5283
  106TCq2    C7 1619   1.923   2.460   0.871 -0.3538 -0.1066 -0.6811
  106TCq2    C8 1620   1.713   2.512   0.957  1.4538 -0.2576  0.0620
  106TCq2    O4 1621   1.679   2.464   0.849  0.0186  0.5048 -0.1649
  106TCq2    C9 1622   2.107   2.777   1.059 -0.0270 -1.0140 -0.6439
  106TCq2    O5 1623   2.031   2.841   1.143  0.0880 -0.2009  0.2967
  106TCq2    O6 1624   2.224   2.803   1.028  0.2189 -0.2098 -0.0897
  106TCq2    H2 1625   2.217   2.615   0.905  0.6054 -0.2667  0.4795
  106TCq2    H3 1626   1.856   2.701   1.092  0.0698  1.6258 -1.4487
  106TCq2    H4 1627   1.867   2.381   0.823 -0.7959  0.4765 -1.1297
  107TMC2    C1 1628   1.680   1.308  11.943  0.1484 -0.6502  0.8196
  107TMC2    C2 1629   1.754   1.349  11.839  0.5274  0.3286 -0.9714
  107TMC2    C3 1630   1.783   1.269  11.732  0.0766  0.1013 -0.8280
  107TMC2    C4 1631   1.651   1.179  11.949  0.3422  0.2223  0.4783
  107TMC2    C5 1632   1.682   1.091  11.845 -0.0396 -0.0640  0.1796
  107TMC2    C6 1633   1.742   1.138  11.734 -0.4749  0.0682 -0.7071
  107TMC2     C 1634   1.616   1.408  12.026 -0.4547 -0.0084  0.8462
  107TMC2     O 1635   1.563   1.355  12.120  0.1528  0.2539  0.1337
  107TMC2     H 1636   1.797   1.448  11.852  1.4295 -0.3315  1.0121
  107TMC2    H1 1637   1.583   1.147  12.027  2.5639 -0.9844  1.9313
  107TMC2    H2 1638   1.777   1.073  11.655 -1.0275  3.0104 -3.3921
  107TMC2    C7 1639   1.617   0.957  11.849  0.0512  0.4691  0.0988
  107TMC2    C8 1640   1.881   1.324  11.633 -0.3225  0.4245 -0.9315
  107TMC2    O1 1641   1.543   0.931  11.945  0.4791  0.1037  0.4912
  107TMC2    O2 1642   1.924   1.249  11.549  0.0740 -0.1153 -0.4567
  107TMC2    O5 1643   1.882   1.455  11.630 -0.0389  0.2323  0.1453
  107TMC2    H5 1644   1.812   1.501  11.681 -0.5903  1.1912 -1.4856
  108MPD2     C 1645   1.452   1.720  11.891 -0.0457 -0.6341  0.1528
  108MPD2    C1 1646   1.492   1.624  11.987 -0.2677 -0.6863  0.1234
  108MPD2    C2 1647   1.428   1.623  12.108  0.1286  0.0960 -0.0269
  108MPD2    C3 1648   1.322   1.711  12.137  0.5314 -0.6621  0.2110
  108MPD2    C4 1649   1.295   1.809  12.037  0.3255 -0.1440  0.4249
  108MPD2    C5 1650   1.349   1.800  11.914  0.3249 -0.3313  0.0876
  108MPD2     H 1651   1.455   1.551  12.184 -1.2676  0.8845  1.2452
  108MPD2    H1 1652   1.218   1.885  12.047  0.4972  0.3772 -2.0606
  108MPD2    H2 1653   1.505   1.738  11.798  2.2442  1.1305  1.7783
  108MPD2    H3 1654   1.312   1.868  11.838  2.4504 -0.2237 -0.8294
  108MPD2     N 1655   1.262   1.723  12.260 -0.1032 -0.3062 -0.0635
  108MPD2    H5 1656   1.198   1.799  12.282  0.9906  0.1485  1.5008
  108MPD2    N1 1657   1.595   1.527  11.959 -0.1486  0.7862  0.5545
  108MPD2    H7 1658   1.610   1.521  11.859  1.2497 -0.2386  0.8295
  109MPD2     C 1659   3.189   4.230   1.728 -0.4696  0.2929 -0.3530
  109MPD2    C1 1660   3.066   4.298   1.731 -0.0610 -0.1966 -0.3513
  109MPD2    C2 1661   3.024   4.367   1.847  0.3936  0.1282  0.0330
  109MPD2    C3 1662   3.104   4.369   1.951 -0.1211  0.1363  0.4688
  109MPD2    C4 1663   3.218   4.293   1.959 -0.0825 -0.2737  0.4881
  109MPD2    C5 1664   3.258   4.218   1.849 -0.1104  0.2437  0.2445
  109MPD2     H 1665   2.941   4.436   1.838  1.1116  1.3008  2.3913
  109MPD2    H1 1666   3.281   4.292   2.047  0.7281  1.2997 -0.0763
  109MPD2    H2 1667   3.230   4.176   1.644 -2.3635 -0.7121 -0.6284
  109MPD2    H3 1668   3.349   4.161   1.865 -0.2293  0.5322  1.8839
  109MPD2     N 1669   3.053   4.436   2.068  0.2410 -0.2912 -0.0634
  109MPD2    H5 1670   2.959   4.474   2.056  0.2035 -0.5183 -0.5164
  109MPD2    N1 1671   2.981   4.284   1.618  0.1612  0.4304 -0.2960
  109MPD2    H7 1672   3.027   4.245   1.537 -1.3445  2.1004 -1.9417
  110TCq2    C1 1673   3.114   4.445   2.192  0.3610  0.8034  0.4617
  110TCq2    O2 1674   3.215   4.386   2.236 -0.1306  0.4631 -0.5935
  110TCq2    C2 1675   3.028   4.515   2.288 -0.3092 -0.0929  0.4452
  110TCq2    C3 1676   3.057   4.495   2.418  0.8706 -0.0862 -0.0513
  110TCq2    C4 1677   2.972   4.550   2.516 -0.3279 -0.2884  0.0434
  110TCq2    C5 1678   2.878   4.648   2.471 -0.4026 -0.2527  0.5482
  110TCq2    C6 1679   2.868   4.676   2.337  0.0883  0.1882  0.2187
  110TCq2    C7 1680   2.939   4.612   2.242  0.2801  0.0084 -0.7346
  110TCq2    C8 1681   2.807   0.073   2.283  0.0518 -0.1093  0.6108
  110TCq2    O4 1682   2.819   0.098   2.162 -0.0796 -0.4093 -0.3052
  110TCq2    C9 1683   2.966   4.515   2.648 -0.2353  0.4000 -0.0041
  110TCq2    O5 1684   2.872   4.572   2.712 -0.4108 -0.2374 -0.2976
  110TCq2    O6 1685   3.049   4.428   2.692  0.1734 -0.0909  0.6633
  110TCq2    H2 1686   3.136   4.426   2.447  0.4079 -0.1966  0.9711
  110TCq2    H3 1687   2.829   4.704   2.550  0.4136  2.6951 -1.0210
  110TCq2    H4 1688   2.923   4.635   2.137 -0.2113  0.1318 -0.6320
  111TMC2    C1 1689   1.174   3.111  11.984  0.5328 -0.6030 -0.0133
  111TMC2    C2 1690   1.104   2.999  11.968  0.1665 -0.4736  0.4399
  111TMC2    C3 1691   1.171   2.888  11.917 -0.7235 -0.4081  0.0491
  111TMC2    C4 1692   1.310   3.123  11.968  0.2968  0.0202 -0.8245
  111TMC2    C5 1693   1.378   3.007  11.935 -0.1589  0.7502  0.0525
  111TMC2    C6 1694   1.307   2.893  11.909  0.0624  0.1330 -0.0270
  111TMC2     C 1695   1.107   3.228  11.933 -0.4526  0.1198  0.5829
  111TMC2     O 1696   1.099   3.233  11.808  0.6324  0.3897  0.0748
  111TMC2     H 1697   0.996   3.006  11.975  0.0578  0.5444 -2.0001
  111TMC2    H1 1698   1.359   3.220  11.969  0.6829 -0.1791 -0.6510
  111TMC2    H2 1699   1.371   2.808  11.886 -0.0778  0.2042 -0.6955
  111TMC2    C7 1700   1.494   3.017  11.860 -0.2949  0.4666 -0.2839
  111TMC2    C8 1701   1.120   2.753  11.946 -0.2720 -0.3986 -0.1008
  111TMC2    O1 1702   1.515   2.936  11.768  0.4319  0.4247 -0.5622
  111TMC2    O2 1703   1.188   2.680  12.018 -0.2193  0.4926 -0.2939
  111TMC2    O5 1704   0.985   2.752  11.927 -0.1435 -0.2658  0.0630
  111TMC2    H5 1705   0.963   2.816  11.856  0.7433  0.4486  0.4295
  112MPD2     C 1706   1.245   3.713  11.928 -0.1531  0.2535 -1.0452
  112MPD2    C1 1707   1.183   3.635  11.832 -0.5348 -0.5349  0.2054
  112MPD2    C2 1708   1.128   3.516  11.871 -0.1649  0.0961  0.9315
  112MPD2    C3 1709   1.154   3.457  11.998  0.4668  0.6649 -0.4200
  112MPD2    C4 1710   1.213   3.539  12.096  0.0486 -0.0498 -0.7566
  112MPD2    C5 1711   1.258   3.661  12.057  0.2340  0.2403  0.7015
  112MPD2     H 1712   1.072   3.456  11.800  0.4471  0.8169 -0.1609
  112MPD2    H1 1713   1.241   3.500  12.193  0.3132 -3.3289 -2.1522
  112MPD2    H2 1714   1.292   3.808  11.904 -0.9364  1.0087  0.4335
  112MPD2    H3 1715   1.307   3.717  12.136  3.3422 -0.8504 -0.4439
  112MPD2     N 1716   1.136   3.326  12.026 -0.9744 -0.2073 -0.4081
  112MPD2    H5 1717   1.158   3.309  12.123 -0.5694 -0.1888 -0.4952
  112MPD2    N1 1718   1.190   3.660  11.693 -0.1365 -0.3230 -0.1750
  112MPD2    H7 1719   1.136   3.597  11.636 -1.2167 -0.1386  0.6514
  113MPD2     C 1720   0.406   1.461   1.151  0.4459 -0.4710  0.1029
  113MPD2    C1 1721   0.293   1.547   1.146  0.5258  0.1956 -0.1667
  113MPD2    C2 1722   0.171   1.486   1.146  0.2446 -0.0169  0.3643
  113MPD2    C3 1723   0.158   1.347   1.145  0.6127 -0.8816 -0.5162
  113MPD2    C4 1724   0.270   1.271   1.170  0.9225 -0.3519 -0.5698
  113MPD2    C5 1725   0.391   1.326   1.163  0.4996  0.8614 -0.0287
  113MPD2     H 1726   0.086   1.553   1.134  1.2233  0.6311 -3.0066
  113MPD2    H1 1727   0.264   1.162   1.165 -1.2403 -0.2483  0.1591
  113MPD2    H2 1728   0.511   1.489   1.144  0.2976 -0.1801 -1.0579
  113MPD2    H3 1729   0.478   1.263   1.151 -1.7278 -2.2786  0.1643
  113MPD2     N 1730   0.027   1.280   1.139  0.2574  0.2549 -1.0046
  113MPD2    H5 1731   0.022   1.179   1.138  1.4104  0.2239 -2.5716
  113MPD2    N1 1732   0.302   1.690   1.138  0.4462  0.2699  0.1122
  113MPD2    H7 1733   0.215   1.734   1.111 -1.7773 -3.2929  1.4479
  114TCq2    C1 1734   4.631   1.333   1.093  0.0674  0.1818  0.4551
  114TCq2    O2 1735   4.594   1.450   1.070  0.1224  0.2375  0.1400
  114TCq2    C2 1736   4.524   1.231   1.078 -0.3921 -0.1633  0.1376
  114TCq2    C3 1737   4.417   1.269   1.004 -0.1554 -0.1763  0.5544
  114TCq2    C4 1738   4.318   1.180   0.981 -0.0167  0.0612 -0.3174
  114TCq2    C5 1739   4.311   1.064   1.055  0.3640 -0.2774  0.4045
  114TCq2    C6 1740   4.408   1.038   1.151 -0.0210  0.2666  0.4745
  114TCq2    C7 1741   4.523   1.115   1.154 -0.1335  0.0713  0.2944
  114TCq2    C8 1742   4.403   0.910   1.218 -0.4059  0.3319 -0.0554
  114TCq2    O4 1743   4.511   0.871   1.251  0.4579  0.4072 -0.3928
  114TCq2    C9 1744   4.215   1.202   0.879  0.0717  0.6646  0.6764
  114TCq2    O5 1745   4.232   1.298   0.803  0.0242 -0.3033  0.4007
  114TCq2    O6 1746   4.148   1.096   0.840 -0.6670 -0.3855 -0.4124
  114TCq2    H2 1747   4.425   1.350   0.933 -1.3203 -0.9174 -0.4286
  114TCq2    H3 1748   4.221   1.005   1.044 -0.5912  0.9033  2.0109
  114TCq2    H4 1749   4.609   1.089   1.215 -0.0203 -0.9588 -0.3211
  115TMC2    C1 1750   0.799   3.730   0.328 -0.2566  0.4105 -0.0820
  115TMC2    C2 1751   0.933   3.692   0.324 -0.6739 -0.5431 -0.3522
  115TMC2    C3 1752   1.023   3.791   0.345 -0.0225  0.5589  0.2067
  115TMC2    C4 1753   0.758   3.858   0.356  0.3877 -0.2283  0.5568
  115TMC2    C5 1754   0.855   3.950   0.364 -0.1995 -0.1295 -0.1499
  115TMC2    C6 1755   0.985   3.917   0.363 -0.2588 -0.2761 -0.8191
  115TMC2     C 1756   0.711   3.637   0.267  0.1431  0.5491 -0.6841
  115TMC2     O 1757   0.770   3.544   0.211  0.4745 -0.0785  0.4915
  115TMC2     H 1758   0.972   3.591   0.312 -2.1622 -1.2688  0.8630
  115TMC2    H1 1759   0.658   3.897   0.342  0.7817  0.0310 -1.4270
  115TMC2    H2 1760   1.064   3.991   0.366 -0.2237 -0.3285 -0.3961
  115TMC2    C7 1761   0.811   4.088   0.355  0.2085  0.5730 -0.0969
  115TMC2    C8 1762   1.165   3.761   0.330 -0.7645 -0.4224 -0.1375
  115TMC2    O1 1763   0.717   4.128   0.422 -0.7378 -0.5176 -0.3204
  115TMC2    O2 1764   1.205   3.672   0.255  0.1353  0.2832 -0.0991
  115TMC2    O5 1765   1.239   3.841   0.404  0.2715  0.2076 -0.3131
  115TMC2    H5 1766   1.192   3.876   0.483 -0.3676 -1.9964  0.2839
  116MPD2     C 1767   0.242   3.467   0.126  0.0300 -0.0094 -0.2476
  116MPD2    C1 1768   0.372   3.425   0.092 -0.5592  0.9353  0.4392
  116MPD2    C2 1769   0.483   3.482   0.154  0.0393 -0.9155 -0.7766
  116MPD2    C3 1770   0.468   3.594   0.230 -0.1883 -0.4504  0.4912
  116MPD2    C4 1771   0.346   3.653   0.247  0.1632 -0.5713  1.0647
  116MPD2    C5 1772   0.232   3.579   0.206 -0.3151 -0.1447  0.2269
  116MPD2     H 1773   0.578   3.434   0.139  0.5226 -0.6175  1.2860
  116MPD2    H1 1774   0.325   3.747   0.297  0.9233  0.0186  0.2814
  116MPD2    H2 1775   0.156   3.412   0.090  2.3975 -3.8584  0.0316
  116MPD2    H3 1776   0.140   3.627   0.236  1.3281  3.4575 -0.4611
  116MPD2     N 1777   0.574   3.668   0.287 -0.4901 -1.0395  0.0665
  116MPD2    H5 1778   0.552   3.754   0.337  0.3193 -0.8575  0.1106
  116MPD2    N1 1779   0.378   3.321  17.696  0.1557 -0.4992  0.1978
  116MPD2    H7 1780   0.293   3.312  17.641 -2.0466 -0.7847  3.6733
  117TMC2    C1 1781   3.951   1.057  14.524  0.5385  0.1165 -0.1364
  117TMC2    C2 1782   3.986   1.014  14.651  0.3154 -0.1069  0.3279
  117TMC2    C3 1783   4.092   1.088  14.702 -0.1928 -0.2362  1.0877
  117TMC2    C4 1784   4.007   1.162  14.459 -0.0291  0.0281  0.2363
  117TMC2    C5 1785   4.093   1.236  14.535  0.2011  0.0859  0.3325
  117TMC2    C6 1786   4.153   1.196  14.648 -0.0050  0.1043  0.1080
  117TMC2     C 1787   3.822   1.003  14.488  1.2824  0.5633 -0.4338
  117TMC2     O 1788   3.778   0.901  14.540  0.4328 -0.4439  0.0450
  117TMC2     H 1789   3.953   0.923  14.700 -0.2841  0.4590  0.9912
  117TMC2    H1 1790   3.986   1.191  14.357 -0.1931 -1.0534 -0.0338
  117TMC2    H2 1791   4.217   1.252  14.715 -0.0840 -0.5161  0.7018
  117TMC2    C7 1792   4.132   1.363  14.479 -0.8359 -0.4788 -1.1355
  117TMC2    C8 1793   4.132   1.052  14.840  0.4102  0.0236 -0.1740
  117TMC2    O1 1794   4.235   1.399  14.517  0.2987 -0.3171 -0.3160
  117TMC2    O2 1795   4.057   0.980  14.907 -0.6624 -0.0867  0.6563
  117TMC2    O5 1796   4.269   1.056  14.840 -0.1587 -0.0929  0.4083
  117TMC2    H5 1797   4.310   1.049  14.751 -1.3832  0.4300 -0.1941
  118MPD2     C 1798   4.010   1.566  14.202  0.0556  0.1330 -0.4547
  118MPD2    C1 1799   4.104   1.525  14.292  0.6700 -0.1854 -0.2056
  118MPD2    C2 1800   4.234   1.579  14.288  0.2049 -0.1577 -0.0994
  118MPD2    C3 1801   4.273   1.657  14.179 -0.2422 -1.3671  0.0037
  118MPD2    C4 1802   4.177   1.695  14.090  0.5241  0.0840  0.1043
  118MPD2    C5 1803   4.043   1.650  14.102 -0.3203  0.1913  0.0155
  118MPD2     H 1804   4.306   1.547  14.361  0.0854  1.1273  0.5791
  118MPD2    H1 1805   4.195   1.771  14.015 -0.5691  0.1831 -0.0614
  118MPD2    H2 1806   3.910   1.525  14.200 -0.6538  1.8023  0.2528
  118MPD2    H3 1807   3.965   1.657  14.027 -0.0989 -0.1508 -0.2452
  118MPD2     N 1808   4.402   1.710  14.170 -1.1216 -0.1521  0.5007
  118MPD2    H5 1809   4.418   1.762  14.085  0.1188 -0.7813  0.3393
  118MPD2    N1 1810   4.063   1.415  14.372 -0.0057  0.4350  0.0006
  118MPD2    H7 1811   3.976   1.370  14.346  0.1876  0.2620 -0.3516
  119MPD2     C 1812   2.562   2.280  14.194 -0.6877  0.1272 -0.0403
  119MPD2    C1 1813   2.430   2.317  14.198 -0.1069  0.2234 -1.0729
  119MPD2    C2 1814   2.359   2.308  14.079 -0.0071 -0.4037  0.3101
  119MPD2    C3 1815   2.418   2.263  13.962  0.2841 -0.1552  0.9196
  119MPD2    C4 1816   2.552   2.228  13.960 -0.5578  0.0996  0.4562
  119MPD2    C5 1817   2.618   2.237  14.077 -0.4768 -0.1992 -0.5516
  119MPD2     H 1818   2.252   2.324  14.082  0.0163  0.0167 -1.0366
  119MPD2    H1 1819   2.604   2.196  13.871  0.1997 -1.0349  1.2987
  119MPD2    H2 1820   2.615   2.283  14.289 -2.4182  0.3750  0.9131
  119MPD2    H3 1821   2.723   2.211  14.074 -0.2624  0.6589 -0.3227
  119MPD2     N 1822   2.337   2.231  13.843  0.2137 -0.5435  0.2318
  119MPD2    H5 1823   2.382   2.213  13.754 -0.1893 -3.6616  0.6634
  119MPD2    N1 1824   2.374   2.327  14.331  0.4996 -0.5853  0.0340
  119MPD2    H7 1825   2.427   2.297  14.413 -0.2387  1.0567  1.1078
  120TCq2    C1 1826   2.191   2.225  13.850 -0.1534 -0.0319 -0.3925
  120TCq2    O2 1827   2.123   2.211  13.951  0.3437  0.0646 -0.2246
  120TCq2    C2 1828   2.125   2.193  13.724 -0.3418  0.8851 -0.2258
  120TCq2    C3 1829   2.191   2.213  13.603 -0.5894 -0.5686  0.4346
  120TCq2    C4 1830   2.124   2.201  13.490  0.6415 -0.1283  0.2241
  120TCq2    C5 1831   1.994   2.143  13.494  0.0428  0.4765 -0.0588
  120TCq2    C6 1832   1.941   2.112  13.615 -0.3388  0.0019  0.2349
  120TCq2    C7 1833   2.010   2.127  13.727  0.1204  0.0973 -0.0235
  120TCq2    C8 1834   1.826   2.017  13.607 -0.6286  0.3917 -0.8633
  120TCq2    O4 1835   1.756   2.014  13.500 -0.1044  0.1709  0.2786
  120TCq2    C9 1836   2.181   2.244  13.362  1.1137 -0.2599  0.1364
  120TCq2    O5 1837   2.116   2.247  13.260  0.2246  0.4322 -0.0590
  120TCq2    O6 1838   2.309   2.242  13.363 -0.0059  0.0220  0.1089
  120TCq2    H2 1839   2.288   2.260  13.596 -1.3467  0.8676 -0.3971
  120TCq2    H3 1840   1.931   2.163  13.408  0.0115  0.2949 -0.0766
  120TCq2    H4 1841   1.974   2.112  13.829 -1.7481  0.8972 -0.5587
  121TMC2    C1 1842   3.772   3.753  14.091  0.5089  0.6107  0.4505
  121TMC2    C2 1843   3.888   3.672  14.078 -0.2423 -0.3849 -0.1557
  121TMC2    C3 1844   3.876   3.547  14.129 -0.0297  0.0026  0.2789
  121TMC2    C4 1845   3.653   3.685  14.125 -0.1439  0.0637 -0.1744
  121TMC2    C5 1846   3.657   3.553  14.159  0.1168  0.3903  0.1787
  121TMC2    C6 1847   3.769   3.478  14.162  0.2294  0.2677 -0.4490
  121TMC2     C 1848   3.764   3.892  14.063 -0.4951  0.0246  0.1090
  121TMC2     O 1849   3.691   3.956  14.139 -0.3499 -0.0847  0.0012
  121TMC2     H 1850   3.981   3.719  14.046 -0.3671  0.2041  0.3557
  121TMC2    H1 1851   3.564   3.745  14.139 -0.0602 -0.1748  1.3053
  121TMC2    H2 1852   3.769   3.370  14.172  2.4210  0.5034  2.0726
  121TMC2    C7 1853   3.530   3.478  14.158 -0.5605 -0.3252 -0.4821
  121TMC2    C8 1854   3.990   3.459  14.104  1.3697  0.0109 -0.2521
  121TMC2    O1 1855   3.528   3.369  14.212 -0.2112  0.5747 -0.4081
  121TMC2    O2 1856   4.063   3.472  14.005 -0.0597  0.7046  0.4195
  121TMC2    O5 1857   4.018   3.388  14.216  0.4653 -0.1537 -0.1117
  121TMC2    H5 1858   3.960   3.405  14.293  0.5497  1.6740 -0.4498
  122MPD2     C 1859   3.873   4.168  14.034 -0.4480 -0.1580  0.4830
  122MPD2    C1 1860   3.904   4.062  13.950 -0.1197  0.6628  0.5434
  122MPD2    C2 1861   4.005   4.080  13.860  0.1863  0.6548  0.1026
  122MPD2    C3 1862   4.058   4.206  13.832 -0.2647  0.0118  0.0208
  122MPD2    C4 1863   4.023   4.312  13.910  0.1630 -0.1668 -0.4137
  122MPD2    C5 1864   3.935   4.290  14.015  0.1379  0.7828 -0.2460
  122MPD2     H 1865   4.034   3.996  13.797 -0.6190  2.3827 -2.5749
  122MPD2    H1 1866   4.048   4.412  13.877 -2.1042  1.1291  1.7670
  122MPD2    H2 1867   3.795   4.162  14.110 -0.7843  1.5650  0.2754
  122MPD2    H3 1868   3.894   4.372  14.072  1.2309  1.0734  0.1101
  122MPD2     N 1869   4.132   4.236  13.713  0.5640 -0.6811  0.1665
  122MPD2    H5 1870   4.176   4.327  13.708  0.8326 -0.8952 -1.6497
  122MPD2    N1 1871   3.852   3.933  13.964 -0.1869 -0.4354  0.1549
  122MPD2    H7 1872   3.878   3.864  13.894 -1.6690 -0.1499 -0.6775
  123MPD2     C 1873   2.534   3.133   9.430 -0.0522  0.6882  0.4610
  123MPD2    C1 1874   2.497   3.026   9.505 -0.3239  0.1175 -0.0153
  123MPD2    C2 1875   2.602   2.947   9.551 -0.4069  0.1839 -0.2343
  123MPD2    C3 1876   2.736   2.983   9.533  0.4657 -0.6308  0.6877
  123MPD2    C4 1877   2.765   3.086   9.447 -0.2394 -0.2156 -0.4956
  123MPD2    C5 1878   2.663   3.164   9.404  0.3018 -0.0531  0.2387
  123MPD2     H 1879   2.584   2.854   9.605 -2.1499  0.3200 -0.5532
  123MPD2    H1 1880   2.863   3.114   9.409 -0.7703 -1.5341 -2.8398
  123MPD2    H2 1881   2.455   3.193   9.385 -0.7778 -1.1626 -0.7172
  123MPD2    H3 1882   2.680   3.257   9.350  1.2774 -0.1474  0.3821
  123MPD2     N 1883   2.829   2.890   9.585 -0.2825 -0.0263 -0.2964
  123MPD2    H5 1884   2.793   2.822   9.651  0.4674 -1.5662 -1.4578
  123MPD2    N1 1885   2.364   2.980   9.509 -0.0833  0.2998 -0.1792
  123MPD2    H7 1886   2.303   3.019   9.437  1.0107 -1.3086 -1.9525
  124TCq2    C1 1887   2.968   2.907   9.580 -0.7740 -0.5857  0.7116
  124TCq2    O2 1888   3.028   2.997   9.529 -0.1465  0.3402 -0.1339
  124TCq2    C2 1889   3.045   2.801   9.641  0.0452 -0.2857  0.2279
  124TCq2    C3 1890   3.180   2.781   9.609  0.2642 -0.2418 -1.2216
  124TCq2    C4 1891   3.256   2.693   9.679 -0.0549 -0.0406 -0.6417
  124TCq2    C5 1892   3.187   2.607   9.766 -0.2266  0.2253  0.4172
  124TCq2    C6 1893   3.054   2.618   9.788  0.3320  0.3524  0.5525
  124TCq2    C7 1894   2.975   2.710   9.721  0.3112 -0.1793  0.7418
  124TCq2    C8 1895   2.984   2.502   9.842 -0.4916  0.0663 -0.2873
  124TCq2    O4 1896   2.875   2.469   9.799  1.4237  0.3064 -0.7144
  124TCq2    C9 1897   3.396   2.671   9.648 -1.0656 -0.1512 -0.3406
  124TCq2    O5 1898   3.449   2.561   9.690 -0.0553 -0.8151  0.5777
  124TCq2    O6 1899   3.439   2.747   9.555  0.0722  0.0655 -0.2923
  124TCq2    H2 1900   3.238   2.845   9.543  1.7193 -1.5781 -1.2302
  124TCq2    H3 1901   3.254   2.530   9.803 -0.7653 -1.3635 -1.8643
  124TCq2    H4 1902   2.880   2.723   9.770  1.1676 -0.7183  2.5461
  125TMC2    C1 1903   2.750   3.101   9.898  0.3725  0.2201 -0.0691
  125TMC2    C2 1904   2.617   3.071   9.878 -0.1150 -0.3383 -0.4405
  125TMC2    C3 1905   2.543   3.153   9.800  0.3836 -0.8188  0.0735
  125TMC2    C4 1906   2.803   3.217   9.848 -0.2615  0.0538 -0.0329
  125TMC2    C5 1907   2.721   3.292   9.775  0.1200 -0.9221 -0.0620
  125TMC2    C6 1908   2.591   3.264   9.746  0.4524 -0.2098 -1.0022
  125TMC2     C 1909   2.818   2.989   9.952  0.0816  0.3635 -0.0774
  125TMC2     O 1910   2.758   2.902  10.011 -0.1636  0.1450 -0.5766
  125TMC2     H 1911   2.573   2.978   9.912  1.7306 -0.3484  1.9844
  125TMC2    H1 1912   2.902   3.247   9.882 -0.3406  0.8556 -0.4999
  125TMC2    H2 1913   2.530   3.310   9.669 -0.0781  0.1944 -0.3446
  125TMC2    C7 1914   2.766   3.406   9.701 -0.4399  0.2976  0.9802
  125TMC2    C8 1915   2.403   3.149   9.818  0.5698 -0.4934  0.6400
  125TMC2    O1 1916   2.682   3.478   9.652  0.7491 -0.2114  0.0514
  125TMC2    O2 1917   2.330   3.214   9.744  0.0067  0.0600  0.6769
  125TMC2    O5 1918   2.388   3.141   9.952 -0.1793 -0.0134  0.6312
  125TMC2    H5 1919   2.454   3.079   9.991 -1.4108 -1.5465  0.2634
  126MPD1     C 1920   3.262   2.779  10.096 -0.0520  0.3842  0.2416
  126MPD1    C1 1921   3.285   2.879  10.010 -0.1990 -0.1218 -0.5099
  126MPD1    C2 1922   3.184   2.960   9.970 -0.9276  0.4215  0.1707
  126MPD1    C3 1923   3.050   2.921   9.990  0.2355  0.2503  0.1999
  126MPD1    C4 1924   3.027   2.808  10.059  0.5598 -0.0753  0.6954
  126MPD1    C5 1925   3.133   2.739  10.120  0.3281  0.4823  0.5489
  126MPD1     H 1926   3.207   3.052   9.918 -0.5681  0.2742  0.0734
  126MPD1    H1 1927   2.930   2.767  10.085 -0.0416  0.9772  0.1225
  126MPD1    H2 1928   3.343   2.718  10.136 -0.5931  0.4857  1.5114
  126MPD1    H3 1929   3.102   2.659  10.186  0.4621 -0.7059 -0.8260
  126MPD1     N 1930   2.954   3.012   9.947 -0.1168  0.3845  0.2079
  126MPD1    H5 1931   2.986   3.094   9.896 -2.7115 -0.6236 -3.0136
  126MPD1    N1 1932   3.413   2.920   9.977 -0.2550 -0.1810  0.3289
  126MPD1    H6 1933   3.398   2.957   9.883 -1.5022  1.2492  1.0977
  126MPD1    H7 1934   3.479   2.843   9.971  2.2461  2.1687 -1.9623
  127MPD2     C 1935   4.380   2.349   9.437  0.5175  0.1281 -0.0647
  127MPD2    C1 1936   4.365   2.342   9.574 -0.1155  0.5458 -0.1972
  127MPD2    C2 1937   4.409   2.449   9.655  0.5286  0.1422  0.8132
  127MPD2    C3 1938   4.458   2.562   9.594 -0.0945 -0.5998  0.0564
  127MPD2    C4 1939   4.461   2.571   9.456 -0.1060  0.6681 -0.4310
  127MPD2    C5 1940   4.423   2.463   9.382  0.6142 -0.0109  0.3748
  127MPD2     H 1941   4.410   2.443   9.763  0.1518 -2.6253  0.6721
  127MPD2    H1 1942   4.489   2.665   9.409 -1.7675  0.1295 -2.4758
  127MPD2    H2 1943   4.358   2.261   9.378  2.8053  1.4805 -2.9146
  127MPD2    H3 1944   4.427   2.469   9.274  0.1484 -0.9038  0.3038
  127MPD2     N 1945   4.480   2.674   9.681  0.7637 -0.2902 -0.5520
  127MPD2    H5 1946   4.471   2.658   9.780 -1.1220 -1.9647 -0.9968
  127MPD2    N1 1947   4.321   2.218   9.628  0.6841  0.7874 -0.4365
  127MPD2    H7 1948   4.312   2.147   9.556  1.6453  0.4082 -0.1815
  128TCq2    C1 1949   4.275   2.187   9.753 -0.4408  0.2832  0.4042
  128TCq2    O2 1950   4.271   2.264   9.851  0.0173  0.0823  0.1132
  128TCq2    C2 1951   4.260   2.044   9.779 -1.0548  1.3902 -0.1578
  128TCq2    C3 1952   4.188   2.011   9.891  0.7009 -0.3950  0.0290
  128TCq2    C4 1953   4.152   1.877   9.907 -0.0889  0.9237 -0.2268
  128TCq2    C5 1954   4.191   1.774   9.825  0.4421  0.6851  0.3349
  128TCq2    C6 1955   4.266   1.810   9.721  0.6985  0.6336  0.1277
  128TCq2    C7 1956   4.301   1.940   9.691  0.2743  0.2761  1.0280
  128TCq2    C8 1957   4.271   1.722   9.605  0.3073 -0.2269  0.2714
  128TCq2    O4 1958   4.337   1.764   9.509 -0.2622 -0.0923 -0.1236
  128TCq2    C9 1959   4.061   1.840  10.012 -0.0457  0.1763 -0.0408
  128TCq2    O5 1960   4.015   1.718  10.006  0.0932 -0.4418  0.7354
  128TCq2    O6 1961   4.020   1.934  10.084 -0.0595  0.4697  0.1712
  128TCq2    H2 1962   4.158   2.084   9.965  1.5506  1.6255 -1.6166
  128TCq2    H3 1963   4.162   1.673   9.851  0.7927  0.2772 -0.8939
  128TCq2    H4 1964   4.356   1.970   9.603  1.2445 -2.6295  0.6370
  129MPD2     C 1965   2.747   3.774   1.291  0.0308  0.2263  0.0201
  129MPD2    C1 1966   2.789   3.859   1.394  0.3713 -0.5483  0.1612
  129MPD2    C2 1967   2.909   3.930   1.377 -0.2796 -0.8071  0.0453
  129MPD2    C3 1968   2.985   3.915   1.263  0.3074 -0.1618 -0.0161
  129MPD2    C4 1969   2.949   3.823   1.173  0.0342  0.3563 -0.3323
  129MPD2    C5 1970   2.829   3.756   1.187  0.3024  0.3921 -0.3624
  129MPD2     H 1971   2.950   3.989   1.457 -0.2127  1.7708 -1.8874
  129MPD2    H1 1972   2.994   3.814   1.075  0.2004 -2.4965  0.0029
  129MPD2    H2 1973   2.671   3.699   1.309 -0.8908  0.9756 -0.7838
  129MPD2    H3 1974   2.804   3.688   1.107  1.1778 -0.8284  0.3991
  129MPD2     N 1975   3.102   3.988   1.234 -0.4881 -0.1462  0.6628
  129MPD2    H5 1976   3.160   3.952   1.159 -0.2441 -0.1436  0.8511
  129MPD2    N1 1977   2.716   3.868   1.514  0.3804  0.0215 -0.7072
  129MPD2    H7 1978   2.758   3.922   1.588  3.1420 -1.1606 -1.4325
  130TCq2    C1 1979   2.585   3.835   1.531 -0.0999  0.0200  0.2196
  130TCq2    O2 1980   2.501   3.778   1.460 -0.3595  0.6791  0.1819
  130TCq2    C2 1981   2.540   3.867   1.661 -0.6790  0.7573  0.2291
  130TCq2    C3 1982   2.618   3.815   1.763 -0.0199  0.5280  0.9173
  130TCq2    C4 1983   2.551   3.747   1.859 -0.7235 -0.5267 -0.2700
  130TCq2    C5 1984   2.410   3.726   1.855 -0.3694  0.2168  0.2709
  130TCq2    C6 1985   2.342   3.767   1.748 -0.4983 -0.5208  0.4063
  130TCq2    C7 1986   2.403   3.844   1.655  0.2857  0.2978  0.2124
  130TCq2    C8 1987   2.234   3.676   1.697  0.5413 -0.4790 -0.0321
  130TCq2    O4 1988   2.158   3.626   1.775  0.3164 -0.1016  0.9460
  130TCq2    C9 1989   2.611   3.681   1.967  0.1571  0.4388  0.1192
  130TCq2    O5 1990   2.730   3.660   1.944  1.0548  0.3292  0.2114
  130TCq2    O6 1991   2.539   3.625   2.054  0.1284  0.2289  0.6618
  130TCq2    H2 1992   2.725   3.817   1.746 -0.1850 -0.4007 -0.2200
  130TCq2    H3 1993   2.353   3.675   1.932  1.5856  1.6613  2.7030
  130TCq2    H4 1994   2.351   3.887   1.571  1.1452 -0.5259 -0.7569
  131MPD2     C 1995   2.026   2.098   9.781 -0.1773 -0.0036  0.2629
  131MPD2    C1 1996   2.114   2.185   9.847 -0.4924 -0.4501 -0.3760
  131MPD2    C2 1997   2.116   2.324   9.824  0.4223  0.7282  0.1804
  131MPD2    C3 1998   2.032   2.364   9.713 -0.2536  0.0046  0.5291
  131MPD2    C4 1999   1.959   2.276   9.641  0.1883  0.1082  0.2113
  131MPD2    C5 2000   1.952   2.144   9.674 -0.2092 -0.3450  0.1850
  131MPD2     H 2001   2.164   2.394   9.891  1.2240 -0.1346  0.5074
  131MPD2    H1 2002   1.903   2.312   9.556  1.1194 -0.2387 -0.5477
  131MPD2    H2 2003   2.028   1.993   9.811  0.4788 -0.2993 -0.8376
  131MPD2    H3 2004   1.880   2.088   9.616 -0.2988  1.4210 -1.3951
  131MPD2     N 2005   2.035   2.505   9.682  0.1330 -0.0267 -0.3333
  131MPD2    H5 2006   2.088   2.571   9.739  1.1431 -0.3923 -0.8492
  131MPD2    N1 2007   2.191   2.121   9.950  0.1574  0.3013 -0.5059
  131MPD2    H7 2008   2.181   2.021   9.961  1.0305 -0.1167 -3.4234
  132TCq2    C1 2009   2.672   2.130  10.316  0.6001  0.0918 -0.1713
  132TCq2    O2 2010   2.752   2.050  10.363  0.2689  0.1406  0.0883
  132TCq2    C2 2011   2.548   2.080  10.265 -0.3938 -0.1884  0.1303
  132TCq2    C3 2012   2.526   1.948  10.285 -0.0044 -0.6175  0.3843
  132TCq2    C4 2013   2.415   1.896  10.220 -0.0787  0.1891  0.2234
  132TCq2    C5 2014   2.332   1.976  10.143 -0.0483  0.0739 -0.0254
  132TCq2    C6 2015   2.359   2.108  10.125 -0.7283 -0.1077  0.4086
  132TCq2    C7 2016   2.473   2.158  10.187  0.2020  0.4646 -0.7665
  132TCq2    C8 2017   2.279   2.192  10.033  0.5010 -0.7989 -0.0997
  132TCq2    O4 2018   2.306   2.307  10.042 -0.0954  0.0093  0.1827
  132TCq2    C9 2019   2.395   1.755  10.228  0.1188  0.4252 -0.2001
  132TCq2    O5 2020   2.290   1.698  10.199  0.6513  0.3392  0.2796
  132TCq2    O6 2021   2.493   1.692  10.272  0.4356 -0.5644 -0.0282
  132TCq2    H2 2022   2.592   1.888  10.347  1.1030 -0.3029 -0.5176
  132TCq2    H3 2023   2.241   1.929  10.106 -0.7036  0.8751  0.5667
  132TCq2    H4 2024   2.487   2.265  10.179  0.2500  0.4659 -0.6616
  133MPD2     C 2025   1.604   2.917   9.736  0.6076 -0.5076 -0.0566
  133MPD2    C1 2026   1.685   2.809   9.779  0.1888 -0.3705  0.6846
  133MPD2    C2 2027   1.645   2.677   9.753 -0.1382 -0.5847  0.0012
  133MPD2    C3 2028   1.528   2.657   9.678  0.2031  0.4467 -0.5210
  133MPD2    C4 2029   1.451   2.759   9.634  0.2605  0.5070  0.1189
  133MPD2    C5 2030   1.484   2.891   9.672  0.5193  0.3709  0.0587
  133MPD2     H 2031   1.702   2.596   9.797  1.2432 -0.5968 -1.8131
  133MPD2    H1 2032   1.355   2.740   9.587  1.7640 -2.4984 -1.7910
  133MPD2    H2 2033   1.621   3.023   9.755 -0.2316 -0.2740 -0.6123
  133MPD2    H3 2034   1.420   2.974   9.642 -0.9138 -0.6040  0.4209
  133MPD2     N 2035   1.489   2.526   9.642 -0.3508  0.3008  0.2955
  133MPD2    H5 2036   1.406   2.517   9.585  0.2361 -1.1843 -0.3397
  133MPD2    N1 2037   1.794   2.846   9.862 -0.0168 -0.3762 -0.7829
  133MPD2    H7 2038   1.805   2.945   9.881 -0.3565 -0.4571 -0.1463
  134TCq2    C1 2039   1.890   2.765   9.919  0.3025  0.1665  0.5354
  134TCq2    O2 2040   1.910   2.641   9.907  0.0552 -0.6142 -0.1775
  134TCq2    C2 2041   1.989   2.851   9.984  0.3188  0.2173 -0.5038
  134TCq2    C3 2042   2.114   2.797   9.998  0.2791  0.3885 -0.2367
  134TCq2    C4 2043   2.212   2.870  10.048 -0.1221  0.3928  0.2550
  134TCq2    C5 2044   2.186   2.998  10.085 -0.1285  0.4078  0.2366
  134TCq2    C6 2045   2.061   3.055  10.067  0.2021 -0.4873  0.2802
  134TCq2    C7 2046   1.955   2.975  10.033 -0.5380 -0.5260  0.1825
  134TCq2    C8 2047   2.031   3.195  10.105  1.3169 -0.5640  0.0347
  134TCq2    O4 2048   1.915   3.231  10.100  0.0540 -0.5821 -0.0152
  134TCq2    C9 2049   2.348   2.833  10.039  0.0682 -0.2731  0.8623
  134TCq2    O5 2050   2.430   2.919  10.082 -0.6801  0.4085  0.4797
  134TCq2    O6 2051   2.376   2.709  10.017 -0.2535 -0.4606 -0.2834
  134TCq2    H2 2052   2.135   2.691   9.988  0.0966  0.1588  1.6967
  134TCq2    H3 2053   2.270   3.049  10.132 -0.4906  2.7047 -1.6416
  134TCq2    H4 2054   1.857   3.020  10.025  0.4024  1.3095 -1.3878
  135MPD2     C 2055   3.308   3.870   9.707  0.3439 -0.3345 -0.5445
  135MPD2    C1 2056   3.299   3.967   9.612  0.0250  0.6491  0.4058
  135MPD2    C2 2057   3.385   3.969   9.501 -0.4640 -0.0408 -0.4026
  135MPD2    C3 2058   3.483   3.875   9.487  0.7579 -0.7053 -0.4559
  135MPD2    C4 2059   3.492   3.779   9.582 -0.1871 -0.0362  0.0512
  135MPD2    C5 2060   3.408   3.771   9.680 -0.2476 -0.1880  0.4474
  135MPD2     H 2061   3.367   4.051   9.432 -1.5998  0.3631  0.3753
  135MPD2    H1 2062   3.561   3.695   9.586  0.2627  0.3461  0.3796
  135MPD2    H2 2063   3.245   3.853   9.794  0.4342  2.7433  0.1106
  135MPD2    H3 2064   3.411   3.683   9.743  3.0764 -0.9771 -0.8003
  135MPD2     N 2065   3.575   3.871   9.376 -0.6125  0.3638  0.2286
  135MPD2    H5 2066   3.648   3.800   9.380 -1.6425 -0.6074  1.8683
  135MPD2    N1 2067   3.208   4.071   9.622  0.4205 -0.7459  0.0346
  135MPD2    H7 2068   3.200   4.136   9.545  0.2470  0.1575  0.8109
  136TCq2    C1 2069   3.120   4.079   9.727 -0.0257  0.0467 -0.1409
  136TCq2    O2 2070   3.080   4.003   9.814 -0.8015 -0.5851 -0.6507
  136TCq2    C2 2071   3.038   4.198   9.706 -0.2869 -0.1956  0.1072
  136TCq2    C3 2072   3.090   4.308   9.656  0.5392  0.1124  0.1753
  136TCq2    C4 2073   3.005   4.410   9.637  0.2775 -0.2131 -0.1042
  136TCq2    C5 2074   2.881   4.410   9.683  0.0930  0.1909  0.0957
  136TCq2    C6 2075   2.841   4.306   9.757  0.2792 -0.5727  0.1502
  136TCq2    C7 2076   2.913   4.193   9.760  0.3950  0.2249  0.1296
  136TCq2    C8 2077   2.695   4.295   9.782  0.4911  0.1070 -0.2673
  136TCq2    O4 2078   2.630   4.390   9.739  0.4480  0.0646 -0.0064
  136TCq2    C9 2079   3.049   4.520   9.555 -0.3844 -0.1936 -0.8588
  136TCq2    O5 2080   2.961   4.603   9.533  0.2276 -0.1505  0.1807
  136TCq2    O6 2081   3.157   4.505   9.489  0.9038  0.4025  0.4996
  136TCq2    H2 2082   3.192   4.312   9.619  0.1570  0.0870 -0.8987
  136TCq2    H3 2083   2.822   4.501   9.671 -0.2705 -0.4249 -2.7267
  136TCq2    H4 2084   2.874   4.095   9.784  1.9553 -0.0053  1.7380
  137MPD2     C 2085   3.548   2.691  10.358  0.6554  0.0892  0.9011
  137MPD2    C1 2086   3.541   2.825  10.332  0.4969 -0.5769 -0.3387
  137MPD2    C2 2087   3.447   2.897  10.407  0.6296 -0.2266  0.7071
  137MPD2    C3 2088   3.347   2.843  10.481  0.0126  0.3911  0.5928
  137MPD2    C4 2089   3.349   2.702  10.495  0.1140  0.4954 -0.2267
  137MPD2    C5 2090   3.455   2.630  10.436 -0.0470  0.1671  0.1257
  137MPD2     H 2091   3.440   3.005  10.404 -0.3892 -0.3217 -0.1693
  137MPD2    H1 2092   3.273   2.661  10.560  0.5203  0.8233  0.4502
  137MPD2    H2 2093   3.621   2.633  10.303  0.6041  2.3171 -1.5280
  137MPD2    H3 2094   3.463   2.523  10.453  0.6077  0.0362 -1.0159
  137MPD2     N 2095   3.252   2.926  10.549  0.1547  0.5601  0.0409
  137MPD2    H5 2096   3.263   3.027  10.553  0.2662  0.5337  0.3474
  137MPD2    N1 2097   3.637   2.889  10.250 -0.2492 -0.2784  1.2810
  137MPD2    H7 2098   3.704   2.829  10.204  1.6199  3.5283 -0.9299
  138TCq2    C1 2099   3.646   3.020  10.213  0.6161  0.1656 -0.0604
  138TCq2    O2 2100   3.582   3.112  10.256  0.1041  0.0725  0.7592
  138TCq2    C2 2101   3.734   3.047  10.098  0.7155  0.2131  0.1453
  138TCq2    C3 2102   3.753   2.954   9.997  0.7442 -0.3376 -0.2540
  138TCq2    C4 2103   3.757   2.998   9.864 -0.0337 -0.2524  0.0147
  138TCq2    C5 2104   3.735   3.131   9.834 -0.3416 -0.4664 -0.6571
  138TCq2    C6 2105   3.723   3.219   9.937 -0.8595  0.2998 -0.0404
  138TCq2    C7 2106   3.727   3.178  10.070 -0.7480  0.9316 -0.3497
  138TCq2    C8 2107   3.610   3.300   9.912  0.2247  0.5899 -0.0303
  138TCq2    O4 2108   3.615   3.370   9.811 -0.4740  0.3970  0.1743
  138TCq2    C9 2109   3.771   2.902   9.757  0.6678 -0.6438 -0.5756
  138TCq2    O5 2110   3.765   2.778   9.789 -0.0390 -0.4282  0.3792
  138TCq2    O6 2111   3.757   2.952   9.645 -0.0722  0.0532  0.2778
  138TCq2    H2 2112   3.734   2.849  10.019 -0.8021 -0.1257 -0.5714
  138TCq2    H3 2113   3.696   3.154   9.735  2.0282  2.2056 -0.9546
  138TCq2    H4 2114   3.712   3.252  10.148 -0.6648  0.9607 -0.3617
  139TMC2    C1 2115   3.809   2.001  13.398  0.2874  0.3564 -0.6125
  139TMC2    C2 2116   3.756   2.007  13.264  0.0074  0.2790 -0.4078
  139TMC2    C3 2117   3.622   2.045  13.251  0.6645  0.0213  0.0606
  139TMC2    C4 2118   3.740   2.020  13.512  0.5204 -0.3681 -0.3461
  139TMC2    C5 2119   3.604   2.042  13.492 -0.3460  0.4996  0.5281
  139TMC2    C6 2120   3.542   2.064  13.371 -0.4417 -0.6169 -0.0257
  139TMC2     C 2121   3.946   1.970  13.413  0.5214  0.1742  0.2448
  139TMC2     O 2122   3.976   1.873  13.340  0.0007 -0.0953 -0.8606
  139TMC2     H 2123   3.826   2.002  13.182  0.2131  0.8271 -0.2661
  139TMC2    H1 2124   3.778   2.000  13.611 -0.6731  0.4855  0.2752
  139TMC2    H2 2125   3.434   2.054  13.380 -0.3678 -0.9981  0.4196
  139TMC2    C7 2126   3.530   2.095  13.600 -0.2668 -0.2419  0.6221
  139TMC2    C8 2127   3.562   2.013  13.116 -0.1667  0.1301  0.5455
  139TMC2    O1 2128   3.419   2.124  13.579 -0.1954 -0.0819 -0.4148
  139TMC2    O2 2129   3.620   1.930  13.048  0.1689  0.1745  0.1640
  139TMC2    O5 2130   3.441   2.067  13.091  0.4739  0.1968 -0.5323
  139TMC2    H5 2131   3.414   2.141  13.148 -0.5488  0.8079 -1.8032
  140MPD2     C 2132   4.219   2.051  13.625 -0.4912  0.5028  0.3783
  140MPD2    C1 2133   4.157   2.008  13.514 -0.6534 -0.2679  0.1498
  140MPD2    C2 2134   4.228   1.948  13.416 -0.2418  0.1602 -0.2248
  140MPD2    C3 2135   4.361   1.902  13.432 -0.3128 -0.7123 -0.6184
  140MPD2    C4 2136   4.422   1.945  13.551 -0.4370 -0.3929 -0.1547
  140MPD2    C5 2137   4.353   2.022  13.641  0.2506 -0.1389 -0.7454
  140MPD2     H 2138   4.187   1.929  13.317  0.3816 -1.3389 -0.1999
  140MPD2    H1 2139   4.528   1.931  13.568 -0.5730  0.1451  1.1445
  140MPD2    H2 2140   4.156   2.099  13.699  0.3905  0.0080  1.4519
  140MPD2    H3 2141   4.413   2.047  13.729 -2.3048  1.2409  0.5928
  140MPD2     N 2142   4.430   1.844  13.326  0.1107  0.5754  0.1743
  140MPD2    H5 2143   4.365   1.828  13.249 -1.4254 -1.3764  1.8859
  140MPD2    N1 2144   4.021   2.036  13.503 -0.1154 -0.2771 -0.2640
  140MPD2    H7 2145   3.974   2.097  13.569  2.6053 -0.5799  1.9807
  141TCq2    C1 2146   4.376   2.988  14.434 -0.1645  0.2040 -0.2629
  141TCq2    O2 2147   4.307   3.067  14.370  0.1740  0.2822 -0.0259
  141TCq2    C2 2148   4.373   2.989  14.581 -0.1884 -0.3336 -0.1042
  141TCq2    C3 2149   4.403   2.875  14.656 -0.4775  0.2944 -0.1189
  141TCq2    C4 2150   4.444   2.883  14.790  0.4545  0.1068 -0.1829
  141TCq2    C5 2151   4.455   3.001  14.853  0.1264 -0.3180 -0.3854
  141TCq2    C6 2152   4.435   3.112  14.776 -0.1326  0.1360  0.1214
  141TCq2    C7 2153   4.391   3.111  14.643  0.5058 -0.2130  0.2311
  141TCq2    C8 2154   4.475   3.233  14.842 -0.7499 -0.7388 -0.0236
  141TCq2    O4 2155   4.498   3.230  14.960 -0.0218 -0.1789  0.1822
  141TCq2    C9 2156   4.461   2.761  14.858 -0.4538  0.4108  0.0157
  141TCq2    O5 2157   4.485   2.665  14.784  0.0040  0.0467  0.1487
  141TCq2    O6 2158   4.477   2.767  14.981  0.1933 -0.0563  0.4424
  141TCq2    H2 2159   4.398   2.776  14.614 -1.3696 -0.2173  1.1949
  141TCq2    H3 2160   4.494   3.006  14.954 -2.3435 -0.1748  0.5500
  141TCq2    H4 2161   4.382   3.205  14.591  1.3978 -0.8066 -0.9885
  142MPD2     C 2162   1.892   1.757   9.501 -0.5671  0.2157  0.0805
  142MPD2    C1 2163   1.985   1.860   9.485  0.5893 -0.0762 -0.6677
  142MPD2    C2 2164   2.100   1.868   9.560 -0.0892  0.4924 -0.2695
  142MPD2    C3 2165   2.113   1.776   9.666  0.0946 -0.0281  0.6616
  142MPD2    C4 2166   2.029   1.671   9.688 -0.0165  0.5296  0.0359
  142MPD2    C5 2167   1.926   1.666   9.596 -0.1906  0.4989 -0.4298
  142MPD2     H 2168   2.166   1.954   9.550 -0.2575  0.4450 -1.8150
  142MPD2    H1 2169   2.045   1.606   9.773  0.4096  0.3911 -0.1486
  142MPD2    H2 2170   1.806   1.739   9.437  0.6294 -0.8266 -1.2289
  142MPD2    H3 2171   1.868   1.575   9.586  0.2039  0.0802  1.0192
  142MPD2     N 2172   2.218   1.787   9.755 -0.0907 -0.4577  0.3003
  142MPD2    H5 2173   2.226   1.721   9.832 -1.9974 -0.6224  0.3626
  142MPD2    N1 2174   1.954   1.953   9.383 -0.6171 -0.2269 -0.6394
  142MPD2    H7 2175   1.862   1.944   9.342 -1.2319  3.2079  0.0253
  143TCq2    C1 2176   2.329   1.873   9.742  0.5070 -0.2151 -0.0269
  143TCq2    O2 2177   2.345   1.972   9.670 -0.4708 -0.3019  0.0063
  143TCq2    C2 2178   2.426   1.847   9.841 -0.6122 -0.8259 -0.3837
  143TCq2    C3 2179   2.450   1.717   9.883 -0.2521  0.2295 -0.3437
  143TCq2    C4 2180   2.571   1.698   9.945 -0.4154 -0.6602 -0.5533
  143TCq2    C5 2181   2.661   1.794   9.971  0.4875 -0.4744  0.1721
  143TCq2    C6 2182   2.631   1.920   9.924  0.6090  0.1244 -0.4080
  143TCq2    C7 2183   2.518   1.945   9.853 -0.2924  0.4578  0.3271
  143TCq2    C8 2184   2.725   2.028   9.938 -0.3841 -0.0960  0.2048
  143TCq2    O4 2185   2.694   2.139   9.898 -0.0289 -0.2235 -0.5884
  143TCq2    C9 2186   2.600   1.561   9.972 -0.9254  0.1788 -0.5057
  143TCq2    O5 2187   2.500   1.479   9.991  0.2331  0.4936 -0.2358
  143TCq2    O6 2188   2.718   1.532  10.001  0.5960  0.4662 -0.3930
  143TCq2    H2 2189   2.378   1.637   9.870 -1.0730  0.8163  0.6085
  143TCq2    H3 2190   2.760   1.764  10.001  0.5837 -0.1932  0.1304
  143TCq2    H4 2191   2.500   2.041   9.807  0.0324  0.6704  0.6532
  144MPD2     C 2192   4.288   0.686   0.838 -0.2943 -0.2725  0.5854
  144MPD2    C1 2193   4.366   0.653   0.732  0.0388  0.1133  0.5807
  144MPD2    C2 2194   4.498   0.613   0.753  0.2834  0.2286 -0.4195
  144MPD2    C3 2195   4.556   0.611   0.881 -0.1278  0.5377 -0.6004
  144MPD2    C4 2196   4.480   0.649   0.985 -0.8612 -0.3662  0.7543
  144MPD2    C5 2197   4.344   0.685   0.968  0.0966  0.1203 -0.0433
  144MPD2     H 2198   4.549   0.582   0.663 -0.3232  1.7033 -1.2760
  144MPD2    H1 2199   4.523   0.663   1.084  2.4946 -0.5530 -0.6787
  144MPD2    H2 2200   4.182   0.702   0.827 -0.1036  0.9844  0.5695
  144MPD2    H3 2201   4.287   0.709   1.057 -1.4467  2.8397 -1.7689
  144MPD2     N 2202   4.691   0.602   0.907 -0.8421 -0.0509  0.7682
  144MPD2    H5 2203   4.723   0.624   1.001  0.3946 -0.2394  0.3800
  144MPD2    N1 2204   4.307   0.639   0.603  0.3491  0.4827 -0.5622
  144MPD2    H7 2205   4.368   0.596   0.535  1.0402 -0.2219  0.4983
  145TCq2    C1 2206   0.064   0.551   0.826 -1.1112  0.8644 -0.2610
  145TCq2    O2 2207   0.044   0.512   0.713  0.0334 -0.2564 -0.2974
  145TCq2    C2 2208   0.200   0.531   0.888 -0.1883  0.5506  0.0741
  145TCq2    C3 2209   0.303   0.506   0.799  0.6435  0.3797 -0.2304
  145TCq2    C4 2210   0.432   0.467   0.850 -0.0509  0.9681 -0.2040
  145TCq2    C5 2211   0.452   0.471   0.982  0.3544 -0.4762 -0.1328
  145TCq2    C6 2212   0.352   0.510   1.067  0.1138  0.2424 -0.2902
  145TCq2    C7 2213   0.231   0.542   1.023 -0.1755  0.3993 -0.2273
  145TCq2    C8 2214   0.389   0.551   1.203  0.2202 -0.4461 -0.3336
  145TCq2    O4 2215   0.504   0.518   1.242 -0.8307 -0.4195  0.3322
  145TCq2    C9 2216   0.540   0.434   0.763  0.5253 -0.3948  0.1080
  145TCq2    O5 2217   0.655   0.446   0.810 -0.0577  0.0266  0.0724
  145TCq2    O6 2218   0.512   0.413   0.643 -0.0428 -0.3881 -0.0530
  145TCq2    H2 2219   0.286   0.494   0.692  1.7359 -0.3129 -0.3237
  145TCq2    H3 2220   0.552   0.451   1.017 -0.3302 -0.9741  1.5656
  145TCq2    H4 2221   0.160   0.574   1.098  0.8480  0.6782  0.6182
  146TMC2    C1 2222   1.442   4.700  12.366  0.2373  0.5478  0.0868
  146TMC2    C2 2223   1.401   0.065  12.274  0.3556 -0.7409 -0.1946
  146TMC2    C3 2224   1.406   0.050  12.138 -0.4643  0.0394  0.1678
  146TMC2    C4 2225   1.512   4.586  12.316 -0.1896 -0.0607 -0.2214
  146TMC2    C5 2226   1.537   4.579  12.184  0.5473 -0.4293 -0.2570
  146TMC2    C6 2227   1.488   4.668  12.089  0.2949 -0.1632 -0.5611
  146TMC2     C 2228   1.412   4.705  12.502  0.2014  0.4911  0.4268
  146TMC2     O 2229   1.368   0.092  12.535 -0.1915 -0.3079  0.1974
  146TMC2     H 2230   1.351   0.155  12.309  2.4478 -0.0691  1.0387
  146TMC2    H1 2231   1.556   4.519  12.388 -1.4941 -0.2708  0.3854
  146TMC2    H2 2232   1.505   4.648  11.984 -0.4468  0.5461 -0.8172
  146TMC2    C7 2233   1.606   4.471  12.120  0.3823  0.2603 -0.6001
  146TMC2    C8 2234   1.363   0.163  12.058 -0.6295 -0.2629 -0.3737
  146TMC2    O1 2235   1.617   4.463  11.997  0.4591 -0.0697  0.0098
  146TMC2    O2 2236   1.292   0.249  12.103  0.0481 -0.3249  0.2625
  146TMC2    O5 2237   1.424   0.170  11.940  0.0888 -0.4934  0.1535
  146TMC2    H5 2238   1.500   0.111  11.922  0.3753  0.0242 -0.3167
  147MPD2     C 2239   1.928   4.072  12.126 -0.1441  0.2013 -0.1291
  147MPD2    C1 2240   1.883   4.096  12.255 -0.4071  0.3099  0.0946
  147MPD2    C2 2241   1.795   4.203  12.276 -0.2453 -0.6634 -0.7349
  147MPD2    C3 2242   1.752   4.275  12.172 -0.3613 -0.0136  0.6540
  147MPD2    C4 2243   1.797   4.247  12.040  0.2795  0.1302  0.4565
  147MPD2    C5 2244   1.887   4.150  12.022  0.8064  0.1130  0.6930
  147MPD2     H 2245   1.758   4.228  12.375 -1.8282 -1.0013 -1.2331
  147MPD2    H1 2246   1.748   4.291  11.954 -0.7869 -2.1084 -0.0842
  147MPD2    H2 2247   2.000   3.992  12.112 -0.7921 -0.4673  0.3183
  147MPD2    H3 2248   1.919   4.132  11.920 -1.0952 -1.4761  0.3777
  147MPD2     N 2249   1.659   4.381  12.211  0.1291  0.3874  0.7357
  147MPD2    H5 2250   1.639   4.395  12.309 -2.2897  0.1108  0.2846
  147MPD2    N1 2251   1.949   4.017  12.358 -1.0016  0.1490 -0.5472
  147MPD2    H7 2252   2.022   3.952  12.331  0.1951  0.8802  0.9524
  148MPD2     C 2253   2.099   2.505  10.788 -0.2555 -0.0954 -0.1428
  148MPD2    C1 2254   2.108   2.371  10.745 -0.3676  0.4595 -0.2770
  148MPD2    C2 2255   1.985   2.296  10.744 -1.2387  0.2512 -0.0970
  148MPD2    C3 2256   1.875   2.336  10.811 -0.4994  0.1777 -0.3576
  148MPD2    C4 2257   1.874   2.463  10.862  0.4114  0.4577 -0.0267
  148MPD2    C5 2258   1.987   2.539  10.857  0.5266  0.5155 -0.3667
  148MPD2     H 2259   1.987   2.201  10.692 -0.5834 -0.2231  0.7946
  148MPD2    H1 2260   1.793   2.502  10.923 -0.1766 -0.5458 -0.1617
  148MPD2    H2 2261   2.189   2.563  10.803 -1.4021  1.2269  1.6619
  148MPD2    H3 2262   1.982   2.637  10.902  3.1107 -0.0108  1.0960
  148MPD2     N 2263   1.754   2.264  10.796  0.2822  0.3521 -0.0800
  148MPD2    H5 2264   1.661   2.301  10.817 -0.0010  0.9104 -2.3177
  148MPD2    N1 2265   2.231   2.325  10.688  0.4165 -0.1235 -0.0063
  148MPD2    H7 2266   2.224   2.232  10.647 -1.1331  0.8623 -1.9558
  149TCq2    C1 2267   2.355   2.391  10.688 -0.0022 -0.3186 -0.4844
  149TCq2    O2 2268   2.397   2.490  10.741 -0.0873 -0.3239 -0.1088
  149TCq2    C2 2269   2.461   2.300  10.656  0.5744 -0.2474 -0.7939
  149TCq2    C3 2270   2.585   2.329  10.702  0.7765 -0.4902  0.0294
  149TCq2    C4 2271   2.673   2.229  10.706 -0.6757 -0.6542  0.0672
  149TCq2    C5 2272   2.638   2.097  10.680 -0.3450 -0.5632 -0.4600
  149TCq2    C6 2273   2.511   2.073  10.630  0.8555 -0.0128 -0.4056
  149TCq2    C7 2274   2.425   2.177  10.605 -0.0372 -0.0735  0.1537
  149TCq2    C8 2275   2.451   1.939  10.642  0.3291  0.0994  0.0689
  149TCq2    O4 2276   2.352   1.924  10.577  0.4427 -0.2474 -0.1715
  149TCq2    C9 2277   2.795   2.261  10.789  0.0139  0.2651 -0.4206
  149TCq2    O5 2278   2.849   2.165  10.849 -0.0181 -0.1524  0.1816
  149TCq2    O6 2279   2.800   2.379  10.841 -0.9126 -0.4297 -0.3472
  149TCq2    H2 2280   2.609   2.426  10.745 -2.4764 -0.6922  2.2662
  149TCq2    H3 2281   2.709   2.022  10.711  1.0849  0.7535 -0.5600
  149TCq2    H4 2282   2.329   2.167  10.557  1.2568 -0.6371 -2.3362
  150MPD2     C 2283   2.856   1.811  12.145 -0.0368  0.2828 -0.8240
  150MPD2    C1 2284   2.937   1.804  12.034  0.2747 -0.5881  0.5947
  150MPD2    C2 2285   3.041   1.892  12.018  0.1241 -0.7430 -0.0041
  150MPD2    C3 2286   3.079   1.971  12.125 -0.1993 -0.4669  0.2001
  150MPD2    C4 2287   2.998   1.978  12.234  0.2350 -0.0545 -0.6220
  150MPD2    C5 2288   2.889   1.900  12.244 -0.4028 -0.0343 -0.6321
  150MPD2     H 2289   3.103   1.888  11.930 -1.8784 -0.6225 -1.4153
  150MPD2    H1 2290   3.012   2.050  12.313  2.2080 -1.5763  0.4251
  150MPD2    H2 2291   2.766   1.751  12.145 -1.2730  2.1391 -0.4712
  150MPD2    H3 2292   2.823   1.913  12.329 -0.9273 -1.9404 -0.7547
  150MPD2     N 2293   3.201   2.041  12.113  0.3290 -0.1758 -0.1489
  150MPD2    H5 2294   3.250   2.036  12.024  0.2295  2.7643 -0.3540
  150MPD2    N1 2295   2.903   1.709  11.940  0.2087  0.5900 -0.4830
  150MPD2    H7 2296   2.851   1.628  11.973 -1.3654  0.8330 -2.3746
  151TCq2    C1 2297   3.261   2.103  12.220 -0.3484 -0.7298  0.6362
  151TCq2    O2 2298   3.248   2.086  12.341 -0.0586 -0.7631  0.2416
  151TCq2    C2 2299   3.363   2.197  12.180 -0.0390 -0.2438 -0.3296
  151TCq2    C3 2300   3.362   2.266  12.064  0.5456  0.3835 -0.3731
  151TCq2    C4 2301   3.451   2.368  12.039  0.4092 -0.3817 -0.3139
  151TCq2    C5 2302   3.539   2.402  12.135  0.0152 -0.6502  1.0008
  151TCq2    C6 2303   3.540   2.336  12.255  0.2537 -0.2982 -0.6130
  151TCq2    C7 2304   3.453   2.235  12.278  0.0932  0.0012 -1.4502
  151TCq2    C8 2305   3.669   2.334  12.318 -0.4413 -0.2827 -0.0857
  151TCq2    O4 2306   3.735   2.436  12.318  0.0788 -0.1114  0.3242
  151TCq2    C9 2307   3.452   2.433  11.911  0.2948 -0.5703  0.4912
  151TCq2    O5 2308   3.385   2.377  11.818  0.4558 -0.4446  0.0419
  151TCq2    O6 2309   3.487   2.554  11.907 -0.3493 -0.0780 -0.4186
  151TCq2    H2 2310   3.295   2.233  11.985 -0.0619 -0.1827  0.3824
  151TCq2    H3 2311   3.603   2.488  12.118 -0.6588 -0.1604  0.9445
  151TCq2    H4 2312   3.454   2.182  12.373  0.2940  2.3364 -0.1313
  152MPD2     C 2313   2.895   1.890  13.084 -0.5962 -0.4529 -0.3070
  152MPD2    C1 2314   2.921   1.953  12.961  0.9549  0.4276  0.4826
  152MPD2    C2 2315   2.811   2.009  12.891 -0.2247 -1.0529  0.0953
  152MPD2    C3 2316   2.680   2.001  12.944 -0.0975  0.2978  0.6984
  152MPD2    C4 2317   2.662   1.950  13.073 -0.6153  0.7811 -0.6067
  152MPD2    C5 2318   2.770   1.898  13.141  0.0054 -0.4067  0.7807
  152MPD2     H 2319   2.832   2.059  12.797 -0.5945  0.3004  0.7346
  152MPD2    H1 2320   2.566   1.943  13.123  0.8158  1.9363  2.3167
  152MPD2    H2 2321   2.974   1.836  13.136  1.0073  0.7105 -1.5060
  152MPD2    H3 2322   2.774   1.856  13.241  0.4297 -0.2394  0.8329
  152MPD2     N 2323   2.573   2.019  12.857 -0.2779 -0.5144  0.1141
  152MPD2    H5 2324   2.591   2.036  12.758 -1.8985 -0.4662 -0.1702
  152MPD2    N1 2325   3.056   1.958  12.926  0.9070 -0.5399 -0.1614
  152MPD2    H7 2326   3.112   1.894  12.981  0.4175 -1.0601 -0.2808
  153TCq2    C1 2327   3.103   2.028  12.818  0.3078 -0.3274 -0.2034
  153TCq2    O2 2328   3.050   2.111  12.742  0.1624  0.5363 -0.1456
  153TCq2    C2 2329   3.236   1.995  12.799  0.0046  0.1611 -0.5753
  153TCq2    C3 2330   3.287   1.876  12.837 -0.6864 -0.3139  0.5624
  153TCq2    C4 2331   3.418   1.853  12.812 -0.5128  0.3785  0.2586
  153TCq2    C5 2332   3.486   1.949  12.742  0.1938  0.2575 -0.0652
  153TCq2    C6 2333   3.434   2.069  12.707 -0.1723 -0.1106 -0.0119
  153TCq2    C7 2334   3.305   2.093  12.732 -0.4123 -0.5631 -0.3615
  153TCq2    C8 2335   3.520   2.190  12.684  0.7102 -0.1711 -0.0083
  153TCq2    O4 2336   3.473   2.277  12.609 -0.3470 -0.0377 -0.0119
  153TCq2    C9 2337   3.486   1.724  12.841 -0.0821  0.2788  0.4047
  153TCq2    O5 2338   3.535   1.672  12.735 -0.3655  0.0004  0.1056
  153TCq2    O6 2339   3.457   1.675  12.950 -0.3732  0.4000  0.2014
  153TCq2    H2 2340   3.231   1.800  12.890  0.7938 -1.9083 -0.1373
  153TCq2    H3 2341   3.587   1.925  12.713  0.6669  1.2957  0.7214
  153TCq2    H4 2342   3.270   2.196  12.727 -0.5815 -0.6017 -0.0106
  154MPD2     C 2343   0.998   2.801   0.491  0.3595  0.4563  0.0053
  154MPD2    C1 2344   0.889   2.855   0.563  0.1659 -0.4093  0.0344
  154MPD2    C2 2345   0.765   2.810   0.546  0.0023 -0.0153 -0.4399
  154MPD2    C3 2346   0.746   2.707   0.457 -0.2817 -0.2686 -0.3858
  154MPD2    C4 2347   0.848   2.650   0.394 -0.0422 -0.0215  0.2398
  154MPD2    C5 2348   0.978   2.695   0.406  0.2989  0.0382  0.0996
  154MPD2     H 2349   0.677   2.843   0.600  1.2805  1.0481  1.0224
  154MPD2    H1 2350   0.837   2.560   0.334 -0.4963 -0.8493  1.5587
  154MPD2    H2 2351   1.098   2.842   0.505  1.1769 -1.3409 -0.5144
  154MPD2    H3 2352   1.058   2.645   0.352  1.3144 -0.4637  2.0897
  154MPD2     N 2353   0.614   2.668   0.444  0.6163  0.3227 -0.0391
  154MPD2    H5 2354   0.546   2.710   0.507  1.7871 -0.0368  1.4546
  154MPD2    N1 2355   0.903   2.974   0.637 -0.0204 -0.0669 -0.6916
  154MPD2    H7 2356   0.994   3.018   0.625  0.3508 -0.7334 -0.3801
  155TCq2    C1 2357   0.815   3.032   0.723  0.3288  0.5383 -0.6307
  155TCq2    O2 2358   0.710   2.996   0.770 -0.1059  0.0127 -0.0960
  155TCq2    C2 2359   0.874   3.140   0.806 -0.5614  0.1638  0.1937
  155TCq2    C3 2360   0.799   3.182   0.913  0.7437  0.1372  0.8266
  155TCq2    C4 2361   0.840   3.293   0.977  0.2607  0.7295  0.4789
  155TCq2    C5 2362   0.949   3.366   0.947  0.3002 -0.4063 -0.5337
  155TCq2    C6 2363   1.024   3.318   0.843 -0.3696 -0.0432  0.0896
  155TCq2    C7 2364   0.988   3.204   0.768 -0.2483  0.4443 -0.4256
  155TCq2    C8 2365   1.135   3.394   0.792 -0.1765 -0.4087  0.0550
  155TCq2    O4 2366   1.197   3.354   0.692  0.2295  0.0610 -0.5474
  155TCq2    C9 2367   0.748   3.337   1.083  0.4889 -0.0963  0.1264
  155TCq2    O5 2368   0.670   3.253   1.142  0.4034 -0.0591  0.3563
  155TCq2    O6 2369   0.760   3.453   1.126 -0.0648  0.3297  0.0402
  155TCq2    H2 2370   0.720   3.121   0.955 -0.9474  1.9028  0.2149
  155TCq2    H3 2371   0.972   3.453   1.008  0.9943 -1.6141  0.9465
  155TCq2    H4 2372   1.043   3.182   0.677 -2.0097 -1.9192 -0.9200
  156MPD2     C 2373   4.007   3.839  12.339 -0.1113 -0.1139  0.2444
  156MPD2    C1 2374   3.923   3.895  12.249  0.6796 -0.1220  0.1853
  156MPD2    C2 2375   3.827   3.982  12.292  0.2149  0.2266  0.0066
  156MPD2    C3 2376   3.824   4.020  12.428  0.1435 -0.2745  0.7225
  156MPD2    C4 2377   3.904   3.950  12.516 -0.1776  0.0087 -0.4819
  156MPD2    C5 2378   4.000   3.861  12.473  0.3486 -0.1026  0.9315
  156MPD2     H 2379   3.783   4.054  12.224  0.6875 -1.6715 -2.3056
  156MPD2    H1 2380   3.888   3.964  12.622 -1.1463 -0.2634 -0.5853
  156MPD2    H2 2381   4.079   3.763  12.310  0.3266  0.4414 -0.1222
  156MPD2    H3 2382   4.055   3.805  12.547 -1.8178 -1.9550  1.1457
  156MPD2     N 2383   3.732   4.122  12.466  0.3348  0.2685  0.0788
  156MPD2    H5 2384   3.678   4.165  12.391  0.9237  2.3705  0.8688
  156MPD2    N1 2385   3.945   3.857  12.114  0.8105 -0.5101 -0.2315
  156MPD2    H7 2386   4.034   3.812  12.095  2.3464  2.6703 -0.6070
  157TCq2    C1 2387   3.864   3.890  12.012 -0.3661 -0.0855 -0.2050
  157TCq2    O2 2388   3.752   3.939  12.019  0.1163 -0.2788 -0.1432
  157TCq2    C2 2389   3.934   3.873  11.884  0.1172  0.6175 -0.6692
  157TCq2    C3 2390   4.062   3.836  11.882  0.7002  0.9900  0.4843
  157TCq2    C4 2391   4.133   3.849  11.765 -0.5290  0.1734  0.9164
  157TCq2    C5 2392   4.075   3.905  11.650  0.4305  0.4864  1.0713
  157TCq2    C6 2393   3.939   3.946  11.652 -0.1130  0.0808  0.0974
  157TCq2    C7 2394   3.868   3.917  11.765  0.4421 -0.1688  1.1463
  157TCq2    C8 2395   3.877   4.013  11.537 -0.4940 -0.3683 -0.3831
  157TCq2    O4 2396   3.944   4.077  11.456 -0.0258  0.1924 -0.8647
  157TCq2    C9 2397   4.271   3.810  11.774  0.1892  0.2657  0.0355
  157TCq2    O5 2398   4.320   3.828  11.889  0.6135  0.0516 -0.3191
  157TCq2    O6 2399   4.336   3.796  11.669  0.8118  0.5035 -0.4309
  157TCq2    H2 2400   4.112   3.785  11.964  2.5456 -0.2134 -1.3880
  157TCq2    H3 2401   4.133   3.908  11.559 -1.5410 -1.0178 -0.2227
  157TCq2    H4 2402   3.763   3.946  11.764  0.0397 -1.6862 -0.0111
  158TMC2    C1 2403   3.434   3.020  13.328  0.4834  0.1938  0.3232
  158TMC2    C2 2404   3.454   3.089  13.216 -0.5941  0.7159 -0.2149
  158TMC2    C3 2405   3.347   3.146  13.150  0.0292  1.0799  0.0106
  158TMC2    C4 2406   3.304   2.999  13.378 -0.4848 -0.5937  0.1556
  158TMC2    C5 2407   3.199   3.051  13.307  0.1988  0.4111  0.4680
  158TMC2    C6 2408   3.217   3.122  13.192 -0.0984 -0.2448  0.5288
  158TMC2     C 2409   3.543   2.947  13.392  0.7714  0.7150  0.2032
  158TMC2     O 2410   3.623   2.888  13.319 -0.7721 -0.3100  0.3045
  158TMC2     H 2411   3.552   3.092  13.168 -0.4064  2.0205  0.2243
  158TMC2    H1 2412   3.289   2.930  13.461  3.5599 -2.1604 -0.3952
  158TMC2    H2 2413   3.139   3.188  13.154 -1.1133 -0.6916  1.8547
  158TMC2    C7 2414   3.059   3.033  13.340 -0.3034  0.4107  1.2837
  158TMC2    C8 2415   3.375   3.241  13.049  0.0333 -0.3965 -0.3291
  158TMC2    O1 2416   2.968   3.084  13.274 -0.6183 -0.3883  0.3273
  158TMC2    O2 2417   3.465   3.324  13.061  0.0614  0.1530  0.2004
  158TMC2    O5 2418   3.272   3.245  12.961 -0.0324 -0.3674 -0.6584
  158TMC2    H5 2419   3.225   3.160  12.951 -1.8066  0.4191  0.8527
  159MPD2     C 2420   3.811   2.819  13.807  0.3659 -0.1548  0.2047
  159MPD2    C1 2421   3.707   2.889  13.852 -0.1081  0.7510  0.2225
  159MPD2    C2 2422   3.610   2.921  13.752 -0.1534  0.1796  0.1458
  159MPD2    C3 2423   3.632   2.893  13.619  0.0315 -0.6203  0.0138
  159MPD2    C4 2424   3.751   2.835  13.576  0.2781  0.5744 -0.7680
  159MPD2    C5 2425   3.833   2.788  13.673 -0.5664 -0.2183  0.7431
  159MPD2     H 2426   3.519   2.969  13.786  0.7728  1.2205  1.1467
  159MPD2    H1 2427   3.784   2.818  13.475  2.2938 -0.7062  0.1181
  159MPD2    H2 2428   3.883   2.783  13.881  0.3079 -1.7463 -0.5082
  159MPD2    H3 2429   3.922   2.733  13.642  0.2989  2.0311 -0.8140
  159MPD2     N 2430   3.534   2.940  13.528 -0.1443 -0.4049 -0.8558
  159MPD2    H5 2431   3.459   2.999  13.564 -0.3293 -0.7455 -0.6872
  159MPD2    N1 2432   3.694   2.919  13.988  0.5593  0.3175 -0.0608
  159MPD2    H7 2433   3.768   2.878  14.044 -1.9347 -1.8339  1.6644
  160TMC2    C1 2434   2.744   1.219   1.322  0.1224  0.4892  1.0748
  160TMC2    C2 2435   2.831   1.118   1.368 -0.3517  0.4397 -0.0819
  160TMC2    C3 2436   2.951   1.100   1.305  0.8168  0.0984 -0.0292
  160TMC2    C4 2437   2.770   1.277   1.198 -0.4773  0.3449  0.2224
  160TMC2    C5 2438   2.890   1.254   1.130 -0.2296  0.6060  0.7720
  160TMC2    C6 2439   2.981   1.165   1.188  0.6355  0.1123  0.2591
  160TMC2     C 2440   2.603   1.217   1.355 -0.5423 -0.4964 -0.3770
  160TMC2     O 2441   2.549   1.118   1.399  0.3920 -0.2591  0.3429
  160TMC2     H 2442   2.817   1.078   1.468 -2.2999  0.6758 -0.2629
  160TMC2    H1 2443   2.694   1.337   1.150  0.2887  0.8943 -0.2965
  160TMC2    H2 2444   3.076   1.151   1.139  0.7258  2.2266 -0.1813
  160TMC2    C7 2445   2.937   1.345   1.020  0.6864 -0.0580  0.3504
  160TMC2    C8 2446   3.063   1.014   1.348 -0.0336  0.7126  0.6825
  160TMC2    O1 2447   2.852   1.428   0.988  0.1383 -0.2984  0.3411
  160TMC2    O2 2448   3.177   1.036   1.316 -0.1903  0.5861 -0.7317
  160TMC2    O5 2449   3.019   0.919   1.439  0.4854 -0.1392 -0.3329
  160TMC2    H5 2450   2.925   0.895   1.453  0.3369 -0.1118 -1.2743
  161MPD2     C 2451   2.320   1.297   1.393 -0.0006  0.1529  0.5001
  161MPD2    C1 2452   2.417   1.382   1.355 -0.4322  0.4255  0.2917
  161MPD2    C2 2453   2.399   1.518   1.352  0.3467 -0.8820 -0.1550
  161MPD2    C3 2454   2.276   1.575   1.386  0.2648  0.3042  0.7861
  161MPD2    C4 2455   2.176   1.488   1.418  0.4845  0.0768  0.3336
  161MPD2    C5 2456   2.193   1.350   1.413  0.0717 -0.1964  0.8167
  161MPD2     H 2457   2.484   1.577   1.320  1.5550 -2.2981  0.4805
  161MPD2    H1 2458   2.075   1.527   1.433  0.0148 -1.4595  1.1479
  161MPD2    H2 2459   2.332   1.189   1.384  0.6587  0.3917 -1.5170
  161MPD2    H3 2460   2.111   1.279   1.414  1.9645 -2.3657  1.1439
  161MPD2     N 2461   2.245   1.715   1.375  0.8987 -0.5462 -0.1854
  161MPD2    H5 2462   2.152   1.749   1.353  1.5474  0.7344 -0.9862
  161MPD2    N1 2463   2.550   1.342   1.328 -0.3809  0.0026  0.2957
  161MPD2    H7 2464   2.614   1.418   1.308 -0.9042 -0.2687 -2.3833
  162TMC2    C1 2465   0.964   2.655   0.849  0.1696 -0.0556  0.4309
  162TMC2    C2 2466   0.861   2.580   0.806  0.1773  0.4305 -0.0243
  162TMC2    C3 2467   0.734   2.605   0.858 -0.2876  0.4592 -0.3888
  162TMC2    C4 2468   0.950   2.759   0.937  0.2017 -0.3730 -0.2332
  162TMC2    C5 2469   0.823   2.780   0.985  0.1399  0.3323  0.2261
  162TMC2    C6 2470   0.714   2.697   0.957  0.2415 -0.7356 -0.0886
  162TMC2     C 2471   1.098   2.635   0.799 -0.5286 -0.0032 -0.7190
  162TMC2     O 2472   1.185   2.713   0.835  0.0143 -0.0265 -0.2107
  162TMC2     H 2473   0.870   2.509   0.725 -0.1760 -0.4012  0.6627
  162TMC2    H1 2474   1.029   2.829   0.961 -0.1003 -0.4864  1.1094
  162TMC2    H2 2475   0.615   2.704   0.999 -0.6110  0.9367 -2.4020
  162TMC2    C7 2476   0.805   2.863   1.104 -0.2584  0.1829  0.1844
  162TMC2    C8 2477   0.616   2.528   0.839 -0.5455  0.7337 -0.0493
  162TMC2    O1 2478   0.693   2.901   1.137 -0.2397 -0.1883 -0.0790
  162TMC2    O2 2479   0.501   2.570   0.830 -0.3994 -0.2588 -0.6081
  162TMC2    O5 2480   0.656   2.421   0.761  0.7059  0.4134 -0.2643
  162TMC2    H5 2481   0.750   2.393   0.771  0.5262 -0.0835  0.0302
  163MPD2     C 2482   1.395   2.422   0.453  0.3235  0.3466 -0.2655
  163MPD2    C1 2483   1.421   2.527   0.532 -0.1390 -0.1932  0.1209
  163MPD2    C2 2484   1.341   2.559   0.635 -0.6985  0.5258  0.5926
  163MPD2    C3 2485   1.217   2.486   0.641  0.3996  0.1503 -0.1943
  163MPD2    C4 2486   1.184   2.389   0.547 -0.3717  0.1627  0.8125
  163MPD2    C5 2487   1.277   2.360   0.452 -0.3644  0.9156 -0.0780
  163MPD2     H 2488   1.353   2.647   0.696 -0.3982  1.4267 -0.7716
  163MPD2    H1 2489   1.091   2.335   0.551  0.5213 -1.5834 -1.7484
  163MPD2    H2 2490   1.453   2.381   0.371  0.1501 -0.0790 -0.1744
  163MPD2    H3 2491   1.260   2.285   0.376  1.5375  0.8901 -0.4767
  163MPD2     N 2492   1.112   2.516   0.728 -0.2084 -0.4450  0.0223
  163MPD2    H5 2493   1.033   2.453   0.733  0.8994 -1.7534  1.3161
  163MPD2    N1 2494   1.542   2.595   0.534  0.3416 -0.1651 -0.1626
  163MPD2    H7 2495   1.540   2.684   0.584 -0.3785  0.8843 -2.0632
  164TCq2    C1 2496   2.078   3.021  11.161 -0.1383 -0.2913 -0.1571
  164TCq2    O2 2497   2.004   2.971  11.077  0.5343 -0.6695 -0.1341
  164TCq2    C2 2498   2.024   3.141  11.213 -0.5979 -0.3718  0.1298
  164TCq2    C3 2499   2.115   3.240  11.262 -0.6395 -0.2258 -0.2222
  164TCq2    C4 2500   2.063   3.355  11.310 -0.6565 -0.3296  0.4555
  164TCq2    C5 2501   1.930   3.385  11.318 -0.1734  0.8138  0.6664
  164TCq2    C6 2502   1.846   3.283  11.268  0.0617 -1.0021 -0.5261
  164TCq2    C7 2503   1.890   3.162  11.223 -0.4283  0.2183 -0.4628
  164TCq2    C8 2504   1.704   3.287  11.298  0.5166  0.5987 -0.3357
  164TCq2    O4 2505   1.625   3.212  11.241 -0.1167  0.3794 -1.2272
  164TCq2    C9 2506   2.153   3.443  11.371  0.3773 -0.1237  0.3933
  164TCq2    O5 2507   2.109   3.546  11.435  0.3404  0.4538  0.3216
  164TCq2    O6 2508   2.272   3.413  11.370  0.0674  0.0771  0.1210
  164TCq2    H2 2509   2.223   3.232  11.272 -0.6433  3.5707  2.8869
  164TCq2    H3 2510   1.896   3.481  11.357 -1.3733  0.4030  0.6399
  164TCq2    H4 2511   1.820   3.087  11.185  2.2191 -2.1447 -0.6722
  165MPD2     C 2512   3.093   0.161   2.617 -0.0079 -0.3019  0.1817
  165MPD2    C1 2513   3.137   0.195   2.495  0.0498 -0.5079  0.1145
  165MPD2    C2 2514   3.092   0.314   2.436 -0.4777 -0.3450 -0.0631
  165MPD2    C3 2515   2.991   0.391   2.494  0.7601 -0.7216 -0.0753
  165MPD2    C4 2516   2.944   0.356   2.626 -0.1085  0.5135  0.2205
  165MPD2    C5 2517   2.993   0.241   2.685 -0.3294  0.7666 -0.1047
  165MPD2     H 2518   3.132   0.352   2.343 -1.4983  0.6215 -0.1091
  165MPD2    H1 2519   2.881   0.421   2.685 -0.9434  0.1504 -0.2762
  165MPD2    H2 2520   3.128   0.069   2.661  0.1507 -0.3548 -0.0602
  165MPD2    H3 2521   2.965   0.217   2.787  1.6695 -3.3935 -0.5275
  165MPD2     N 2522   2.952   0.507   2.424 -0.2822  0.4329  0.2741
  165MPD2    H5 2523   3.001   0.517   2.335  0.7329  0.5377  0.8486
  165MPD2    N1 2524   3.228   0.113   2.433 -0.1595 -0.2246 -0.5042
  165MPD2    H7 2525   3.291   0.063   2.495 -0.6977 -1.2429 -0.7807
  166TCq2    C1 2526   2.850   0.595   2.456  0.1667  0.5130  0.1717
  166TCq2    O2 2527   2.813   0.619   2.570 -0.6410  0.7826  0.0606
  166TCq2    C2 2528   2.803   0.678   2.341  0.3211 -0.4956 -0.4183
  166TCq2    C3 2529   2.726   0.791   2.367 -0.3950  0.1940 -0.1443
  166TCq2    C4 2530   2.643   0.843   2.274  0.4271 -0.3430 -0.3082
  166TCq2    C5 2531   2.627   0.774   2.154 -0.2169 -1.1161 -0.3424
  166TCq2    C6 2532   2.705   0.664   2.134  0.0041 -0.2325 -0.5506
  166TCq2    C7 2533   2.801   0.620   2.223  0.8159  0.3603  0.3327
  166TCq2    C8 2534   2.737   0.629   1.997  0.1368  0.3251  0.0710
  166TCq2    O4 2535   2.653   0.644   1.916 -0.1659  0.3278  0.0538
  166TCq2    C9 2536   2.559   0.961   2.295 -0.4575 -0.9518  0.4532
  166TCq2    O5 2537   2.497   1.002   2.192  0.0250 -0.1367  0.3861
  166TCq2    O6 2538   2.554   1.003   2.414  0.5220 -0.0579 -0.3663
  166TCq2    H2 2539   2.708   0.822   2.469 -0.2641  0.7564 -0.2904
  166TCq2    H3 2540   2.555   0.805   2.080 -0.2048  0.1028  0.1551
  166TCq2    H4 2541   2.830   0.516   2.213  2.4631  0.8632 -0.1174
  167TMC2    C1 2542   1.413   2.630  12.943  0.6934 -0.2037  0.1877
  167TMC2    C2 2543   1.531   2.663  12.882  0.4161 -0.9456  0.5347
  167TMC2    C3 2544   1.633   2.570  12.877  0.7937  0.8051  0.0325
  167TMC2    C4 2545   1.391   2.510  13.005  0.3790  0.1676 -0.1441
  167TMC2    C5 2546   1.489   2.419  12.977  0.8023 -0.5459 -0.0259
  167TMC2    C6 2547   1.608   2.441  12.915  0.6153  0.5214 -0.5208
  167TMC2     C 2548   1.304   2.732  12.950 -0.0170  0.5435 -0.2598
  167TMC2     O 2549   1.226   2.712  13.045 -0.0306 -0.0644 -0.2623
  167TMC2     H 2550   1.567   2.763  12.861 -0.5591 -0.5671  0.6601
  167TMC2    H1 2551   1.308   2.487  13.071 -0.4798 -0.3468 -1.4179
  167TMC2    H2 2552   1.695   2.377  12.918 -0.6509 -1.2548 -1.2922
  167TMC2    C7 2553   1.469   2.280  13.014 -0.0250  0.1058  0.2601
  167TMC2    C8 2554   1.755   2.616  12.813 -0.4285 -0.9198  0.2482
  167TMC2    O1 2555   1.407   2.258  13.113  0.2992 -0.3171  0.1282
  167TMC2    O2 2556   1.751   2.710  12.740  0.1121  0.3401  0.5405
  167TMC2    O5 2557   1.864   2.557  12.874  0.0904 -0.6240 -0.0310
  167TMC2    H5 2558   1.847   2.502  12.954 -2.2189 -1.4081 -1.0677
  168MPD2     C 2559   1.078   2.914  12.865  0.0197  0.2528  0.1269
  168MPD2    C1 2560   1.192   2.889  12.790 -0.0265 -0.2328  1.4044
  168MPD2    C2 2561   1.198   2.959  12.671  0.3921  0.1266  0.2172
  168MPD2    C3 2562   1.086   3.033  12.622  0.2500 -0.3124  0.9157
  168MPD2    C4 2563   0.979   3.059  12.699  0.1122  0.0781  0.5069
  168MPD2    C5 2564   0.971   2.993  12.824  0.7911  1.2020 -0.0822
  168MPD2     H 2565   1.287   2.949  12.610 -0.9349 -2.5210 -1.3176
  168MPD2    H1 2566   0.902   3.128  12.668 -0.2520  0.1259  1.5294
  168MPD2    H2 2567   1.064   2.866  12.961 -1.2536 -2.2589 -1.3142
  168MPD2    H3 2568   0.887   3.008  12.891 -0.4838 -1.0445 -1.1802
  168MPD2     N 2569   1.086   3.092  12.499 -0.3408  0.5879 -0.2818
  168MPD2    H5 2570   1.030   3.176  12.489  0.9571  1.3222 -1.3928
  168MPD2    N1 2571   1.297   2.805  12.833  0.1182 -0.7562  0.7058
  168MPD2    H7 2572   1.370   2.785  12.765 -1.7931 -0.6780 -1.3679
  169MPD1     C 2573   4.227   1.479   8.759 -0.4488 -0.2038  0.4130
  169MPD1    C1 2574   4.300   1.596   8.755 -0.5780 -0.0294  0.1772
  169MPD1    C2 2575   4.403   1.608   8.841 -0.4181 -0.4617  0.4029
  169MPD1    C3 2576   4.430   1.517   8.942  0.7898 -0.2676  0.4129
  169MPD1    C4 2577   4.358   1.396   8.940 -0.2628  0.0682  0.0118
  169MPD1    C5 2578   4.251   1.382   8.850  0.2168  0.2510  0.1196
  169MPD1     H 2579   4.466   1.697   8.834  0.2746 -1.0726 -1.2516
  169MPD1    H1 2580   4.376   1.319   9.013  2.9893  0.4956 -0.3095
  169MPD1    H2 2581   4.153   1.448   8.686 -0.8927 -0.1208  0.8315
  169MPD1    H3 2582   4.182   1.298   8.847 -0.6046  0.8458  2.7246
  169MPD1     N 2583   4.542   1.542   9.018 -0.7127  0.0741 -0.5486
  169MPD1    H5 2584   4.599   1.624   8.997 -0.8623  0.4405  0.4671
  169MPD1    N1 2585   4.292   1.688   8.647  0.3564  0.2970 -0.4068
  169MPD1    H6 2586   4.195   1.711   8.625  0.5327  3.1889  1.9302
  169MPD1    H7 2587   4.350   1.769   8.667 -0.6110  1.2586 -1.4674
  170MPD1     C 2588   1.995   4.290  13.370 -0.4958 -0.0148  0.2491
  170MPD1    C1 2589   2.117   4.270  13.428  0.5611 -0.3501 -0.7082
  170MPD1    C2 2590   2.191   4.372  13.485  0.9174  0.0496 -0.1579
  170MPD1    C3 2591   2.131   4.499  13.473 -0.5906 -0.0489 -0.2055
  170MPD1    C4 2592   2.010   4.525  13.408 -0.7715 -0.0343  0.3007
  170MPD1    C5 2593   1.947   4.416  13.354  0.4362 -0.1144 -0.3146
  170MPD1     H 2594   2.284   4.353  13.538  0.3518  2.4269  1.6716
  170MPD1    H1 2595   1.966   4.624  13.403  0.5766  0.4494 -2.6404
  170MPD1    H2 2596   1.939   4.206  13.330  2.3431 -1.9109  0.2866
  170MPD1    H3 2597   1.851   4.424  13.304  0.8689  1.1978 -0.9298
  170MPD1     N 2598   2.199   4.603  13.540  0.1837  0.1883  0.1707
  170MPD1    H5 2599   2.284   4.590  13.594 -0.4122 -0.3184  0.9922
  170MPD1    N1 2600   2.184   4.144  13.425  0.0775 -0.4233  0.1738
  170MPD1    H6 2601   2.124   4.062  13.425  1.8648 -1.7398  2.2054
  170MPD1    H7 2602   2.259   4.133  13.493  0.2680  1.9430  0.3442
  171MPD1     C 2603   1.131   1.637  15.545  0.5994 -0.1522 -0.2209
  171MPD1    C1 2604   1.089   1.508  15.548 -0.1222  0.2024 -0.4020
  171MPD1    C2 2605   1.171   1.415  15.611 -0.6220 -0.4176 -0.0622
  171MPD1    C3 2606   1.290   1.449  15.673 -0.0919  0.0221  0.7799
  171MPD1    C4 2607   1.325   1.582  15.678 -0.3027  0.0354  0.2422
  171MPD1    C5 2608   1.249   1.671  15.609  0.2743 -0.0211  0.1626
  171MPD1     H 2609   1.138   1.312  15.619  0.8571 -0.5731  3.6714
  171MPD1    H1 2610   1.416   1.619  15.724  0.5285 -0.5716 -0.9279
  171MPD1    H2 2611   1.068   1.715  15.504 -2.4115 -2.0395  0.8223
  171MPD1    H3 2612   1.271   1.777  15.618  1.4824 -0.0475 -2.3508
  171MPD1     N 2613   1.363   1.358  15.746 -0.9199  0.0946 -0.1632
  171MPD1    H5 2614   1.430   1.395  15.813 -0.3997  1.2801 -1.3413
  171MPD1    N1 2615   0.953   1.460  15.508 -0.0599  0.2114  0.0423
  171MPD1    H6 2616   0.961   1.364  15.474  1.4074  0.7510 -1.1364
  171MPD1    H7 2617   0.925   1.525  15.435  1.2831 -0.7734 -1.3473
  172MPD1     C 2618   0.962   1.740   1.015  0.0321  0.5258 -0.3163
  172MPD1    C1 2619   0.833   1.772   1.054 -0.2195  0.9129  0.4834
  172MPD1    C2 2620   0.750   1.813   0.957 -0.0699 -0.0133 -0.5171
  172MPD1    C3 2621   0.779   1.816   0.823  0.3013  0.2357  0.2762
  172MPD1    C4 2622   0.903   1.772   0.792 -0.4170 -0.6242  0.2317
  172MPD1    C5 2623   0.997   1.743   0.881 -0.4119 -0.9673  0.4318
  172MPD1     H 2624   0.649   1.838   0.987  0.0770  0.8684 -0.7536
  172MPD1    H1 2625   0.929   1.768   0.687  0.6225  0.9529  0.4440
  172MPD1    H2 2626   1.030   1.714   1.095 -1.1280  0.7127  0.7315
  172MPD1    H3 2627   1.101   1.722   0.857  0.7623  2.5886  2.3587
  172MPD1     N 2628   0.692   1.857   0.714  0.5805 -0.1329  0.0416
  172MPD1    H5 2629   0.731   1.849   0.621 -0.7003  1.5362 -0.6191
  172MPD1    N1 2630   0.804   1.776   1.195 -0.0295 -0.1048  0.4453
  172MPD1    H6 2631   0.854   1.701   1.242 -0.6642  0.5630  2.1552
  172MPD1    H7 2632   0.703   1.768   1.209  0.0629 -1.2521  0.5024
  173MPD1     C 2633   1.689   1.037  14.439 -0.0498 -0.1024 -0.7258
  173MPD1    C1 2634   1.592   0.950  14.431 -0.0976 -0.3610 -0.0458
  173MPD1    C2 2635   1.623   0.819  14.403  0.0004 -0.2914  0.4780
  173MPD1    C3 2636   1.751   0.779  14.380 -0.1404  0.0941  0.2666
  173MPD1    C4 2637   1.849   0.874  14.395  0.0639 -0.0896 -0.4845
  173MPD1    C5 2638   1.818   1.000  14.424  0.0674 -0.8735 -0.5819
  173MPD1     H 2639   1.543   0.751  14.377 -1.2496  0.5475  2.0374
  173MPD1    H1 2640   1.955   0.853  14.386  0.6175  2.2438  0.4636
  173MPD1    H2 2641   1.676   1.144  14.456 -1.0234 -0.0797 -1.5913
  173MPD1    H3 2642   1.895   1.073  14.444  0.0934 -1.1938  0.4682
  173MPD1     N 2643   1.785   0.647  14.337 -0.3715 -0.5087 -0.0283
  173MPD1    H5 2644   1.705   0.585  14.328  0.5289 -1.8219  1.0987
  173MPD1    N1 2645   1.460   0.987  14.420  0.4162  0.0209  0.8018
  173MPD1    H6 2646   1.438   1.061  14.487 -0.6693 -0.6756  1.2228
  173MPD1    H7 2647   1.385   0.918  14.418 -1.3844  1.9885  0.1461
  174MPD1     C 2648   2.464   0.086  14.781 -0.1525  0.4080 -0.0441
  174MPD1    C1 2649   2.338   0.087  14.828 -0.1704 -0.1011  0.1888
  174MPD1    C2 2650   2.229   0.143  14.758  0.0791  0.7604 -0.2056
  174MPD1    C3 2651   2.253   0.175  14.623  0.3730 -0.5597  0.2496
  174MPD1    C4 2652   2.376   0.153  14.566 -0.4880 -0.1414  0.1190
  174MPD1    C5 2653   2.487   0.112  14.647  0.1146 -0.2226 -0.4043
  174MPD1     H 2654   2.128   0.154  14.796 -0.1320  1.2043 -0.9010
  174MPD1    H1 2655   2.401   0.161  14.461 -2.3145  0.0898 -0.3090
  174MPD1    H2 2656   2.545   0.058  14.848 -0.9133 -0.1963  0.6257
  174MPD1    H3 2657   2.587   0.108  14.607 -0.2812  1.5812 -1.5590
  174MPD1     N 2658   2.155   0.223  14.534 -0.2752 -0.7917  0.0919
  174MPD1    H5 2659   2.185   0.269  14.448  0.7413 -1.2193  0.2177
  174MPD1    N1 2660   2.329   0.070  14.970  0.1626  0.4248 -0.2896
  174MPD1    H6 2661   2.244   0.017  14.990  1.0768 -0.9535 -0.0704
  174MPD1    H7 2662   2.402   0.008  15.004  1.3758  0.7201 -2.4007
  175MPD1     C 2663   4.559   1.283  15.797  0.0545 -0.8425 -0.0876
  175MPD1    C1 2664   4.687   1.293  15.744 -0.2229 -0.2108  0.1714
  175MPD1    C2 2665   0.063   1.203  15.782  0.5349  0.6013 -0.1893
  175MPD1    C3 2666   0.033   1.094  15.869  0.3169  0.5704 -0.0738
  175MPD1    C4 2667   4.627   1.093  15.913 -0.3442  0.2882  0.2791
  175MPD1    C5 2668   4.536   1.188  15.882  0.5158 -0.6093  0.5939
  175MPD1     H 2669   0.160   1.232  15.743  0.6709  1.0697  0.4999
  175MPD1    H1 2670   4.605   1.015  15.984  1.0061 -0.3451  0.0013
  175MPD1    H2 2671   4.488   1.362  15.774  1.0089 -0.3642 -1.4536
  175MPD1    H3 2672   4.440   1.170  15.929 -0.4867 -0.8495 -1.5134
  175MPD1     N 2673   0.116   0.986  15.909  0.2642  0.4841  0.2758
  175MPD1    H5 2674   0.081   0.910  15.966  1.7883  0.0325  0.6178
  175MPD1    N1 2675   4.722   1.409  15.673 -0.7767  0.0646  0.3912
  175MPD1    H6 2676   4.640   1.434  15.618 -0.0211  0.8871 -0.3462
  175MPD1    H7 2677   0.071   1.375  15.611 -0.7081  1.8454 -0.4795
  176MPD1     C 2678   1.590   2.731  17.104  0.4909  0.7310  1.0400
  176MPD1    C1 2679   1.686   2.710  17.196 -0.6505  0.4614  0.2161
  176MPD1    C2 2680   1.685   2.770  17.316  0.2022 -0.5094 -0.0249
  176MPD1    C3 2681   1.569   2.826  17.369  0.0912  0.0397  0.5300
  176MPD1    C4 2682   1.459   2.833  17.283 -0.3302 -0.4484 -0.3480
  176MPD1    C5 2683   1.472   2.791  17.151 -0.2539  0.1454 -0.4813
  176MPD1     H 2684   1.769   2.755  17.383  1.2862  1.8029 -0.8978
  176MPD1    H1 2685   1.365   2.879  17.311  0.3610  0.7271  0.0337
  176MPD1    H2 2686   1.594   2.702  17.000  0.3860  0.4253  1.1218
  176MPD1    H3 2687   1.387   2.796  17.083  2.4958  3.0031 -3.6977
  176MPD1     N 2688   1.563   2.895  17.499  0.1998  0.2832  0.4280
  176MPD1    H5 2689   1.651   2.884  17.547  0.1784  1.6910  0.7637
  176MPD1    N1 2690   1.806   2.644  17.159 -0.4048  0.6112  0.4224
  176MPD1    H6 2691   1.858   2.596  17.232 -1.2675 -0.5375  0.2875
  176MPD1    H7 2692   1.788   2.564  17.098 -0.8629  2.4373 -1.8378
  177MPD1     C 2693   0.132   2.625  10.438  0.2314  0.2884  0.0928
  177MPD1    C1 2694   0.032   2.552  10.373 -0.3701 -0.0363 -0.5371
  177MPD1    C2 2695   4.704   2.606  10.254 -0.3618 -0.4194 -0.7712
  177MPD1    C3 2696   0.010   2.739  10.219 -0.3571  0.0069 -0.6619
  177MPD1    C4 2697   0.101   2.811  10.295 -0.5643 -0.4659  1.0641
  177MPD1    C5 2698   0.166   2.750  10.409 -0.3225 -0.6865  0.8934
  177MPD1     H 2699   4.622   2.552  10.208 -1.3029  1.2998 -1.0882
  177MPD1    H1 2700   0.132   2.910  10.267  0.0890 -0.4697  1.7938
  177MPD1    H2 2701   0.178   2.588  10.529 -0.2641 -0.4805  0.0340
  177MPD1    H3 2702   0.224   2.815  10.473 -0.7235 -0.7163  1.2849
  177MPD1     N 2703   4.661   2.795  10.113 -0.6610  0.4545 -0.0739
  177MPD1    H5 2704   4.604   2.738  10.050  1.6567 -0.4092 -1.3698
  177MPD1    N1 2705   4.724   2.420  10.414 -0.4542  0.1095  0.1093
  177MPD1    H6 2706   0.002   2.402  10.514 -0.5199 -3.0437 -0.4719
  177MPD1    H7 2707   4.631   2.400  10.377  0.4754 -0.6600 -1.7971
  178MPD1     C 2708   2.250   0.177  17.426 -0.7857  0.0852  0.5150
  178MPD1    C1 2709   2.155   0.084  17.445  0.1398 -0.3462  0.6874
  178MPD1    C2 2710   2.178   4.677  17.409 -0.3024 -0.4523 -0.4757
  178MPD1    C3 2711   2.295   4.640  17.346 -0.1808 -0.3000 -1.0280
  178MPD1    C4 2712   2.385   0.014  17.311  0.4444  0.2884 -0.0316
  178MPD1    C5 2713   2.361   0.142  17.351 -0.2482  0.1759  0.3722
  178MPD1     H 2714   2.100   4.607  17.435  0.2582 -1.7117 -2.2190
  178MPD1    H1 2715   2.476   0.002  17.253  0.8920 -2.1721  1.1751
  178MPD1    H2 2716   2.240   0.274  17.473 -1.2606  0.0891  0.4035
  178MPD1    H3 2717   2.442   0.213  17.352  1.1694 -1.4351 -1.0789
  178MPD1     N 2718   2.331   4.506  17.311 -1.0123  0.2913  0.0935
  178MPD1    H5 2719   2.422   4.490  17.267 -0.7368 -1.4975  1.3544
  178MPD1    N1 2720   2.053   0.117  17.539  0.4147  0.6141 -0.1502
  178MPD1    H6 2721   1.965   0.072  17.517 -0.2642  2.0242 -0.3674
  178MPD1    H7 2722   2.032   0.217  17.544 -2.5119 -0.0606  0.8774
  179MPD1     C 2723   2.288   2.890  15.944 -0.1526  0.5968 -0.0177
  179MPD1    C1 2724   2.167   2.857  15.887  1.1198  0.8366 -0.3192
  179MPD1    C2 2725   2.144   2.719  15.883 -0.4800  0.7963  0.0379
  179MPD1    C3 2726   2.244   2.626  15.911 -0.0317  0.3148  0.1399
  179MPD1    C4 2727   2.365   2.667  15.950  0.1374 -0.2217  0.6674
  179MPD1    C5 2728   2.380   2.793  15.975 -0.2010 -1.6042 -0.2903
  179MPD1     H 2729   2.042   2.690  15.860  0.0043 -1.1266  0.3720
  179MPD1    H1 2730   2.444   2.594  15.958  0.5481  0.4669  2.8569
  179MPD1    H2 2731   2.307   2.993  15.971  1.6758 -0.1979  1.7670
  179MPD1    H3 2732   2.479   2.828  16.002 -2.0564  3.3765  0.0759
  179MPD1     N 2733   2.225   2.494  15.896  0.5097 -0.0326 -0.4482
  179MPD1    H5 2734   2.304   2.436  15.925  0.7694 -0.0556 -1.1904
  179MPD1    N1 2735   2.062   2.950  15.872  0.3569  0.2128  0.2725
  179MPD1    H6 2736   2.100   3.041  15.847 -1.3150  0.7983 -0.1263
  179MPD1    H7 2737   1.996   2.921  15.800 -1.3289 -0.1812  1.9616
  180MPD1     C 2738   1.811   3.806  15.171 -0.0021  0.5707  0.1559
  180MPD1    C1 2739   1.933   3.768  15.119  0.0064 -0.0818 -0.4413
  180MPD1    C2 2740   1.928   3.686  15.008  0.7952  0.2917 -0.3124
  180MPD1    C3 2741   1.811   3.641  14.951  0.7636 -0.0486  0.6229
  180MPD1    C4 2742   1.686   3.686  14.999  0.5300  0.2610 -0.2993
  180MPD1    C5 2743   1.695   3.773  15.110  0.4114 -0.2442 -0.2041
  180MPD1     H 2744   2.018   3.645  14.966 -0.2463 -2.6469  0.3222
  180MPD1    H1 2745   1.584   3.656  14.980  0.8938 -0.3354 -1.3091
  180MPD1    H2 2746   1.811   3.865  15.262 -1.3567 -0.7812  1.0276
  180MPD1    H3 2747   1.602   3.803  15.158 -0.2124 -1.8900 -0.3743
  180MPD1     N 2748   1.810   3.546  14.846 -0.4665 -0.3169 -0.4691
  180MPD1    H5 2749   1.899   3.508  14.814  0.7692  2.4664 -0.4076
  180MPD1    N1 2750   2.049   3.792  15.192  0.1170  0.4251  0.0841
  180MPD1    H6 2751   2.045   3.879  15.246 -1.3349  0.6668 -0.4307
  180MPD1    H7 2752   2.134   3.791  15.136  2.1643  0.1483  3.1977
  181MPD1     C 2753   3.581   4.315   8.778  0.9262  0.3515  0.7324
  181MPD1    C1 2754   3.627   4.444   8.763 -0.1029  0.8448 -0.3812
  181MPD1    C2 2755   3.661   4.512   8.881  0.8738 -0.2998 -0.2445
  181MPD1    C3 2756   3.633   4.452   9.003  0.2172  0.2354  0.4024
  181MPD1    C4 2757   3.586   4.319   9.006 -0.7483 -0.1288  0.1258
  181MPD1    C5 2758   3.552   4.258   8.893  0.0558 -0.0312  0.2285
  181MPD1     H 2759   3.696   4.613   8.866 -0.4231  0.2184  0.1646
  181MPD1    H1 2760   3.566   4.276   9.104 -4.4256  2.5755  0.5725
  181MPD1    H2 2761   3.553   4.262   8.687  0.4101  0.4143  0.8521
  181MPD1    H3 2762   3.516   4.155   8.894 -1.0087  0.3261 -0.6330
  181MPD1     N 2763   3.663   4.515   9.125 -0.1300  0.2493 -0.1330
  181MPD1    H5 2764   3.626   4.474   9.211 -1.5983 -0.2372 -0.9959
  181MPD1    N1 2765   3.664   4.484   8.640  0.9129  0.0772  0.6404
  181MPD1    H6 2766   3.689   4.582   8.634  1.7615 -0.1141  1.0445
  181MPD1    H7 2767   3.590   4.472   8.572  0.7367  0.9921  0.6776
  182MPD1     C 2768   3.749   0.323   1.623  0.3443  0.2110  0.8331
  182MPD1    C1 2769   3.878   0.285   1.596 -0.2267  0.0778 -0.5443
  182MPD1    C2 2770   3.906   0.273   1.464 -0.4559 -0.2976  0.5599
  182MPD1    C3 2771   3.808   0.296   1.358  0.6100 -0.1782  0.4752
  182MPD1    C4 2772   3.684   0.347   1.400  0.2675 -0.9355 -0.6063
  182MPD1    C5 2773   3.655   0.356   1.531  0.4928 -0.0268  0.0047
  182MPD1     H 2774   4.005   0.235   1.444 -0.7787 -0.4016 -0.8968
  182MPD1    H1 2775   3.605   0.372   1.330  1.6904 -1.0840 -2.2664
  182MPD1    H2 2776   3.714   0.323   1.725 -2.6011  2.7946 -0.1445
  182MPD1    H3 2777   3.556   0.383   1.565 -0.6475  0.7714 -3.8850
  182MPD1     N 2778   3.829   0.261   1.223  0.2333  0.0818 -0.5633
  182MPD1    H5 2779   3.760   0.302   1.160  0.7469 -1.6765 -2.2625
  182MPD1    N1 2780   3.976   0.269   1.693 -0.6203 -0.0008 -0.4831
  182MPD1    H6 2781   4.063   0.234   1.655  0.1807 -0.7054  2.0120
  182MPD1    H7 2782   3.936   0.213   1.768  0.4102  0.6100  0.5284
  183MPD1     C 2783   1.172   4.256  10.197  0.5279  0.4673 -0.7996
  183MPD1    C1 2784   1.048   4.213  10.227 -0.2179 -0.6211  0.4314
  183MPD1    C2 2785   0.940   4.281  10.173  0.4051  0.4928 -0.8250
  183MPD1    C3 2786   0.958   4.405  10.111  0.5170 -0.3930  0.1400
  183MPD1    C4 2787   1.088   4.454  10.103  0.3074 -0.4851 -0.4451
  183MPD1    C5 2788   1.193   4.371  10.139 -0.3803  0.2947  0.1221
  183MPD1     H 2789   0.841   4.239  10.187  0.5677  0.3346 -0.1665
  183MPD1    H1 2790   1.107   4.547  10.052 -1.0503  0.7459  1.3015
  183MPD1    H2 2791   1.263   4.204  10.224 -0.4813 -0.0999  1.5233
  183MPD1    H3 2792   1.295   4.396  10.112  1.2096 -1.2589  4.6164
  183MPD1     N 2793   0.842   4.471  10.076 -0.2993  0.7110  0.0293
  183MPD1    H5 2794   0.757   4.423  10.103  0.7123 -2.5994 -2.5176
  183MPD1    N1 2795   1.034   4.081  10.272  0.1962 -0.5230  0.4096
  183MPD1    H6 2796   0.950   4.064  10.327 -0.7477  0.1050 -0.8259
  183MPD1    H7 2797   1.106   4.067  10.342  2.6139  0.2288 -1.9293
  184MPD1     C 2798   3.958   1.849   9.494 -0.4995 -0.0724  0.8855
  184MPD1    C1 2799   3.944   1.922   9.605  0.1951 -0.5969  0.1479
  184MPD1    C2 2800   3.986   2.056   9.592  0.4952  0.3349 -0.4793
  184MPD1    C3 2801   4.037   2.120   9.471  0.5614  0.3428 -0.0607
  184MPD1    C4 2802   4.052   2.034   9.361  0.0492  0.3065  0.9408
  184MPD1    C5 2803   4.017   1.902   9.378  0.1769 -0.4604 -0.2692
  184MPD1     H 2804   3.967   2.126   9.672  1.2648  0.1431 -0.1289
  184MPD1    H1 2805   4.090   2.053   9.262 -0.2796 -1.5580  0.4640
  184MPD1    H2 2806   3.919   1.748   9.491  0.6762 -0.4925 -0.0652
  184MPD1    H3 2807   4.010   1.841   9.288  0.9248 -0.6538 -0.1925
  184MPD1     N 2808   4.065   2.264   9.447 -0.3227 -0.1203 -0.1819
  184MPD1    H5 2809   4.103   2.287   9.356 -0.7874  0.0845 -0.3234
  184MPD1    N1 2810   3.854   1.887   9.706 -0.1190  0.3668 -0.0524
  184MPD1    H6 2811   3.868   1.940   9.792  0.7983 -0.9158  0.5892
  184MPD1    H7 2812   3.865   1.789   9.733  1.3731  0.6085  0.2071
  185MPD1     C 2813   4.333   2.896   8.752 -0.1984  0.4808 -0.3448
  185MPD1    C1 2814   4.370   2.766   8.796  0.3966 -0.0153  0.3931
  185MPD1    C2 2815   4.327   2.730   8.925  0.1611  0.4641  0.0102
  185MPD1    C3 2816   4.239   2.803   9.000  0.3678 -0.3551  0.2857
  185MPD1    C4 2817   4.197   2.916   8.942 -0.0221  0.2565  0.7211
  185MPD1    C5 2818   4.245   2.967   8.830  0.8984  0.9429 -0.2904
  185MPD1     H 2819   4.363   2.641   8.976  1.8573 -0.1000 -2.1655
  185MPD1    H1 2820   4.129   2.981   8.997 -0.6080 -0.4104  0.7781
  185MPD1    H2 2821   4.372   2.942   8.662  1.9323 -2.9220 -1.1628
  185MPD1    H3 2822   4.194   3.053   8.788  1.4389  0.9657 -0.9032
  185MPD1     N 2823   4.176   2.771   9.124  0.0962 -0.2192  0.2641
  185MPD1    H5 2824   4.121   2.845   9.165 -1.5649 -0.0609 -2.2609
  185MPD1    N1 2825   4.459   2.685   8.733 -0.1680 -0.4305 -0.0799
  185MPD1    H6 2826   4.435   2.587   8.747 -0.7716 -0.3565 -0.5898
  185MPD1    H7 2827   4.466   2.701   8.632 -1.4873  1.3733  0.1245
  186MPD1     C 2828   2.786   1.919  15.940 -0.4478 -0.0817  0.2108
  186MPD1    C1 2829   2.878   2.014  15.904 -0.2676 -0.0354 -0.3193
  186MPD1    C2 2830   2.877   2.135  15.966  0.1436 -0.8326 -1.3243
  186MPD1    C3 2831   2.786   2.161  16.074  0.5111 -0.5130 -0.0626
  186MPD1    C4 2832   2.700   2.056  16.107  0.5552  0.3915 -0.3117
  186MPD1    C5 2833   2.702   1.938  16.044  0.1936  0.1569  0.0275
  186MPD1     H 2834   2.952   2.209  15.941  0.6612 -1.3760 -1.3812
  186MPD1    H1 2835   2.625   2.059  16.185 -1.2554 -0.4651 -2.0390
  186MPD1    H2 2836   2.766   1.826  15.888  0.2410  0.0385 -0.2727
  186MPD1    H3 2837   2.623   1.869  16.073  1.0100 -0.2468  1.3251
  186MPD1     N 2838   2.779   2.279  16.148 -0.4143 -0.1477  0.3810
  186MPD1    H5 2839   2.707   2.282  16.219 -0.4574 -2.1030  0.4211
  186MPD1    N1 2840   2.955   1.989  15.790 -0.0975 -0.2618 -0.5327
  186MPD1    H6 2841   3.036   2.050  15.798  0.6130 -1.2667  0.0118
  186MPD1    H7 2842   2.986   1.894  15.770 -2.1140 -1.5747  2.4641
  187MPD1     C 2843   1.325   0.011   0.581 -0.0053 -0.1751  0.5259
  187MPD1    C1 2844   1.353   4.601   0.552 -0.0954 -0.7353 -0.1238
  187MPD1    C2 2845   1.431   4.575   0.441 -0.7252  0.0102 -0.5530
  187MPD1    C3 2846   1.485   4.658   0.353 -0.0356  0.7098 -0.1878
  187MPD1    C4 2847   1.455   0.068   0.379  0.6763 -0.1823  0.2487
  187MPD1    C5 2848   1.384   0.105   0.492 -0.0766 -0.1592 -0.3787
  187MPD1     H 2849   1.456   4.470   0.430  0.1576  0.0869  0.7756
  187MPD1    H1 2850   1.493   0.143   0.310  1.3669  0.0915  0.9288
  187MPD1    H2 2851   1.265   0.039   0.666 -0.5852  1.3353 -0.3757
  187MPD1    H3 2852   1.366   0.210   0.511  1.5909  0.1695 -0.6004
  187MPD1     N 2853   1.552   4.621   0.234  0.1286 -0.0817  0.1551
  187MPD1    H5 2854   1.592   4.685   0.166 -0.3021 -0.8916 -0.8567
  187MPD1    N1 2855   1.324   4.499   0.641 -0.0643 -0.1405  0.4177
  187MPD1    H6 2856   1.233   4.501   0.687 -1.6525 -1.6625 -2.6856
  187MPD1    H7 2857   1.347   4.409   0.601 -0.1062 -0.2024  0.5330
  188MPD1     C 2858   1.386   3.950  10.435 -1.2218  0.8244  0.5991
  188MPD1    C1 2859   1.425   3.886  10.551 -0.3390  0.4048 -0.1151
  188MPD1    C2 2860   1.419   3.750  10.554  0.2803  0.3389  0.1319
  188MPD1    C3 2861   1.375   3.679  10.440 -0.2370  0.1115 -0.6564
  188MPD1    C4 2862   1.360   3.748  10.323 -0.3894  0.8981 -0.0047
  188MPD1    C5 2863   1.367   3.886  10.320 -0.0288  0.7475 -0.0488
  188MPD1     H 2864   1.426   3.698  10.649 -0.0935 -1.2751 -0.7289
  188MPD1    H1 2865   1.333   3.695  10.233 -0.4931  2.5312 -0.9224
  188MPD1    H2 2866   1.392   4.058  10.424  0.1518  0.5984 -0.7874
  188MPD1    H3 2867   1.329   3.940  10.234  0.6386 -1.6108 -1.8367
  188MPD1     N 2868   1.349   3.534  10.442  0.6468 -0.3155  0.5385
  188MPD1    H5 2869   1.311   3.498  10.355 -1.7156  0.1967  1.3466
  188MPD1    N1 2870   1.439   3.951  10.677  0.1506 -0.0460  0.4491
  188MPD1    H6 2871   1.488   4.039  10.669  0.2492 -0.1540 -0.1385
  188MPD1    H7 2872   1.478   3.893  10.751 -0.6325 -2.1500 -0.7503
  189MPD1     C 2873   3.679   4.400   0.388  0.4006  0.5432 -0.1176
  189MPD1    C1 2874   3.556   4.420   0.328 -0.3226  0.4084  0.1203
  189MPD1    C2 2875   3.454   4.478   0.395 -0.0105 -0.5443 -0.3572
  189MPD1    C3 2876   3.460   4.505   0.528  0.4309  0.2074 -0.0350
  189MPD1    C4 2877   3.576   4.483   0.597 -0.0966 -0.2192  0.0496
  189MPD1    C5 2878   3.682   4.435   0.517 -0.1276 -0.4562 -0.8876
  189MPD1     H 2879   3.358   4.500   0.351  0.7188 -1.0501 -2.2000
  189MPD1    H1 2880   3.594   4.507   0.701 -1.7838 -1.1682  0.5717
  189MPD1    H2 2881   3.766   4.360   0.338  2.1505 -0.8611  4.0721
  189MPD1    H3 2882   3.779   4.417   0.561 -0.0396  1.4478 -0.2951
  189MPD1     N 2883   3.341   4.555   0.587 -0.1368  0.5233  0.4304
  189MPD1    H5 2884   3.254   4.560   0.535  0.2400  5.0814  0.2671
  189MPD1    N1 2885   3.542   4.393   0.192  0.5885 -0.3232 -0.2994
  189MPD1    H6 2886   3.623   4.342   0.156  0.4087 -1.1577  0.4925
  189MPD1    H7 2887   3.453   4.352   0.167  0.5448 -0.5408  0.2223
  190MPD1     C 2888   2.417   4.254  15.439  0.3643  0.3996 -1.0384
  190MPD1    C1 2889   2.551   4.225  15.421  0.5633  0.7945 -0.7979
  190MPD1    C2 2890   2.616   4.177  15.535  0.4814 -0.3634 -0.4655
  190MPD1    C3 2891   2.548   4.150  15.656  0.4977  0.4753 -0.3844
  190MPD1    C4 2892   2.417   4.182  15.668 -0.8717 -0.5188  0.5441
  190MPD1    C5 2893   2.355   4.237  15.558 -0.1005  0.0462  0.5175
  190MPD1     H 2894   2.724   4.171  15.533  0.4197 -1.5389 -0.3479
  190MPD1    H1 2895   2.352   4.169  15.753  2.0968  2.3036  3.1987
  190MPD1    H2 2896   2.357   4.290  15.356  0.2351  0.6987 -0.8107
  190MPD1    H3 2897   2.247   4.245  15.563 -0.2032  0.2803 -2.2013
  190MPD1     N 2898   2.616   4.085  15.761  0.0484 -0.4103 -0.2663
  190MPD1    H5 2899   2.699   4.033  15.733  0.2748  0.8691 -1.9885
  190MPD1    N1 2900   2.620   4.282  15.316 -0.6747  0.2619 -1.0724
  190MPD1    H6 2901   2.569   4.297  15.230  1.7181 -1.9471 -2.8769
  190MPD1    H7 2902   2.717   4.249  15.318 -1.4901 -1.9032  1.9417
  191MPD1     C 2903   1.183   0.464  13.626  0.1526 -0.2132 -0.3716
  191MPD1    C1 2904   1.059   0.527  13.627 -0.8563  0.0543  0.4021
  191MPD1    C2 2905   0.993   0.548  13.503 -0.1156  0.4315  0.8838
  191MPD1    C3 2906   1.055   0.511  13.385 -0.2308 -0.7169  0.4904
  191MPD1    C4 2907   1.170   0.434  13.393 -0.8390 -0.1350 -1.0175
  191MPD1    C5 2908   1.234   0.414  13.510 -0.0188 -0.5358 -0.0365
  191MPD1     H 2909   0.897   0.597  13.496  0.3994  0.9133 -2.6280
  191MPD1    H1 2910   1.216   0.387  13.307  0.0676  1.8386 -1.5968
  191MPD1    H2 2911   1.236   0.454  13.720  0.6976  1.4373 -0.4970
  191MPD1    H3 2912   1.321   0.350  13.513 -1.0901 -2.0992 -2.5116
  191MPD1     N 2913   0.999   0.561  13.265  0.1056 -0.0789 -0.7570
  191MPD1    H5 2914   0.907   0.604  13.263  0.0217 -0.2108  0.0964
  191MPD1    N1 2915   1.007   0.549  13.749 -0.1662 -0.0344  0.7303
  191MPD1    H6 2916   1.073   0.555  13.827  0.1605 -2.2306  0.6286
  191MPD1    H7 2917   0.946   0.630  13.755  1.4474  1.3690 -1.9019
  192MPD1     C 2918   0.325   0.634  12.503  0.1896  0.0721  0.2043
  192MPD1    C1 2919   0.312   0.610  12.636 -0.2839 -0.1654 -0.4537
  192MPD1    C2 2920   0.433   0.596  12.698 -0.2436  0.1448  0.8750
  192MPD1    C3 2921   0.555   0.596  12.630 -0.3890 -0.3387  0.9033
  192MPD1    C4 2922   0.561   0.617  12.493 -0.0194 -1.1235  0.2512
  192MPD1    C5 2923   0.444   0.635  12.433 -0.1825 -0.0161  0.6446
  192MPD1     H 2924   0.431   0.568  12.803 -0.4420 -2.5028  0.1674
  192MPD1    H1 2925   0.657   0.612  12.444 -0.1205  0.0967 -0.0637
  192MPD1    H2 2926   0.231   0.652  12.452 -0.4368  1.4387  1.8536
  192MPD1    H3 2927   0.428   0.648  12.326  2.7334  2.9601  0.5806
  192MPD1     N 2928   0.689   0.585  12.693 -0.2490 -0.1812 -0.7448
  192MPD1    H5 2929   0.773   0.584  12.636  0.2601 -0.7691  0.0167
  192MPD1    N1 2930   0.189   0.603  12.700 -0.3730  0.6822  0.1843
  192MPD1    H6 2931   0.201   0.551  12.787  1.8569 -1.4373 -1.3620
  192MPD1    H7 2932   0.115   0.556  12.649 -1.4138  0.9465  1.4582
  193MPD1     C 2933   1.054   1.189  16.050 -0.3759 -0.1589 -0.0585
  193MPD1    C1 2934   1.083   1.322  16.085  0.4827 -0.3931  0.5363
  193MPD1    C2 2935   1.115   1.355  16.216 -0.4452  0.1780 -0.3230
  193MPD1    C3 2936   1.114   1.261  16.321 -0.6098 -0.4085  0.0965
  193MPD1    C4 2937   1.074   1.133  16.289  0.0274 -0.1644 -0.1414
  193MPD1    C5 2938   1.044   1.103  16.158 -0.0959 -0.4931 -0.3655
  193MPD1     H 2939   1.149   1.456  16.234 -1.0481  0.4572 -0.7439
  193MPD1    H1 2940   1.075   1.052  16.361  0.4245  0.8803  1.0367
  193MPD1    H2 2941   1.048   1.159  15.946 -1.1694  0.8865 -0.3074
  193MPD1    H3 2942   1.031   0.998  16.138 -1.4009 -0.3132 -0.4464
  193MPD1     N 2943   1.150   1.293  16.452 -0.1932  0.2698  1.1597
  193MPD1    H5 2944   1.177   1.214  16.511  0.1227 -0.5378 -0.0598
  193MPD1    N1 2945   1.100   1.411  15.977  0.4326 -0.4813 -0.0016
  193MPD1    H6 2946   1.039   1.391  15.898  0.9961 -1.3764 -0.2182
  193MPD1    H7 2947   1.101   1.512  15.992  2.4829 -0.6627  1.1227
  194MPD1     C 2948   4.360   2.778  16.102  0.2922  0.4331  0.3200
  194MPD1    C1 2949   4.275   2.693  16.036 -0.4516 -0.0688  0.3162
  194MPD1    C2 2950   4.210   2.603  16.119 -0.0318  0.4066 -0.1732
  194MPD1    C3 2951   4.211   2.607  16.261  0.0753 -0.8003 -0.4389
  194MPD1    C4 2952   4.289   2.705  16.319 -0.1756  0.0494 -0.5485
  194MPD1    C5 2953   4.363   2.786  16.240  0.2282 -0.0635  0.2771
  194MPD1     H 2954   4.149   2.526  16.075 -0.2169  0.9305 -0.8302
  194MPD1    H1 2955   4.308   2.714  16.425 -1.1313 -2.4463 -0.1760
  194MPD1    H2 2956   4.436   2.838  16.052  0.1260 -0.0516 -0.5131
  194MPD1    H3 2957   4.437   2.851  16.285 -1.1992  2.1671 -0.6251
  194MPD1     N 2958   4.120   2.538  16.339  0.2869 -0.0586 -0.3007
  194MPD1    H5 2959   4.127   2.545  16.439  1.1273 -0.1374 -0.3597
  194MPD1    N1 2960   4.293   2.664  15.903  0.6931  0.0635  0.4468
  194MPD1    H6 2961   4.202   2.629  15.872  0.9460  1.5492 -1.9957
  194MPD1    H7 2962   4.313   2.754  15.860 -0.3720 -0.1591 -0.5289
  195MPD1     C 2963   1.079   0.322  17.631 -0.4002  0.2622  0.4000
  195MPD1    C1 2964   1.192   0.258  17.574 -0.4692 -0.0211  0.4853
  195MPD1    C2 2965   1.238   0.142  17.632  0.0636  0.8077  0.0270
  195MPD1    C3 2966   1.168   0.083   0.032  0.5380  0.0833 -0.7341
  195MPD1    C4 2967   1.051   0.146   0.084 -0.4719  0.3302  0.7727
  195MPD1    C5 2968   1.004   0.258   0.032 -0.9956  0.7232  0.0090
  195MPD1     H 2969   1.329   0.104  17.588 -0.5500 -1.8774  1.1145
  195MPD1    H1 2970   1.001   0.102   0.170  0.7273  2.1328  2.3957
  195MPD1    H2 2971   1.051   0.421  17.596  0.1368  0.5335  0.7331
  195MPD1    H3 2972   0.909   0.301   0.063  0.5114  3.7160  0.5021
  195MPD1     N 2973   1.199   4.676   0.074  0.1293 -0.0055 -0.4226
  195MPD1    H5 2974   1.153   4.642   0.158 -1.1367 -1.3003 -1.6391
  195MPD1    N1 2975   1.270   0.345  17.499 -0.7306 -0.2118  0.0929
  195MPD1    H6 2976   1.331   0.288  17.441  0.2352  1.4306 -0.4959
  195MPD1    H7 2977   1.212   0.411  17.448  2.2062  2.1408 -0.1780
  196MPD1     C 2978   0.331   4.205   0.892  0.1312  0.3432  0.1367
  196MPD1    C1 2979   0.412   4.307   0.943 -0.9645 -0.5607  0.1796
  196MPD1    C2 2980   0.387   4.361   1.066 -0.2079 -0.5760  0.7422
  196MPD1    C3 2981   0.274   4.322   1.130  0.0779 -0.2113 -0.3557
  196MPD1    C4 2982   0.189   4.223   1.077 -0.2464  0.4599 -0.0606
  196MPD1    C5 2983   0.219   4.165   0.956 -0.2568  0.3377 -0.6050
  196MPD1     H 2984   0.454   4.439   1.100 -1.9676  1.0162  0.5729
  196MPD1    H1 2985   0.104   4.181   1.131  0.7355 -1.3585  0.0584
  196MPD1    H2 2986   0.358   4.152   0.802  2.0907  1.7801 -0.1362
  196MPD1    H3 2987   0.172   4.077   0.914 -2.5790  1.7473 -1.0000
  196MPD1     N 2988   0.245   4.387   1.253 -0.0478  0.3374 -0.8268
  196MPD1    H5 2989   0.160   4.360   1.301  1.0143 -2.2266 -0.3537
  196MPD1    N1 2990   0.531   4.343   0.875 -0.4690 -0.1888  0.2505
  196MPD1    H6 2991   0.510   4.329   0.777 -1.2341  0.2376  0.3567
  196MPD1    H7 2992   0.553   4.441   0.892 -2.1381  0.5689 -2.0118
  197MPD1     C 2993   4.489   0.969  17.400  0.5200 -0.3943 -0.2814
  197MPD1    C1 2994   4.526   1.075  17.479 -0.4584  0.2268 -0.5087
  197MPD1    C2 2995   4.606   1.169  17.413  0.1463 -0.0120 -0.2671
  197MPD1    C3 2996   4.651   1.158  17.283  0.9215 -0.0510 -0.0062
  197MPD1    C4 2997   4.612   1.047  17.212 -0.1029  0.2367  0.3166
  197MPD1    C5 2998   4.535   0.952  17.276  0.3585  0.6895  0.0573
  197MPD1     H 2999   4.635   1.249  17.480 -1.9266  1.4213 -1.0829
  197MPD1    H1 3000   4.654   1.010  17.119 -2.4894  0.1474 -0.7264
  197MPD1    H2 3001   4.420   0.894  17.438 -1.3937  1.6392  0.2765
  197MPD1    H3 3002   4.502   0.860  17.229  0.1122 -0.7181  2.9592
  197MPD1     N 3003   0.027   1.240  17.226 -0.2027  0.8073  0.0532
  197MPD1    H5 3004   0.057   1.224  17.130  1.5521  0.4265  0.6568
  197MPD1    N1 3005   4.463   1.088  17.608  0.4131  0.4919 -0.2252
  197MPD1    H6 3006   4.447   0.999  17.655 -0.5649  0.0713 -1.3634
  197MPD1    H7 3007   4.520   1.133  17.680  2.8185 -1.0934 -1.1396
  198MPD1     C 3008   1.352   4.499  15.494 -0.3602 -0.8371 -0.0284
  198MPD1    C1 3009   1.348   4.602  15.587  0.0304 -0.8810 -0.4878
  198MPD1    C2 3010   1.465   4.674  15.600 -0.1246 -0.0260  0.2202
  198MPD1    C3 3011   1.574   4.669  15.515  0.1108 -0.2709 -0.9588
  198MPD1    C4 3012   1.564   4.577  15.411 -0.3621  0.4094 -0.3231
  198MPD1    C5 3013   1.459   4.492  15.405 -0.0598 -0.1350 -0.2921
  198MPD1     H 3014   1.466   0.025  15.678  0.6687  0.1448  0.0533
  198MPD1    H1 3015   1.641   4.563  15.336 -0.0296  2.1378 -0.3259
  198MPD1    H2 3016   1.272   4.427  15.487 -1.8284  0.8821 -1.0041
  198MPD1    H3 3017   1.476   4.416  15.329 -2.3253 -1.6477  0.7424
  198MPD1     N 3018   1.689   0.031  15.543  0.5085 -0.1550 -0.2732
  198MPD1    H5 3019   1.683   0.099  15.619 -0.2209 -1.2039  0.6033
  198MPD1    N1 3020   1.242   4.602  15.684  0.3853  0.2871 -0.1655
  198MPD1    H6 3021   1.157   4.555  15.652  1.0579 -0.2502 -1.1786
  198MPD1    H7 3022   1.234   4.690  15.734  0.4262  1.8415 -2.8988
  199MPD1     C 3023   3.983   1.040  10.588  0.1758  0.1266 -0.2167
  199MPD1    C1 3024   4.116   1.025  10.561 -0.7313 -0.0801  0.3398
  199MPD1    C2 3025   4.157   0.973  10.443 -0.1366 -0.2692 -0.1772
  199MPD1    C3 3026   4.055   0.959  10.345 -0.2078 -0.0797 -0.1104
  199MPD1    C4 3027   3.921   0.978  10.377 -0.4260 -0.5234 -0.0042
  199MPD1    C5 3028   3.887   1.016  10.500 -0.0041 -0.2893  0.4067
  199MPD1     H 3029   4.264   0.968  10.427  0.1432  0.3622  1.4809
  199MPD1    H1 3030   3.841   0.975  10.303 -0.4012 -0.7516 -0.0233
  199MPD1    H2 3031   3.950   1.068  10.687 -0.0238 -0.1040 -0.2192
  199MPD1    H3 3032   3.783   1.033  10.525 -1.3078 -1.3374 -4.2653
  199MPD1     N 3033   4.078   0.926  10.209 -0.4754 -0.2593  0.1259
  199MPD1    H5 3034   3.998   0.916  10.147 -0.3075  1.4453 -0.3609
  199MPD1    N1 3035   4.204   1.048  10.674 -0.9201  0.2958  0.5080
  199MPD1    H6 3036   4.159   1.083  10.758  0.1035  2.7633  0.0453
  199MPD1    H7 3037   4.290   1.098  10.651 -1.5758  0.7070 -1.0540
  200MPD1     C 3038   3.020   0.548  15.743 -0.9526  0.8822 -0.4524
  200MPD1    C1 3039   2.976   0.471  15.641  0.1424  0.1750  0.3546
  200MPD1    C2 3040   2.940   0.530  15.522  0.0063  0.0802 -0.3166
  200MPD1    C3 3041   2.935   0.669  15.519  0.7961  0.1775  0.5264
  200MPD1    C4 3042   2.962   0.748  15.632  0.4833 -0.3408  0.1138
  200MPD1    C5 3043   3.011   0.685  15.736 -0.3874  0.4976 -0.0135
  200MPD1     H 3044   2.929   0.473  15.431 -0.4461  0.3930 -0.4577
  200MPD1    H1 3045   2.952   0.856  15.634 -2.2755 -0.5283 -4.0561
  200MPD1    H2 3046   3.048   0.504  15.838  0.9848  3.2098  0.0533
  200MPD1    H3 3047   3.053   0.743  15.818  1.0024 -1.4047  0.6104
  200MPD1     N 3048   2.912   0.730  15.394 -0.0469  0.4305 -0.2263
  200MPD1    H5 3049   2.871   0.676  15.319 -0.0966 -0.4269  0.4280
  200MPD1    N1 3050   3.015   0.337  15.648 -0.0500 -0.1222  0.5103
  200MPD1    H6 3051   3.005   0.304  15.743  0.0037 -0.1429  0.5089
  200MPD1    H7 3052   2.954   0.282  15.588 -0.1008 -0.6107  1.0211
  201MPD1     C 3053   0.591   0.758  13.691 -0.8316  0.2577 -0.1855
  201MPD1    C1 3054   0.641   0.663  13.769  0.5437  0.8239 -0.5529
  201MPD1    C2 3055   0.668   0.543  13.707  0.0453 -0.3812 -0.1687
  201MPD1    C3 3056   0.651   0.523  13.572  0.4449  0.0848  0.4180
  201MPD1    C4 3057   0.593   0.620  13.495 -0.0720  0.2361  0.0455
  201MPD1    C5 3058   0.556   0.736  13.560 -0.3038  0.2345  0.3177
  201MPD1     H 3059   0.705   0.454  13.757  2.2339  0.4433 -0.3383
  201MPD1    H1 3060   0.559   0.614  13.392  0.5592  0.7796 -0.1931
  201MPD1    H2 3061   0.558   0.847  13.744 -0.5683 -1.4239  2.7864
  201MPD1    H3 3062   0.518   0.822  13.506 -0.4173  0.0248  0.0601
  201MPD1     N 3063   0.701   0.399  13.525  1.1908 -0.0595 -0.3518
  201MPD1    H5 3064   0.750   0.342  13.593  1.1007  1.2523  0.8073
  201MPD1    N1 3065   0.657   0.690  13.905  0.4877 -0.2316 -0.1384
  201MPD1    H6 3066   0.747   0.662  13.943  0.3157 -0.4106  0.1450
  201MPD1    H7 3067   0.650   0.790  13.922  0.4622 -0.4635  1.2539
  202MPD1     C 3068   0.024   3.608   9.133  0.8721  0.7314  0.2372
  202MPD1    C1 3069   4.710   3.714   9.212  0.1501  0.6473  0.4483
  202MPD1    C2 3070   0.036   3.706   9.343  0.7427 -0.5609  0.5692
  202MPD1    C3 3071   0.111   3.608   9.396  0.1438  0.5701 -0.4812
  202MPD1    C4 3072   0.136   3.497   9.315 -0.7296 -0.2545 -0.0963
  202MPD1    C5 3073   0.090   3.500   9.184  0.5130 -0.7632 -0.3915
  202MPD1     H 3074   0.036   3.795   9.405  0.9267 -1.5691  2.0160
  202MPD1    H1 3075   0.192   3.409   9.343 -0.0860 -0.2972 -1.4936
  202MPD1    H2 3076   0.026   3.616   9.025 -0.3623 -0.6974  0.1145
  202MPD1    H3 3077   0.114   3.429   9.107  3.7126  2.1330 -2.0719
  202MPD1     N 3078   0.170   3.622   9.528  0.3207  0.0908  0.6792
  202MPD1    H5 3079   0.147   3.707   9.578 -1.2430  0.4849 -0.6785
  202MPD1    N1 3080   4.700   3.839   9.154 -0.1030 -0.1097  0.0118
  202MPD1    H6 3081   4.635   3.806   9.083  1.4462 -2.4739 -0.3138
  202MPD1    H7 3082   4.650   3.906   9.212  1.1820  0.6851  0.1937
  203MPD1     C 3083   3.471   0.270  12.406  0.7503 -0.2343 -0.4232
  203MPD1    C1 3084   3.530   0.210  12.299  0.4323 -0.3777  0.3826
  203MPD1    C2 3085   3.656   0.157  12.318  0.0796 -1.0710  1.1109
  203MPD1    C3 3086   3.711   0.129  12.437  0.5144  0.2917 -0.2030
  203MPD1    C4 3087   3.638   0.170  12.547  0.0818 -0.3462  0.9248
  203MPD1    C5 3088   3.524   0.254  12.531  0.0558 -0.3646  0.1057
  203MPD1     H 3089   3.708   0.130  12.227 -0.9438 -1.4836  0.6470
  203MPD1    H1 3090   3.668   0.149  12.650 -1.3485 -0.2238  1.3635
  203MPD1    H2 3091   3.376   0.321  12.400  0.9931  0.1372 -1.0709
  203MPD1    H3 3092   3.471   0.299  12.615 -2.5458 -1.5735 -0.8708
  203MPD1     N 3093   3.839   0.077  12.449  0.4266  0.2168  0.1094
  203MPD1    H5 3094   3.883   0.047  12.362 -0.8741  0.0238 -0.4803
  203MPD1    N1 3095   3.471   0.226  12.168 -0.1421  0.0538 -0.4947
  203MPD1    H6 3096   3.497   0.151  12.104  0.8701 -0.8863  0.9974
  203MPD1    H7 3097   3.508   0.313  12.132  1.0920  0.0984  0.8529
  204MPD1     C 3098   3.175   0.218  17.094  0.1491 -0.0231 -0.5127
  204MPD1    C1 3099   3.227   0.332  17.039 -0.0296 -0.8238  0.0171
  204MPD1    C2 3100   3.364   0.352  17.043  0.6158  0.8843  0.4715
  204MPD1    C3 3101   3.448   0.251  17.091 -0.1006  0.9785 -0.0128
  204MPD1    C4 3102   3.391   0.126  17.128  0.4538 -0.0403  0.0264
  204MPD1    C5 3103   3.259   0.118  17.140  0.3516  0.0980  0.0938
  204MPD1     H 3104   3.402   0.452  17.025  0.6731  0.7075 -0.3817
  204MPD1    H1 3105   3.443   0.044  17.177  0.8605  0.2073  0.0180
  204MPD1    H2 3106   3.069   0.196  17.096 -0.0635  1.0574  0.4270
  204MPD1    H3 3107   3.217   0.024  17.173 -1.6649  1.1541  0.5103
  204MPD1     N 3108   3.595   0.270  17.071  0.3273 -0.2566  0.5838
  204MPD1    H5 3109   3.630   0.362  17.046 -0.7470  0.2351  0.9031
  204MPD1    N1 3110   3.149   0.447  17.015 -0.5853 -0.0178  0.9557
  204MPD1    H6 3111   3.060   0.426  16.970  0.4161 -2.1731 -0.0643
  204MPD1    H7 3112   3.195   0.511  16.950 -1.4195  1.2486  1.6260
  205MPD1     C 3113   0.754   0.063  16.967 -0.0771 -0.0579  0.1482
  205MPD1    C1 3114   0.622   0.100  16.934  0.1653 -0.0734 -0.2866
  205MPD1    C2 3115   0.522   0.058  17.012 -1.1161  0.4740 -0.6539
  205MPD1    C3 3116   0.547   4.700  17.119  0.6058  0.4588  0.0773
  205MPD1    C4 3117   0.672   4.671  17.163  0.1457  0.1506 -0.7159
  205MPD1    C5 3118   0.774   4.709  17.083 -1.1443  0.4382 -0.4762
  205MPD1     H 3119   0.423   0.095  16.991  0.1070  1.7562 -4.1498
  205MPD1    H1 3120   0.686   4.608  17.249 -1.0777 -1.0213 -1.3691
  205MPD1    H2 3121   0.841   0.072  16.903  0.3809  1.0057  0.9018
  205MPD1    H3 3122   0.873   4.674  17.109  0.5996  4.4465 -1.6260
  205MPD1     N 3123   0.444   4.642  17.198 -0.1495  0.0210  0.1359
  205MPD1    H5 3124   0.470   4.587  17.279 -0.3199  0.7536  0.6783
  205MPD1    N1 3125   0.595   0.170  16.818  0.3051 -0.4033  0.1443
  205MPD1    H6 3126   0.630   0.105  16.747  2.3496  0.8897 -0.0483
  205MPD1    H7 3127   0.494   0.173  16.802  0.5180  0.5956 -0.9903
  206MPD1     C 3128   3.733   3.380  15.818 -0.5426  0.2930 -0.3741
  206MPD1    C1 3129   3.814   3.283  15.871 -0.2466  0.4911 -0.2323
  206MPD1    C2 3130   3.847   3.170  15.795  0.6625 -0.1694 -0.3970
  206MPD1    C3 3131   3.814   3.161  15.667  0.2973 -0.3272  0.1379
  206MPD1    C4 3132   3.734   3.258  15.613  0.3211  0.4725  0.1810
  206MPD1    C5 3133   3.698   3.371  15.686 -0.1553 -0.0970  0.2157
  206MPD1     H 3134   3.913   3.092  15.831  3.1113  1.3303 -1.6201
  206MPD1    H1 3135   3.710   3.261  15.507 -1.1064  0.6749  0.5061
  206MPD1    H2 3136   3.707   3.466  15.878 -0.2638 -1.4306  2.2637
  206MPD1    H3 3137   3.652   3.458  15.639 -0.0969 -0.1524  0.0545
  206MPD1     N 3138   3.844   3.050  15.582  0.2101 -0.5588 -0.3439
  206MPD1    H5 3139   3.829   3.065  15.483  2.2980  1.4011 -0.3760
  206MPD1    N1 3140   3.834   3.279  16.007  0.4142  0.5490  0.1556
  206MPD1    H6 3141   3.918   3.229  16.035 -0.2963 -1.2201 -0.9256
  206MPD1    H7 3142   3.839   3.375  16.040 -1.2582  1.0091 -0.9100
  207MPD1     C 3143   2.056   3.025   9.143 -0.6604  0.8865  0.1440
  207MPD1    C1 3144   2.158   2.936   9.165  0.5241 -0.3089 -0.1684
  207MPD1    C2 3145   2.122   2.805   9.169  0.4613  0.2377 -0.3054
  207MPD1    C3 3146   1.992   2.763   9.145  0.0492  0.3673  1.0460
  207MPD1    C4 3147   1.897   2.851   9.103  0.3112  0.7803  0.3604
  207MPD1    C5 3148   1.929   2.984   9.101  0.3391  0.2614 -0.4801
  207MPD1     H 3149   2.187   2.738   9.223 -0.8994 -1.3595 -0.6341
  207MPD1    H1 3150   1.797   2.821   9.073  0.8320  0.1198 -0.6977
  207MPD1    H2 3151   2.066   3.130   9.167  0.0554  0.7632  0.3640
  207MPD1    H3 3152   1.862   3.063   9.069  2.1658  1.6978 -0.7390
  207MPD1     N 3153   1.947   2.631   9.169 -0.4867  0.4361 -0.9147
  207MPD1    H5 3154   1.850   2.619   9.142 -0.6264  0.6978 -0.5330
  207MPD1    N1 3155   2.273   2.980   9.228 -0.2178 -0.1372 -0.1699
  207MPD1    H6 3156   2.352   2.917   9.224  0.0745  0.2934 -1.0804
  207MPD1    H7 3157   2.298   3.075   9.201  0.3761 -0.1873  0.2079
  208MPD1     C 3158   3.883   3.671  17.696 -0.5163  0.3973  0.7981
  208MPD1    C1 3159   3.981   3.751  17.645  0.2465  0.2004 -0.1845
  208MPD1    C2 3160   4.071   3.796   0.032  0.2382  0.1223 -0.3984
  208MPD1    C3 3161   4.073   3.775   0.168  0.1328 -0.4206 -0.6233
  208MPD1    C4 3162   3.976   3.685   0.219  0.5617 -0.5888  0.0412
  208MPD1    C5 3163   3.877   3.645   0.128 -0.0053 -0.2812 -0.2040
  208MPD1     H 3164   4.156   3.853  17.695 -1.0715  0.0728 -3.7088
  208MPD1    H1 3165   3.964   3.658   0.323  2.0402  0.3738  0.4531
  208MPD1    H2 3166   3.801   3.640  17.632 -1.5465  2.5249  1.1048
  208MPD1    H3 3167   3.810   3.565   0.158 -0.9293  0.1562 -1.1291
  208MPD1     N 3168   4.174   3.832   0.250  0.4991  1.1666 -0.4611
  208MPD1    H5 3169   4.254   3.888   0.220 -0.2036  2.4682  0.1072
  208MPD1    N1 3170   3.991   3.771  17.504 -0.0632  0.1985  0.1360
  208MPD1    H6 3171   3.897   3.767  17.465 -0.2353 -0.5023  0.6359
  208MPD1    H7 3172   4.034   3.860  17.476 -1.2799  0.6169 -0.4123
  209MPD1     C 3173   1.128   3.290   9.723 -0.7109  0.4999  0.1416
  209MPD1    C1 3174   1.202   3.232   9.615 -0.0331  0.6123  0.0534
  209MPD1    C2 3175   1.152   3.112   9.564 -0.3002  0.1575 -0.1436
  209MPD1    C3 3176   1.043   3.042   9.616  0.6912 -0.2643 -1.2203
  209MPD1    C4 3177   0.993   3.101   9.728  0.2434  0.3085 -0.0717
  209MPD1    C5 3178   1.031   3.221   9.782 -0.6268  0.1786 -0.1860
  209MPD1     H 3179   1.192   3.082   9.468 -0.2331 -0.8905  0.2088
  209MPD1    H1 3180   0.901   3.059   9.769  0.1599  2.2326  1.6650
  209MPD1    H2 3181   1.149   3.387   9.768 -1.7031  0.2193  1.2334
  209MPD1    H3 3182   0.974   3.259   9.866 -1.1234 -0.7771 -0.1016
  209MPD1     N 3183   1.000   2.917   9.565  0.0105 -0.3330 -0.6071
  209MPD1    H5 3184   1.055   2.880   9.489 -2.0783 -0.2649 -2.1585
  209MPD1    N1 3185   1.304   3.302   9.542  0.6470  0.1968 -0.4743
  209MPD1    H6 3186   1.363   3.353   9.607  0.3978 -0.4155  0.2277
  209MPD1    H7 3187   1.363   3.233   9.495  0.7110  0.6459 -1.0603
  210MPD1     C 3188   0.323   2.078   9.672 -0.2931 -0.0637  0.6654
  210MPD1    C1 3189   0.329   2.193   9.745  0.2497  0.2321  0.4267
  210MPD1    C2 3190   0.436   2.275   9.717 -0.0132  0.2949 -0.1196
  210MPD1    C3 3191   0.524   2.246   9.607  0.0271  0.6724  0.2969
  210MPD1    C4 3192   0.495   2.139   9.517 -0.0852  0.3397 -0.5123
  210MPD1    C5 3193   0.398   2.051   9.558  0.0760  0.9621 -0.4431
  210MPD1     H 3194   0.466   2.344   9.795  0.7636 -2.9874  2.4853
  210MPD1    H1 3195   0.555   2.127   9.428  1.1843  2.2929  0.0686
  210MPD1    H2 3196   0.251   2.003   9.705 -0.4948  0.4142  1.3137
  210MPD1    H3 3197   0.382   1.962   9.498  2.9360  1.8718 -2.5713
  210MPD1     N 3198   0.629   2.330   9.564 -0.6953 -0.0684  0.5641
  210MPD1    H5 3199   0.679   2.304   9.480 -2.1138  0.4379 -0.4305
  210MPD1    N1 3200   0.268   2.197   9.872 -0.6264  0.2040  0.8897
  210MPD1    H6 3201   0.188   2.135   9.863 -1.8660  1.5989  2.3809
  210MPD1    H7 3202   0.244   2.290   9.906 -0.9034  0.1900  0.7289
  211MPD1     C 3203   0.041   4.659  16.560  0.1024 -0.4739 -0.7390
  211MPD1    C1 3204   4.717   0.060  16.534 -0.2853 -0.4443  0.4040
  211MPD1    C2 3205   4.590   0.076  16.476 -0.1020 -1.3739  0.1631
  211MPD1    C3 3206   4.510   4.685  16.441 -0.2556  0.1054 -0.3537
  211MPD1    C4 3207   4.566   4.563  16.466  0.0297 -0.5799  0.0755
  211MPD1    C5 3208   4.692   4.545  16.527 -0.7040  0.1555  0.0321
  211MPD1     H 3209   4.554   0.172  16.441  0.4603 -0.7804  1.2094
  211MPD1    H1 3210   4.519   4.471  16.433 -1.1920  0.3860 -0.9031
  211MPD1    H2 3211   0.137   4.656  16.609 -0.6667 -0.3292  0.7995
  211MPD1    H3 3212   0.016   4.448  16.527 -0.3942  0.3093 -0.7600
  211MPD1     N 3213   4.383   4.706  16.378 -0.0423  0.2077  0.3410
  211MPD1    H5 3214   4.349   0.076  16.361 -0.3797  0.1840  0.9074
  211MPD1    N1 3215   0.069   0.172  16.568 -0.5213 -0.0026  0.1027
  211MPD1    H6 3216   0.056   0.244  16.497  1.3707  0.1226 -0.1217
  211MPD1    H7 3217   0.169   0.153  16.574 -0.2058  2.1910  1.8271
  212MPD1     C 3218   2.970   1.853  17.131 -0.1009  0.3884 -0.7343
  212MPD1    C1 3219   2.980   1.929  17.019 -0.1035  0.4281  0.1478
  212MPD1    C2 3220   3.043   2.050  17.033  0.2110 -0.5476  0.3476
  212MPD1    C3 3221   3.085   2.096  17.151  0.2139 -0.0100 -0.4674
  212MPD1    C4 3222   3.064   2.020  17.263  0.7010  0.3343 -0.6352
  212MPD1    C5 3223   3.003   1.897  17.259  0.7281  0.1152 -0.0812
  212MPD1     H 3224   3.062   2.096  16.936  0.5294 -2.7077 -0.6251
  212MPD1    H1 3225   3.103   2.049  17.359 -0.6669 -0.8042  0.2599
  212MPD1    H2 3226   2.941   1.749  17.132 -0.8198  0.6058  0.9120
  212MPD1    H3 3227   2.993   1.839  17.349 -1.7594 -0.7807 -0.9288
  212MPD1     N 3228   3.153   2.223  17.160  0.6897  0.8376  0.0589
  212MPD1    H5 3229   3.175   2.252  17.255  0.0327 -3.3249  1.4760
  212MPD1    N1 3230   2.967   1.866  16.891 -0.0721  0.2525  0.3240
  212MPD1    H6 3231   2.889   1.801  16.895  0.7109 -0.7798 -1.0570
  212MPD1    H7 3232   2.962   1.923  16.807 -0.1259  0.0210  0.1696
  213MPD1     C 3233   1.240   3.345  15.620 -0.1209 -0.3768 -0.5778
  213MPD1    C1 3234   1.137   3.312  15.528  0.0387  0.6322 -0.1225
  213MPD1    C2 3235   1.098   3.415  15.446 -0.0378 -0.0230 -0.2509
  213MPD1    C3 3236   1.103   3.546  15.488 -0.2103 -0.3505  0.0432
  213MPD1    C4 3237   1.175   3.575  15.602 -0.0798 -0.0231  0.1435
  213MPD1    C5 3238   1.251   3.473  15.660  0.1383 -0.0613 -0.9554
  213MPD1     H 3239   1.034   3.393  15.362 -0.8745  0.5311  0.2403
  213MPD1    H1 3240   1.198   3.670  15.650  0.4553 -0.5522  0.9402
  213MPD1    H2 3241   1.297   3.262  15.659  1.6271  1.6624  1.2309
  213MPD1    H3 3242   1.316   3.489  15.746 -1.6237  1.9513  0.0053
  213MPD1     N 3243   1.036   3.647  15.416  0.3900  0.4082  0.0920
  213MPD1    H5 3244   0.979   3.614  15.339 -0.3298 -3.0640  2.1187
  213MPD1    N1 3245   1.137   3.181  15.480  0.0983 -0.0069 -0.1832
  213MPD1    H6 3246   1.176   3.115  15.548 -2.2491 -3.9459 -2.6438
  213MPD1    H7 3247   1.050   3.147  15.439 -1.6802  1.4995  2.3398
  214MPD1     C 3248   0.495   3.279  15.039  0.2336  0.4524  0.3514
  214MPD1    C1 3249   0.568   3.364  14.958  0.4819 -0.1899  0.2830
  214MPD1    C2 3250   0.615   3.489  15.010 -0.1912 -0.3907  0.3460
  214MPD1    C3 3251   0.569   3.535  15.128  0.4522 -0.3151  0.4427
  214MPD1    C4 3252   0.476   3.457  15.202  0.4370  0.3282  1.1527
  214MPD1    C5 3253   0.452   3.331  15.160 -0.2464  0.1498  0.1680
  214MPD1     H 3254   0.692   3.540  14.954  0.4161 -1.1633  0.4722
  214MPD1    H1 3255   0.432   3.489  15.295 -2.1362  0.0256  0.0350
  214MPD1    H2 3256   0.462   3.182  15.004 -0.7828  1.4589 -1.5083
  214MPD1    H3 3257   0.400   3.264  15.228  1.7133  0.3726  1.8767
  214MPD1     N 3258   0.620   3.657  15.187  0.1904 -0.9203 -0.0925
  214MPD1    H5 3259   0.578   3.682  15.275  0.3392  0.7824 -0.5053
  214MPD1    N1 3260   0.614   3.312  14.835 -0.0746  0.4502  0.4200
  214MPD1    H6 3261   0.551   3.251  14.783  0.2029 -0.5349  1.2401
  214MPD1    H7 3262   0.657   3.375  14.767 -1.6483 -0.9885 -1.9086
  215MPD1     C 3263   1.679   4.243  10.769 -0.3706  0.4041 -0.4081
  215MPD1    C1 3264   1.629   4.313  10.664  0.4015 -0.3411 -0.1793
  215MPD1    C2 3265   1.603   4.446  10.679 -0.5864  0.1171 -0.1037
  215MPD1    C3 3266   1.644   4.507  10.799  0.1054  0.2523 -0.0654
  215MPD1    C4 3267   1.687   4.433  10.910  0.2208 -1.1736  0.2874
  215MPD1    C5 3268   1.706   4.299  10.893  0.2916  0.1163 -0.1291
  215MPD1     H 3269   1.567   4.511  10.600 -1.4130  0.7289  0.7787
  215MPD1    H1 3270   1.723   4.478  11.002  1.9357 -1.2983 -0.3171
  215MPD1    H2 3271   1.698   4.139  10.744 -2.0910  0.3788 -1.6183
  215MPD1    H3 3272   1.749   4.250  10.980  0.5197  0.2137 -0.1879
  215MPD1     N 3273   1.619   4.645  10.829  0.4010  0.4364  0.2623
  215MPD1    H5 3274   1.660   4.682  10.914  0.9167  0.9500 -0.2133
  215MPD1    N1 3275   1.591   4.243  10.543  0.2305 -0.1177 -0.0470
  215MPD1    H6 3276   1.573   4.310  10.468 -0.4617  2.0127  2.0102
  215MPD1    H7 3277   1.668   4.184  10.515 -1.0324 -3.0195  2.5796
  216MPD1     C 3278   3.460   1.789  16.200 -0.0674 -0.0383 -0.2849
  216MPD1    C1 3279   3.446   1.844  16.331  0.5694 -0.6628 -0.6027
  216MPD1    C2 3280   3.493   1.775  16.436  0.4192 -0.4835  0.0361
  216MPD1    C3 3281   3.549   1.650  16.419 -0.4684 -0.1555 -0.5068
  216MPD1    C4 3282   3.565   1.601  16.291  0.2318  0.4032  0.6796
  216MPD1    C5 3283   3.516   1.665  16.182  0.4019 -0.0246 -0.0524
  216MPD1     H 3284   3.505   1.814  16.537  0.3199 -1.4489  0.4162
  216MPD1    H1 3285   3.618   1.509  16.270  1.5280  1.5202 -0.9175
  216MPD1    H2 3286   3.425   1.846  16.115  2.6321  2.2193  0.1042
  216MPD1    H3 3287   3.526   1.630  16.081  1.0455  0.2074 -0.0662
  216MPD1     N 3288   3.587   1.579  16.537  0.4619  0.5886  0.2338
  216MPD1    H5 3289   3.553   1.617  16.625  0.1822  0.5350  0.1489
  216MPD1    N1 3290   3.415   1.979  16.337  0.6030  0.0355 -0.4897
  216MPD1    H6 3291   3.340   2.004  16.273  0.6337 -0.6162 -0.7710
  216MPD1    H7 3292   3.383   2.002  16.431 -1.8890  2.5669 -1.9588
  217MPD1     C 3293   4.267   4.604   9.407 -0.1161  0.1757  0.4258
  217MPD1    C1 3294   4.200   4.591   9.287 -1.2935 -0.7271  0.2318
  217MPD1    C2 3295   4.138   4.468   9.259  0.2053 -0.2425  0.0385
  217MPD1    C3 3296   4.131   4.372   9.360  0.2660  0.3240 -0.6812
  217MPD1    C4 3297   4.190   4.393   9.484  0.1199  0.0152 -0.1723
  217MPD1    C5 3298   4.267   4.511   9.505 -0.3056  0.5599 -0.3013
  217MPD1     H 3299   4.090   4.448   9.164 -0.5412  0.0759  0.3484
  217MPD1    H1 3300   4.184   4.314   9.558 -0.6589  0.3268  0.0912
  217MPD1    H2 3301   4.319   4.698   9.422  2.0613 -0.7811 -1.2293
  217MPD1    H3 3302   4.327   4.529   9.594  0.7505  0.9771 -1.1075
  217MPD1     N 3303   4.057   4.251   9.342 -0.5145  0.5086  0.4360
  217MPD1    H5 3304   4.077   4.186   9.417 -1.7172 -0.1909  0.1375
  217MPD1    N1 3305   4.223   4.684   9.183  0.0850  0.3892  0.4992
  217MPD1    H6 3306   4.211   0.054   9.218  0.5206  0.0671  1.4950
  217MPD1    H7 3307   4.150   4.665   9.114 -0.3984  0.9823  0.8494
  218MPD1     C 3308   1.120   3.890  12.297 -0.4672  0.5127  0.4937
  218MPD1    C1 3309   1.066   3.954  12.188 -0.7180 -0.5369 -0.6898
  218MPD1    C2 3310   1.068   4.094  12.195  0.5012  0.3039 -0.7313
  218MPD1    C3 3311   1.122   4.162  12.298  0.0095 -0.4338 -0.5067
  218MPD1    C4 3312   1.189   4.100  12.398 -0.0937 -0.2236 -0.1567
  218MPD1    C5 3313   1.185   3.962  12.395 -0.0722  0.1801 -0.0123
  218MPD1     H 3314   1.019   4.151  12.117  1.0019  2.1421  0.3156
  218MPD1    H1 3315   1.237   4.153  12.481 -1.2539  0.5722  0.0103
  218MPD1    H2 3316   1.117   3.784  12.322  0.3547  0.2540 -0.5116
  218MPD1    H3 3317   1.233   3.909  12.476  0.1574  2.1686  1.1480
  218MPD1     N 3318   1.101   4.302  12.295  0.2676  0.1062 -0.1377
  218MPD1    H5 3319   1.036   4.336  12.224  0.4099 -2.7326 -1.6143
  218MPD1    N1 3320   0.987   3.875  12.099 -0.2718  0.2956 -0.0077
  218MPD1    H6 3321   1.041   3.795  12.070  1.4665  1.6041 -0.3722
  218MPD1    H7 3322   0.982   3.934  12.016  1.7673  0.1443 -0.2391
  219MPD1     C 3323   0.589   4.601  11.757  0.0759  0.9301  0.3220
  219MPD1    C1 3324   0.665   4.720  11.771 -0.0129  0.1375  0.0201
  219MPD1    C2 3325   0.733   0.002  11.892  0.2680 -0.3097 -0.0957
  219MPD1    C3 3326   0.730   4.622  11.981 -0.3506 -0.0897 -0.3044
  219MPD1    C4 3327   0.665   4.506  11.962  0.4402 -0.2955 -0.8385
  219MPD1    C5 3328   0.602   4.494  11.843  0.7360 -0.0083 -0.3034
  219MPD1     H 3329   0.788   0.093  11.915 -2.6539  0.9239  1.9526
  219MPD1    H1 3330   0.667   4.423  12.032 -2.2432  0.3945  0.0744
  219MPD1    H2 3331   0.518   4.586  11.676 -0.1893  0.5277  0.6315
  219MPD1    H3 3332   0.558   4.396  11.831  0.3257 -0.1987  2.8549
  219MPD1     N 3333   0.819   4.621  12.095  0.6634  0.3967 -0.2205
  219MPD1    H5 3334   0.818   4.535  12.148  1.3588  1.4346  1.4788
  219MPD1    N1 3335   0.646   0.099  11.679  1.0504  0.2057  0.3941
  219MPD1    H6 3336   0.720   0.168  11.689  1.1085  0.2583 -0.3421
  219MPD1    H7 3337   0.567   0.161  11.697  0.5770 -0.5044  0.7331
  220MPD1     C 3338   0.859   1.097   9.468 -0.0710 -1.1504 -0.1514
  220MPD1    C1 3339   0.882   1.145   9.593  0.2559  0.0642 -0.3923
  220MPD1    C2 3340   0.864   1.061   9.708 -0.5484 -0.7260 -0.7517
  220MPD1    C3 3341   0.816   0.932   9.685 -0.2710 -0.2258  0.3090
  220MPD1    C4 3342   0.779   0.887   9.561 -0.1564  0.3697  0.2653
  220MPD1    C5 3343   0.803   0.974   9.458  0.3126  0.6805 -0.1751
  220MPD1     H 3344   0.889   1.100   9.806 -1.4549 -1.3909 -0.2509
  220MPD1    H1 3345   0.719   0.801   9.536  0.1030  0.0880  0.6042
  220MPD1    H2 3346   0.871   1.164   9.384  0.1813 -1.0722 -0.0545
  220MPD1    H3 3347   0.775   0.927   9.365  1.6828  1.3097 -0.9060
  220MPD1     N 3348   0.811   0.853   9.799 -0.2026 -0.2602 -0.2400
  220MPD1    H5 3349   0.845   0.888   9.888  0.8610  0.5947 -0.9986
  220MPD1    N1 3350   0.956   1.268   9.609  0.6960  0.1374  1.5799
  220MPD1    H6 3351   0.909   1.319   9.684 -1.0636  0.5611  0.1820
  220MPD1    H7 3352   0.951   1.331   9.530 -1.0926  0.3245  1.8382
  221MPD1     C 3353   4.682   3.883  17.206  1.2626  0.3838 -0.1754
  221MPD1    C1 3354   4.588   3.782  17.186 -0.4006  0.0577 -0.4036
  221MPD1    C2 3355   4.488   3.817  17.092  0.3932  0.1414  0.2065
  221MPD1    C3 3356   4.505   3.925  17.012  0.1268 -0.1911 -0.4873
  221MPD1    C4 3357   4.623   3.993  17.015  0.6784 -0.2389 -0.2743
  221MPD1    C5 3358   4.714   3.969  17.111 -0.4920 -0.1476  0.8102
  221MPD1     H 3359   4.400   3.754  17.085  0.2562  0.6096 -2.2289
  221MPD1    H1 3360   4.648   4.062  16.935  0.0446 -0.0690 -0.3290
  221MPD1    H2 3361   0.024   3.862  17.289  0.8633  1.4017  0.4016
  221MPD1    H3 3362   0.080   4.029  17.118  1.0773 -2.5717  1.1789
  221MPD1     N 3363   4.425   3.955  16.897  0.4617 -0.4066 -0.0892
  221MPD1    H5 3364   4.468   4.024  16.837  1.4334 -0.7407  0.2256
  221MPD1    N1 3365   4.577   3.666  17.263  0.2235 -0.0271  0.5343
  221MPD1    H6 3366   4.528   3.594  17.210  0.5531  0.4682 -0.4459
  221MPD1    H7 3367   4.670   3.632  17.288  0.5011  0.3077 -0.0459
  222MPD1     C 3368   3.883   3.139  16.530 -0.1315 -0.3547  0.1858
  222MPD1    C1 3369   3.808   3.216  16.443 -0.6086  0.2364  0.1075
  222MPD1    C2 3370   3.720   3.314  16.493 -0.3941  0.0139 -0.0454
  222MPD1    C3 3371   3.697   3.314  16.633 -0.3987  0.2781  0.0133
  222MPD1    C4 3372   3.785   3.247  16.713 -0.6683  0.2050 -0.6525
  222MPD1    C5 3373   3.871   3.159  16.662  0.0581  0.3349 -0.5093
  222MPD1     H 3374   3.665   3.374  16.422  2.2343 -1.1414 -3.0349
  222MPD1    H1 3375   3.789   3.257  16.820  0.5844  0.4837 -0.7356
  222MPD1    H2 3376   3.947   3.063  16.486  1.0667  0.8177 -0.0768
  222MPD1    H3 3377   3.932   3.097  16.727 -0.4119  0.9353  0.4981
  222MPD1     N 3378   3.609   3.408  16.698  0.2637 -0.5024  0.5133
  222MPD1    H5 3379   3.617   3.422  16.798  0.2273  1.8338  0.1905
  222MPD1    N1 3380   3.852   3.223  16.313 -0.3868 -0.0318 -0.0157
  222MPD1    H6 3381   3.795   3.277  16.248 -1.0513 -0.8916 -0.1443
  222MPD1    H7 3382   3.899   3.139  16.279  2.0840  1.4073 -0.1228
  223MPD1     C 3383   2.746   4.094  16.743 -0.0966 -0.0727  0.1215
  223MPD1    C1 3384   2.785   4.054  16.864  0.5594 -0.0296 -0.6879
  223MPD1    C2 3385   2.890   3.967  16.872 -0.3336  0.1784  0.1493
  223MPD1    C3 3386   2.963   3.923  16.761 -0.3414  0.8210  0.0770
  223MPD1    C4 3387   2.909   3.962  16.644  0.5005 -0.0449 -0.0863
  223MPD1    C5 3388   2.813   4.054  16.629  0.0742 -0.2573  0.0757
  223MPD1     H 3389   2.941   3.941  16.964 -1.2361  3.0959  1.4728
  223MPD1    H1 3390   2.952   3.921  16.553  0.2907  1.1116 -0.7023
  223MPD1    H2 3391   2.665   4.166  16.740  0.9203  1.0023 -1.7800
  223MPD1    H3 3392   2.786   4.090  16.530  3.3131 -0.8223 -0.9893
  223MPD1     N 3393   3.072   3.831  16.773 -0.4423  0.3109 -0.2636
  223MPD1    H5 3394   3.101   3.818  16.870 -0.9417  0.9901 -0.0177
  223MPD1    N1 3395   2.718   4.106  16.975  0.1980 -0.2227 -0.0346
  223MPD1    H6 3396   2.617   4.111  16.963  0.1830  0.9517  0.5227
  223MPD1    H7 3397   2.730   4.038  17.050  0.4223  1.1736  1.2111
  224MPD1     C 3398   4.560   0.149  10.024  0.0437 -0.1352 -0.5216
  224MPD1    C1 3399   4.634   0.038  10.008 -0.1228 -0.3207 -0.1399
  224MPD1    C2 3400   4.589   4.640  10.049  0.9268 -0.2621  0.0812
  224MPD1    C3 3401   4.469   4.640  10.118 -0.6552  0.9875  0.6746
  224MPD1    C4 3402   4.396   0.033  10.141 -0.1500 -0.3019 -0.7674
  224MPD1    C5 3403   4.442   0.149  10.089 -0.7208 -0.5497 -0.3263
  224MPD1     H 3404   4.656   4.557  10.026 -0.4805 -0.8611 -1.8379
  224MPD1    H1 3405   4.297   0.031  10.186 -0.2868  0.7252 -1.0215
  224MPD1    H2 3406   4.608   0.243  10.000  0.6307 -0.7632 -1.8082
  224MPD1    H3 3407   4.394   0.237  10.132  0.3689 -0.3824  0.5621
  224MPD1     N 3408   4.416   4.517  10.166 -0.1429 -0.3037 -0.2305
  224MPD1    H5 3409   4.324   4.515  10.209 -1.2013 -0.6946 -2.5307
  224MPD1    N1 3410   0.032   0.057   9.945 -0.2340 -0.1949  0.0617
  224MPD1    H6 3411   0.079   0.144   9.972 -0.0265  0.1055 -1.2533
  224MPD1    H7 3412   0.095   4.702   9.958 -0.3551  0.2094  3.2439
  225MPD1     C 3413   1.055   1.216  12.528 -0.5587  0.6609  0.3351
  225MPD1    C1 3414   1.010   1.104  12.460 -0.6431 -0.2959 -0.2225
  225MPD1    C2 3415   0.874   1.081  12.460 -1.0172 -0.3237 -1.3481
  225MPD1    C3 3416   0.785   1.156  12.533  0.2131 -0.1551  0.0570
  225MPD1    C4 3417   0.832   1.263  12.609  0.1872 -0.1102  0.0792
  225MPD1    C5 3418   0.962   1.284  12.605 -0.3111 -0.2395  0.3735
  225MPD1     H 3419   0.844   0.999  12.397 -1.3215 -0.9064 -0.4412
  225MPD1    H1 3420   0.764   1.329  12.663  1.5582  0.9685  0.4876
  225MPD1    H2 3421   1.155   1.254  12.546 -0.8462 -0.7166  4.8667
  225MPD1    H3 3422   0.991   1.368  12.668 -1.2528  0.7195 -0.4545
  225MPD1     N 3423   0.646   1.135  12.531 -0.7151 -0.1131 -0.1144
  225MPD1    H5 3424   0.579   1.193  12.581 -0.0061  1.1319 -0.6008
  225MPD1    N1 3425   1.097   1.035  12.372 -0.0051 -0.2772  0.1000
  225MPD1    H6 3426   1.080   0.935  12.371  1.6935 -0.5445 -0.8619
  225MPD1    H7 3427   1.198   1.046  12.378 -0.1099  0.6246  0.2697
  226MPD1     C 3428   0.653   1.355  10.269 -0.2488 -0.0395  0.1583
  226MPD1    C1 3429   0.728   1.396  10.163 -0.0593 -0.3855  0.2643
  226MPD1    C2 3430   0.694   1.347  10.035 -0.1076  0.1955 -0.2815
  226MPD1    C3 3431   0.589   1.262  10.019 -0.4105  0.9820  0.2886
  226MPD1    C4 3432   0.518   1.223  10.131 -0.9760  0.4642  0.1290
  226MPD1    C5 3433   0.547   1.273  10.254  0.0678  0.7258  0.3235
  226MPD1     H 3434   0.751   1.376   9.947 -0.6164  1.2844 -0.2642
  226MPD1    H1 3435   0.426   1.167  10.129 -0.8757  0.3478 -0.9362
  226MPD1    H2 3436   0.665   1.388  10.372 -0.1586 -3.2243  1.1742
  226MPD1    H3 3437   0.490   1.251  10.344  0.3951  2.3915  0.9355
  226MPD1     N 3438   0.556   1.231   9.883 -0.1665 -0.3646  0.3235
  226MPD1    H5 3439   0.590   1.286   9.805 -3.0341  0.1004 -0.5768
  226MPD1    N1 3440   0.835   1.474  10.177 -0.3406 -0.1587  0.3567
  226MPD1    H6 3441   0.833   1.523  10.266 -1.5349 -0.8079  0.6815
  226MPD1    H7 3442   0.845   1.543  10.103 -1.4482 -0.4889 -0.1067
  227MPD1     C 3443   0.160   1.442   8.978 -0.0992  0.1666  0.2131
  227MPD1    C1 3444   0.245   1.499   9.073  0.7268  0.1350 -0.2083
  227MPD1    C2 3445   0.297   1.429   9.177 -0.2475 -0.6194  0.2051
  227MPD1    C3 3446   0.266   1.298   9.198 -0.9528 -0.6570  0.0094
  227MPD1    C4 3447   0.183   1.241   9.100 -0.5580 -0.2364  0.4292
  227MPD1    C5 3448   0.125   1.310   8.997  0.0610  0.1732  0.2575
  227MPD1     H 3449   0.373   1.474   9.240  0.5054  0.1402 -1.2404
  227MPD1    H1 3450   0.151   1.138   9.115  0.9736 -0.9799 -1.2849
  227MPD1    H2 3451   0.113   1.505   8.903  0.0298 -0.3573 -0.3102
  227MPD1    H3 3452   0.053   1.253   8.939  1.1644  0.6355 -1.5530
  227MPD1     N 3453   0.319   1.217   9.300  0.0039 -0.2580  0.0475
  227MPD1    H5 3454   0.287   1.121   9.296  2.0241 -0.9767  1.2627
  227MPD1    N1 3455   0.293   1.630   9.051 -0.3607 -0.0934 -0.2721
  227MPD1    H6 3456   0.341   1.673   9.130  1.0429 -0.2764 -1.0275
  227MPD1    H7 3457   0.229   1.696   9.007 -1.0955 -2.1267 -2.2148
  228MPD1     C 3458   2.811   3.934  12.536 -0.5515 -0.2500  0.4315
  228MPD1    C1 3459   2.733   3.953  12.422 -0.7206 -0.4089 -0.4276
  228MPD1    C2 3460   2.594   3.951  12.433  0.1418 -0.0223  0.5492
  228MPD1    C3 3461   2.532   3.907  12.550  0.2402  0.0842  0.0245
  228MPD1    C4 3462   2.614   3.873  12.658  0.0808 -0.6131 -0.4100
  228MPD1    C5 3463   2.750   3.900  12.652  0.3197 -0.3946  0.4140
  228MPD1     H 3464   2.530   3.958  12.346  0.7471  0.3997  0.1350
  228MPD1    H1 3465   2.576   3.834  12.752 -0.1783 -1.7036 -0.9680
  228MPD1    H2 3466   2.918   3.953  12.528 -0.8011  1.5107  1.3512
  228MPD1    H3 3467   2.809   3.885  12.741 -1.8043  1.0962  2.1023
  228MPD1     N 3468   2.384   3.907  12.560  0.8027 -0.0868 -0.6051
  228MPD1    H5 3469   2.323   3.941  12.487 -0.0306  0.9342  0.5527
  228MPD1    N1 3470   2.795   4.000  12.309  0.0750  0.2480  0.2904
  228MPD1    H6 3471   2.734   3.998  12.227  0.9402 -0.2046 -0.3387
  228MPD1    H7 3472   2.882   3.953  12.287  0.0914  0.6697 -0.5275
  229MPD1     C 3473   1.753   2.973  15.637  0.1950 -0.1938  1.1956
  229MPD1    C1 3474   1.819   2.997  15.517 -0.0841  0.6451  0.8607
  229MPD1    C2 3475   1.922   2.912  15.481  0.0551 -0.6840  0.0074
  229MPD1    C3 3476   1.938   2.795  15.551  0.9059  0.5061  0.0770
  229MPD1    C4 3477   1.862   2.764  15.661  0.1273 -0.3632  0.3455
  229MPD1    C5 3478   1.781   2.862  15.704 -0.0876  0.0559  0.1870
  229MPD1     H 3479   1.965   2.938  15.385  1.6362 -0.7922  0.6799
  229MPD1    H1 3480   1.881   2.671  15.713  1.4678 -0.4760 -0.3402
  229MPD1    H2 3481   1.674   3.037  15.675 -0.8330 -1.3297  0.9517
  229MPD1    H3 3482   1.721   2.854  15.795  0.7587  1.5904  0.8918
  229MPD1     N 3483   2.035   2.701  15.519  0.4034 -0.0383 -0.3847
  229MPD1    H5 3484   2.053   2.627  15.586 -1.3519  0.5040  0.6919
  229MPD1    N1 3485   1.804   3.126  15.463  0.5781  0.3703 -0.0735
  229MPD1    H6 3486   1.824   3.127  15.363  0.0797 -1.7675 -0.1853
  229MPD1    H7 3487   1.709   3.162  15.465  0.5214  0.1441  1.5127
  230MPD1     C 3488   2.853   2.638  15.852  0.1399  0.8703 -0.4876
  230MPD1    C1 3489   2.772   2.743  15.819 -0.2552  0.0713  0.3586
  230MPD1    C2 3490   2.641   2.710  15.774 -0.8245  0.0369  0.4699
  230MPD1    C3 3491   2.613   2.579  15.734 -0.1999 -0.5025  0.4208
  230MPD1    C4 3492   2.703   2.480  15.760  0.1483 -0.0253 -0.2428
  230MPD1    C5 3493   2.826   2.512  15.819 -0.3151  0.2322 -0.1587
  230MPD1     H 3494   2.570   2.790  15.754  0.7801  1.8531  2.0745
  230MPD1    H1 3495   2.690   2.375  15.736 -1.5941  0.0307  0.4156
  230MPD1    H2 3496   2.949   2.660  15.898  0.6239  2.0312 -2.0655
  230MPD1    H3 3497   2.885   2.432  15.861 -1.4590  0.3505  1.6525
  230MPD1     N 3498   2.494   2.555  15.653  0.4574 -0.0831 -0.9443
  230MPD1    H5 3499   2.444   2.642  15.637  0.9962  0.2341 -0.9192
  230MPD1    N1 3500   2.799   2.873  15.867  0.2803 -0.5214 -0.6187
  230MPD1    H6 3501   2.772   2.947  15.804  0.4359 -0.8924 -1.1247
  230MPD1    H7 3502   2.899   2.889  15.881  0.2002  0.4422 -1.1729
  231MPD1     C 3503   0.660   4.100  15.455  0.0728  0.3340  0.2754
  231MPD1    C1 3504   0.594   4.082  15.328  0.5174 -0.0847  0.6452
  231MPD1    C2 3505   0.620   4.170  15.229 -0.5700  0.9036 -0.3121
  231MPD1    C3 3506   0.715   4.270  15.242 -0.0490  0.1977  0.4245
  231MPD1    C4 3507   0.779   4.289  15.357 -0.0258 -0.6528  0.0117
  231MPD1    C5 3508   0.747   4.202  15.463 -0.0479  1.0904  0.1827
  231MPD1     H 3509   0.567   4.180  15.135 -0.0942 -0.7089 -0.7560
  231MPD1    H1 3510   0.851   4.368  15.375  0.4654 -0.6260 -2.1040
  231MPD1    H2 3511   0.652   4.036  15.542  0.6401 -0.7181 -0.4419
  231MPD1    H3 3512   0.793   4.215  15.560  2.1475 -2.4607 -0.3782
  231MPD1     N 3513   0.751   4.346  15.128 -1.2217  0.0696  0.3884
  231MPD1    H5 3514   0.708   4.323  15.039  0.6806  1.0050 -0.7666
  231MPD1    N1 3515   0.479   3.996  15.318 -0.4944  0.6314  0.3451
  231MPD1    H6 3516   0.454   3.968  15.223 -0.7208  0.5426  0.4297
  231MPD1    H7 3517   0.494   3.908  15.366  1.2148  0.4410 -0.5674
  232MPD1     C 3518   3.093   1.175  17.559 -0.1973 -0.0051 -0.0304
  232MPD1    C1 3519   3.071   1.223  17.684 -0.2680 -0.0662 -0.3999
  232MPD1    C2 3520   2.941   1.257   0.019  0.5915  0.2123 -0.4963
  232MPD1    C3 3521   2.836   1.247  17.628 -0.4004 -0.0298 -0.5874
  232MPD1    C4 3522   2.868   1.204  17.502  0.3681 -0.1556 -0.9936
  232MPD1    C5 3523   2.992   1.168  17.470  0.5279  0.5563  0.1430
  232MPD1     H 3524   2.925   1.306   0.114  1.0592  1.9519 -1.3319
  232MPD1    H1 3525   2.785   1.194  17.432  0.0676 -2.6263 -0.2595
  232MPD1    H2 3526   3.195   1.142  17.541 -0.9525 -1.8350 -0.9818
  232MPD1    H3 3527   3.010   1.126  17.371 -2.1780  1.5493 -0.7841
  232MPD1     N 3528   2.710   1.278  17.678  0.1404 -0.0155  0.3063
  232MPD1    H5 3529   2.711   1.287   0.081  0.9942 -1.6951  0.4551
  232MPD1    N1 3530   3.173   1.227   0.081 -0.2096 -0.0160  0.3460
  232MPD1    H6 3531   3.258   1.264   0.039 -0.7219  1.7450  0.8391
  232MPD1    H7 3532   3.146   1.285   0.161  0.3540 -0.7659  1.0801
  233MPD1     C 3533   2.297   0.528   0.317  0.1411  0.0185 -0.0483
  233MPD1    C1 3534   2.278   0.482   0.442 -0.6296 -0.1645 -0.5650
  233MPD1    C2 3535   2.371   0.522   0.537 -0.1324 -0.4074 -0.0959
  233MPD1    C3 3536   2.502   0.558   0.492 -0.7729 -0.0336  0.0909
  233MPD1    C4 3537   2.522   0.586   0.358 -0.4316 -0.1147  0.2325
  233MPD1    C5 3538   2.415   0.574   0.271  0.9232 -0.1953  0.1947
  233MPD1     H 3539   2.334   0.510   0.639  2.5052  1.5187  1.0686
  233MPD1    H1 3540   2.619   0.610   0.316 -0.3790 -1.3842 -0.3966
  233MPD1    H2 3541   2.215   0.526   0.246  0.9030  1.4277 -0.9976
  233MPD1    H3 3542   2.428   0.603   0.168 -0.1244 -3.3834 -0.8379
  233MPD1     N 3543   2.609   0.580   0.582  0.4117  0.0441 -0.4098
  233MPD1    H5 3544   2.692   0.628   0.547 -0.1401  1.3655  0.1182
  233MPD1    N1 3545   2.150   0.433   0.479 -0.0872 -0.5429 -0.3955
  233MPD1    H6 3546   2.107   0.367   0.415  1.6379  0.1495 -2.2863
  233MPD1    H7 3547   2.145   0.385   0.568  2.7232 -1.1045 -0.5283
  234MPD1     C 3548   0.180   2.614   9.590 -0.0064  0.1559  0.2424
  234MPD1    C1 3549   0.254   2.705   9.669 -0.7429 -0.7010  0.7052
  234MPD1    C2 3550   0.223   2.842   9.668 -0.0886  0.7015  0.7136
  234MPD1    C3 3551   0.148   2.889   9.566  0.0479 -0.0816 -1.0756
  234MPD1    C4 3552   0.078   2.797   9.488  0.2757 -0.0220  0.6558
  234MPD1    C5 3553   0.090   2.660   9.509  0.5185  0.5041 -0.4205
  234MPD1     H 3554   0.264   2.911   9.741 -1.6181  0.6527  1.6155
  234MPD1    H1 3555   0.005   2.833   9.417  0.2182  1.8643  1.6552
  234MPD1    H2 3556   0.198   2.508   9.584  2.8296  0.7646 -1.5915
  234MPD1    H3 3557   0.024   2.593   9.454 -1.4269  0.9866  1.3353
  234MPD1     N 3558   0.119   3.023   9.570 -0.1662  0.3889 -0.2994
  234MPD1    H5 3559   0.158   3.073   9.649 -1.1070  1.3370 -0.4341
  234MPD1    N1 3560   0.332   2.648   9.772  0.5275  0.0181  0.0499
  234MPD1    H6 3561   0.396   2.719   9.807  1.7508 -0.8287 -0.4553
  234MPD1    H7 3562   0.378   2.561   9.746  0.3208 -0.5451  1.5421
  235MPD1     C 3563   1.433   3.193   9.248  0.4667  0.5099 -0.2221
  235MPD1    C1 3564   1.450   3.056   9.229 -0.9813  0.1866 -0.0712
  235MPD1    C2 3565   1.561   2.995   9.290  0.0589 -0.2071  0.2578
  235MPD1    C3 3566   1.659   3.077   9.351 -0.6692  0.1437 -0.4679
  235MPD1    C4 3567   1.642   3.214   9.363  0.5938 -0.3922  0.6237
  235MPD1    C5 3568   1.522   3.271   9.320 -0.4908  0.1216 -0.3102
  235MPD1     H 3569   1.578   2.888   9.291  3.1036  0.2770 -0.2212
  235MPD1    H1 3570   1.719   3.273   9.410 -0.2055  1.3309 -0.2341
  235MPD1    H2 3571   1.354   3.242   9.193  0.0297  0.7621  0.6359
  235MPD1    H3 3572   1.514   3.379   9.326 -0.5504  0.0318  1.2756
  235MPD1     N 3573   1.760   2.997   9.408 -0.2529 -0.6082  0.3060
  235MPD1    H5 3574   1.746   2.897   9.411  3.4004 -1.1428  0.4544
  235MPD1    N1 3575   1.343   2.988   9.172  0.4746  0.4675 -0.4365
  235MPD1    H6 3576   1.300   3.050   9.104 -0.4349 -0.2738 -0.5436
  235MPD1    H7 3577   1.378   2.909   9.117  0.0042  0.6795 -1.0409
  236MPD1     C 3578   0.975   1.893  10.204  0.3270  0.7471  0.1029
  236MPD1    C1 3579   0.995   2.027  10.231 -0.1206  0.2073 -0.3427
  236MPD1    C2 3580   1.099   2.066  10.313  0.4142  0.1234 -0.4895
  236MPD1    C3 3581   1.181   1.963  10.369  0.0701  0.6148  0.2815
  236MPD1    C4 3582   1.152   1.833  10.340  0.1857 -0.3342 -0.5363
  236MPD1    C5 3583   1.056   1.799  10.250  0.0592  0.8761 -0.1539
  236MPD1     H 3584   1.112   2.169  10.346  0.8620  0.5059 -1.8706
  236MPD1    H1 3585   1.209   1.751  10.383  1.1580  0.7113  0.1920
  236MPD1    H2 3586   0.896   1.851  10.142 -0.0039  0.4427  0.7262
  236MPD1    H3 3587   1.041   1.696  10.219 -2.7271  1.7214 -1.6632
  236MPD1     N 3588   1.281   1.977  10.470 -0.1584 -0.4751 -0.1592
  236MPD1    H5 3589   1.312   1.888  10.507  1.2292  0.4392  0.8650
  236MPD1    N1 3590   0.910   2.115  10.171 -0.1188 -0.4925  0.6409
  236MPD1    H6 3591   0.879   2.088  10.078  1.8879 -3.3057  0.7839
  236MPD1    H7 3592   0.934   2.214  10.173  0.1115 -0.5707  1.7725
  237MPD1     C 3593   1.094   0.853  15.817 -0.4273 -0.8028  0.0740
  237MPD1    C1 3594   1.039   0.753  15.893 -0.8191  0.0551  0.0442
  237MPD1    C2 3595   0.944   0.678  15.831  0.5571 -0.4067 -0.3611
  237MPD1    C3 3596   0.913   0.684  15.703  0.4632 -0.0468  0.0896
  237MPD1    C4 3597   0.974   0.789  15.629 -0.4236  0.1447  0.6161
  237MPD1    C5 3598   1.064   0.871  15.684  0.4740 -0.1537 -0.0511
  237MPD1     H 3599   0.894   0.601  15.889 -0.7027  0.3776 -0.3974
  237MPD1    H1 3600   0.955   0.794  15.523 -0.1833  1.8035  0.6573
  237MPD1    H2 3601   1.168   0.922  15.855 -0.7063 -0.2852 -0.3370
  237MPD1    H3 3602   1.112   0.945  15.620 -1.8805 -1.7064 -3.6185
  237MPD1     N 3603   0.825   0.596  15.643 -0.1363  0.4528  0.3899
  237MPD1    H5 3604   0.789   0.624  15.553  0.1472  0.5756  0.3152
  237MPD1    N1 3605   1.056   0.759  16.033  0.7251  0.4676 -0.0600
  237MPD1    H6 3606   1.152   0.785  16.050  0.3591  2.9818 -1.8405
  237MPD1    H7 3607   1.041   0.678  16.093 -0.1345 -0.6190 -1.7254
  238MPD1     C 3608   2.807   4.117  15.083  0.9377  0.3222  0.1863
  238MPD1    C1 3609   2.700   4.052  15.130  0.6433  0.4501  0.4441
  238MPD1    C2 3610   2.582   4.076  15.059  0.3889  0.1894 -0.8814
  238MPD1    C3 3611   2.574   4.161  14.948  0.0159  0.5017  0.0689
  238MPD1    C4 3612   2.687   4.226  14.908  0.5307  0.3786 -0.7652
  238MPD1    C5 3613   2.800   4.216  14.982  0.7477  0.4080 -0.0137
  238MPD1     H 3614   2.498   4.009  15.071 -0.4220  1.7614  2.2492
  238MPD1    H1 3615   2.692   4.280  14.814  0.3185 -0.5411 -1.3021
  238MPD1    H2 3616   2.904   4.095  15.126  1.6423  0.4739 -1.3190
  238MPD1    H3 3617   2.881   4.275  14.941  2.8668 -2.2806  0.2999
  238MPD1     N 3618   2.458   4.189  14.875 -0.0309 -0.1466 -0.3685
  238MPD1    H5 3619   2.465   4.253  14.797 -2.0239  0.0927 -0.3381
  238MPD1    N1 3620   2.714   3.944  15.222 -0.0073 -0.7599  0.8373
  238MPD1    H6 3621   2.622   3.914  15.253 -0.6061  1.1618  0.9190
  238MPD1    H7 3622   2.774   3.964  15.302 -0.2086  0.1354  0.7680
  239MPD1     C 3623   2.836   0.144  15.344 -0.6065  0.0062 -0.4645
  239MPD1    C1 3624   2.702   0.184  15.353  0.3082  0.6825  0.1513
  239MPD1    C2 3625   2.638   0.247  15.247 -0.4697  0.3379 -0.1007
  239MPD1    C3 3626   2.707   0.272  15.124 -0.1831  0.8783  0.0673
  239MPD1    C4 3627   2.824   0.208  15.107  0.3315  0.2580 -0.4330
  239MPD1    C5 3628   2.888   0.150  15.219 -0.1472  0.7769 -0.3066
  239MPD1     H 3629   2.543   0.299  15.257 -0.9837 -1.3775  4.2282
  239MPD1    H1 3630   2.887   0.213  15.019 -0.7620  0.4895 -1.2052
  239MPD1    H2 3631   2.895   0.100  15.423 -1.4793  0.6346  0.5310
  239MPD1    H3 3632   2.985   0.105  15.202  0.1938  2.0093 -1.6400
  239MPD1     N 3633   2.660   0.350  15.015 -0.2826  0.3649  0.3769
  239MPD1    H5 3634   2.721   0.352  14.933 -0.1822  2.8047  0.4878
  239MPD1    N1 3635   2.637   0.194  15.477 -0.4883 -0.5437  0.4269
  239MPD1    H6 3636   2.696   0.139  15.539 -0.4852  0.0236  0.9192
  239MPD1    H7 3637   2.543   0.156  15.467 -0.5229 -0.2723 -0.3163
  240MPD1     C 3638   2.046   0.609  13.659 -0.3882 -0.2392 -0.7871
  240MPD1    C1 3639   1.984   0.491  13.623  0.1984 -0.4525 -0.5276
  240MPD1    C2 3640   1.993   0.386  13.713 -0.2907  0.3595  0.6509
  240MPD1    C3 3641   2.048   0.404  13.838 -0.5556 -0.4728 -0.5780
  240MPD1    C4 3642   2.113   0.518  13.861  0.1790 -0.2296 -0.5956
  240MPD1    C5 3643   2.121   0.617  13.775  0.0039 -0.4892 -0.0864
  240MPD1     H 3644   1.958   0.289  13.678  2.2955 -0.4165  0.2324
  240MPD1    H1 3645   2.144   0.542  13.962 -1.2559  0.7527 -0.3796
  240MPD1    H2 3646   2.051   0.687  13.584 -1.3900 -0.7755 -1.4049
  240MPD1    H3 3647   2.176   0.704  13.809 -0.0067  0.3438 -2.1547
  240MPD1     N 3648   2.048   0.297  13.927 -0.6813 -0.0550  0.2526
  240MPD1    H5 3649   1.977   0.229  13.900 -0.8733  0.5702 -0.8029
  240MPD1    N1 3650   1.931   0.482  13.493  0.1603 -0.0665  0.1352
  240MPD1    H6 3651   1.907   0.577  13.464 -0.2619 -0.0246  0.6237
  240MPD1    H7 3652   1.840   0.435  13.494  1.9839 -3.5697  0.8016
  241MPD1     C 3653   2.654   4.460  14.515  0.6931  0.4003  0.0977
  241MPD1    C1 3654   2.537   4.481  14.578 -0.1135 -0.1802 -0.2114
  241MPD1    C2 3655   2.423   4.527  14.510 -0.3698 -0.2989 -0.0902
  241MPD1    C3 3656   2.432   4.558  14.375 -0.0501 -0.1914  0.3645
  241MPD1    C4 3657   2.547   4.527  14.307 -0.4505 -0.7502 -0.5460
  241MPD1    C5 3658   2.655   4.478  14.376 -0.2153  0.2721 -0.5666
  241MPD1     H 3659   2.335   4.541  14.572  1.3695  0.9622  2.1051
  241MPD1    H1 3660   2.553   4.540  14.200  1.8425 -1.4886 -0.5052
  241MPD1    H2 3661   2.736   4.408  14.562 -0.0269 -0.9135 -0.0847
  241MPD1    H3 3662   2.731   4.438  14.310  0.6353  0.1318  0.5044
  241MPD1     N 3663   2.335   4.627  14.300 -0.4505 -0.1987  0.8578
  241MPD1    H5 3664   2.356   4.645  14.203  0.2896  1.1217  1.2549
  241MPD1    N1 3665   2.529   4.457  14.714 -0.1675  0.7755  0.2624
  241MPD1    H6 3666   2.441   4.492  14.750 -0.4022  1.1657 -0.6924
  241MPD1    H7 3667   2.606   4.488  14.772  0.9529  0.2429 -0.9220
  242MPD1     C 3668   1.947   4.165  15.897 -0.2862  0.6990  0.2552
  242MPD1    C1 3669   1.837   4.090  15.865 -0.3980  0.6769 -0.2454
  242MPD1    C2 3670   1.843   3.985  15.783  0.1933 -1.2755  0.3877
  242MPD1    C3 3671   1.957   3.955  15.715  0.3406  0.6462 -0.3242
  242MPD1    C4 3672   2.068   4.031  15.749 -0.3268  0.1559 -0.0586
  242MPD1    C5 3673   2.067   4.133  15.835  0.3384  0.2115  0.1105
  242MPD1     H 3674   1.752   3.927  15.768  0.6018 -1.9998  0.7160
  242MPD1    H1 3675   2.163   4.006  15.705  0.2778  0.1281  1.2434
  242MPD1    H2 3676   1.944   4.233  15.982 -0.8927  1.1339 -0.1126
  242MPD1    H3 3677   2.156   4.184  15.869  1.2874 -1.4043  0.0778
  242MPD1     N 3678   1.990   3.845  15.639 -0.5134  0.2048  0.1167
  242MPD1    H5 3679   2.088   3.842  15.614 -0.5566 -0.2625 -0.0034
  242MPD1    N1 3680   1.724   4.103  15.953  0.8441  0.0207 -0.1748
  242MPD1    H6 3681   1.716   4.204  15.965  1.4190  0.2584 -1.8402
  242MPD1    H7 3682   1.641   4.065  15.908  1.9323 -0.2741 -1.9049
  243MPD1     C 3683   4.403   0.911  16.928 -0.1772  0.6360 -0.4209
  243MPD1    C1 3684   4.310   0.821  16.964 -0.2889  0.0944 -0.3516
  243MPD1    C2 3685   4.179   0.840  16.926  0.0489  0.7948  0.1097
  243MPD1    C3 3686   4.140   0.931  16.832  0.4179 -0.5020 -0.1517
  243MPD1    C4 3687   4.240   1.019  16.797  0.3832 -0.0715  1.0245
  243MPD1    C5 3688   4.373   0.994  16.828  0.1200  0.1793  0.4558
  243MPD1     H 3689   4.099   0.775  16.962  1.8007 -1.4602 -0.0394
  243MPD1    H1 3690   4.225   1.107  16.735  0.1368  0.3346  1.6716
  243MPD1    H2 3691   4.504   0.917  16.966 -0.3599 -2.7904  0.5545
  243MPD1    H3 3692   4.435   1.080  16.804 -0.3876  0.0979 -1.1469
  243MPD1     N 3693   4.000   0.942  16.798 -0.1101  0.1844  0.2320
  243MPD1    H5 3694   3.948   0.866  16.841 -0.0796  0.8340  1.3957
  243MPD1    N1 3695   4.342   0.723  17.060 -0.0655 -0.0644 -0.5698
  243MPD1    H6 3696   4.440   0.694  17.060  0.3466  1.3528  0.6806
  243MPD1    H7 3697   4.271   0.650  17.055  1.2591 -1.4281  0.2147
  244MPD1     C 3698   3.446   1.004  17.382 -0.4213 -0.2934  0.2599
  244MPD1    C1 3699   3.560   0.927  17.343 -0.4244  0.3226 -0.3092
  244MPD1    C2 3700   3.591   0.922  17.212  0.2008  0.4194 -0.0571
  244MPD1    C3 3701   3.520   0.997  17.114  0.7049  0.0429  0.2937
  244MPD1    C4 3702   3.423   1.087  17.157 -0.1928  0.7017  0.0511
  244MPD1    C5 3703   3.390   1.089  17.291 -0.1338  0.1500 -0.3499
  244MPD1     H 3704   3.669   0.856  17.175 -1.7982 -1.1492 -1.4846
  244MPD1    H1 3705   3.368   1.149  17.087 -0.2521  0.1837 -0.3677
  244MPD1    H2 3706   3.413   1.011  17.485 -1.3479  0.4551 -0.0958
  244MPD1    H3 3707   3.315   1.154  17.335 -2.2943 -3.1965  0.9299
  244MPD1     N 3708   3.571   0.978  16.983  0.1318 -0.2588 -0.0016
  244MPD1    H5 3709   3.655   0.923  16.967  0.6038  0.0291  1.5318
  244MPD1    N1 3710   3.600   0.821  17.430  0.0064 -0.5439 -0.8223
  244MPD1    H6 3711   3.697   0.792  17.414  0.3252  1.1480 -1.9881
  244MPD1    H7 3712   3.580   0.836  17.529  0.2180 -1.0441 -0.7009
  245MPD1     C 3713   1.001   2.455  13.298 -0.2263  0.3581 -0.9693
  245MPD1    C1 3714   0.901   2.363  13.320 -0.5373 -0.0578  0.0485
  245MPD1    C2 3715   0.806   2.377  13.417  0.2976  0.2683 -0.3033
  245MPD1    C3 3716   0.827   2.477  13.513 -0.3714  0.1595 -0.5355
  245MPD1    C4 3717   0.940   2.558  13.507  0.6530 -0.2889  0.7027
  245MPD1    C5 3718   1.017   2.553  13.394  0.2355 -1.1819 -0.5441
  245MPD1     H 3719   0.728   2.302  13.416  2.0777 -1.6389  2.0934
  245MPD1    H1 3720   0.968   2.636  13.576  0.2523  0.5844 -0.1318
  245MPD1    H2 3721   1.066   2.448  13.212  1.6875  0.9329  0.4394
  245MPD1    H3 3722   1.097   2.625  13.380  0.2033 -1.0359  0.0402
  245MPD1     N 3723   0.727   2.488  13.610  0.1933 -0.0338  0.5563
  245MPD1    H5 3724   0.643   2.434  13.592  0.2981  0.0727 -0.2492
  245MPD1    N1 3725   0.885   2.254  13.229  0.1622 -0.4732 -0.0199
  245MPD1    H6 3726   0.972   2.216  13.194 -1.0200 -0.4055 -3.0327
  245MPD1    H7 3727   0.828   2.180  13.270 -0.3748  0.1616  0.3977
  246MPD1     C 3728   2.147   3.686  10.110  0.6954 -1.2337  0.4103
  246MPD1    C1 3729   2.264   3.615  10.082 -0.0953  0.0232 -0.5532
  246MPD1    C2 3730   2.268   3.475  10.096  0.9892 -0.3356 -0.5983
  246MPD1    C3 3731   2.150   3.406  10.124 -0.4126  0.2648  0.4200
  246MPD1    C4 3732   2.044   3.475  10.168 -0.4961  0.5088  0.2190
  246MPD1    C5 3733   2.039   3.607  10.146 -0.0974  0.0531  0.6511
  246MPD1     H 3734   2.360   3.423  10.073  0.3439 -0.7589 -2.2283
  246MPD1    H1 3735   1.947   3.431  10.191  0.1220 -1.0766 -0.2197
  246MPD1    H2 3736   2.148   3.794  10.121  0.7767 -0.9392 -2.5181
  246MPD1    H3 3737   1.950   3.658  10.181 -1.0845 -1.8739  0.9060
  246MPD1     N 3738   2.148   3.273  10.117 -0.0951 -0.4938  0.1292
  246MPD1    H5 3739   2.236   3.221  10.118  0.2852  0.1029 -2.7929
  246MPD1    N1 3740   2.379   3.686  10.059 -0.3200  0.3230 -0.0044
  246MPD1    H6 3741   2.437   3.636   9.992 -1.5015  0.1461 -0.8915
  246MPD1    H7 3742   2.364   3.779  10.019 -0.3178  0.3146 -0.0244
  247MPD1     C 3743   0.094   1.098  16.395 -0.1199  0.2574  0.4610
  247MPD1    C1 3744   0.094   1.192  16.496  0.6588  0.7420 -0.0811
  247MPD1    C2 3745   0.085   1.322  16.459  0.2622 -0.9643 -0.0558
  247MPD1    C3 3746   0.064   1.360  16.325 -0.3799 -0.2763  1.0669
  247MPD1    C4 3747   0.056   1.268  16.225 -0.1638  0.8353  0.9359
  247MPD1    C5 3748   0.068   1.135  16.263 -0.1297 -0.0590  0.2425
  247MPD1     H 3749   0.082   1.392  16.542 -0.0693  0.1131 -0.9778
  247MPD1    H1 3750   0.023   1.287  16.124  2.3898  2.6562  0.4514
  247MPD1    H2 3751   0.111   0.992  16.413 -2.1056  0.1663  1.7645
  247MPD1    H3 3752   0.078   1.054  16.192 -0.3618  0.5951 -0.5295
  247MPD1     N 3753   0.056   1.498  16.297 -0.0834  1.0421 -0.2909
  247MPD1    H5 3754   0.054   1.520  16.198 -0.5464  1.4576 -0.1842
  247MPD1    N1 3755   0.103   1.151  16.632 -0.4543 -0.5562  0.3709
  247MPD1    H6 3756   0.148   1.229  16.679 -2.0246  0.5019  0.1352
  247MPD1    H7 3757   0.158   1.066  16.638  0.2105 -0.2180 -0.9559
  248MPD1     C 3758   1.415   3.822   0.805  0.6571 -0.0271 -0.4101
  248MPD1    C1 3759   1.397   3.786   0.938  0.0363 -0.4311 -0.0327
  248MPD1    C2 3760   1.305   3.685   0.965 -0.0568  0.1447  0.1849
  248MPD1    C3 3761   1.257   3.609   0.860 -0.6849 -0.7917 -0.5044
  248MPD1    C4 3762   1.282   3.637   0.724 -0.1560 -0.2178 -0.9481
  248MPD1    C5 3763   1.356   3.748   0.700  0.1408  0.5493  0.0030
  248MPD1     H 3764   1.281   3.667   1.069 -0.1666 -1.6941 -0.1552
  248MPD1    H1 3765   1.222   3.591   0.645  1.5453 -2.1301 -1.1332
  248MPD1    H2 3766   1.492   3.893   0.779  1.8944 -1.2845 -0.2082
  248MPD1    H3 3767   1.361   3.789   0.600  1.5764  0.3379 -0.0106
  248MPD1     N 3768   1.161   3.499   0.881 -0.4526 -0.1852  0.2292
  248MPD1    H5 3769   1.124   3.497   0.976 -1.8697 -1.7720 -0.3557
  248MPD1    N1 3770   1.442   3.862   1.040  1.0441 -0.7867 -0.6106
  248MPD1    H6 3771   1.520   3.917   1.007  0.4311  1.2693  1.3874
  248MPD1    H7 3772   1.475   3.799   1.113 -1.3034 -1.3998 -0.0605
  249MPD1     C 3773   1.050   0.650   9.562 -0.2503 -0.2433 -0.3926
  249MPD1    C1 3774   1.080   0.528   9.620  0.7410  0.4923  0.3494
  249MPD1    C2 3775   1.126   0.529   9.748  0.0378  0.8093  0.9099
  249MPD1    C3 3776   1.190   0.639   9.802 -0.3848 -0.4143  0.0373
  249MPD1    C4 3777   1.189   0.753   9.725  0.8978 -0.1368 -0.2238
  249MPD1    C5 3778   1.104   0.760   9.613  1.2607 -0.3255  0.5447
  249MPD1     H 3779   1.112   0.438   9.805 -0.0549 -0.3923 -1.0568
  249MPD1    H1 3780   1.237   0.844   9.758  0.4049 -0.7466  2.1621
  249MPD1    H2 3781   0.970   0.647   9.489  0.3169 -0.1812 -1.0131
  249MPD1    H3 3782   1.086   0.846   9.550  0.3093 -1.2326 -0.4310
  249MPD1     N 3783   1.242   0.617   9.930 -0.6100  0.4474  0.0359
  249MPD1    H5 3784   1.234   0.531   9.983  3.2391  2.1308  3.2576
  249MPD1    N1 3785   1.004   0.426   9.565  0.2727 -0.0390  0.0286
  249MPD1    H6 3786   1.025   0.426   9.466 -0.8124 -1.1768 -0.2035
  249MPD1    H7 3787   1.027   0.334   9.602 -2.7864 -0.7242  0.2304
  250MPD2     C 3788   4.026   1.016  13.191 -0.3290 -0.0958 -0.1448
  250MPD2    C1 3789   3.896   1.029  13.227  0.3724  0.0737 -0.8068
  250MPD2    C2 3790   3.824   0.917  13.266 -0.1041 -0.3473 -0.4813
  250MPD2    C3 3791   3.876   0.786  13.264 -0.1417  0.2884 -0.6153
  250MPD2    C4 3792   4.003   0.775  13.215  0.8627  0.7647 -0.0876
  250MPD2    C5 3793   4.077   0.888  13.181 -0.1987 -0.3005  0.1130
  250MPD2     H 3794   3.729   0.933  13.316  0.1136  0.3788 -0.2953
  250MPD2    H1 3795   4.045   0.675  13.212  1.9320  1.2813 -2.4432
  250MPD2    H2 3796   4.089   1.099  13.162 -0.5922  0.1968  0.1236
  250MPD2    H3 3797   4.179   0.879  13.147  0.0751 -0.5732  0.9922
  250MPD2     N 3798   3.797   0.681  13.302 -0.2040 -0.1511  0.2220
  250MPD2    H5 3799   3.821   0.587  13.271 -0.7128 -0.1939 -0.0327
  250MPD2    N1 3800   3.849   1.157  13.210  0.3546 -0.5288 -0.2321
  250MPD2    H7 3801   3.919   1.221  13.173  1.6586 -0.8899  1.5978
  251TMC3    C1 3802   3.701   1.333  13.201  0.7286  0.3390  0.2276
  251TMC3    C2 3803   3.611   1.409  13.266 -0.0886  0.0480 -0.0407
  251TMC3    C3 3804   3.600   1.539  13.229  0.2331  0.6126  0.4346
  251TMC3    C4 3805   3.783   1.389  13.109 -0.6939  0.0577 -0.3053
  251TMC3    C5 3806   3.766   1.520  13.076  0.1493 -0.1457 -0.5444
  251TMC3    C6 3807   3.679   1.604  13.133 -0.3898  0.0487 -0.2131
  251TMC3     C 3808   3.722   1.200  13.240 -0.0652 -0.3913 -0.4885
  251TMC3     O 3809   3.639   1.153  13.317 -0.3958 -0.3301 -0.6149
  251TMC3     H 3810   3.542   1.368  13.339 -1.4745  0.3161 -1.1884
  251TMC3    H1 3811   3.850   1.335  13.043  0.2279  0.9691 -0.1056
  251TMC3    H2 3812   3.659   1.705  13.100 -0.7553 -0.1491 -0.5904
  251TMC3    C7 3813   3.882   1.574  13.002  1.0778  0.6675 -0.1545
  251TMC3    C8 3814   3.497   1.612  13.317 -0.5826  0.1098 -0.8168
  251TMC3    O1 3815   3.985   1.503  13.017 -0.1159  0.6397 -0.8807
  251TMC3    O2 3816   3.500   1.588  13.438  0.4418 -0.1520  0.4941
  252TMC3    C1 3817   4.683   1.524   9.213 -0.6488  0.4530  0.3993
  252TMC3    C2 3818   4.705   1.662   9.207  0.0317 -0.5232  0.5506
  252TMC3    C3 3819   0.048   1.717   9.313  0.4061 -0.0288  0.3690
  252TMC3    C4 3820   4.718   1.449   9.323  0.4325 -0.0624 -0.2640
  252TMC3    C5 3821   0.065   1.513   9.421  0.1775 -0.1797 -0.4249
  252TMC3    C6 3822   0.093   1.647   9.422 -0.8019 -0.0854 -0.2132
  252TMC3     C 3823   4.574   1.473   9.128  0.1356 -1.0339 -0.1081
  252TMC3     O 3824   4.524   1.373   9.177 -0.2938 -0.6543 -0.6902
  252TMC3     H 3825   4.671   1.725   9.126 -1.5014 -1.4013  0.5070
  252TMC3    H1 3826   4.699   1.343   9.320  0.8782 -0.1081 -1.7923
  252TMC3    H2 3827   0.165   1.690   9.491  1.6442 -2.0128 -1.5533
  252TMC3    C7 3828   0.106   1.440   9.535  0.4988  0.7321 -0.1054
  252TMC3    C8 3829   0.024   1.862   9.339 -0.2376  0.5802 -0.1398
  252TMC3    O1 3830   0.192   1.488   9.606 -0.0794  0.2748  0.1300
  252TMC3    O2 3831   0.037   1.939   9.244  0.3291  0.7380  0.2471
  253MPD2     C 3832   0.492   0.691  15.744  0.0728 -0.0663  0.3968
  253MPD2    C1 3833   0.379   0.609  15.739 -0.1740 -0.1619 -0.6062
  253MPD2    C2 3834   0.373   0.493  15.818 -0.2798 -0.1508 -0.3816
  253MPD2    C3 3835   0.472   0.472  15.911 -0.3872 -0.5226 -0.2658
  253MPD2    C4 3836   0.580   0.557  15.921 -0.2360 -0.6783 -0.0284
  253MPD2    C5 3837   0.586   0.665  15.841  0.7024  0.0509 -0.1880
  253MPD2     H 3838   0.279   0.441  15.832  0.2968 -1.6049 -2.0699
  253MPD2    H1 3839   0.639   0.553  16.012  0.3016  1.3465 -0.2952
  253MPD2    H2 3840   0.497   0.789  15.697  2.2483 -0.5352 -0.3360
  253MPD2    H3 3841   0.662   0.741  15.852 -1.1783  1.7637  1.0329
  253MPD2     N 3842   0.467   0.356  15.999 -0.0044  0.5033  0.3480
  253MPD2    H5 3843   0.531   0.352  16.078 -1.0312 -0.7851  1.1310
  253MPD2    N1 3844   0.264   0.645  15.665  0.5639  1.0905  0.6342
  253MPD2    H7 3845   0.188   0.577  15.667  2.9477 -1.4923  2.6041
  254TMC3    C1 3846   0.371   0.191  16.127  0.1529  0.3148 -0.2666
  254TMC3    C2 3847   0.315   0.067  16.128  0.8123  0.3137 -0.6505
  254TMC3    C3 3848   0.320   4.719  16.246  0.4641 -0.3995 -0.2765
  254TMC3    C4 3849   0.415   0.252  16.244  0.2653  0.2476  0.0343
  254TMC3    C5 3850   0.435   0.169  16.351  0.4682  0.2384 -0.0191
  254TMC3    C6 3851   0.391   0.040  16.355  0.5668  0.2718 -0.2320
  254TMC3     C 3852   0.367   0.265  16.005 -0.0695  0.1728 -0.0062
  254TMC3     O 3853   0.279   0.240  15.926  0.1332  0.0806  0.5735
  254TMC3     H 3854   0.266   0.023  16.041 -0.0649  3.3623 -1.6923
  254TMC3    H1 3855   0.449   0.355  16.242 -0.6421  0.5535  0.4292
  254TMC3    H2 3856   0.400   4.699  16.441 -0.4243 -0.5512 -0.7524
  254TMC3    C7 3857   0.418   0.231  16.478  0.3986  0.5778  0.0873
  254TMC3    C8 3858   0.234   4.607  16.275 -0.1266 -0.3156 -0.3533
  254TMC3    O1 3859   0.365   0.166  16.565 -0.0197 -0.2788  0.1098
  254TMC3    O2 3860   0.309   4.523  16.321  0.4297 -0.1344  0.5548
  255MPD2     C 3861   2.724   3.582  10.571  0.3327  0.8375  0.2156
  255MPD2    C1 3862   2.611   3.565  10.648 -0.8723  0.2215  0.3319
  255MPD2    C2 3863   2.595   3.435  10.697  0.8312 -0.5479 -0.1846
  255MPD2    C3 3864   2.679   3.333  10.668 -0.1373  0.2353 -0.7151
  255MPD2    C4 3865   2.791   3.355  10.597 -0.2684 -0.1661 -0.3729
  255MPD2    C5 3866   2.813   3.482  10.558  0.0611  0.7857  0.3948
  255MPD2     H 3867   2.507   3.419  10.758  0.2326 -0.3077 -0.9730
  255MPD2    H1 3868   2.863   3.284  10.559  0.2200  0.7670 -1.2233
  255MPD2    H2 3869   2.753   3.670  10.515 -1.1445  1.8926  1.1348
  255MPD2    H3 3870   2.905   3.503  10.503  0.6113  1.7580  1.6660
  255MPD2     N 3871   2.636   3.204  10.712 -0.0718 -0.3561  1.1357
  255MPD2    H5 3872   2.546   3.200  10.760 -0.5658 -0.9773  0.1707
  255MPD2    N1 3873   2.503   3.659  10.658 -0.6082  0.2530 -0.4678
  255MPD2    H7 3874   2.414   3.631  10.697  0.8254  1.2577  3.6103
  256TMC3    C1 3875   2.392   3.858  10.605  0.2798 -0.2044 -0.6048
  256TMC3    C2 3876   2.389   3.945  10.499 -0.5397 -0.1880  0.1400
  256TMC3    C3 3877   2.271   3.940  10.417 -0.7125 -0.2618 -0.5204
  256TMC3    C4 3878   2.282   3.786  10.647  0.2662  0.2235 -0.0249
  256TMC3    C5 3879   2.172   3.790  10.561 -0.4192 -0.4515 -0.4355
  256TMC3    C6 3880   2.171   3.857  10.445  0.7191 -0.1981 -0.3191
  256TMC3     C 3881   2.520   3.791  10.623  0.0776  0.2918 -0.3912
  256TMC3     O 3882   2.619   3.855  10.589 -0.5696 -0.0076 -0.6988
  256TMC3     H 3883   2.472   4.010  10.471 -0.8049  0.5736  1.1174
  256TMC3    H1 3884   2.271   3.722  10.733  0.4654  1.2217  0.7553
  256TMC3    H2 3885   2.088   3.827  10.381 -0.7914  1.8510  0.6497
  256TMC3    C7 3886   2.128   3.653  10.541 -0.9055 -0.0587  0.2251
  256TMC3    C8 3887   2.257   4.000  10.290  0.2633 -0.4491  0.0187
  256TMC3    O1 3888   2.029   3.613  10.604 -0.2238 -0.1732 -0.0748
  256TMC3    O2 3889   2.141   4.026  10.256 -0.3001  0.5779  0.3964
  257MPD2     C 3890   2.293   0.867  13.372  0.1346 -0.3993 -0.1466
  257MPD2    C1 3891   2.255   0.758  13.301  0.1471  0.9318  0.5558
  257MPD2    C2 3892   2.269   0.633  13.363  0.3290  0.3545  0.7860
  257MPD2    C3 3893   2.327   0.612  13.481  0.2834 -0.9897 -0.1833
  257MPD2    C4 3894   2.345   0.723  13.560  0.2376  0.1908  0.2173
  257MPD2    C5 3895   2.328   0.844  13.501  0.0353 -0.5993  0.9508
  257MPD2     H 3896   2.253   0.546  13.300 -1.0882  1.2430 -0.0845
  257MPD2    H1 3897   2.377   0.714  13.663 -2.5223 -0.9183  0.9643
  257MPD2    H2 3898   2.288   0.963  13.322 -1.7006  0.1027  1.0167
  257MPD2    H3 3899   2.364   0.925  13.562 -0.5521  0.8261 -0.6017
  257MPD2     N 3900   2.341   0.476  13.523 -0.3343  0.5169 -0.0064
  257MPD2    H5 3901   2.313   0.403  13.459  1.1503  1.0731 -1.2888
  257MPD2    N1 3902   2.217   0.774  13.165 -0.1914  0.1034 -0.2659
  257MPD2    H7 3903   2.229   0.867  13.127  1.0260 -0.1425 -0.4763
  258TMC3    C1 3904   2.373   0.287  13.672  0.0827  0.3064  0.3685
  258TMC3    C2 3905   2.280   0.214  13.601  0.2988  0.3160 -0.0420
  258TMC3    C3 3906   2.262   0.082  13.631  0.5154 -0.3586  0.3110
  258TMC3    C4 3907   2.435   0.227  13.778  0.4153 -0.3648  0.7834
  258TMC3    C5 3908   2.395   0.103  13.816 -0.4316  0.4261  0.6380
  258TMC3    C6 3909   2.311   0.023  13.745  0.0851  0.7737  0.3830
  258TMC3     C 3910   2.387   0.430  13.641  0.3966 -0.1388  0.2227
  258TMC3     O 3911   2.444   0.493  13.732  0.8932 -0.9383 -0.8194
  258TMC3     H 3912   2.213   0.256  13.526 -0.9321 -0.4691  0.6158
  258TMC3    H1 3913   2.504   0.284  13.839  1.1805 -0.6468  0.1768
  258TMC3    H2 3914   2.283   4.645  13.765  2.4052 -0.0388 -0.4825
  258TMC3    C7 3915   2.457   0.045  13.926  0.2425  0.2458 -0.0748
  258TMC3    C8 3916   2.161   0.012  13.558  0.3765 -0.6064  0.5442
  258TMC3    O1 3917   2.382   4.710  14.008  0.2670  0.9797 -0.1460
  258TMC3    O2 3918   2.066   0.073  13.513 -0.0847  0.4760  0.4663
  259MPD2     C 3919   1.902   2.461   1.329  0.1084 -0.2295 -0.6032
  259MPD2    C1 3920   1.811   2.364   1.291  0.5880 -0.4216 -0.6291
  259MPD2    C2 3921   1.854   2.258   1.211  0.8946  0.3657  0.6140
  259MPD2    C3 3922   1.982   2.263   1.157  0.0739  0.2348  0.1380
  259MPD2    C4 3923   2.067   2.363   1.177  0.4864 -0.0013 -0.0128
  259MPD2    C5 3924   2.033   2.455   1.271 -0.0782 -0.0045  0.1041
  259MPD2     H 3925   1.781   2.179   1.199 -0.9451  1.8975  1.8237
  259MPD2    H1 3926   2.163   2.374   1.127 -0.3317 -0.4594 -1.7062
  259MPD2    H2 3927   1.871   2.533   1.404  0.9759  1.3572 -1.7823
  259MPD2    H3 3928   2.104   2.535   1.289 -1.2284  0.7330  1.3672
  259MPD2     N 3929   2.010   2.159   1.070  0.1012 -0.3677  0.7858
  259MPD2    H5 3930   1.930   2.099   1.049  0.2908 -0.6419  0.8435
  259MPD2    N1 3931   1.684   2.362   1.358  0.2153  0.7875  0.9431
  259MPD2    H7 3932   1.671   2.435   1.428 -0.9127  1.0590  0.4436
  260TMC3    C1 3933   2.125   2.034   0.913 -0.7112 -0.1975 -0.3360
  260TMC3    C2 3934   2.233   1.946   0.908 -0.3828 -0.3844  0.5516
  260TMC3    C3 3935   2.239   1.843   0.822  0.1487  1.0355 -0.1204
  260TMC3    C4 3936   2.016   2.010   0.829 -0.0146 -0.2369  0.2022
  260TMC3    C5 3937   2.031   1.908   0.732 -0.6719  0.0461  0.0206
  260TMC3    C6 3938   2.139   1.823   0.734 -0.0391 -0.0432  0.2817
  260TMC3     C 3939   2.128   2.139   1.003 -0.0984 -0.3083  0.2781
  260TMC3     O 3940   2.238   2.188   1.016  0.4311  0.1606  0.2296
  260TMC3     H 3941   2.311   1.969   0.980  0.2005 -1.3852  0.2476
  260TMC3    H1 3942   1.938   2.085   0.820  0.2366  0.0452  0.3874
  260TMC3    H2 3943   2.144   1.737   0.668  0.3289 -0.7499  1.2159
  260TMC3    C7 3944   1.967   1.912   0.605 -0.5800 -0.6210  0.8692
  260TMC3    C8 3945   2.358   1.761   0.827 -0.0139  0.6536  0.0179
  260TMC3    O1 3946   2.034   1.882   0.505 -0.0317  0.3006  0.2294
  260TMC3    O2 3947   2.446   1.780   0.913  0.0734 -0.0672 -0.5860
  261MPD2     C 3948   3.002   0.645  13.191  0.1282 -0.0063  0.6103
  261MPD2    C1 3949   3.110   0.592  13.117 -0.0166 -0.9085 -0.0309
  261MPD2    C2 3950   3.115   0.619  12.979  0.1328 -0.8889 -0.4992
  261MPD2    C3 3951   3.009   0.681  12.908 -0.1793  0.8158  0.2447
  261MPD2    C4 3952   2.911   0.731  12.978  0.1747 -0.0729  0.3313
  261MPD2    C5 3953   2.903   0.715  13.116  0.1668 -0.2178  0.0891
  261MPD2     H 3954   3.199   0.578  12.923  0.7948 -0.8714  0.4815
  261MPD2    H1 3955   2.833   0.782  12.922  0.2622  0.3365  0.5841
  261MPD2    H2 3956   2.985   0.641  13.298  0.5225  0.3665  0.6901
  261MPD2    H3 3957   2.818   0.757  13.170  1.6055  0.9184  1.4999
  261MPD2     N 3958   2.996   0.682  12.769 -0.2921  0.0815  0.0509
  261MPD2    H5 3959   2.922   0.748  12.746  0.0677  0.5536  0.2689
  261MPD2    N1 3960   3.229   0.544  13.175  0.0453  0.0123  0.3242
  261MPD2    H7 3961   3.313   0.529  13.119  0.1821  0.7348  0.3359
  262TMC3    C1 3962   3.076   0.676  12.545  0.3811  0.0257  0.1740
  262TMC3    C2 3963   3.044   0.805  12.522  0.5337  0.0831  0.1521
  262TMC3    C3 3964   3.098   0.871  12.412 -0.9626 -0.7596 -0.1174
  262TMC3    C4 3965   3.153   0.614  12.456  0.1491  0.0990  0.0669
  262TMC3    C5 3966   3.200   0.675  12.345 -0.0900  0.6878  0.1888
  262TMC3    C6 3967   3.181   0.809  12.319 -0.3720  0.2756  0.0362
  262TMC3     C 3968   3.085   0.621  12.682 -0.1187 -0.2335  0.2697
  262TMC3     O 3969   3.168   0.533  12.706 -0.0025  0.4727 -0.0129
  262TMC3     H 3970   2.981   0.861  12.591  1.2665  0.2502  0.6772
  262TMC3    H1 3971   3.184   0.513  12.481  0.9404  0.4942  0.6648
  262TMC3    H2 3972   3.219   0.856  12.229 -0.3666 -0.6596 -0.4558
  262TMC3    C7 3973   3.223   0.596  12.230  0.4672  0.2414  0.3804
  262TMC3    C8 3974   3.021   0.969  12.337 -0.0273  0.2130 -0.2486
  262TMC3    O1 3975   3.255   0.480  12.254  0.6362  0.0071  0.5617
  262TMC3    O2 3976   3.082   1.054  12.267 -0.6278 -0.1695  0.4402
  263MPD2     C 3977   3.869   4.259  11.160 -0.0692  0.2396  0.1429
  263MPD2    C1 3978   3.956   4.355  11.204  0.6144 -0.6569  0.4093
  263MPD2    C2 3979   3.964   4.478  11.148 -0.1673  0.4154  0.0325
  263MPD2    C3 3980   3.871   4.508  11.047 -0.0615  0.3085 -0.3519
  263MPD2    C4 3981   3.784   4.411  11.001 -0.1299  0.1816  0.2868
  263MPD2    C5 3982   3.781   4.286  11.059 -0.0127 -0.6064 -0.0841
  263MPD2     H 3983   4.029   4.559  11.178  0.4010  0.0494 -0.2103
  263MPD2    H1 3984   3.704   4.428  10.929  1.5158 -0.6901 -1.7348
  263MPD2    H2 3985   3.869   4.158  11.199 -2.3937 -0.6286 -2.1339
  263MPD2    H3 3986   3.715   4.205  11.031  0.5776 -1.0161 -0.3110
  263MPD2     N 3987   3.864   4.642  10.999 -0.1107 -0.4672 -0.2893
  263MPD2    H5 3988   3.934   4.710  11.028  0.2364 -1.5182  1.3086
  263MPD2    N1 3989   4.032   4.329  11.317  0.2318  0.0850  0.1165
  263MPD2    H7 3990   4.022   4.238  11.359 -1.3310  0.2095  0.0192
  264TMC3    C1 3991   3.833   0.094  10.858  0.5702 -0.0835  0.0701
  264TMC3    C2 3992   3.849   0.187  10.959 -0.0714  0.2243 -0.6341
  264TMC3    C3 3993   3.860   0.318  10.922  0.1341 -0.2723  0.0754
  264TMC3    C4 3994   3.833   0.136  10.727  0.4635 -0.2219 -0.4883
  264TMC3    C5 3995   3.858   0.270  10.696 -0.3258  0.1001 -0.0220
  264TMC3    C6 3996   3.859   0.359  10.796 -0.1479  0.1687  0.1066
  264TMC3     C 3997   3.802   4.680  10.884  0.3076  0.2819  0.1399
  264TMC3     O 3998   3.732   4.625  10.800  0.3755  0.0899  0.4239
  264TMC3     H 3999   3.862   0.160  11.063  1.7999 -2.0242 -1.4530
  264TMC3    H1 4000   3.818   0.065  10.647  0.6801  0.1231 -0.8348
  264TMC3    H2 4001   3.870   0.466  10.781  0.8059  0.0679  0.0845
  264TMC3    C7 4002   3.980   0.280  10.618  0.0263  0.1964  0.7190
  264TMC3    C8 4003   3.957   0.394  11.000 -0.3701  0.4251 -0.4520
  264TMC3    O1 4004   3.980   0.214  10.514  0.2075  0.0156 -0.4961
  264TMC3    O2 4005   4.036   0.463  10.937  0.6446  0.2314 -0.6330
  265MPD2     C 4006   1.308   0.549  15.862  0.3776 -0.2871 -0.1807
  265MPD2    C1 4007   1.414   0.609  15.801  0.8432  0.4494 -0.1056
  265MPD2    C2 4008   1.463   0.544  15.692  0.3375  0.2283  0.9024
  265MPD2    C3 4009   1.418   0.416  15.651  0.1605  0.7289  0.2286
  265MPD2    C4 4010   1.329   0.345  15.728  0.1579  0.3356 -0.5654
  265MPD2    C5 4011   1.279   0.418  15.839 -0.1883  0.9664  0.2421
  265MPD2     H 4012   1.534   0.596  15.629  1.0286 -0.2862  1.2551
  265MPD2    H1 4013   1.307   0.240  15.713  0.3451  0.1159  0.6929
  265MPD2    H2 4014   1.257   0.600  15.942 -0.9945 -1.5609 -0.2460
  265MPD2    H3 4015   1.198   0.379  15.899  1.2561 -2.4767 -0.0688
  265MPD2     N 4016   1.465   0.351  15.537 -0.2332  0.5158 -0.2200
  265MPD2    H5 4017   1.552   0.388  15.499 -0.0766  0.1003 -0.2671
  265MPD2    N1 4018   1.445   0.745  15.832 -0.3203 -0.2660  0.3123
  265MPD2    H7 4019   1.512   0.789  15.769 -0.1971  0.9334  1.2767
  266TMC3    C1 4020   1.449   0.960  15.951 -0.5869 -0.4203 -0.4356
  266TMC3    C2 4021   1.454   1.017  16.071  0.0750  0.3410 -0.3420
  266TMC3    C3 4022   1.471   1.153  16.074  0.6422 -0.2394  0.1062
  266TMC3    C4 4023   1.437   1.028  15.837  0.3422 -0.5759  0.3288
  266TMC3    C5 4024   1.419   1.159  15.845  0.2967  0.1159  0.1653
  266TMC3    C6 4025   1.428   1.224  15.967 -0.1033 -0.0999 -0.6734
  266TMC3     C 4026   1.409   0.824  15.949 -0.0170  0.1858 -0.7731
  266TMC3     O 4027   1.361   0.782  16.054  0.2491  0.0633 -0.1724
  266TMC3     H 4028   1.469   0.957  16.160  0.9603 -2.5545 -2.4464
  266TMC3    H1 4029   1.419   0.981  15.741 -1.9610  1.5838 -0.3023
  266TMC3    H2 4030   1.418   1.331  15.980  0.8702 -0.3645  2.1418
  266TMC3    C7 4031   1.351   1.225  15.735 -1.2501 -0.3789 -0.4727
  266TMC3    C8 4032   1.514   1.224  16.191  1.0629 -0.2753  0.0398
  266TMC3    O1 4033   1.293   1.157  15.655  0.3210 -0.1807 -0.1666
  266TMC3    O2 4034   1.604   1.166  16.250  0.0385 -0.2007 -0.0739
  267MPD2     C 4035   4.302   1.705  16.989  0.6542  0.3423  0.2801
  267MPD2    C1 4036   4.204   1.662  17.081 -0.6218  0.2619 -0.1873
  267MPD2    C2 4037   4.121   1.560  17.040 -1.1950  0.3127  0.4236
  267MPD2    C3 4038   4.114   1.522  16.905 -0.4357 -0.4159  0.0117
  267MPD2    C4 4039   4.213   1.568  16.817 -0.0017  0.5311 -0.2574
  267MPD2    C5 4040   4.302   1.661  16.857 -0.4315  0.4810  0.3393
  267MPD2     H 4041   4.039   1.537  17.107 -0.2123 -3.3893  0.3347
  267MPD2    H1 4042   4.200   1.525  16.718 -1.4937 -0.1000  0.2077
  267MPD2    H2 4043   4.379   1.776  17.016 -1.7067  1.4501  4.1022
  267MPD2    H3 4044   4.373   1.696  16.783 -0.6106  1.1265  0.4680
  267MPD2     N 4045   4.012   1.441  16.852  0.5383 -0.0635  0.6623
  267MPD2    H5 4046   3.995   1.449  16.753  1.4761 -2.0102  0.3464
  267MPD2    N1 4047   4.200   1.717  17.208  0.4482 -0.0112  0.3278
  267MPD2    H7 4048   4.265   1.793  17.218  1.8409 -1.1408 -0.1144
  268TMC3    C1 4049   4.104   1.785  17.412 -0.2058 -0.8282  0.2441
  268TMC3    C2 4050   4.111   1.916  17.372  0.4261 -0.1119 -0.1961
  268TMC3    C3 4051   4.102   2.011  17.471 -0.0045  0.3571  0.1267
  268TMC3    C4 4052   4.094   1.751  17.538  0.3058  0.3287 -0.0213
  268TMC3    C5 4053   4.093   1.851  17.636 -0.2635 -0.4554  0.2332
  268TMC3    C6 4054   4.098   1.982  17.602 -0.2292 -0.5022  0.1415
  268TMC3     C 4055   4.116   1.683  17.311  0.0992  0.0418  0.1883
  268TMC3     O 4056   4.052   1.578  17.338 -0.5813 -0.4898 -0.0796
  268TMC3     H 4057   4.117   1.933  17.265 -0.6207  0.5576 -0.1506
  268TMC3    H1 4058   4.095   1.653  17.583 -3.0793  0.3858  0.2169
  268TMC3    H2 4059   4.110   2.062  17.674  0.4923  0.1896 -0.7412
  268TMC3    C7 4060   4.077   1.807   0.075  0.1407  0.2242 -0.0668
  268TMC3    C8 4061   4.079   2.150  17.431 -0.0444 -0.2139  0.0268
  268TMC3    O1 4062   4.027   1.696   0.087 -0.2122  0.6531  0.0392
  268TMC3    O2 4063   4.104   2.242  17.510  0.1646 -0.0715  0.4705
  269MPD2     C 4064   4.074   0.812  15.845 -0.7095  0.2641 -0.3644
  269MPD2    C1 4065   3.940   0.847  15.828 -0.1927 -0.2327  0.0714
  269MPD2    C2 4066   3.904   0.973  15.804 -0.2895  0.3225 -0.0413
  269MPD2    C3 4067   4.002   1.070  15.809 -0.8558 -0.3721 -0.4366
  269MPD2    C4 4068   4.127   1.035  15.837 -0.0359 -0.3195  0.5470
  269MPD2    C5 4069   4.167   0.912  15.856  0.7629  0.3041 -0.2702
  269MPD2     H 4070   3.804   1.006  15.777 -0.7841 -1.5026 -0.4251
  269MPD2    H1 4071   4.209   1.105  15.851 -1.2764  1.1314  0.4732
  269MPD2    H2 4072   4.102   0.708  15.861 -4.0924 -0.2773  2.0341
  269MPD2    H3 4073   4.273   0.887  15.864  0.4067 -0.9108  0.6045
  269MPD2     N 4074   3.971   1.203  15.777 -0.0068 -0.0730 -0.0043
  269MPD2    H5 4075   3.876   1.219  15.744 -1.1259 -0.5971  2.9683
  269MPD2    N1 4076   3.845   0.741  15.821  0.4133 -0.0698  0.7350
  269MPD2    H7 4077   3.881   0.647  15.838 -0.1261 -0.8364 -2.4063
  270TMC3    C1 4078   3.642   0.618  15.815 -0.2818 -0.4939 -0.0992
  270TMC3    C2 4079   3.528   0.598  15.743  0.4164  0.1407 -0.1753
  270TMC3    C3 4080   3.479   0.471  15.725  0.1183  0.0905 -0.5279
  270TMC3    C4 4081   3.718   0.520  15.859  0.0592  0.3368  0.3027
  270TMC3    C5 4082   3.673   0.392  15.835  0.1216 -0.2742 -0.4422
  270TMC3    C6 4083   3.552   0.361  15.774 -0.4006  0.1251 -0.6068
  270TMC3     C 4084   3.708   0.746  15.808  0.0383 -0.6203  0.0523
  270TMC3     O 4085   3.639   0.837  15.769  0.0217 -0.5348  0.1153
  270TMC3     H 4086   3.492   0.693  15.704 -1.1302 -0.3988 -0.0449
  270TMC3    H1 4087   3.798   0.526  15.931  0.2125  2.0468 -0.0188
  270TMC3    H2 4088   3.532   0.256  15.755  1.5358 -0.3863  0.1892
  270TMC3    C7 4089   3.769   0.283  15.872 -0.1527  0.6998  0.1249
  270TMC3    C8 4090   3.415   0.453  15.599 -0.1577 -0.2127 -0.8603
  270TMC3    O1 4091   3.885   0.327  15.871  0.2724 -0.1740 -0.0516
  270TMC3    O2 4092   3.400   0.563  15.539 -0.2700  0.3052 -0.8250
  271MPD2     C 4093   2.881   1.045  14.404  0.3442  0.3274 -0.0661
  271MPD2    C1 4094   2.817   0.924  14.391  0.4949 -1.1823  0.0611
  271MPD2    C2 4095   2.684   0.930  14.345  0.3356 -0.6539 -0.3876
  271MPD2    C3 4096   2.623   1.043  14.304  0.3629  0.1745  0.0364
  271MPD2    C4 4097   2.680   1.162  14.334  0.0888 -0.6463 -0.1098
  271MPD2    C5 4098   2.809   1.158  14.387  0.5590 -0.6083 -0.2098
  271MPD2     H 4099   2.623   0.841  14.352  0.5233 -0.3580  5.0745
  271MPD2    H1 4100   2.635   1.254  14.302 -0.1019 -0.4351  0.7560
  271MPD2    H2 4101   2.975   1.041  14.460  0.7084  0.9711 -0.6410
  271MPD2    H3 4102   2.853   1.257  14.395  1.9623 -1.2527  0.0935
  271MPD2     N 4103   2.490   1.050  14.249  0.6298  0.0336  0.3694
  271MPD2    H5 4104   2.443   1.140  14.239  0.2870 -0.0135  1.5574
  271MPD2    N1 4105   2.876   0.804  14.426  0.1768  0.3243  0.1987
  271MPD2    H7 4106   2.822   0.719  14.440 -0.1915 -0.1341 -3.9312
  272TMC3    C1 4107   3.052   0.652  14.479  0.4225 -0.1550 -0.5054
  272TMC3    C2 4108   3.183   0.621  14.448 -0.7996  0.0543  0.2673
  272TMC3    C3 4109   3.258   0.541  14.525 -0.2299  0.2935 -0.0807
  272TMC3    C4 4110   2.994   0.595  14.593  0.2521  0.5724  1.2512
  272TMC3    C5 4111   3.078   0.510  14.667  0.0860 -0.3757 -0.1880
  272TMC3    C6 4112   3.207   0.492  14.641  0.0033  0.4148 -0.2620
  272TMC3     C 4113   3.007   0.780  14.430 -0.9608  0.5538 -2.0372
  272TMC3     O 4114   3.100   0.852  14.389  0.2024  0.2981  0.2870
  272TMC3     H 4115   3.228   0.679  14.368 -0.3456 -1.0913 -0.3149
  272TMC3    H1 4116   2.891   0.615  14.621  0.1830 -1.3416  2.3793
  272TMC3    H2 4117   3.265   0.431  14.710  1.6335  2.7848  0.4445
  272TMC3    C7 4118   3.047   0.515  14.808  0.0916  0.3754 -0.2601
  272TMC3    C8 4119   3.396   0.513  14.481  0.4590  0.0508 -0.7402
  272TMC3    O1 4120   2.955   0.442  14.841  0.0717 -0.5862 -0.3852
  272TMC3    O2 4121   3.435   0.577  14.381  0.4723 -0.4040 -0.0946
  273MPD2     C 4122   4.127   3.023  11.440 -0.3525 -0.2202 -0.0400
  273MPD2    C1 4123   4.222   3.108  11.487 -0.1789 -0.9313 -0.3866
  273MPD2    C2 4124   4.311   3.162  11.397 -0.1416 -0.0773 -0.3313
  273MPD2    C3 4125   4.301   3.133  11.256  0.3477  0.0735  0.2795
  273MPD2    C4 4126   4.207   3.044  11.218 -0.4297  0.2316 -0.2141
  273MPD2    C5 4127   4.123   2.987  11.309 -0.7118 -0.1300 -0.2521
  273MPD2     H 4128   4.379   3.243  11.423 -0.1936 -0.6352  1.5489
  273MPD2    H1 4129   4.195   3.013  11.114  1.6219  0.2640 -0.4513
  273MPD2    H2 4130   4.066   2.963  11.507 -1.2279  1.6839  0.8478
  273MPD2    H3 4131   4.059   2.907  11.274 -2.0863  1.6504 -1.8166
  273MPD2     N 4132   4.376   3.204  11.159 -0.8200 -0.3034  0.3129
  273MPD2    H5 4133   4.354   3.189  11.061 -1.7487  1.6154  0.2387
  273MPD2    N1 4134   4.216   3.149  11.620  0.1368 -0.2705  0.0280
  273MPD2    H7 4135   4.139   3.119  11.679 -0.2728 -1.8073 -1.2816
  274TMC3    C1 4136   4.539   3.330  11.062 -0.2585 -0.1072 -0.0680
  274TMC3    C2 4137   4.469   3.328  10.945 -0.0030 -0.1934  0.3969
  274TMC3    C3 4138   4.494   3.436  10.865  0.0514  0.6445  0.4327
  274TMC3    C4 4139   4.648   3.414  11.085 -0.0452 -0.7082  0.0034
  274TMC3    C5 4140   4.659   3.524  11.003 -0.3789 -0.2079  0.0942
  274TMC3    C6 4141   4.582   3.537  10.884 -0.0850  0.2416  0.2871
  274TMC3     C 4142   4.488   3.269  11.183  0.6960 -0.3150 -0.6851
  274TMC3     O 4143   4.559   3.282  11.285  0.0511  0.0663 -0.1883
  274TMC3     H 4144   4.386   3.265  10.916 -0.2413 -0.0269  0.7071
  274TMC3    H1 4145   4.710   3.404  11.173 -1.4237  1.6995  1.2464
  274TMC3    H2 4146   4.607   3.618  10.816  0.9857 -0.2982  0.0474
  274TMC3    C7 4147   0.000   3.640  11.052 -0.0412  0.3854  0.0845
  274TMC3    C8 4148   4.388   3.466  10.764  0.2911 -0.7144  0.4069
  274TMC3    O1 4149   0.085   3.687  10.983  0.1474  0.0863 -0.5001
  274TMC3    O2 4150   4.283   3.401  10.768  0.5229 -0.3503 -0.2555
  275MPD2     C 4151   4.347   1.905  14.454  0.3969  0.7472  0.4806
  275MPD2    C1 4152   4.341   1.846  14.581 -0.8220  0.0690  0.8267
  275MPD2    C2 4153   4.222   1.794  14.629 -0.5408 -0.1764  0.4277
  275MPD2    C3 4154   4.110   1.803  14.547  0.0183 -0.3669  0.5794
  275MPD2    C4 4155   4.118   1.865  14.424  0.3499  0.2777 -0.4183
  275MPD2    C5 4156   4.234   1.926  14.385 -0.3228  0.1009 -0.4442
  275MPD2     H 4157   4.214   1.737  14.721 -0.3498 -0.7844  0.0607
  275MPD2    H1 4158   4.031   1.867  14.360  0.0986  3.4348  0.0227
  275MPD2    H2 4159   4.442   1.943  14.418  0.3080 -1.3141 -1.8936
  275MPD2    H3 4160   4.234   1.977  14.290 -2.1159  1.9314  0.5392
  275MPD2     N 4161   3.985   1.747  14.586 -0.2974 -0.1505  0.5253
  275MPD2    H5 4162   3.906   1.756  14.524  1.2906 -0.5334 -1.5496
  275MPD2    N1 4163   4.460   1.836  14.659 -0.5250 -0.4057 -0.2777
  275MPD2    H7 4164   4.460   1.791  14.750  0.6995  0.3865  0.1234
  276TMC3    C1 4165   4.671   1.792  14.724  0.5372  0.0766 -0.3677
  276TMC3    C2 4166   4.612   1.691  14.792  0.7477  0.2646  0.0186
  276TMC3    C3 4167   4.680   1.627  14.894 -0.2905 -0.6371  0.8330
  276TMC3    C4 4168   0.079   1.805  14.732 -0.0244  0.7827  1.0282
  276TMC3    C5 4169   0.151   1.737  14.834  0.0095  0.5823  0.2043
  276TMC3    C6 4170   0.086   1.654  14.920  0.3173  0.0688 -0.5377
  276TMC3     C 4171   4.590   1.843  14.616  0.1814 -0.5709 -0.0218
  276TMC3     O 4172   4.636   1.909  14.525  0.2256  0.3142  0.4167
  276TMC3     H 4173   4.510   1.655  14.789  1.1927 -0.8502 -1.7135
  276TMC3    H1 4174   0.123   1.891  14.682 -1.2301  1.5489  1.2632
  276TMC3    H2 4175   0.134   1.620  15.011  1.6413  0.3827 -1.1200
  276TMC3    C7 4176   0.267   1.800  14.886 -0.2084  0.0541  0.5701
  276TMC3    C8 4177   4.603   1.624  15.012  0.4437 -0.3113  0.6012
  276TMC3    O1 4178   0.306   1.763  14.995  0.7983  1.1978 -0.2238
  276TMC3    O2 4179   4.508   1.704  15.017  0.5143  0.2898  0.0047
  277MPD2     C 4180   1.500   0.796  13.530 -0.1824 -0.8242 -0.0175
  277MPD2    C1 4181   1.377   0.812  13.587 -0.2355  0.3186  0.2727
  277MPD2    C2 4182   1.357   0.782  13.724  0.6346  0.3450 -0.4609
  277MPD2    C3 4183   1.467   0.761  13.802 -0.0838  0.2759  0.2884
  277MPD2    C4 4184   1.597   0.755  13.746 -0.4431  0.1605  0.0285
  277MPD2    C5 4185   1.607   0.776  13.613  0.1794  0.0470  0.3186
  277MPD2     H 4186   1.260   0.766  13.769  0.6162  0.6355 -0.3971
  277MPD2    H1 4187   1.692   0.743  13.797 -1.2294 -1.9365  1.0097
  277MPD2    H2 4188   1.515   0.820  13.426  2.2117  1.9723  0.9470
  277MPD2    H3 4189   1.702   0.768  13.561 -2.1648  4.0410 -4.6172
  277MPD2     N 4190   1.439   0.720  13.930 -0.2827  0.0018 -0.4841
  277MPD2    H5 4191   1.341   0.705  13.952 -0.0721 -0.4198  0.1506
  277MPD2    N1 4192   1.270   0.829  13.493  0.7463 -0.0418  0.5337
  277MPD2    H7 4193   1.277   0.825  13.392 -0.1719  1.5133  0.4082
  278TMC3    C1 4194   1.455   0.600  14.116  0.3515  0.7928  0.6273
  278TMC3    C2 4195   1.398   0.488  14.060  0.1209  0.2559 -0.4448
  278TMC3    C3 4196   1.283   0.433  14.101 -0.3365 -1.0574 -0.2809
  278TMC3    C4 4197   1.384   0.669  14.206  0.5395  0.3128  0.2311
  278TMC3    C5 4198   1.262   0.618  14.246 -0.1285 -0.6528  0.0189
  278TMC3    C6 4199   1.203   0.500  14.198 -0.4135 -0.4280  0.9318
  278TMC3     C 4200   1.529   0.680  14.020 -1.2637  0.0696 -0.0896
  278TMC3     O 4201   1.650   0.677  14.026 -0.3435  0.2356  0.2342
  278TMC3     H 4202   1.450   0.460  13.969 -0.9604  0.3152 -1.0755
  278TMC3    H1 4203   1.423   0.765  14.235  0.0380 -0.0614  2.1514
  278TMC3    H2 4204   1.104   0.468  14.227 -0.0795 -1.6459  0.7089
  278TMC3    C7 4205   1.187   0.699  14.339  0.1815  0.1436  0.2380
  278TMC3    C8 4206   1.219   0.344  14.009 -0.1578  0.8925 -0.5063
  278TMC3    O1 4207   1.258   0.772  14.404  0.3067 -0.3015  0.2194
  278TMC3    O2 4208   1.102   0.366  13.982 -0.3688 -0.2658  0.5951
  279MPD2     C 4209   0.805   1.977   0.025 -0.0518  0.3349 -0.1853
  279MPD2    C1 4210   0.726   1.879   0.088 -0.3069  1.0913  0.1799
  279MPD2    C2 4211   0.729   1.747   0.037  0.2555  0.4340  0.3059
  279MPD2    C3 4212   0.809   1.722  17.625  0.0590  0.9534  0.1270
  279MPD2    C4 4213   0.879   1.817  17.558 -0.3593 -0.0098  0.7720
  279MPD2    C5 4214   0.869   1.944  17.603  0.2426 -0.0761 -0.3842
  279MPD2     H 4215   0.673   1.674   0.093  0.1486 -0.8438 -1.4837
  279MPD2    H1 4216   0.922   1.798  17.460  0.3975 -0.2999  1.1640
  279MPD2    H2 4217   0.803   2.081   0.057 -1.4242  0.1776  0.2682
  279MPD2    H3 4218   0.924   2.025  17.557  0.4531 -1.0415 -1.8199
  279MPD2     N 4219   0.821   1.591  17.564 -0.6374 -0.4705 -0.2530
  279MPD2    H5 4220   0.869   1.592  17.475 -3.2395 -0.9827 -1.6749
  279MPD2    N1 4221   0.640   1.927   0.196 -0.3330 -0.7555 -0.2471
  279MPD2    H7 4222   0.656   2.017   0.238 -1.9324  0.5053 -2.3426
  280TMC3    C1 4223   0.483   1.904   0.366 -0.2629 -0.4585  0.0584
  280TMC3    C2 4224   0.557   1.912   0.478  0.4542  0.3903  0.3024
  280TMC3    C3 4225   0.499   1.910   0.603 -0.0844 -0.2379 -0.1675
  280TMC3    C4 4226   0.348   1.883   0.372 -0.7708  0.1273  0.3534
  280TMC3    C5 4227   0.288   1.900   0.493 -0.4106 -0.2265 -0.0077
  280TMC3    C6 4228   0.361   1.922   0.605 -0.1172 -0.0570  0.1317
  280TMC3     C 4229   0.546   1.848   0.248  0.3218 -0.4650  0.2965
  280TMC3     O 4230   0.477   1.763   0.189  0.3337 -0.1102 -0.2069
  280TMC3     H 4231   0.664   1.899   0.471  0.0051 -2.1821 -1.7939
  280TMC3    H1 4232   0.292   1.868   0.280 -0.0742 -0.5925  0.0447
  280TMC3    H2 4233   0.313   1.920   0.702  0.0004  0.1224  0.1926
  280TMC3    C7 4234   0.160   1.828   0.521 -1.2922  0.0576  0.4993
  280TMC3    C8 4235   0.568   1.909   0.730 -0.3912 -0.2170 -0.3471
  280TMC3    O1 4236   0.130   1.806   0.640 -0.1425  0.0402 -0.2620
  280TMC3    O2 4237   0.504   1.927   0.833 -0.4220  0.3538  0.4113
  281TMC3    C1 4238   4.576   1.709  13.208  0.5139  0.0286 -0.1393
  281TMC3    C2 4239   4.514   1.750  13.098 -0.2840 -0.0773 -0.4523
  281TMC3    C3 4240   4.516   1.666  12.992  0.4734 -0.5001  0.0441
  281TMC3    C4 4241   4.631   1.583  13.224 -0.1355 -1.4052 -0.1651
  281TMC3    C5 4242   4.625   1.502  13.116  0.3087 -0.1462  1.0949
  281TMC3    C6 4243   4.567   1.537  12.998  0.5013  0.3942 -0.4571
  281TMC3     C 4244   4.547   1.773  13.329 -0.5048  0.0050  0.3917
  281TMC3     O 4245   4.598   1.727  13.429  0.3876  0.1118  0.0541
  281TMC3     H 4246   4.484   1.853  13.087  1.1747  0.0768 -2.8163
  281TMC3    H1 4247   4.667   1.541  13.318 -0.6468 -0.4163  0.4790
  281TMC3    H2 4248   4.564   1.473  12.911 -0.1482 -1.2101  0.7406
  281TMC3    C7 4249   4.630   1.359  13.143 -0.6966  0.2786 -0.0213
  281TMC3    C8 4250   4.401   1.675  12.909  0.1571  0.7201  0.4622
  281TMC3    O1 4251   4.696   1.293  13.063  0.3209  0.2765 -0.1616
  281TMC3    O2 4252   4.352   1.566  12.883 -0.3470  0.0067 -0.1710
  282MPD2     C 4253   1.397   2.368  14.974 -0.7153  0.2195  0.2717
  282MPD2    C1 4254   1.297   2.463  14.987  0.9330 -0.0393  0.1860
  282MPD2    C2 4255   1.232   2.506  14.873  0.2458  0.6974  0.3699
  282MPD2    C3 4256   1.267   2.463  14.746 -0.2493 -0.3531 -0.4706
  282MPD2    C4 4257   1.369   2.378  14.728  0.3024  0.8489 -0.4362
  282MPD2    C5 4258   1.423   2.322  14.844 -0.4262 -0.1277 -0.1844
  282MPD2     H 4259   1.142   2.564  14.891  0.3427  0.6112  1.1489
  282MPD2    H1 4260   1.391   2.329  14.634 -0.3351  1.3901 -0.8725
  282MPD2    H2 4261   1.441   2.308  15.052 -0.2973  1.1994  0.7880
  282MPD2    H3 4262   1.478   2.230  14.830  2.2511  2.0109 -3.6818
  282MPD2     N 4263   1.187   2.516  14.640 -0.0413  0.4779 -0.6271
  282MPD2    H5 4264   1.126   2.590  14.673 -0.0811  0.2351 -0.1629
  282MPD2    N1 4265   1.235   2.513  15.102 -0.0305 -0.6114 -0.0520
  282MPD2    H7 4266   1.165   2.585  15.091  1.0280  0.1053 -2.1701
  283TMC3    C1 4267   1.188   2.537  15.327  0.5498  0.2243  0.3177
  283TMC3    C2 4268   1.118   2.643  15.297  0.6842  0.2322  0.9106
  283TMC3    C3 4269   1.007   2.671  15.375  0.3637 -0.4654  0.4444
  283TMC3    C4 4270   1.160   2.450  15.435  0.2028  0.0881 -0.5834
  283TMC3    C5 4271   1.048   2.482  15.506 -0.6254 -0.9769  0.1157
  283TMC3    C6 4272   0.973   2.592  15.482 -0.2397  0.9456 -0.2314
  283TMC3     C 4273   1.271   2.472  15.228  0.4508  0.3618  0.3791
  283TMC3     O 4274   1.356   2.393  15.264 -0.1931  0.9220 -0.1001
  283TMC3     H 4275   1.150   2.708  15.217 -0.0036 -0.2901  0.2124
  283TMC3    H1 4276   1.221   2.365  15.460 -1.8697 -1.4206 -0.6069
  283TMC3    H2 4277   0.898   2.629  15.552 -1.0689  0.3161 -0.7793
  283TMC3    C7 4278   1.023   2.397  15.631 -0.5239  0.6503  0.3363
  283TMC3    C8 4279   0.940   2.804  15.376  0.2199  0.0383  0.4981
  283TMC3    O1 4280   0.938   2.437  15.708 -1.1305  0.1146 -0.2887
  283TMC3    O2 4281   0.851   2.826  15.464 -0.3846 -0.3380  0.1657
  284MPD2     C 4282   3.830   1.710  11.362 -0.4972 -0.4050 -0.1666
  284MPD2    C1 4283   3.954   1.677  11.421 -0.2315  0.9851  0.2339
  284MPD2    C2 4284   3.953   1.607  11.546  0.8653  0.7630  0.2165
  284MPD2    C3 4285   3.830   1.576  11.603 -0.0067  0.3980 -0.2646
  284MPD2    C4 4286   3.711   1.602  11.539  0.3156  0.0165 -0.3503
  284MPD2    C5 4287   3.713   1.660  11.412 -0.1493 -0.0769 -0.3944
  284MPD2     H 4288   4.047   1.569  11.582  1.1984  0.1600 -1.2995
  284MPD2    H1 4289   3.618   1.556  11.573 -0.2168  0.4425 -1.2198
  284MPD2    H2 4290   3.823   1.742  11.258  0.3029  2.4434  0.6776
  284MPD2    H3 4291   3.627   1.667  11.346 -1.1416 -0.4390  0.8457
  284MPD2     N 4292   3.841   1.517  11.726  0.9156  0.3461  0.2065
  284MPD2    H5 4293   3.935   1.507  11.764  0.3324 -1.0520  1.2683
  284MPD2    N1 4294   4.083   1.702  11.373 -0.3159 -0.0934 -0.4428
  284MPD2    H7 4295   4.161   1.662  11.424  1.4358  2.1247 -1.3469
  285TMC3    C1 4296   4.252   1.790  11.261  0.0779 -0.2245 -0.5951
  285TMC3    C2 4297   4.312   1.668  11.260  0.3862  0.1177  0.9596
  285TMC3    C3 4298   4.451   1.663  11.293  0.1722 -0.0688 -0.3856
  285TMC3    C4 4299   4.313   1.907  11.294 -0.6234 -0.0089 -0.2164
  285TMC3    C5 4300   4.444   1.900  11.323 -0.3161  0.4795 -0.1660
  285TMC3    C6 4301   4.518   1.786  11.312  0.6334  0.1303  0.0228
  285TMC3     C 4302   4.107   1.784  11.265  0.1278  0.2247 -0.0013
  285TMC3     O 4303   4.037   1.863  11.201 -0.3410  0.0499  0.4091
  285TMC3     H 4304   4.257   1.582  11.224  1.1954  0.1345 -0.3098
  285TMC3    H1 4305   4.248   1.992  11.309  0.4271  0.8940 -0.8630
  285TMC3    H2 4306   4.625   1.782  11.324  0.7500 -0.6329 -1.2872
  285TMC3    C7 4307   4.500   2.018  11.387  0.6484  0.2700 -0.8346
  285TMC3    C8 4308   4.525   1.539  11.278  0.0694 -0.6705  0.5590
  285TMC3    O1 4309   4.437   2.118  11.356 -0.8480 -0.2586  0.3443
  285TMC3    O2 4310   4.469   1.443  11.224 -0.1625 -0.3469  0.1071
  286MPD2     C 4311   3.953   0.583   2.162  0.3131  0.1851 -0.2658
  286MPD2    C1 4312   3.965   0.541   2.036  0.3341  0.8196  0.0642
  286MPD2    C2 4313   4.090   0.497   1.992  0.3154 -0.4685  0.4550
  286MPD2    C3 4314   4.198   0.500   2.077 -0.0846  0.2433 -0.3354
  286MPD2    C4 4315   4.188   0.549   2.201  0.1025  0.4035 -0.1964
  286MPD2    C5 4316   4.064   0.592   2.243 -0.1860 -0.3228  0.6446
  286MPD2     H 4317   4.106   0.451   1.895  0.3705 -0.0717  0.2728
  286MPD2    H1 4318   4.269   0.556   2.273  0.2956 -0.7478 -0.3073
  286MPD2    H2 4319   3.854   0.611   2.197  0.6763  2.0665 -0.7483
  286MPD2    H3 4320   4.062   0.597   2.352  1.1505  1.3952  0.5974
  286MPD2     N 4321   4.331   0.448   2.034  0.0317 -0.9539 -0.5135
  286MPD2    H5 4322   4.408   0.482   2.092 -1.4479  0.1753  0.7699
  286MPD2    N1 4323   3.870   0.555   1.938 -0.6167  0.3888  0.0858
  286MPD2    H7 4324   3.871   0.512   1.847  0.2932  0.7427 -0.0726
  287TMC3    C1 4325   4.490   0.335   1.894 -0.0640  0.2896  0.4039
  287TMC3    C2 4326   4.500   0.296   1.761 -0.5587  0.0900  0.3586
  287TMC3    C3 4327   4.621   0.308   1.701 -0.9501  0.3253  0.6274
  287TMC3    C4 4328   4.597   0.381   1.962 -0.0800 -0.3895  0.2246
  287TMC3    C5 4329   4.717   0.393   1.897  0.3777 -0.3773  0.4083
  287TMC3    C6 4330   0.011   0.346   1.767 -0.3266  0.5475 -0.3657
  287TMC3     C 4331   4.358   0.360   1.925 -0.2044  0.3351 -0.3722
  287TMC3     O 4332   4.275   0.299   1.867 -1.0199  0.0482  0.1682
  287TMC3     H 4333   4.411   0.280   1.701 -0.8260 -0.9030  1.0113
  287TMC3    H1 4334   4.589   0.414   2.065  0.3630  0.0568  0.1161
  287TMC3    H2 4335   0.112   0.359   1.731 -0.1484  3.3337  1.2080
  287TMC3    C7 4336   0.105   0.432   1.975  0.0401  0.7789 -0.5212
  287TMC3    C8 4337   4.626   0.278   1.559 -1.0664 -0.1303  0.5934
  287TMC3    O1 4338   0.088   0.526   2.052  0.0640 -0.1538 -0.7041
  287TMC3    O2 4339   4.524   0.248   1.496 -0.2540  0.3690 -0.1144
  288TMC3    C1 4340   1.936   0.282  14.461  0.1486  0.9017 -0.4896
  288TMC3    C2 4341   1.799   0.256  14.469 -0.0490 -0.1352 -0.5969
  288TMC3    C3 4342   1.711   0.323  14.385 -0.7160 -0.2528  0.7638
  288TMC3    C4 4343   1.982   0.379  14.375  0.1658 -0.3309 -0.3416
  288TMC3    C5 4344   1.893   0.452  14.296 -0.7728 -0.2328 -0.3702
  288TMC3    C6 4345   1.761   0.412  14.287  0.1792  0.1172  0.5614
  288TMC3     C 4346   2.022   0.218  14.558  0.0271 -0.3369 -0.8548
  288TMC3     O 4347   1.968   0.150  14.646  0.5706 -0.0305  0.2431
  288TMC3     H 4348   1.764   0.181  14.540  1.2139 -0.1485  0.0088
  288TMC3    H1 4349   2.083   0.419  14.385  0.0970  0.0957 -1.3372
  288TMC3    H2 4350   1.691   0.469  14.225 -2.0215 -3.6281 -0.3916
  288TMC3    C7 4351   1.912   0.595  14.314  0.3007  0.5953 -0.9942
  288TMC3    C8 4352   1.586   0.362  14.441  0.4495  0.2689  0.0431
  288TMC3    O1 4353   2.018   0.647  14.291  0.6068  0.0181  0.4806
  288TMC3    O2 4354   1.544   0.475  14.410 -0.2968  0.3083 -0.4506
  289MPD2     C 4355   1.723   4.355  14.016 -0.7086 -0.3197  0.1454
  289MPD2    C1 4356   1.695   4.479  14.063  0.5938  0.0140  0.1602
  289MPD2    C2 4357   1.562   4.514  14.069 -0.1424 -0.7799  0.0895
  289MPD2    C3 4358   1.455   4.422  14.036  0.3183 -0.4631  0.2060
  289MPD2    C4 4359   1.489   4.301  13.978 -0.4130  0.6576  0.4189
  289MPD2    C5 4360   1.627   4.272  13.976  0.1998  0.0278  0.2966
  289MPD2     H 4361   1.538   4.611  14.113  1.4608  0.4434 -1.7533
  289MPD2    H1 4362   1.417   4.228  13.946  0.6567  1.0138 -2.7969
  289MPD2    H2 4363   1.824   4.316  14.016 -0.4450  0.3625 -0.5995
  289MPD2    H3 4364   1.653   4.170  13.951  0.3274 -0.1315  1.0828
  289MPD2     N 4365   1.315   4.453  14.044  0.6714 -0.3333 -0.3992
  289MPD2    H5 4366   1.241   4.391  14.013  1.6599 -3.0435  2.6401
  289MPD2    N1 4367   1.802   4.560  14.111 -0.2018  0.3453 -0.4957
  289MPD2    H7 4368   1.897   4.527  14.116 -0.8886 -1.4809  0.3639
  290TMC3    C1 4369   1.127   4.601  14.031  0.5712  0.8315 -0.1674
  290TMC3    C2 4370   1.064   4.718  14.074 -0.4127  0.0244 -0.1442
  290TMC3    C3 4371   0.948   0.030  14.013 -0.2261 -0.6203  0.3616
  290TMC3    C4 4372   1.089   4.527  13.920  0.3752  0.4470 -0.4356
  290TMC3    C5 4373   0.966   4.572  13.865  0.7284 -0.0372 -0.3626
  290TMC3    C6 4374   0.902   4.681  13.908  0.5486 -0.2902  0.6874
  290TMC3     C 4375   1.265   4.580  14.073  0.5987  0.2992 -0.0819
  290TMC3     O 4376   1.318   4.673  14.133 -0.1801 -0.1648  0.0807
  290TMC3     H 4377   1.105   0.051  14.156  1.6467  2.4050 -2.8681
  290TMC3    H1 4378   1.156   4.456  13.872  2.0172  0.0553  2.4821
  290TMC3    H2 4379   0.809   4.702  13.857 -1.2233 -3.4248  2.7089
  290TMC3    C7 4380   0.905   4.480  13.764  0.0778  0.4882  0.2318
  290TMC3    C8 4381   0.873   0.159  14.039 -0.0703 -0.0381 -0.0614
  290TMC3    O1 4382   0.791   4.506  13.715 -0.2054  0.0278 -0.3771
  290TMC3    O2 4383   0.813   0.200  13.940  0.4436 -0.3711 -0.1223
  291MPD2     C 4384   0.882   4.290   0.754  0.5258  0.3984 -0.7665
  291MPD2    C1 4385   0.962   4.191   0.707 -0.1422  0.2636 -0.6511
  291MPD2    C2 4386   1.034   4.213   0.590 -0.3220 -0.1427 -0.6433
  291MPD2    C3 4387   1.040   4.332   0.526 -0.0782 -0.3190  0.1971
  291MPD2    C4 4388   0.957   4.436   0.578 -0.3500 -0.1012  0.6191
  291MPD2    C5 4389   0.881   4.411   0.687  0.2410  0.3963  0.3485
  291MPD2     H 4390   1.082   4.132   0.536  0.0392 -1.2994  1.4345
  291MPD2    H1 4391   0.951   4.537   0.537 -1.5495  0.1128  1.3222
  291MPD2    H2 4392   0.818   4.269   0.838  1.1133 -0.7283 -0.6093
  291MPD2    H3 4393   0.814   4.479   0.738 -0.7650 -0.9995  0.8849
  291MPD2     N 4394   1.113   4.353   0.403  0.3241 -0.0480  0.5987
  291MPD2    H5 4395   1.098   4.443   0.360  0.1333  0.0712  0.9171
  291MPD2    N1 4396   0.970   4.071   0.775 -0.7307 -0.2707  0.2093
  291MPD2    H7 4397   0.893   4.065   0.842  0.1757  1.3863  1.3994
  292TMC3    C1 4398   0.983   3.843   0.810  0.8490  0.0094  0.6833
  292TMC3    C2 4399   0.942   3.865   0.941  0.0918  0.4088 -0.0635
  292TMC3    C3 4400   0.840   3.786   0.980 -0.1984 -0.3141 -0.2661
  292TMC3    C4 4401   0.943   3.739   0.734 -0.4064 -0.0095 -0.3935
  292TMC3    C5 4402   0.849   3.654   0.778  0.2476  0.5493  0.6592
  292TMC3    C6 4403   0.796   3.675   0.905 -0.6417 -0.2511 -1.0278
  292TMC3     C 4404   1.035   3.956   0.736 -0.3258 -0.0434  0.1519
  292TMC3     O 4405   1.101   3.930   0.635  0.0415  0.0298  0.1637
  292TMC3     H 4406   0.980   3.946   1.003  3.0102 -2.4473  1.8470
  292TMC3    H1 4407   0.981   3.739   0.632 -0.5593  0.1504 -0.4508
  292TMC3    H2 4408   0.715   3.608   0.929 -2.2375  0.2567 -5.0223
  292TMC3    C7 4409   0.797   3.559   0.687 -0.0787  0.0577  0.3613
  292TMC3    C8 4410   0.740   3.845   1.067 -0.8214 -0.8178 -0.5757
  292TMC3    O1 4411   0.888   3.512   0.620 -0.4286 -0.2725  0.1498
  292TMC3    O2 4412   0.743   3.962   1.076 -0.0294 -0.0803 -0.2956
  293MPD2     C 4413   2.571   1.050  12.963  0.8245 -0.5585  0.0762
  293MPD2    C1 4414   2.576   0.915  13.003 -0.1726  0.8946 -0.5498
  293MPD2    C2 4415   2.575   0.888  13.136  0.0529 -0.2955 -0.4491
  293MPD2    C3 4416   2.581   0.989  13.230  0.1567 -0.0098 -0.2724
  293MPD2    C4 4417   2.580   1.120  13.188  0.0404  0.5120  0.0152
  293MPD2    C5 4418   2.568   1.150  13.053 -0.4860 -0.6684 -0.0987
  293MPD2     H 4419   2.581   0.787  13.176  0.4307 -0.0009  0.2400
  293MPD2    H1 4420   2.588   1.204  13.257  1.1053  0.8276 -0.4829
  293MPD2    H2 4421   2.571   1.075  12.858  0.9469 -0.1978  0.1625
  293MPD2    H3 4422   2.565   1.255  13.025 -0.3715 -0.3480  1.0942
  293MPD2     N 4423   2.620   0.974  13.370 -0.1631 -0.4454 -0.0454
  293MPD2    H5 4424   2.628   1.065  13.415 -0.3800 -0.5114  0.1283
  293MPD2    N1 4425   2.574   0.818  12.900 -0.6038  0.1549 -0.0185
  293MPD2    H7 4426   2.585   0.850  12.805 -2.4794 -0.1851 -0.3644
  294TMC3    C1 4427   2.528   0.628  12.786 -0.1983 -0.2703  0.0415
  294TMC3    C2 4428   2.404   0.570  12.770 -0.6687  0.0604 -0.1627
  294TMC3    C3 4429   2.367   0.545  12.639 -0.1512 -0.2209 -0.2383
  294TMC3    C4 4430   2.600   0.674  12.678 -0.0895  0.2202 -0.5866
  294TMC3    C5 4431   2.560   0.636  12.553 -0.6051 -0.0403  0.0362
  294TMC3    C6 4432   2.442   0.571  12.525 -0.4185  0.2763  0.4869
  294TMC3     C 4433   2.539   0.686  12.917  0.5221  0.3113 -0.0944
  294TMC3     O 4434   2.492   0.621  13.009 -0.4107  0.2437  0.1460
  294TMC3     H 4435   2.339   0.551  12.855  1.9203 -1.0125  1.5601
  294TMC3    H1 4436   2.695   0.725  12.687  1.3645 -2.0534 -2.9318
  294TMC3    H2 4437   2.424   0.532  12.425 -0.4954 -1.0706  1.0258
  294TMC3    C7 4438   2.674   0.631  12.463 -0.1766 -0.1309 -0.4048
  294TMC3    C8 4439   2.234   0.499  12.619 -0.2408 -0.1836 -0.2289
  294TMC3    O1 4440   2.785   0.675  12.496  0.2463  0.7789 -0.5889
  294TMC3    O2 4441   2.173   0.456  12.714 -0.3123  0.1993  0.0232
  295MPD2     C 4442   3.734   4.033   0.527 -0.7268 -0.3811 -0.2408
  295MPD2    C1 4443   3.594   4.032   0.539 -0.4707  0.0377  0.0866
  295MPD2    C2 4444   3.544   4.077   0.661 -0.3870  0.9538 -0.7220
  295MPD2    C3 4445   3.627   4.097   0.769  0.1799  0.4860  0.3713
  295MPD2    C4 4446   3.766   4.100   0.752 -0.0331 -0.2055  0.1291
  295MPD2    C5 4447   3.819   4.052   0.637 -0.6030 -0.0574  0.7145
  295MPD2     H 4448   3.436   4.084   0.675 -0.3026  1.5016 -0.3549
  295MPD2    H1 4449   3.832   4.122   0.836  0.8570 -1.7787 -0.1613
  295MPD2    H2 4450   3.788   4.004   0.437 -1.2085 -0.8618 -0.3746
  295MPD2    H3 4451   3.928   4.052   0.632 -0.6670 -0.5238 -0.7029
  295MPD2     N 4452   3.572   4.133   0.893 -0.2733 -0.0701 -0.5552
  295MPD2    H5 4453   3.632   4.174   0.964 -0.0382 -0.7551 -0.3522
  295MPD2    N1 4454   3.508   4.001   0.429  0.2981  0.9968  0.0572
  295MPD2    H7 4455   3.410   3.990   0.452  0.5903 -3.0198 -0.5110
  296TMC3    C1 4456   3.421   4.125   1.071  0.5253  0.2306  0.6735
  296TMC3    C2 4457   3.514   4.196   1.143 -0.3143 -0.4045 -0.4490
  296TMC3    C3 4458   3.471   4.240   1.269 -0.3817  0.0304 -0.1443
  296TMC3    C4 4459   3.296   4.105   1.118  0.2750  0.0295 -0.8676
  296TMC3    C5 4460   3.263   4.143   1.245  1.0437 -0.3559 -0.0181
  296TMC3    C6 4461   3.346   4.216   1.321 -0.1603 -0.3384 -0.2808
  296TMC3     C 4462   3.457   4.074   0.940 -0.2631  0.5681 -0.5903
  296TMC3     O 4463   3.389   3.994   0.881 -0.5904 -0.2211 -0.1442
  296TMC3     H 4464   3.615   4.217   1.112 -0.0347 -2.9805 -1.1880
  296TMC3    H1 4465   3.225   4.051   1.057 -0.8674  0.4587  0.0717
  296TMC3    H2 4466   3.323   4.252   1.421  2.4446 -0.6742  0.4187
  296TMC3    C7 4467   3.150   4.087   1.312  0.7278  0.1781  0.0497
  296TMC3    C8 4468   3.570   4.263   1.374 -0.2880  0.4189  0.4332
  296TMC3    O1 4469   3.105   4.141   1.410 -0.3064 -0.2732 -0.1526
  296TMC3    O2 4470   3.679   4.225   1.340  0.2142 -0.0528 -0.0280
  297MPD2     C 4471   0.716   1.053  16.437  0.0899 -1.1178 -0.3596
  297MPD2    C1 4472   0.662   1.107  16.321  0.3798 -0.3040 -0.0284
  297MPD2    C2 4473   0.681   1.247  16.302 -0.4253 -0.0715 -0.0790
  297MPD2    C3 4474   0.744   1.327  16.394  0.7233  0.4597  1.0669
  297MPD2    C4 4475   0.792   1.274  16.512  0.3704 -0.1317 -0.2962
  297MPD2    C5 4476   0.787   1.136  16.524  0.7676  0.9129 -0.1703
  297MPD2     H 4477   0.645   1.288  16.208 -1.2767  0.6994  0.5797
  297MPD2    H1 4478   0.854   1.329  16.582  1.2100  0.1898 -1.2793
  297MPD2    H2 4479   0.722   0.945  16.446  1.2362 -0.9797  0.5478
  297MPD2    H3 4480   0.833   1.080  16.605 -3.2237 -3.7201 -1.1462
  297MPD2     N 4481   0.756   1.460  16.357 -0.0253  0.2742  0.1967
  297MPD2    H5 4482   0.731   1.485  16.262  0.7353  2.1454  0.4892
  297MPD2    N1 4483   0.584   1.033  16.232 -0.2154 -0.3358  0.2006
  297MPD2    H7 4484   0.558   1.082  16.147  1.1231  0.5680  0.3090
  298TMC3    C1 4485   0.444   0.854  16.148  0.4678  0.3878 -0.2879
  298TMC3    C2 4486   0.418   0.922  16.031 -0.4134  0.6854 -0.2780
  298TMC3    C3 4487   0.316   0.880  15.954 -0.0769 -0.2144 -0.3246
  298TMC3    C4 4488   0.360   0.747  16.183 -0.6748 -0.2634  0.1553
  298TMC3    C5 4489   0.246   0.723  16.112 -0.2439  0.0717 -0.3790
  298TMC3    C6 4490   0.228   0.780  15.988  0.4455  0.7702 -0.0195
  298TMC3     C 4491   0.523   0.909  16.255 -0.3770 -0.8704 -0.1185
  298TMC3     O 4492   0.552   0.829  16.347 -0.5307 -0.1275 -0.1211
  298TMC3     H 4493   0.477   1.009  16.008 -0.0032  0.3000 -0.6910
  298TMC3    H1 4494   0.374   0.697  16.278  2.8206 -1.4268 -0.9559
  298TMC3    H2 4495   0.158   0.735  15.919 -0.2734  2.3492 -0.3211
  298TMC3    C7 4496   0.131   0.717  16.199  0.1919 -1.2205  1.2956
  298TMC3    C8 4497   0.252   0.986  15.883  0.5916 -0.2238 -0.3092
  298TMC3    O1 4498   0.151   0.764  16.311 -0.0565  0.0955 -0.4790
  298TMC3    O2 4499   0.318   1.071  15.830  0.6685  0.7240  0.0282
  299MPD2     C 4500   1.092   0.361  11.081 -0.9927 -1.0620 -0.1941
  299MPD2    C1 4501   1.088   0.497  11.043  0.6296 -1.0921  0.3302
  299MPD2    C2 4502   1.040   0.544  10.918  0.1393 -0.3870 -0.1886
  299MPD2    C3 4503   0.989   0.445  10.834  0.0395 -0.0235 -0.4110
  299MPD2    C4 4504   0.984   0.317  10.874 -0.4795  0.3551  0.2026
  299MPD2    C5 4505   1.028   0.272  10.996  0.0412 -0.2837 -0.1641
  299MPD2     H 4506   1.047   0.646  10.883  0.1324  0.4941  2.4014
  299MPD2    H1 4507   0.939   0.246  10.805 -0.6474 -1.3914  2.1212
  299MPD2    H2 4508   1.144   0.315  11.165 -0.8192  0.3342  0.4564
  299MPD2    H3 4509   1.006   0.171  11.026 -2.7516  0.0358 -1.0866
  299MPD2     N 4510   0.951   0.475  10.703 -0.3059  0.2581  0.5154
  299MPD2    H5 4511   0.928   0.400  10.639 -0.6477 -0.2360  1.2113
  299MPD2    N1 4512   1.159   0.582  11.133  0.2622 -0.5994 -0.2511
  299MPD2    H7 4513   1.174   0.544  11.226 -0.4914  0.1333  0.1732
  300TMC3    C1 4514   0.846   0.590  10.531 -0.5316 -0.0834  0.3164
  300TMC3    C2 4515   0.814   0.711  10.478  0.0724  0.4702 -0.5196
  300TMC3    C3 4516   0.693   0.730  10.416  0.3021 -0.5809  0.2289
  300TMC3    C4 4517   0.758   0.486  10.521 -0.3345 -0.1130 -0.6317
  300TMC3    C5 4518   0.638   0.517  10.462  0.1078  0.2857  0.1074
  300TMC3    C6 4519   0.591   0.633  10.419  1.0116 -0.0267 -0.2926
  300TMC3     C 4520   0.926   0.594  10.653  0.1691  0.0923 -0.3622
  300TMC3     O 4521   0.943   0.704  10.698 -0.2760 -0.5486  0.6168
  300TMC3     H 4522   0.890   0.788  10.477  0.0752  0.4797  0.5091
  300TMC3    H1 4523   0.769   0.397  10.582  1.6123 -0.2835 -1.2093
  300TMC3    H2 4524   0.495   0.643  10.369  0.5642  0.9685  0.7758
  300TMC3    C7 4525   0.527   0.430  10.502 -0.2455 -0.0912  0.1954
  300TMC3    C8 4526   0.655   0.868  10.405 -0.0630 -0.1100  0.1844
  300TMC3    O1 4527   0.538   0.313  10.481  0.4011 -0.3008  0.0256
  300TMC3    O2 4528   0.738   0.957  10.403  0.1896 -0.3570 -0.5955
  301MPD2     C 4529   2.822   2.394   0.934  0.4713  0.5288 -0.3672
  301MPD2    C1 4530   2.747   2.466   1.015  0.1685 -0.1561  0.6416
  301MPD2    C2 4531   2.638   2.407   1.078  0.5329  0.1981 -0.1025
  301MPD2    C3 4532   2.609   2.275   1.066 -0.0981 -0.6039  0.3186
  301MPD2    C4 4533   2.680   2.201   0.973 -0.7962 -0.4684 -0.1295
  301MPD2    C5 4534   2.796   2.259   0.919 -0.6378 -0.3117  0.3210
  301MPD2     H 4535   2.578   2.475   1.138  0.1288  1.0729 -1.4887
  301MPD2    H1 4536   2.658   2.095   0.958 -3.3903  0.2214 -1.1774
  301MPD2    H2 4537   2.902   2.432   0.872  2.6574  0.0541  2.1227
  301MPD2    H3 4538   2.865   2.208   0.853  0.3072 -0.9862  1.8350
  301MPD2     N 4539   2.511   2.206   1.137 -0.6209  0.6816 -0.0395
  301MPD2    H5 4540   2.495   2.106   1.122  0.4463  0.1456  2.3214
  301MPD2    N1 4541   2.765   2.611   1.039 -0.0836 -0.1198  0.4567
  301MPD2    H7 4542   2.686   2.662   1.077  1.1500  2.6600 -0.7418
  302TMC3    C1 4543   2.361   2.162   1.313  0.4309  0.2680  0.4013
  302TMC3    C2 4544   2.354   2.028   1.272  0.3005 -0.0847  0.3131
  302TMC3    C3 4545   2.284   1.939   1.342  0.1940  0.0832 -0.2386
  302TMC3    C4 4546   2.293   2.204   1.426 -0.1805 -0.5234  0.7041
  302TMC3    C5 4547   2.234   2.107   1.502  0.0529 -0.0468  0.9969
  302TMC3    C6 4548   2.218   1.979   1.456  0.1007 -0.5696 -0.2734
  302TMC3     C 4549   2.428   2.259   1.232  0.0642  0.4174 -0.1531
  302TMC3     O 4550   2.414   2.375   1.270 -0.0085  0.1615  0.4004
  302TMC3     H 4551   2.396   1.997   1.177 -0.6790 -2.9121  0.8123
  302TMC3    H1 4552   2.301   2.308   1.456  2.8469 -1.0544  1.7645
  302TMC3    H2 4553   2.163   1.904   1.513 -0.6896  0.9852  0.9923
  302TMC3    C7 4554   2.167   2.145   1.623 -0.5233 -0.0993  0.0053
  302TMC3    C8 4555   2.344   1.808   1.355 -0.1052 -0.0904 -0.4875
  302TMC3    O1 4556   2.173   2.082   1.728 -0.4541  0.3324 -0.2062
  302TMC3    O2 4557   2.468   1.800   1.371  0.1792 -0.3724  0.1322
  303MPD2     C 4558   3.120   0.598  10.657  0.0502  0.5497 -0.7332
  303MPD2    C1 4559   3.014   0.568  10.582 -0.1395  0.4801 -0.2417
  303MPD2    C2 4560   3.029   0.548  10.442  0.0001 -0.9180  0.0526
  303MPD2    C3 4561   3.158   0.548  10.389  0.3833 -0.0192  0.0847
  303MPD2    C4 4562   3.257   0.602  10.469 -0.0950  0.3657  0.8407
  303MPD2    C5 4563   3.238   0.618  10.597  0.1650 -0.3750  0.1540
  303MPD2     H 4564   2.948   0.540  10.370 -0.3805 -0.9714  0.4920
  303MPD2    H1 4565   3.363   0.604  10.442 -0.3159  2.1605  0.1259
  303MPD2    H2 4566   3.102   0.609  10.763  1.0598  2.5852 -0.7847
  303MPD2    H3 4567   3.324   0.636  10.661 -1.5551 -3.7891  3.4776
  303MPD2     N 4568   3.192   0.516  10.256 -0.3065  0.3960  0.1848
  303MPD2    H5 4569   3.288   0.536  10.233 -0.3234 -0.4208 -0.5972
  303MPD2    N1 4570   2.888   0.560  10.644 -0.0874  0.1398 -0.7795
  303MPD2    H7 4571   2.888   0.575  10.744 -2.3027 -1.8701 -0.4856
  304TMC3    C1 4572   2.657   0.509  10.653 -0.2459  0.8125  0.8798
  304TMC3    C2 4573   2.531   0.543  10.607  0.7812 -0.3698  0.5827
  304TMC3    C3 4574   2.432   0.479  10.674  0.2695  0.2513 -0.0500
  304TMC3    C4 4575   2.678   0.450  10.780 -0.2152 -0.4192  0.0809
  304TMC3    C5 4576   2.572   0.400  10.843  0.7264 -0.2452  0.0905
  304TMC3    C6 4577   2.445   0.420  10.796  0.0188 -0.1968 -0.2134
  304TMC3     C 4578   2.765   0.547  10.573 -0.6848  0.1309  0.0377
  304TMC3     O 4579   2.739   0.550  10.451 -0.1913 -0.3465 -0.0314
  304TMC3     H 4580   2.526   0.616  10.527 -0.0479  0.2982  1.2475
  304TMC3    H1 4581   2.778   0.417  10.808  0.0051  1.1310  1.1501
  304TMC3    H2 4582   2.357   0.381  10.846 -0.0330  0.6185  0.3281
  304TMC3    C7 4583   2.587   0.271  10.911 -0.2772 -0.0975 -0.3522
  304TMC3    C8 4584   2.388   0.380  10.589 -0.2695  0.2646 -0.0374
  304TMC3    O1 4585   2.687   0.260  10.977  0.5486  0.0405  0.1653
  304TMC3    O2 4586   2.364   0.271  10.638 -0.0457  0.8264  0.1190
  305MPD2     C 4587   1.146   2.897  14.298  0.1808 -0.6740  0.0759
  305MPD2    C1 4588   1.261   2.819  14.318 -0.1531  0.2754  0.0624
  305MPD2    C2 4589   1.307   2.748  14.210  0.3336  0.6698  0.2352
  305MPD2    C3 4590   1.236   2.741  14.090 -0.0882 -0.7731 -0.1010
  305MPD2    C4 4591   1.117   2.800  14.081  0.0191  0.9794 -0.0712
  305MPD2    C5 4592   1.073   2.881  14.182 -0.7271 -0.4402 -0.3610
  305MPD2     H 4593   1.407   2.706  14.214  0.1938  0.1886 -1.3205
  305MPD2    H1 4594   1.067   2.802  13.985  0.2521 -2.3175 -0.2424
  305MPD2    H2 4595   1.106   2.959  14.378 -0.9255  0.5473 -1.4135
  305MPD2    H3 4596   0.990   2.948  14.160 -1.9673 -1.2307  1.9254
  305MPD2     N 4597   1.283   2.680  13.969  0.0069 -0.2496 -0.0214
  305MPD2    H5 4598   1.211   2.671  13.898 -1.4944 -1.7068  1.6880
  305MPD2    N1 4599   1.318   2.827  14.453 -0.2994 -0.3257  1.1779
  305MPD2    H7 4600   1.280   2.894  14.518  0.9908  1.9452 -0.3937
  306TMC3    C1 4601   1.476   2.792  14.611 -0.6146 -0.1437  0.0506
  306TMC3    C2 4602   1.529   2.686  14.687 -0.3995 -0.3258  0.7321
  306TMC3    C3 4603   1.566   2.716  14.815 -0.4385 -0.3213  0.0815
  306TMC3    C4 4604   1.466   2.916  14.658 -0.3652 -0.2469 -0.3970
  306TMC3    C5 4605   1.527   2.945  14.777 -0.9738 -0.6590  0.0108
  306TMC3    C6 4606   1.572   2.849  14.860 -0.2358 -0.1279  0.6416
  306TMC3     C 4607   1.436   2.761  14.478  0.9226  0.2007  0.2968
  306TMC3     O 4608   1.501   2.677  14.414  0.0874 -0.2628  0.0624
  306TMC3     H 4609   1.535   2.584  14.650  0.6361 -0.6370  1.7719
  306TMC3    H1 4610   1.440   2.998  14.592  0.2692  0.1215 -0.1909
  306TMC3    H2 4611   1.592   2.876  14.963 -1.2612  1.7437  0.3572
  306TMC3    C7 4612   1.502   3.076  14.829 -0.0820  0.1584  0.2266
  306TMC3    C8 4613   1.625   2.616  14.900 -0.4429  0.3076 -0.5750
  306TMC3    O1 4614   1.393   3.108  14.791  0.2194  0.4719 -0.4229
  306TMC3    O2 4615   1.704   2.541  14.842  0.4870 -0.2573 -0.5142
  307MPD2     C 4616   4.254   0.251   0.538  0.0917  0.6393  0.0764
  307MPD2    C1 4617   4.162   0.210   0.449  0.2365  0.3546  0.1239
  307MPD2    C2 4618   4.036   0.272   0.448  0.1902 -0.4255 -0.1047
  307MPD2    C3 4619   3.996   0.350   0.555  0.4323  0.2690 -0.9601
  307MPD2    C4 4620   4.089   0.380   0.650 -0.2461 -0.2656 -0.3328
  307MPD2    C5 4621   4.214   0.332   0.640 -0.2777  0.2294  0.5047
  307MPD2     H 4622   3.963   0.248   0.372 -0.7120 -1.4727  1.0904
  307MPD2    H1 4623   4.077   0.458   0.725 -1.0100 -0.7723  0.0740
  307MPD2    H2 4624   4.352   0.207   0.554 -0.2525 -1.0634 -2.6062
  307MPD2    H3 4625   4.283   0.367   0.715 -0.5440 -1.7290  1.6649
  307MPD2     N 4626   3.865   0.402   0.557  0.1199  0.5138  0.4148
  307MPD2    H5 4627   3.808   0.373   0.479  0.6059  1.1953 -0.1901
  307MPD2    N1 4628   4.189   0.111   0.353 -0.0901  0.7126  0.1680
  307MPD2    H7 4629   4.113   0.059   0.311 -0.2485  0.2775  0.9965
  308TMC3    C1 4630   3.455   0.541   0.741  0.3104 -0.0601  0.4861
  308TMC3    C2 4631   3.402   0.579   0.616  0.1456  0.0435  1.2504
  308TMC3    C3 4632   3.495   0.566   0.515  0.1989  0.0140 -0.2157
  308TMC3    C4 4633   3.575   0.487   0.755  0.6147 -0.3951  0.3051
  308TMC3    C5 4634   3.656   0.474   0.648  0.3148 -0.6486  0.1446
  308TMC3    C6 4635   3.618   0.516   0.524  0.0968 -0.3070  0.1033
  308TMC3     C 4636   3.382   0.573   0.860 -0.0006  0.5577 -0.1788
  308TMC3     O 4637   3.416   0.519   0.971 -0.1240  0.5081  0.2255
  308TMC3     H 4638   3.299   0.612   0.604  0.3828  0.2464 -0.1977
  308TMC3    H1 4639   3.621   0.485   0.853  1.4649  0.2578 -0.0786
  308TMC3    H2 4640   3.685   0.519   0.439  0.0175 -0.3153  0.0405
  308TMC3    C7 4641   3.800   0.446   0.673  0.2570 -0.0126  0.1700
  308TMC3    C8 4642   3.449   0.621   0.390 -0.0088  0.4943 -0.5166
  308TMC3    O1 4643   3.843   0.461   0.784 -0.8883 -0.3781 -0.2419
  308TMC3    O2 4644   3.347   0.689   0.392 -0.1154  0.3914  0.1137
  309MPD2     C 4645   3.319   0.727  17.038 -0.1588 -0.2872  0.9254
  309MPD2    C1 4646   3.206   0.746  16.955 -0.0148  0.0016 -0.4660
  309MPD2    C2 4647   3.085   0.777  17.013 -0.1908 -0.0108  0.0239
  309MPD2    C3 4648   3.082   0.802  17.152  0.1877 -0.5234 -0.6757
  309MPD2    C4 4649   3.187   0.782  17.237 -0.2379 -0.0226 -0.0634
  309MPD2    C5 4650   3.300   0.735  17.172  0.4285 -0.2935 -0.0134
  309MPD2     H 4651   2.994   0.774  16.953 -0.1704 -1.0916  0.0607
  309MPD2    H1 4652   3.193   0.793  17.345  0.5096 -0.5621 -0.0483
  309MPD2    H2 4653   3.418   0.701  17.001 -1.3143 -0.3499 -2.1509
  309MPD2    H3 4654   3.387   0.715  17.233  0.3186  0.9640  0.5422
  309MPD2     N 4655   2.953   0.835  17.204 -0.7331 -0.6279  0.1130
  309MPD2    H5 4656   2.875   0.851  17.141  0.0234 -0.2080 -0.7316
  309MPD2    N1 4657   3.214   0.719  16.815  0.4709 -0.3650 -0.1207
  309MPD2    H7 4658   3.130   0.731  16.760  0.3448 -2.5962 -0.4058
  310TMC3    C1 4659   3.328   0.732  16.598 -0.0806 -0.0831  0.1998
  310TMC3    C2 4660   3.247   0.833  16.541  0.0291  0.1510  0.2138
  310TMC3    C3 4661   3.260   0.851  16.404  0.5023  0.6100  0.6661
  310TMC3    C4 4662   3.415   0.663  16.522  0.2595  0.7011  0.6656
  310TMC3    C5 4663   3.444   0.713  16.395 -0.3005 -0.8324  0.4182
  310TMC3    C6 4664   3.359   0.798  16.336 -0.0523  0.2357 -0.3880
  310TMC3     C 4665   3.322   0.686  16.743  0.2129 -0.5756  0.8584
  310TMC3     O 4666   3.419   0.625  16.780  0.1985 -0.1111 -0.5968
  310TMC3     H 4667   3.190   0.890  16.612  0.2647 -1.7224  1.9149
  310TMC3    H1 4668   3.471   0.577  16.556 -0.9216  0.5298  2.1277
  310TMC3    H2 4669   3.359   0.811  16.228 -0.8220  0.2601 -0.3898
  310TMC3    C7 4670   3.534   0.631  16.316  0.1393  0.1965  0.1431
  310TMC3    C8 4671   3.152   0.911  16.336  0.1763 -0.2803  0.2276
  310TMC3    O1 4672   3.518   0.514  16.337  0.1823  0.1926  0.3641
  310TMC3    O2 4673   3.164   0.930  16.220  0.5599  0.2248 -0.1461
  311MPD2     C 4674   0.247   2.251  13.082 -0.2444 -0.4241  0.5655
  311MPD2    C1 4675   0.218   2.361  13.162  0.0931  0.1173  0.2239
  311MPD2    C2 4676   0.086   2.392  13.174  0.2234 -0.2984 -0.0383
  311MPD2    C3 4677   4.711   2.320  13.116 -0.3678  0.5804  0.4994
  311MPD2    C4 4678   0.011   2.216  13.040  0.0240 -0.1778 -0.0963
  311MPD2    C5 4679   0.144   2.181  13.023  0.2248 -0.4403  0.2932
  311MPD2     H 4680   0.056   2.473  13.238  1.4582  0.6962 -0.7173
  311MPD2    H1 4681   4.661   2.157  12.987 -0.5440 -0.7147  1.2920
  311MPD2    H2 4682   0.348   2.212  13.079  0.2571  0.8794  0.9181
  311MPD2    H3 4683   0.174   2.100  12.957  0.0358  0.3872 -0.8154
  311MPD2     N 4684   4.581   2.359  13.149  0.1819 -0.0187  0.0358
  311MPD2    H5 4685   4.570   2.431  13.219 -0.2787  0.4229 -0.4973
  311MPD2    N1 4686   0.322   2.439  13.212 -0.6672  0.5649 -0.1528
  311MPD2    H7 4687   0.296   2.533  13.239 -0.4615  0.1823  1.3618
  312TMC3    C1 4688   4.352   2.366  13.167  0.7883  0.1430 -0.0656
  312TMC3    C2 4689   4.229   2.362  13.110 -0.5088  0.1481  0.6876
  312TMC3    C3 4690   4.114   2.356  13.192 -0.0154  0.3007  0.2365
  312TMC3    C4 4691   4.366   2.371  13.303 -0.4254  0.1579 -0.2319
  312TMC3    C5 4692   4.256   2.344  13.380 -0.1757 -0.7722 -0.2837
  312TMC3    C6 4693   4.128   2.345  13.330 -0.2143  0.3771 -0.5297
  312TMC3     C 4694   4.467   2.309  13.101 -0.0370  0.2852  0.0587
  312TMC3     O 4695   4.441   2.229  13.011 -0.2834 -0.4053  0.2943
  312TMC3     H 4696   4.218   2.355  13.002 -1.1223 -1.4478  0.8557
  312TMC3    H1 4697   4.459   2.390  13.355 -0.3187  0.2823 -0.4654
  312TMC3    H2 4698   4.040   2.325  13.390  0.8836 -0.7992  0.6940
  312TMC3    C7 4699   4.284   2.351  13.523  0.6059  0.0962 -0.1080
  312TMC3    C8 4700   3.985   2.323  13.129  0.1609  0.2670 -0.0502
  312TMC3    O1 4701   4.399   2.335  13.559 -0.4252  0.2474 -0.1454
  312TMC3    O2 4702   3.933   2.215  13.155 -0.4725 -0.3918 -0.0037
  313MPD2     C 4703   0.097   0.910  10.713  0.1328  0.8084  0.8025
  313MPD2    C1 4704   4.699   0.944  10.749  0.7421 -0.2381  0.6996
  313MPD2    C2 4705   4.582   0.886  10.693 -0.3576  0.4509  0.5960
  313MPD2    C3 4706   4.602   0.799  10.590  0.6975 -0.1948  0.1168
  313MPD2    C4 4707   0.007   0.754  10.558 -0.3578 -0.6588 -0.3970
  313MPD2    C5 4708   0.111   0.807  10.624 -0.0830 -0.4815 -0.3595
  313MPD2     H 4709   4.482   0.916  10.724 -1.0049 -2.0882  0.9558
  313MPD2    H1 4710   0.025   0.674  10.488 -0.7183  0.0702 -1.3210
  313MPD2    H2 4711   0.189   0.957  10.746  0.3490 -1.5861  3.5869
  313MPD2    H3 4712   0.213   0.782  10.598  0.5107  2.8098 -1.1818
  313MPD2     N 4713   4.492   0.761  10.528  0.6893  0.5503  0.6854
  313MPD2    H5 4714   4.401   0.778  10.569  0.9213 -1.5180  2.0334
  313MPD2    N1 4715   4.676   1.042  10.847 -0.2486  0.0711 -0.6870
  313MPD2    H7 4716   4.584   1.075  10.873  0.3822  0.7916  0.6437
  314TMC3    C1 4717   0.003   1.257  10.950 -0.4934  0.7132 -0.6590
  314TMC3    C2 4718   0.098   1.351  10.979  0.1805 -0.3356 -0.5761
  314TMC3    C3 4719   0.065   1.481  10.987  0.0030  1.0456 -0.9048
  314TMC3    C4 4720   4.599   1.303  10.924  0.7843  0.2052 -0.6020
  314TMC3    C5 4721   4.575   1.437  10.905  0.5939  0.0951  0.3736
  314TMC3    C6 4722   4.667   1.524  10.938  0.1591  0.3548  0.9662
  314TMC3     C 4723   0.049   1.127  10.901  0.7985  0.4431  0.5311
  314TMC3     O 4724   0.164   1.092  10.918  0.1694 -0.5005 -0.2253
  314TMC3     H 4725   0.190   1.312  11.021 -1.2011 -2.2197  0.6768
  314TMC3    H1 4726   4.524   1.237  10.882 -0.7182  1.5288 -0.0336
  314TMC3    H2 4727   4.638   1.629  10.937 -0.5666  0.1592  1.1100
  314TMC3    C7 4728   4.461   1.486  10.814  0.8188  0.2690  0.7732
  314TMC3    C8 4729   0.149   1.584  11.048  0.0611  0.5786 -0.0421
  314TMC3    O1 4730   4.360   1.419  10.822 -0.3195 -0.6464  0.1078
  314TMC3    O2 4731   0.092   1.681  11.095  0.3508 -0.3028  0.0655
  315MPD2     C 4732   3.861   0.927  17.673 -0.3880  0.5794 -0.4566
  315MPD2    C1 4733   3.986   0.901   0.016  0.6324  0.2744 -0.0742
  315MPD2    C2 4734   4.094   0.970  17.667 -0.4114  0.1277 -1.0290
  315MPD2    C3 4735   4.069   1.071  17.573 -0.1023  0.6401 -0.3284
  315MPD2    C4 4736   3.938   1.100  17.540  0.2023  0.4505 -0.1157
  315MPD2    C5 4737   3.836   1.029  17.590 -0.4753  0.3300  0.4842
  315MPD2     H 4738   4.195   0.949   0.003 -0.8541 -0.9498 -0.3833
  315MPD2    H1 4739   3.917   1.182  17.472 -0.3345  1.6073  1.4687
  315MPD2    H2 4740   3.772   0.885   0.021 -1.0264  3.2458  0.7719
  315MPD2    H3 4741   3.733   1.051  17.563 -0.3634  0.2729  0.0022
  315MPD2     N 4742   4.186   1.140  17.529  0.2338  0.5746 -0.3692
  315MPD2    H5 4743   4.271   1.115  17.578 -0.8230  1.0426  1.7161
  315MPD2    N1 4744   4.013   0.819   0.123  0.0036 -0.2797  0.0682
  315MPD2    H7 4745   4.108   0.810   0.156  0.6396 -0.8544 -1.9200
  316TMC3    C1 4746   4.301   1.338  17.484  0.2114 -0.2449 -0.3786
  316TMC3    C2 4747   4.300   1.373  17.612 -0.4650  0.3226 -0.4991
  316TMC3    C3 4748   4.375   1.486  17.646 -0.5366 -0.1943 -0.2433
  316TMC3    C4 4749   4.368   1.415  17.389  0.6878  0.3150 -0.5065
  316TMC3    C5 4750   4.436   1.528  17.431 -1.1802  0.3770  0.3812
  316TMC3    C6 4751   4.442   1.565  17.560 -0.3076 -0.1527  0.0325
  316TMC3     C 4752   4.199   1.241  17.439 -0.1575 -0.0611 -0.2003
  316TMC3     O 4753   4.122   1.286  17.354  0.2846  0.0008  0.4863
  316TMC3     H 4754   4.256   1.312  17.690 -3.2512 -0.1818 -2.4398
  316TMC3    H1 4755   4.366   1.384  17.285 -1.3670  2.1372 -1.0150
  316TMC3    H2 4756   4.480   1.661  17.593 -2.7274  0.2549  1.6495
  316TMC3    C7 4757   4.515   1.601  17.337  0.0088 -0.1018  0.3367
  316TMC3    C8 4758   4.380   1.524   0.090  0.6546  0.0267 -0.2523
  316TMC3    O1 4759   4.605   1.665  17.389 -0.1875  0.3361 -0.1079
  316TMC3    O2 4760   4.286   1.470   0.156  0.2890 -0.1496  0.0171
  317MPD2     C 4761   1.414   4.708  12.812 -0.2399  0.3062  0.8028
  317MPD2    C1 4762   1.456   4.600  12.733 -0.1337 -0.2024 -1.0155
  317MPD2    C2 4763   1.518   4.494  12.791 -0.2933 -0.5533  0.9255
  317MPD2    C3 4764   1.534   4.484  12.925 -0.2539  0.2567  0.8083
  317MPD2    C4 4765   1.480   4.587  13.001  0.2964 -0.5146 -0.4134
  317MPD2    C5 4766   1.417   4.698  12.949  0.3424 -0.6929 -0.5359
  317MPD2     H 4767   1.543   4.404  12.735 -0.1607  1.0529 -1.5865
  317MPD2    H1 4768   1.491   4.585  13.109 -1.4549 -0.6676 -0.2282
  317MPD2    H2 4769   1.355   0.067  12.774  1.5450  2.1529  2.0465
  317MPD2    H3 4770   1.374   0.043  13.020  0.1904 -2.4350  1.0453
  317MPD2     N 4771   1.582   4.360  12.973  0.1942  0.5322 -1.0119
  317MPD2    H5 4772   1.629   4.299  12.906 -0.4212  0.7867 -1.6856
  317MPD2    N1 4773   1.443   4.599  12.587 -0.3308 -0.2422  0.1074
  317MPD2    H7 4774   1.476   4.515  12.540 -2.3753 -0.8126 -0.3074
  318TMC3    C1 4775   1.656   4.192  13.116 -0.4709  0.1629 -0.1574
  318TMC3    C2 4776   1.593   4.090  13.180  0.4193  0.1480 -0.1292
  318TMC3    C3 4777   1.657   3.972  13.189  0.0189 -0.2572 -0.5238
  318TMC3    C4 4778   1.774   4.176  13.049 -0.2315  0.0928  0.6717
  318TMC3    C5 4779   1.846   4.064  13.088 -0.0832 -0.6268  0.2049
  318TMC3    C6 4780   1.783   3.957  13.148  0.3087 -0.5933 -0.0797
  318TMC3     C 4781   1.583   4.319  13.106 -0.1024 -0.2931  0.1045
  318TMC3     O 4782   1.530   4.366  13.207  0.5857 -0.3600  0.1159
  318TMC3     H 4783   1.501   4.119  13.230  1.4989 -2.9762  3.6876
  318TMC3    H1 4784   1.823   4.257  12.995 -0.8894 -0.2932 -0.4958
  318TMC3    H2 4785   1.840   3.865  13.145  0.3465 -0.5007 -2.2194
  318TMC3    C7 4786   1.985   4.066  13.037  0.1321 -0.0186  0.2052
  318TMC3    C8 4787   1.576   3.846  13.188 -0.0112  0.0034 -0.2959
  318TMC3    O1 4788   2.009   4.155  12.958 -0.2228  0.3484  0.1912
  318TMC3    O2 4789   1.638   3.743  13.197 -0.3007 -0.6264 -0.0686
  319MPD2     C 4790   2.449   0.856  16.906 -0.3363  0.0685  0.1669
  319MPD2    C1 4791   2.388   0.751  16.967 -0.2964 -0.1847 -0.5863
  319MPD2    C2 4792   2.273   0.697  16.910  0.5718  0.3489  0.7013
  319MPD2    C3 4793   2.222   0.751  16.795  0.2119  0.2390 -0.0711
  319MPD2    C4 4794   2.285   0.856  16.732  0.4419  0.5016 -0.1305
  319MPD2    C5 4795   2.393   0.906  16.792 -0.0948 -0.5439 -0.0685
  319MPD2     H 4796   2.232   0.603  16.946 -1.9583  0.8419 -0.9495
  319MPD2    H1 4797   2.249   0.911  16.645  0.3305 -0.4369 -0.6809
  319MPD2    H2 4798   2.542   0.901  16.939 -0.2090  0.3737 -0.5895
  319MPD2    H3 4799   2.447   0.983  16.739 -2.1004 -0.1077 -1.4938
  319MPD2     N 4800   2.090   0.721  16.753 -0.0923  0.2783  0.1074
  319MPD2    H5 4801   2.055   0.776  16.675 -1.0395  0.6501  0.7942
  319MPD2    N1 4802   2.442   0.671  17.075  0.2556  0.2261 -0.4779
  319MPD2    H7 4803   2.387   0.602  17.125  1.0812 -1.6790 -2.2241
  320TMC3    C1 4804   1.881   0.618  16.719  1.2282  0.5437  0.0513
  320TMC3    C2 4805   1.870   0.707  16.623  0.9962 -0.2029 -0.3343
  320TMC3    C3 4806   1.826   0.666  16.498 -0.2749  0.6270  0.1773
  320TMC3    C4 4807   1.831   0.495  16.693  0.3184 -0.1394 -0.3631
  320TMC3    C5 4808   1.780   0.456  16.570  0.1982  0.5216 -0.5751
  320TMC3    C6 4809   1.787   0.542  16.468  0.0609 -0.3854 -0.2053
  320TMC3     C 4810   1.997   0.631  16.803 -0.6727 -0.3608  0.2280
  320TMC3     O 4811   2.013   0.546  16.893  0.3418 -0.4943 -0.2922
  320TMC3     H 4812   1.890   0.813  16.637  3.3582 -0.6666 -0.2439
  320TMC3    H1 4813   1.830   0.430  16.779  0.2662 -1.8820 -1.6699
  320TMC3    H2 4814   1.735   0.527  16.375  1.5128  2.5909 -1.4832
  320TMC3    C7 4815   1.725   0.327  16.554  0.3144  0.0237  0.2424
  320TMC3    C8 4816   1.808   0.760  16.393 -0.1325  0.9006  0.5046
  320TMC3    O1 4817   1.684   0.262  16.648  0.6923  0.8996  0.2865
  320TMC3    O2 4818   1.790   0.874  16.428  0.2515  0.1380  0.9490
  321TMC3    C1 4819   2.610   0.588  17.214  0.9989 -0.2972  0.8908
  321TMC3    C2 4820   2.550   0.604  17.336 -0.0348  0.5513  0.0155
  321TMC3    C3 4821   2.629   0.564  17.443  0.2416  0.0909 -0.0867
  321TMC3    C4 4822   2.726   0.515  17.191  0.0694  0.1582 -0.7853
  321TMC3    C5 4823   2.794   0.479  17.305  0.6386 -0.4638  0.6329
  321TMC3    C6 4824   2.750   0.506  17.426  1.0820 -0.4095 -1.2704
  321TMC3     C 4825   2.576   0.681  17.114 -0.2608 -0.3575 -0.0368
  321TMC3     O 4826   2.669   0.718  17.045  0.0288 -0.3574  0.6485
  321TMC3     H 4827   2.464   0.669  17.345  0.1122  0.7694 -0.1553
  321TMC3    H1 4828   2.767   0.498  17.092  3.8904 -0.2273  0.8543
  321TMC3    H2 4829   2.808   0.478  17.514 -2.2965 -1.7786  0.5383
  321TMC3    C7 4830   2.841   0.346  17.292 -0.5395 -0.1612 -0.0488
  321TMC3    C8 4831   2.563   0.496  17.555  0.1375  0.0854 -0.0128
  321TMC3    O1 4832   2.869   0.310  17.179  0.5152  0.0811  0.1240
  321TMC3    O2 4833   2.615   0.394  17.585  0.4068  0.2045 -0.3391
  322MPD2     C 4834   1.308   1.940  13.516  0.2211 -0.1618 -0.1556
  322MPD2    C1 4835   1.258   1.860  13.619  0.0631  0.2260  0.0019
  322MPD2    C2 4836   1.217   1.728  13.594 -0.2529 -0.3247  0.9245
  322MPD2    C3 4837   1.232   1.674  13.470 -0.0783 -0.4902 -0.6405
  322MPD2    C4 4838   1.273   1.756  13.365  0.4907  0.2438  0.6220
  322MPD2    C5 4839   1.301   1.889  13.387  0.3327  0.1139 -0.0434
  322MPD2     H 4840   1.185   1.672  13.681 -1.1377 -0.2807  0.6296
  322MPD2    H1 4841   1.273   1.722  13.262  0.2636  2.0894 -0.0025
  322MPD2    H2 4842   1.330   2.044  13.535 -1.7214 -0.0522  1.4213
  322MPD2    H3 4843   1.326   1.944  13.297  1.3131  1.5408  1.1104
  322MPD2     N 4844   1.210   1.540  13.450  0.1714  0.3758  0.1453
  322MPD2    H5 4845   1.182   1.492  13.535 -0.2518  0.3153 -0.0285
  322MPD2    N1 4846   1.244   1.922  13.749 -0.0383  0.2358 -0.1101
  322MPD2    H7 4847   1.251   2.022  13.760 -0.6625  0.3226 -0.5281
  323TMC3    C1 4848   1.217   1.957  13.987 -0.3126 -0.2685  0.0004
  323TMC3    C2 4849   1.282   2.072  13.964  0.3864 -0.2973  0.3124
  323TMC3    C3 4850   1.277   2.157  14.065 -0.1878  0.1213  0.7844
  323TMC3    C4 4851   1.155   1.916  14.101  0.0565 -0.5811  0.2980
  323TMC3    C5 4852   1.152   2.013  14.201 -0.8439  0.1861 -0.3676
  323TMC3    C6 4853   1.205   2.135  14.181 -0.1009  0.5576 -0.8007
  323TMC3     C 4854   1.210   1.864  13.874  0.4491 -0.0632 -0.3095
  323TMC3     O 4855   1.183   1.744  13.895  0.4259 -0.2846  0.5577
  323TMC3     H 4856   1.329   2.102  13.871  1.0915  0.2049  0.8308
  323TMC3    H1 4857   1.122   1.813  14.109 -1.7337  0.0727  1.2684
  323TMC3    H2 4858   1.203   2.212  14.257 -2.5076 -0.6969  0.4214
  323TMC3    C7 4859   1.169   1.954  14.331 -0.3446  0.7081 -0.0639
  323TMC3    C8 4860   1.402   2.220  14.113  0.5292  0.5616  0.0919
  323TMC3    O1 4861   1.126   1.842  14.347 -0.4218  0.5106 -0.0825
  323TMC3    O2 4862   1.424   2.194  14.230 -0.3218  0.6358  0.1497
  324MPD2     C 4863   3.194   3.474  14.910  0.0445 -0.0283  0.8397
  324MPD2    C1 4864   3.226   3.438  14.780  0.7339 -0.1367  0.2441
  324MPD2    C2 4865   3.135   3.451  14.677 -1.0928  0.3780 -0.0975
  324MPD2    C3 4866   3.012   3.512  14.703 -0.1745 -0.2536  0.1598
  324MPD2    C4 4867   2.988   3.556  14.831  0.5965 -0.2760 -0.2493
  324MPD2    C5 4868   3.074   3.538  14.934  0.6638  0.3779  0.5193
  324MPD2     H 4869   3.151   3.409  14.579 -4.3758 -3.2043  0.9174
  324MPD2    H1 4870   2.899   3.613  14.851  0.8124  0.1815 -0.6049
  324MPD2    H2 4871   3.264   3.454  14.990  1.7205  2.5854  0.0170
  324MPD2    H3 4872   3.050   3.575  15.033 -0.8527 -0.3123  0.4081
  324MPD2     N 4873   2.930   3.514  14.595 -0.0791 -0.1996 -0.0749
  324MPD2    H5 4874   2.959   3.466  14.510  0.9103  1.9611 -0.9776
  324MPD2    N1 4875   3.348   3.379  14.740  0.0102 -0.3237 -0.4175
  324MPD2    H7 4876   3.355   3.379  14.638  0.5699 -3.2383 -0.3654
  325TMC3    C1 4877   2.748   3.539  14.468  0.3536  0.2760 -0.3093
  325TMC3    C2 4878   2.726   3.413  14.431 -0.3887  0.4029 -0.3740
  325TMC3    C3 4879   2.673   3.393  14.310  0.1024 -0.6364 -0.4440
  325TMC3    C4 4880   2.708   3.647  14.392  0.2048 -0.0111  0.0051
  325TMC3    C5 4881   2.646   3.618  14.272  0.2296  0.3342 -0.1947
  325TMC3    C6 4882   2.634   3.490  14.228 -0.3649  0.2934 -0.1448
  325TMC3     C 4883   2.802   3.572  14.594 -0.1432 -0.0382 -0.3515
  325TMC3     O 4884   2.765   3.669  14.656 -0.6462 -0.1290  0.1826
  325TMC3     H 4885   2.728   3.336  14.508  2.2555  0.3749 -0.4661
  325TMC3    H1 4886   2.711   3.749  14.428 -1.6736  0.0936 -0.1144
  325TMC3    H2 4887   2.582   3.471  14.136 -2.0274  2.2415  0.3995
  325TMC3    C7 4888   2.541   3.708  14.257 -0.1379  0.7778  0.5200
  325TMC3    C8 4889   2.589   3.281  14.298  0.9874 -0.2173  0.1575
  325TMC3    O1 4890   2.571   3.825  14.256 -0.5434 -0.8324 -0.2859
  325TMC3    O2 4891   2.599   3.214  14.195  0.9221 -0.1524  0.0768
  326MPD2     C 4892   3.753   3.748  11.144 -0.6182  0.4370  0.1400
  326MPD2    C1 4893   3.822   3.738  11.028  0.5637 -1.1613 -0.4701
  326MPD2    C2 4894   3.955   3.766  11.026 -0.4961 -0.2273  0.1686
  326MPD2    C3 4895   4.023   3.820  11.134  0.1730 -0.3412  0.5295
  326MPD2    C4 4896   3.955   3.826  11.251 -0.0561  0.9824  0.2186
  326MPD2    C5 4897   3.820   3.783  11.257 -0.0864 -0.0372 -0.8386
  326MPD2     H 4898   3.998   3.757  10.927 -0.4100  0.8919  0.1097
  326MPD2    H1 4899   3.995   3.882  11.334 -0.4688 -1.4133  2.0192
  326MPD2    H2 4900   3.645   3.743  11.135 -0.7042  2.3376  0.2674
  326MPD2    H3 4901   3.761   3.808  11.344  1.4737 -3.0520  1.0937
  326MPD2     N 4902   4.162   3.848  11.131  0.1982 -0.5529 -0.1380
  326MPD2    H5 4903   4.214   3.892  11.206 -1.9921  0.5338  0.7333
  326MPD2    N1 4904   3.765   3.696  10.902 -0.2465  0.0787  0.2970
  326MPD2    H7 4905   3.825   3.708  10.822  0.3146 -0.6315  0.6151
  327TMC3    C1 4906   3.613   3.669  10.729 -0.4945  0.2918  0.2524
  327TMC3    C2 4907   3.513   3.756  10.685  0.8120  0.2701  0.3294
  327TMC3    C3 4908   3.525   3.811  10.558 -0.0888  0.5143 -1.0116
  327TMC3    C4 4909   3.731   3.648  10.654  0.8662  0.3246 -0.8666
  327TMC3    C5 4910   3.732   3.705  10.532  0.5819 -0.8275 -0.7365
  327TMC3    C6 4911   3.637   3.783  10.484  0.2217 -0.1735  0.8559
  327TMC3     C 4912   3.634   3.666  10.872 -0.1065 -0.3864  0.0641
  327TMC3     O 4913   3.531   3.660  10.941 -0.0947  0.5358  1.0305
  327TMC3     H 4914   3.440   3.781  10.761 -0.0394 -0.6145 -0.1903
  327TMC3    H1 4915   3.801   3.575  10.692  1.9066  0.5169 -2.4179
  327TMC3    H2 4916   3.639   3.828  10.385  0.0120 -2.7122 -0.2927
  327TMC3    C7 4917   3.863   3.708  10.459 -0.2930  0.4575 -0.4052
  327TMC3    C8 4918   3.439   3.930  10.533  0.2988 -0.0707 -0.6232
  327TMC3    O1 4919   3.867   3.755  10.345  0.0086  0.4939  0.1763
  327TMC3    O2 4920   3.471   3.992  10.432 -0.3826  0.5938  0.9221
  328MPD2     C 4921   1.957   3.624  17.602 -0.4241 -0.2420 -0.7815
  328MPD2    C1 4922   1.883   3.533  17.533 -0.6123 -0.9128 -0.3805
  328MPD2    C2 4923   1.855   3.548  17.398  0.0149 -0.2915 -0.1696
  328MPD2    C3 4924   1.890   3.669  17.338  0.2018  0.0795  0.1243
  328MPD2    C4 4925   1.968   3.755  17.406  0.3442  0.2042 -0.3971
  328MPD2    C5 4926   2.005   3.729  17.535 -0.2898 -0.2692  0.5601
  328MPD2     H 4927   1.794   3.470  17.352  1.3517 -0.8704 -0.9610
  328MPD2    H1 4928   2.029   3.828  17.354 -1.3155  0.9263 -1.3571
  328MPD2    H2 4929   1.985   3.609   0.007  0.9543 -0.5668 -1.1976
  328MPD2    H3 4930   2.082   3.792  17.578 -1.9484  1.1673  1.4143
  328MPD2     N 4931   1.862   3.700  17.204 -0.3252  0.4844  0.4923
  328MPD2    H5 4932   1.907   3.778  17.159 -2.0948  1.3092  0.1707
  328MPD2    N1 4933   1.821   3.437  17.611  0.0025 -0.7146  0.0936
  328MPD2    H7 4934   1.809   3.456   0.011 -0.9167 -0.3409 -0.0900
  329TMC3    C1 4935   1.669   3.262  17.657  0.2439  0.0283  0.0723
  329TMC3    C2 4936   1.576   3.359  17.683  0.2916  0.2609 -0.1457
  329TMC3    C3 4937   1.445   3.322  17.667 -1.0181  0.4045 -0.2376
  329TMC3    C4 4938   1.638   3.132  17.627  0.5318 -0.3823  0.7133
  329TMC3    C5 4939   1.503   3.093  17.618 -0.2845 -0.1462  0.2751
  329TMC3    C6 4940   1.410   3.190  17.635 -0.0744  0.3847  0.1221
  329TMC3     C 4941   1.769   3.315  17.568 -0.1055 -0.4649  0.3971
  329TMC3     O 4942   1.788   3.260  17.464 -0.4968 -0.0724  0.8956
  329TMC3     H 4943   1.601   3.460   0.016  0.6899  0.0981  0.0521
  329TMC3    H1 4944   1.715   3.062  17.598  1.4362 -0.2749  2.8867
  329TMC3    H2 4945   1.304   3.169  17.626  0.0664 -0.7421  1.1318
  329TMC3    C7 4946   1.460   2.970  17.549  0.1238 -0.3008 -0.6404
  329TMC3    C8 4947   1.353   3.412  17.598  0.0785  0.6556 -0.0833
  329TMC3    O1 4948   1.340   2.961  17.525  0.3653  0.5399  0.1988
  329TMC3    O2 4949   1.262   3.364  17.537  0.2342  0.2944 -0.9850
  330TMC3    C1 4950   4.461   3.120   9.838 -0.7313  0.4226 -0.6948
  330TMC3    C2 4951   4.448   3.030   9.734 -0.1917  0.0615 -0.5613
  330TMC3    C3 4952   4.507   2.904   9.750 -0.5243  0.2701 -0.6319
  330TMC3    C4 4953   4.542   3.078   9.940 -0.6446 -0.7391 -0.0272
  330TMC3    C5 4954   4.598   2.957   9.951  0.4216 -0.0311 -0.2822
  330TMC3    C6 4955   4.584   2.866   9.858 -1.1668 -0.2228 -0.9828
  330TMC3     C 4956   4.402   3.247   9.843  0.4166  0.0891 -0.2605
  330TMC3     O 4957   4.431   3.329   9.931 -0.4163  0.0660 -0.1321
  330TMC3     H 4958   4.398   3.050   9.639 -0.6470  3.7030  0.4454
  330TMC3    H1 4959   4.551   3.134  10.032  0.9493 -1.4621  0.2510
  330TMC3    H2 4960   4.638   2.772   9.859  0.6618  0.8802  2.6376
  330TMC3    C7 4961   4.657   2.928  10.085  0.5534  0.4291  0.4028
  330TMC3    C8 4962   4.496   2.807   9.635 -0.9525  0.2461  0.8360
  330TMC3    O1 4963   4.681   3.024  10.156  0.0023  0.4589  0.6815
  330TMC3    O2 4964   4.492   2.854   9.521 -0.2606  0.4206  0.0142
  331MPD2     C 4965   1.964   2.657  12.521 -0.7871  0.1424  0.1351
  331MPD2    C1 4966   2.072   2.662  12.606  0.5440  0.1318  0.1578
  331MPD2    C2 4967   2.126   2.547  12.666  0.1696  0.6371  0.5782
  331MPD2    C3 4968   2.057   2.429  12.638 -0.4565 -0.3497 -0.3088
  331MPD2    C4 4969   1.943   2.430  12.557 -0.7286 -0.0774  0.9194
  331MPD2    C5 4970   1.893   2.544  12.506  0.1392  0.9403  0.1246
  331MPD2     H 4971   2.216   2.551  12.727 -0.9090 -1.9118  2.3131
  331MPD2    H1 4972   1.883   2.342  12.539 -0.6531 -0.0841  0.7055
  331MPD2    H2 4973   1.926   2.743  12.468 -1.6807  0.3844  1.1537
  331MPD2    H3 4974   1.805   2.556  12.444  0.7707  1.3144 -0.6945
  331MPD2     N 4975   2.120   2.307  12.678 -0.1896  0.0283 -0.2101
  331MPD2    H5 4976   2.208   2.324  12.727 -0.5895 -0.5976  0.7381
  331MPD2    N1 4977   2.145   2.781  12.588 -0.2782 -0.1325  0.3239
  331MPD2    H7 4978   2.104   2.856  12.532  0.6537 -0.2564 -0.5043
  332TMC3    C1 4979   2.189   2.088  12.640 -0.6730 -0.3277  0.6679
  332TMC3    C2 4980   2.232   2.016  12.537  0.0597  0.3927 -0.4054
  332TMC3    C3 4981   2.349   1.941  12.542  0.3211 -0.2924 -0.1896
  332TMC3    C4 4982   2.249   2.078  12.762 -0.7024 -0.1532 -0.2261
  332TMC3    C5 4983   2.364   2.004  12.772  0.1366 -0.0908  0.2030
  332TMC3    C6 4984   2.417   1.948  12.657  0.3418  0.3183  0.8127
  332TMC3     C 4985   2.088   2.184  12.623 -0.2881  0.0607 -0.2878
  332TMC3     O 4986   2.005   2.158  12.532 -0.3742  0.5592 -0.3980
  332TMC3     H 4987   2.184   2.029  12.441 -0.5559  1.1401  0.0084
  332TMC3    H1 4988   2.201   2.117  12.852  4.7175 -0.6113  2.8697
  332TMC3    H2 4989   2.509   1.891  12.669  0.1839 -0.1173 -0.0506
  332TMC3    C7 4990   2.443   2.014  12.893 -0.4367 -0.2787  0.3443
  332TMC3    C8 4991   2.432   1.921  12.418  0.5772  0.7115  0.6186
  332TMC3    O1 4992   2.395   2.027  13.004  0.2010  0.1108  0.7240
  332TMC3    O2 4993   2.555   1.926  12.425 -0.5316 -0.4328  0.3436
  333MPD2     C 4994   2.722   1.754  11.525  0.1436  0.2627 -0.1895
  333MPD2    C1 4995   2.760   1.652  11.436 -0.4590  0.4889  0.2785
  333MPD2    C2 4996   2.696   1.530  11.442 -0.4568  0.1991 -0.4310
  333MPD2    C3 4997   2.591   1.508  11.531  0.6517  0.0190  0.0573
  333MPD2    C4 4998   2.552   1.614  11.611 -0.1968  0.1721 -0.0037
  333MPD2    C5 4999   2.618   1.733  11.609 -0.2555 -0.3182 -1.1914
  333MPD2     H 5000   2.734   1.448  11.382  0.1564  0.2211 -0.0704
  333MPD2    H1 5001   2.473   1.597  11.684 -0.2166 -2.4535 -0.6417
  333MPD2    H2 5002   2.778   1.846  11.530  0.1820  0.1630  1.3536
  333MPD2    H3 5003   2.595   1.811  11.680  4.2416  0.7655 -0.9217
  333MPD2     N 5004   2.525   1.379  11.531  1.0881  0.1778 -0.3803
  333MPD2    H5 5005   2.561   1.307  11.469 -1.5864  0.6383 -2.5139
  333MPD2    N1 5006   2.877   1.680  11.356  0.1545 -0.5871 -0.3122
  333MPD2    H7 5007   2.913   1.774  11.357 -2.0874  0.2803 -0.1595
  334TMC3    C1 5008   3.064   1.650  11.224  0.3432  0.2084 -0.2038
  334TMC3    C2 5009   3.168   1.568  11.198 -0.4424  0.6366 -0.2098
  334TMC3    C3 5010   3.279   1.620  11.142  0.3683  0.0849 -0.2494
  334TMC3    C4 5011   3.059   1.780  11.187 -0.2605  0.2866 -0.4253
  334TMC3    C5 5012   3.174   1.829  11.133 -0.1086  0.1454  0.5900
  334TMC3    C6 5013   3.286   1.752  11.114 -0.4253 -0.0953  0.2267
  334TMC3     C 5014   2.959   1.587  11.295  0.5682  0.3164  0.3359
  334TMC3     O 5015   2.957   1.465  11.305 -0.1953  0.6379  0.1023
  334TMC3     H 5016   3.168   1.464  11.228  0.0783  0.6963  0.0122
  334TMC3    H1 5017   2.972   1.844  11.203  0.7343  1.6659 -0.4781
  334TMC3    H2 5018   3.380   1.794  11.079 -1.8274  1.8578 -1.1947
  334TMC3    C7 5019   3.170   1.954  11.068  0.2434 -0.1303 -0.0209
  334TMC3    C8 5020   3.394   1.541  11.134  0.6836 -0.0604 -0.5568
  334TMC3    O1 5021   3.117   2.049  11.123  0.2851  0.1259 -0.4836
  334TMC3    O2 5022   3.392   1.433  11.192 -0.0201  0.2743  0.0558
  335TMC3    C1 5023   2.305   4.267  17.294  0.1215 -0.2690 -0.3964
  335TMC3    C2 5024   2.227   4.170  17.226 -0.1524 -0.0268  0.1370
  335TMC3    C3 5025   2.276   4.044  17.192 -0.2256 -0.0511 -0.4043
  335TMC3    C4 5026   2.436   4.240  17.313 -0.4726 -0.5420 -0.7959
  335TMC3    C5 5027   2.476   4.112  17.283  0.1216  1.2224  0.1355
  335TMC3    C6 5028   2.406   4.020  17.211  0.3919 -0.1376  0.7043
  335TMC3     C 5029   2.250   4.398  17.326  0.1155  0.7655  0.4498
  335TMC3     O 5030   2.129   4.393  17.353  0.2180 -0.0662  0.5724
  335TMC3     H 5031   2.122   4.192  17.208  0.8308  0.7558 -4.4993
  335TMC3    H1 5032   2.508   4.316  17.342 -0.2836 -1.3512  0.8929
  335TMC3    H2 5033   2.454   3.929  17.179 -1.6412 -1.4778  1.4880
  335TMC3    C7 5034   2.619   4.081  17.306 -0.1985 -0.0524 -0.9480
  335TMC3    C8 5035   2.203   3.944  17.123  0.5010 -0.1455 -0.6534
  335TMC3    O1 5036   2.666   3.990  17.243  0.2298  0.7326 -0.1299
  335TMC3    O2 5037   2.089   3.976  17.093 -0.1508  0.1870 -0.7116
  336MPD2     C 5038   2.386   1.878  16.298  0.2596  0.1490  0.7626
  336MPD2    C1 5039   2.308   1.831  16.194 -0.8903  0.5363  0.6897
  336MPD2    C2 5040   2.274   1.696  16.185 -0.6206  0.3752  0.1200
  336MPD2    C3 5041   2.314   1.617  16.291  0.0243 -0.3633 -0.3912
  336MPD2    C4 5042   2.393   1.665  16.388  0.6513 -0.2337  0.0846
  336MPD2    C5 5043   2.424   1.797  16.399  0.8014 -1.0399 -0.0493
  336MPD2     H 5044   2.223   1.663  16.095 -0.6007 -0.3404  0.3708
  336MPD2    H1 5045   2.424   1.599  16.469  1.0190 -3.3009 -2.5729
  336MPD2    H2 5046   2.411   1.983  16.309 -0.2531  0.3832 -0.3020
  336MPD2    H3 5047   2.484   1.837  16.480 -1.9358  0.3491  1.3104
  336MPD2     N 5048   2.290   1.478  16.289  0.6172 -0.6105 -0.2070
  336MPD2    H5 5049   2.314   1.425  16.372  0.2006  0.8531  0.8382
  336MPD2    N1 5050   2.264   1.910  16.087 -0.4588  0.2787  0.4220
  336MPD2    H7 5051   2.230   1.854  16.009 -0.3648  2.8155 -1.4415
  337TMC3    C1 5052   2.189   2.106  15.973 -0.2164 -0.4652 -0.3961
  337TMC3    C2 5053   2.099   2.028  15.904  1.1311 -0.2261  0.5429
  337TMC3    C3 5054   2.027   2.081  15.797 -0.4162  0.2136 -0.1495
  337TMC3    C4 5055   2.201   2.238  15.942 -0.2104  0.1634  0.2648
  337TMC3    C5 5056   2.125   2.292  15.842 -0.1898  0.0473  0.3298
  337TMC3    C6 5057   2.047   2.210  15.772  0.1818  0.3870  0.2909
  337TMC3     C 5058   2.270   2.050  16.082  0.0081 -0.3588  0.2336
  337TMC3     O 5059   2.335   2.129  16.154  0.1442 -0.0273 -0.3229
  337TMC3     H 5060   2.073   1.928  15.936  0.9031 -0.0769  0.8175
  337TMC3    H1 5061   2.260   2.296  16.012  1.1973  1.4992 -2.0344
  337TMC3    H2 5062   2.000   2.258  15.686  0.7624 -0.9745 -0.7742
  337TMC3    C7 5063   2.130   2.432  15.813 -0.6430 -1.0072  0.0782
  337TMC3    C8 5064   1.893   2.023  15.776 -0.4224  0.4170  0.3542
  337TMC3    O1 5065   2.061   2.476  15.725  0.3571  0.2449  0.2562
  337TMC3    O2 5066   1.860   1.943  15.862 -0.4241 -0.4771  0.0578
  338MPD2     C 5067   2.243   1.484   1.013  0.3123  0.5670 -0.2027
  338MPD2    C1 5068   2.219   1.412   0.896  0.0240 -0.3841  0.6602
  338MPD2    C2 5069   2.103   1.428   0.825  0.0573 -0.5687 -0.2565
  338MPD2    C3 5070   2.014   1.526   0.864 -0.5657  0.4273  0.0497
  338MPD2    C4 5071   2.035   1.591   0.980  0.0920 -0.0252  0.2923
  338MPD2    C5 5072   2.148   1.570   1.056 -0.0285 -0.4993 -0.0895
  338MPD2     H 5073   2.085   1.383   0.728  1.8080 -0.5548 -0.5902
  338MPD2    H1 5074   1.973   1.675   1.010  2.2507  1.9825 -0.9065
  338MPD2    H2 5075   2.326   1.473   1.083  0.4300 -1.1089 -0.6106
  338MPD2    H3 5076   2.167   1.639   1.137 -0.5556  1.8149 -1.9289
  338MPD2     N 5077   1.913   1.570   0.774 -0.0556  0.1320  0.1084
  338MPD2    H5 5078   1.915   1.512   0.691  0.2933  0.7812 -0.3354
  338MPD2    N1 5079   2.312   1.313   0.851  0.2148 -0.0623  0.2047
  338MPD2    H7 5080   2.286   1.273   0.761 -1.1355  0.1569  0.4920
  339TMC3    C1 5081   1.722   1.676   0.681 -0.4785 -0.8082 -0.0355
  339TMC3    C2 5082   1.594   1.689   0.724 -0.5777 -1.1187  0.0978
  339TMC3    C3 5083   1.494   1.633   0.643 -0.0153  0.4443  0.2238
  339TMC3    C4 5084   1.762   1.633   0.557  0.0820  0.0663 -1.3844
  339TMC3    C5 5085   1.655   1.587   0.467 -0.5226  0.1898 -0.3185
  339TMC3    C6 5086   1.523   1.580   0.520 -0.4623  0.1165  0.1092
  339TMC3     C 5087   1.812   1.662   0.795  0.1906 -0.6208  0.7054
  339TMC3     O 5088   1.786   1.735   0.888 -0.5702  0.1976 -0.5327
  339TMC3     H 5089   1.556   1.737   0.813 -2.1702  0.2001 -1.2838
  339TMC3    H1 5090   1.861   1.656   0.520  0.7787  0.6945  0.9415
  339TMC3    H2 5091   1.460   1.507   0.471  0.3307 -1.9254  2.1100
  339TMC3    C7 5092   1.713   1.481   0.386 -0.1099 -0.0823  0.7011
  339TMC3    C8 5093   1.376   1.574   0.708  0.3180 -0.0133 -0.7864
  339TMC3    O1 5094   1.815   1.432   0.435  0.0599 -0.1427  0.2562
  339TMC3    O2 5095   1.296   1.515   0.636 -0.0064 -0.2873  0.0521
  340MPD2     C 5096   2.243   3.166  10.427 -0.2068  0.0125  0.7333
  340MPD2    C1 5097   2.358   3.239  10.423  1.1334  0.2352  0.3478
  340MPD2    C2 5098   2.352   3.382  10.441 -0.7162 -0.3259  0.5008
  340MPD2    C3 5099   2.234   3.438  10.468  0.1220 -0.6328  0.6856
  340MPD2    C4 5100   2.118   3.359  10.468  0.8810 -0.6625 -0.0810
  340MPD2    C5 5101   2.124   3.225  10.451 -0.5670 -0.2364 -0.4586
  340MPD2     H 5102   2.447   3.434  10.428 -1.2244  0.3822 -0.4094
  340MPD2    H1 5103   2.020   3.402  10.487  1.3246  0.8097 -1.0918
  340MPD2    H2 5104   2.253   3.062  10.396  2.3912  0.9093 -1.5150
  340MPD2    H3 5105   2.031   3.172  10.432 -0.0397 -0.8379 -1.3964
  340MPD2     N 5106   2.231   3.579  10.478 -0.0680 -0.3135 -0.2341
  340MPD2    H5 5107   2.316   3.625  10.446  0.0275  2.3296  3.7932
  340MPD2    N1 5108   2.478   3.170  10.389 -0.5038 -0.4552 -0.1787
  340MPD2    H7 5109   2.477   3.069  10.401  0.2091 -0.6373 -1.6608
  341TMC3    C1 5110   2.694   3.150  10.314 -0.2786 -0.3801  0.0260
  341TMC3    C2 5111   2.674   3.014  10.295  1.0062 -0.6363  1.1116
  341TMC3    C3 5112   2.788   2.940  10.311 -0.0139 -0.2821 -0.8686
  341TMC3    C4 5113   2.823   3.206  10.325  0.0099  0.4080  0.7621
  341TMC3    C5 5114   2.932   3.124  10.322  0.3938  0.2015 -0.0145
  341TMC3    C6 5115   2.919   2.987  10.336 -0.1930  0.2154 -0.5397
  341TMC3     C 5116   2.588   3.237  10.339  0.0707  0.1072  0.1510
  341TMC3     O 5117   2.601   3.343  10.276  0.4710 -0.1502 -0.2259
  341TMC3     H 5118   2.577   2.970  10.277  1.3683 -0.4177 -1.3553
  341TMC3    H1 5119   2.828   3.315  10.319 -1.2048  0.4141 -0.1773
  341TMC3    H2 5120   3.007   2.926  10.323  0.0292  0.3887  0.1749
  341TMC3    C7 5121   3.059   3.181  10.275  0.6487 -0.3448  0.3209
  341TMC3    C8 5122   2.769   2.797  10.302 -0.0905  0.2419 -0.2342
  341TMC3    O1 5123   3.163   3.147  10.327  0.2623  0.1596  0.0934
  341TMC3    O2 5124   2.659   2.758  10.261 -0.1361 -0.4285 -0.2660
  342MPD2     C 5125   0.265   2.356  17.696 -0.1687  0.3017 -0.2193
  342MPD2    C1 5126   0.400   2.353  17.667 -0.3166  0.3014 -0.3584
  342MPD2    C2 5127   0.476   2.469  17.672 -0.1902  0.4296  1.2178
  342MPD2    C3 5128   0.421   2.592  17.688  0.3565  0.4104  0.1010
  342MPD2    C4 5129   0.283   2.599   0.001 -0.1412  0.1132 -0.7320
  342MPD2    C5 5130   0.207   2.482   0.006  0.0646 -0.0114 -0.1724
  342MPD2     H 5131   0.584   2.463  17.664  0.0515 -0.5075  4.8965
  342MPD2    H1 5132   0.237   2.697   0.007  0.0554  0.2027 -0.6914
  342MPD2    H2 5133   0.202   2.269   0.008 -0.0967  0.6111  2.6878
  342MPD2    H3 5134   0.099   2.482   0.018  0.2454 -0.7942  1.3932
  342MPD2     N 5135   0.510   2.704  17.697  0.1508  0.5178  0.8329
  342MPD2    H5 5136   0.458   2.790   0.011  0.9499  1.1425 -0.1269
  342MPD2    N1 5137   0.458   2.227  17.644 -0.1545 -0.4927 -1.0202
  342MPD2    H7 5138   0.559   2.224  17.630 -0.0669 -2.3993  0.0246
  343TMC3    C1 5139   0.466   2.002  17.572 -0.6794 -0.2695 -0.4176
  343TMC3    C2 5140   0.552   2.033  17.471  0.6835  0.6034 -0.2728
  343TMC3    C3 5141   0.598   1.935  17.388 -0.1911  0.5387 -0.0290
  343TMC3    C4 5142   0.434   1.875  17.595  0.4110 -0.2211 -0.1904
  343TMC3    C5 5143   0.488   1.780  17.520 -0.6789  0.4786 -0.0132
  343TMC3    C6 5144   0.572   1.801  17.412  0.2713 -0.1428  0.6080
  343TMC3     C 5145   0.392   2.106  17.642  0.2264  0.4013  0.7280
  343TMC3     O 5146   0.284   2.077  17.692 -0.4326  0.4535  0.5014
  343TMC3     H 5147   0.573   2.137  17.449 -0.2500  0.6058 -1.1704
  343TMC3    H1 5148   0.361   1.840  17.667  0.0078  1.5931  0.2664
  343TMC3    H2 5149   0.607   1.720  17.349 -0.2341  0.7631 -0.8486
  343TMC3    C7 5150   0.454   1.643  17.549  0.0861 -0.3754 -0.5365
  343TMC3    C8 5151   0.683   1.981  17.277  0.2168 -0.4076  0.1560
  343TMC3    O1 5152   0.445   1.569  17.453 -0.1171  0.4318 -0.2134
  343TMC3    O2 5153   0.714   2.100  17.271 -0.1598 -0.3855 -0.1199
  344MPD2     C 5154   1.630   1.242  11.334 -0.3525 -0.0149  0.5465
  344MPD2    C1 5155   1.598   1.156  11.233  0.3596 -0.6867 -0.5139
  344MPD2    C2 5156   1.632   1.189  11.106 -0.3290 -0.0704 -0.7000
  344MPD2    C3 5157   1.718   1.294  11.080 -0.7483 -0.7985 -0.5205
  344MPD2    C4 5158   1.757   1.378  11.187  0.3576  0.3304 -0.0943
  344MPD2    C5 5159   1.715   1.347  11.314  0.2721 -0.0802 -0.2268
  344MPD2     H 5160   1.608   1.115  11.031 -1.0988  0.1430 -0.6649
  344MPD2    H1 5161   1.818   1.468  11.182  1.5136 -0.4696 -0.4544
  344MPD2    H2 5162   1.590   1.234  11.434  1.5793  0.1315  1.3351
  344MPD2    H3 5163   1.734   1.415  11.396  1.3464 -1.7312  0.8773
  344MPD2     N 5164   1.757   1.324  10.950 -0.9380 -0.2797 -1.1103
  344MPD2    H5 5165   1.814   1.408  10.943  0.5461 -1.1927 -0.1781
  344MPD2    N1 5166   1.520   1.042  11.252 -0.4443 -0.0349  0.7017
  344MPD2    H7 5167   1.504   0.984  11.170  1.1190 -0.0783  0.4213
  345TMC3    C1 5168   1.808   1.299  10.719  0.2057  0.2341 -0.6011
  345TMC3    C2 5169   1.926   1.374  10.736  0.5057 -0.1561 -0.0607
  345TMC3    C3 5170   1.976   1.450  10.639 -0.0707  1.4003  0.4704
  345TMC3    C4 5171   1.754   1.278  10.595 -0.4924  0.4840 -0.0789
  345TMC3    C5 5172   1.805   1.365  10.497  0.2645 -0.0324 -0.0254
  345TMC3    C6 5173   1.912   1.451  10.515 -0.2616  0.2191  0.0529
  345TMC3     C 5174   1.739   1.248  10.835 -0.2503  0.3996 -0.0376
  345TMC3     O 5175   1.665   1.153  10.814  0.0949 -0.1861  0.1622
  345TMC3     H 5176   1.969   1.384  10.835 -2.0351  1.2963  0.8874
  345TMC3    H1 5177   1.664   1.219  10.584  0.6648 -1.7660  2.8610
  345TMC3    H2 5178   1.950   1.513  10.435  3.5275 -2.5293 -0.2891
  345TMC3    C7 5179   1.714   1.384  10.390 -0.2853  0.4630 -0.0414
  345TMC3    C8 5180   2.098   1.528  10.655  0.6435 -0.0488  0.1347
  345TMC3    O1 5181   1.636   1.288  10.371 -0.3884 -0.4610 -0.3456
  345TMC3    O2 5182   2.128   1.587  10.552 -0.1636  0.4272 -0.5258
  346MPD2     C 5183   1.240   3.252  13.986 -0.1634 -0.3276 -0.4921
  346MPD2    C1 5184   1.363   3.309  13.957  0.2741  0.5178  0.1641
  346MPD2    C2 5185   1.447   3.326  14.064  0.2985 -0.7689 -0.5936
  346MPD2    C3 5186   1.415   3.275  14.192  0.8813  0.0961  0.4533
  346MPD2    C4 5187   1.294   3.208  14.211 -0.1271 -1.0821  0.2466
  346MPD2    C5 5188   1.207   3.202  14.110 -0.0145 -0.1227  0.5174
  346MPD2     H 5189   1.543   3.371  14.040 -0.1488  0.7213  0.4291
  346MPD2    H1 5190   1.266   3.165  14.306  2.3333 -0.3171  1.3140
  346MPD2    H2 5191   1.158   3.243  13.914 -1.0302  0.5653  0.3878
  346MPD2    H3 5192   1.109   3.157  14.122 -0.5580  1.0771  0.5042
  346MPD2     N 5193   1.524   3.277  14.290  0.7221  0.3815  0.2981
  346MPD2    H5 5194   1.610   3.320  14.257 -0.8192  2.5380 -0.8828
  346MPD2    N1 5195   1.391   3.365  13.830 -0.0073  1.3778 -0.0742
  346MPD2    H7 5196   1.472   3.426  13.825  0.4354  0.7557 -0.5996
  347TMC3    C1 5197   1.642   3.285  14.497  0.3540  0.5987  0.9838
  347TMC3    C2 5198   1.750   3.310  14.425  0.2324 -0.1017  0.4939
  347TMC3    C3 5199   1.846   3.388  14.481 -0.2368  0.1434 -0.8483
  347TMC3    C4 5200   1.619   3.331  14.619 -0.2521  0.1050  0.2707
  347TMC3    C5 5201   1.722   3.410  14.667 -0.2115  0.0446 -0.6313
  347TMC3    C6 5202   1.837   3.445  14.598  0.5267  0.0102  0.7586
  347TMC3     C 5203   1.515   3.252  14.423 -1.1385  0.3841  0.3725
  347TMC3     O 5204   1.415   3.227  14.489 -0.3753  0.3863  0.0472
  347TMC3     H 5205   1.774   3.271  14.326 -1.0790 -0.1220  0.1901
  347TMC3    H1 5206   1.531   3.308  14.679 -1.2333 -0.6918 -1.4612
  347TMC3    H2 5207   1.903   3.524  14.631 -0.5595  2.4440 -2.8173
  347TMC3    C7 5208   1.696   3.505  14.781 -0.2452  0.4359  0.8211
  347TMC3    C8 5209   1.949   3.443  14.399  0.2486  0.1836 -0.4335
  347TMC3    O1 5210   1.579   3.545  14.784  0.1750  0.8888  0.1562
  347TMC3    O2 5211   2.011   3.368  14.320 -0.2527 -0.6856 -0.5960
  348MPD2     C 5212   4.629   2.339  12.174  1.2143  0.3798  0.2643
  348MPD2    C1 5213   4.719   2.436  12.168 -0.4196 -0.0451  0.2355
  348MPD2    C2 5214   4.715   2.531  12.066 -0.2138 -0.1621 -0.2313
  348MPD2    C3 5215   4.617   2.516  11.968 -0.2380  0.4223  0.4849
  348MPD2    C4 5216   4.525   2.409  11.976  0.0346 -0.0902  0.4646
  348MPD2    C5 5217   4.530   2.326  12.087 -0.0652  0.3472 -0.0469
  348MPD2     H 5218   0.050   2.622  12.077  1.3082 -1.2577  0.5709
  348MPD2    H1 5219   4.438   2.393  11.914 -1.4809  1.0959  2.2782
  348MPD2    H2 5220   4.628   2.275  12.262  0.1568 -0.0134 -0.0337
  348MPD2    H3 5221   4.450   2.256  12.110 -0.2829  0.3694 -0.7348
  348MPD2     N 5222   4.616   2.611  11.860 -0.1172  0.5502  0.5531
  348MPD2    H5 5223   4.700   2.667  11.854 -1.6299  2.3879 -3.6627
  348MPD2    N1 5224   0.092   2.462  12.270  0.1770  0.4801 -0.2736
  348MPD2    H7 5225   0.136   2.554  12.270 -0.0088  0.5692  0.4218
  349TMC3    C1 5226   0.265   2.402  12.419 -0.4317 -0.1433  0.0944
  349TMC3    C2 5227   0.348   2.291  12.439  0.4699  0.8218 -0.0904
  349TMC3    C3 5228   0.486   2.302  12.417  0.1875 -0.1994 -0.5439
  349TMC3    C4 5229   0.324   2.525  12.401 -0.1321  0.0731 -0.5978
  349TMC3    C5 5230   0.459   2.535  12.381 -0.4157  0.5576 -0.3789
  349TMC3    C6 5231   0.541   2.423  12.380  0.2811 -0.2211  0.2246
  349TMC3     C 5232   0.140   2.369  12.357 -0.3498 -0.1196  0.5964
  349TMC3     O 5233   0.098   2.255  12.372 -0.0880 -0.2794  0.4517
  349TMC3     H 5234   0.298   2.196  12.455  0.4524  0.6632 -1.0586
  349TMC3    H1 5235   0.262   2.613  12.392 -0.7466 -0.1117  1.8778
  349TMC3    H2 5236   0.645   2.440  12.353 -0.5339  0.5611 -2.3954
  349TMC3    C7 5237   0.483   2.608  12.263  0.2521  0.3121  0.5172
  349TMC3    C8 5238   0.572   2.215  12.492  0.9277  0.1491  0.1454
  349TMC3    O1 5239   0.532   2.545  12.169  0.3333  0.1529  0.0593
  349TMC3    O2 5240   0.518   2.130  12.557 -0.1447 -0.2365 -0.0120
  350MPD2     C 5241   4.147   0.409   9.575 -0.8114 -0.6957 -0.2319
  350MPD2    C1 5242   4.066   0.324   9.654 -0.3336 -0.3779 -0.3124
  350MPD2    C2 5243   4.085   0.329   9.787  1.1587 -0.1024  0.0009
  350MPD2    C3 5244   4.175   0.421   9.840  1.3919 -0.2741  0.3957
  350MPD2    C4 5245   4.245   0.504   9.759 -0.8014  0.3612  0.2016
  350MPD2    C5 5246   4.233   0.497   9.631  0.1648  0.1815 -0.1690
  350MPD2     H 5247   4.033   0.274   9.865 -1.2176 -1.1594 -2.3490
  350MPD2    H1 5248   4.305   0.586   9.797  2.3605 -0.9520 -1.9756
  350MPD2    H2 5249   4.153   0.396   9.467  2.1099  0.2273 -0.1765
  350MPD2    H3 5250   4.292   0.564   9.568 -1.8590  0.3249 -1.9152
  350MPD2     N 5251   4.196   0.424   9.987  0.6380 -0.2329  0.9826
  350MPD2    H5 5252   4.126   0.374  10.041 -2.2453  2.3096 -0.4358
  350MPD2    N1 5253   3.984   0.218   9.598  0.2286  0.0988  0.5655
  350MPD2    H7 5254   3.935   0.159   9.664  0.1075 -0.4666 -0.0313
  351TMC3    C1 5255   3.856   0.086   9.447  0.3940 -0.3988 -0.0354
  351TMC3    C2 5256   3.858   4.712   9.541 -0.5644  0.0478 -0.0515
  351TMC3    C3 5257   3.817   4.583   9.505  0.0803  0.6208  0.0767
  351TMC3    C4 5258   3.803   0.066   9.325 -0.1358  0.2575  0.7766
  351TMC3    C5 5259   3.752   4.666   9.291  0.1808  0.0069  0.5525
  351TMC3    C6 5260   3.767   4.558   9.374  0.8865  0.1664 -0.2805
  351TMC3     C 5261   3.946   0.206   9.463 -0.9172  0.0122 -0.3477
  351TMC3     O 5262   3.981   0.263   9.363 -0.4945  0.3873 -0.3857
  351TMC3     H 5263   3.908   4.722   9.637 -0.8696 -0.1310  0.1257
  351TMC3    H1 5264   3.799   0.153   9.260  2.3371  0.6741  1.1785
  351TMC3    H2 5265   3.743   4.458   9.338 -0.2016  0.7063 -1.0702
  351TMC3    C7 5266   3.739   4.631   9.148 -0.6657 -0.7104 -0.2334
  351TMC3    C8 5267   3.867   4.477   9.595  0.2258 -1.0232  0.2349
  351TMC3    O1 5268   3.786   4.709   9.072  0.1073 -0.1628  0.2747
  351TMC3    O2 5269   3.935   4.514   9.689 -0.1702  0.2710  0.5693
  352MPD2     C 5270   3.309   3.247   0.517 -0.0380  0.0398  0.2095
  352MPD2    C1 5271   3.203   3.309   0.570 -0.0676  0.2354 -0.0063
  352MPD2    C2 5272   3.138   3.261   0.687 -0.8548 -0.0753 -0.4938
  352MPD2    C3 5273   3.191   3.146   0.751 -0.0063  0.1699 -0.2271
  352MPD2    C4 5274   3.292   3.081   0.685  0.6065 -0.0040  0.3775
  352MPD2    C5 5275   3.351   3.132   0.576 -0.1768 -0.2313 -0.4193
  352MPD2     H 5276   3.057   3.321   0.728  0.2789 -0.6282  2.5323
  352MPD2    H1 5277   3.326   2.984   0.717 -0.5995 -0.9877 -1.3181
  352MPD2    H2 5278   3.361   3.272   0.425  1.1205 -0.6213  0.6874
  352MPD2    H3 5279   3.423   3.075   0.519 -0.8743  0.8769 -2.4265
  352MPD2     N 5280   3.130   3.076   0.863 -0.0407  0.0884  0.5466
  352MPD2    H5 5281   3.166   2.984   0.887 -0.1274 -0.1662 -0.3221
  352MPD2    N1 5282   3.151   3.414   0.492  0.2998 -0.3308  0.7710
  352MPD2    H7 5283   3.056   3.444   0.513  0.9981  3.1182 -0.9487
  353TMC3    C1 5284   2.966   3.028   1.018 -0.2636  0.6012 -0.3598
  353TMC3    C2 5285   2.969   2.900   0.990  0.0304  0.6371  0.3433
  353TMC3    C3 5286   2.877   2.820   1.050  0.2605 -0.0010  0.1961
  353TMC3    C4 5287   2.870   3.086   1.101  0.1625  0.5978  0.0744
  353TMC3    C5 5288   2.773   2.998   1.158 -0.7822  0.2877 -0.3387
  353TMC3    C6 5289   2.783   2.858   1.137 -0.5768 -0.3438 -0.5177
  353TMC3     C 5290   3.020   3.127   0.932  0.3320 -0.0567 -0.2401
  353TMC3     O 5291   2.953   3.228   0.930  0.3057 -0.1160  0.3221
  353TMC3     H 5292   3.039   2.852   0.922 -0.9972  0.0072 -0.2604
  353TMC3    H1 5293   2.877   3.189   1.135 -0.0576  1.5681 -2.8265
  353TMC3    H2 5294   2.715   2.798   1.196 -0.4696 -1.1971 -1.2609
  353TMC3    C7 5295   2.678   3.047   1.249  0.3739 -0.6106  0.3994
  353TMC3    C8 5296   2.878   2.679   1.013 -0.2016 -0.4011  0.1089
  353TMC3    O1 5297   2.586   2.968   1.274 -0.2173  0.2689 -0.6014
  353TMC3    O2 5298   2.980   2.637   0.955  0.2589 -0.3658 -0.0352
  354TMC3    C1 5299   4.226   4.225  13.495  0.0935  0.1446  0.3045
  354TMC3    C2 5300   4.229   4.358  13.486  0.5134 -0.4244  0.0961
  354TMC3    C3 5301   4.294   4.416  13.382 -0.7716  0.3156 -0.1758
  354TMC3    C4 5302   4.272   4.145  13.395 -0.4959  0.0260  0.7798
  354TMC3    C5 5303   4.353   4.204  13.292 -0.1984  0.1623  0.0220
  354TMC3    C6 5304   4.372   4.348  13.287 -0.5263  0.9109  0.2349
  354TMC3     C 5305   4.155   4.151  13.603 -0.0484  0.7104 -0.7188
  354TMC3     O 5306   4.125   4.036  13.581 -0.3769 -0.3544  0.0676
  354TMC3     H 5307   4.200   4.416  13.572 -1.5398  0.3373 -1.0915
  354TMC3    H1 5308   4.285   4.038  13.409 -2.2497 -0.3558 -0.4768
  354TMC3    H2 5309   4.458   4.390  13.237 -0.1353  1.4805  1.3842
  354TMC3    C7 5310   4.447   4.118  13.212 -0.0135 -0.4851  0.4040
  354TMC3    C8 5311   4.301   4.559  13.376  0.4460  0.8195  0.7616
  354TMC3    O1 5312   4.472   4.003  13.253  0.2108  0.0513 -1.0108
  354TMC3    O2 5313   4.263   4.620  13.479  0.8330  0.0653  0.3632
  355MPD2     C 5314   3.954   4.609  11.745 -0.3072  0.9181  0.0111
  355MPD2    C1 5315   4.018   4.673  11.647  0.2447  0.2358 -0.7158
  355MPD2    C2 5316   4.153   4.709  11.667 -0.4361 -0.2150 -0.3256
  355MPD2    C3 5317   4.209   4.697  11.793  0.3703  0.1914  0.5507
  355MPD2    C4 5318   4.141   4.638  11.891  0.2123 -0.1251 -0.4708
  355MPD2    C5 5319   4.015   4.594  11.871 -0.4394  0.2589 -0.1483
  355MPD2     H 5320   4.210   0.032  11.587  0.5183 -2.2780 -0.8455
  355MPD2    H1 5321   4.197   4.627  11.984  0.4571  0.7510 -0.5160
  355MPD2    H2 5322   3.863   4.554  11.729 -1.1589  2.0568  0.9350
  355MPD2    H3 5323   3.965   4.541  11.952 -2.1206  2.5357  0.2863
  355MPD2     N 5324   4.332   0.035  11.828  0.0954  0.5090 -0.1906
  355MPD2    H5 5325   4.360   0.031  11.926 -0.6136  2.8930  0.0943
  355MPD2    N1 5326   3.954   4.691  11.518 -0.0304 -0.1260  0.0990
  355MPD2    H7 5327   3.886   4.616  11.511  0.0964 -0.2154 -0.1784
  356TMC3    C1 5328   4.540   0.142  11.796  0.1346  1.2059 -0.2517
  356TMC3    C2 5329   4.624   0.198  11.708  0.0292 -0.0130 -0.1594
  356TMC3    C3 5330   4.706   0.291  11.750 -0.2490  0.3804 -0.5258
  356TMC3    C4 5331   4.534   0.180  11.926 -0.0439 -0.2288 -0.0310
  356TMC3    C5 5332   4.617   0.284  11.964 -0.7543  0.4970 -0.8930
  356TMC3    C6 5333   4.698   0.344  11.874 -0.2681 -0.6493 -0.7571
  356TMC3     C 5334   4.437   0.065  11.738  0.1126 -0.0839  0.1687
  356TMC3     O 5335   4.448   0.025  11.624  0.2189  0.0498 -0.0564
  356TMC3     H 5336   4.625   0.167  11.604 -1.2641  0.6409 -0.3624
  356TMC3    H1 5337   4.467   0.142  12.002  0.4671 -2.1385 -0.5347
  356TMC3    H2 5338   0.027   0.433  11.905  0.3372 -0.9884 -0.8210
  356TMC3    C7 5339   4.598   0.330  12.095 -0.1272 -0.1513 -0.4296
  356TMC3    C8 5340   0.082   0.338  11.653 -0.1551  0.7717 -0.2521
  356TMC3    O1 5341   4.513   0.280  12.158 -0.1977  0.3292  0.0515
  356TMC3    O2 5342   0.076   0.286  11.544  0.7728 -0.0615 -0.0886
  357MPD2     C 5343   3.455   0.146   0.495  0.2797 -0.5333  0.1997
  357MPD2    C1 5344   3.470   0.163   0.630  0.3809 -0.0891 -0.6348
  357MPD2    C2 5345   3.362   0.221   0.702  0.1824  0.1748  0.8732
  357MPD2    C3 5346   3.260   0.277   0.627  0.1928  0.3492 -0.1580
  357MPD2    C4 5347   3.251   0.261   0.488  0.0280  0.7622  0.3975
  357MPD2    C5 5348   3.348   0.193   0.426  0.1197 -0.0846 -0.9200
  357MPD2     H 5349   3.363   0.233   0.810  2.5903 -1.2125  0.9994
  357MPD2    H1 5350   3.164   0.287   0.428 -0.7768 -0.7351  0.9281
  357MPD2    H2 5351   3.532   0.090   0.444  1.6991  1.8105 -0.2493
  357MPD2    H3 5352   3.343   0.169   0.320  0.4619 -1.2500 -0.6717
  357MPD2     N 5353   3.163   0.345   0.709 -0.0355 -0.1572  0.0888
  357MPD2    H5 5354   3.163   0.336   0.810 -2.2453 -0.1849  0.0927
  357MPD2    N1 5355   3.590   0.122   0.682  0.0951 -0.3915 -0.4212
  357MPD2    H7 5356   3.669   0.085   0.631 -0.1670 -0.4194 -0.8095
  358TMC3    C1 5357   3.748   0.113   0.857  0.0258  0.6628  0.4571
  358TMC3    C2 5358   3.842   0.051   0.783 -0.2637  0.2625  0.4363
  358TMC3    C3 5359   3.968   0.049   0.832  0.1565 -0.2722 -0.7114
  358TMC3    C4 5360   3.775   0.159   0.981 -0.6967  0.4647 -0.4029
  358TMC3    C5 5361   3.906   0.162   1.027 -0.7332  0.3640  0.7194
  358TMC3    C6 5362   4.008   0.104   0.952 -0.6475 -0.6909 -0.1218
  358TMC3     C 5363   3.609   0.119   0.820 -0.0134 -0.4044 -0.0141
  358TMC3     O 5364   3.537   0.122   0.921  0.2839  0.5226 -0.3234
  358TMC3     H 5365   3.821   0.009   0.685  3.9486  0.8735 -0.7585
  358TMC3    H1 5366   3.697   0.212   1.034 -3.1517 -3.0387 -0.5254
  358TMC3    H2 5367   4.105   0.093   1.000  1.2047  2.4557 -3.2073
  358TMC3    C7 5368   3.929   0.181   1.173 -0.0122  0.3403  0.1060
  358TMC3    C8 5369   4.063   4.688   0.766  0.3967  0.2477  0.0863
  358TMC3    O1 5370   4.044   0.154   1.218 -0.3191  0.7079 -0.1505
  358TMC3    O2 5371   4.028   4.620   0.670 -0.4126  0.2189  0.1001
  359MPD2     C 5372   3.716   3.575  11.971  0.0027 -0.3178  0.2897
  359MPD2    C1 5373   3.812   3.545  12.066  0.4335  0.0619  0.0453
  359MPD2    C2 5374   3.782   3.585  12.196  0.2140 -0.3605 -0.0248
  359MPD2    C3 5375   3.662   3.636  12.236 -0.1102  0.0419 -0.2551
  359MPD2    C4 5376   3.567   3.663  12.140  0.2501 -0.3074  0.4286
  359MPD2    C5 5377   3.595   3.626  12.011 -0.4234  0.0169  0.0886
  359MPD2     H 5378   3.854   3.567  12.274  2.1166  3.0407 -0.9667
  359MPD2    H1 5379   3.470   3.706  12.165 -1.5903 -2.6716 -2.6101
  359MPD2    H2 5380   3.744   3.557  11.867  0.9278  0.2747  0.4434
  359MPD2    H3 5381   3.520   3.653  11.937  0.1777 -2.2705 -1.3645
  359MPD2     N 5382   3.637   3.696  12.369 -0.2856 -0.3767 -0.7183
  359MPD2    H5 5383   3.544   3.735  12.370 -0.3031 -0.4165 -0.9110
  359MPD2    N1 5384   3.944   3.507  12.037  0.0911 -0.1743 -0.5282
  359MPD2    H7 5385   3.995   3.499  12.124  0.6537 -0.5331 -0.8932
  360TMC3    C1 5386   4.121   3.394  11.929 -0.4118 -0.4113 -0.1855
  360TMC3    C2 5387   4.207   3.422  12.031  0.2233  0.0388 -1.1001
  360TMC3    C3 5388   4.334   3.372  12.013 -0.5394  0.5116 -0.3320
  360TMC3    C4 5389   4.152   3.311  11.825  0.1023 -0.3517 -0.6505
  360TMC3    C5 5390   4.276   3.253  11.813 -0.4835  0.1476 -0.7912
  360TMC3    C6 5391   4.372   3.290  11.905  0.7671 -0.3904  0.7142
  360TMC3     C 5392   3.991   3.461  11.918 -0.1944  0.7365  0.0019
  360TMC3     O 5393   3.935   3.439  11.812  0.2685  0.1355 -0.4948
  360TMC3     H 5394   4.193   3.504  12.100 -1.3426  0.5473 -2.0379
  360TMC3    H1 5395   4.080   3.283  11.749 -0.1063 -1.3870 -0.0678
  360TMC3    H2 5396   4.459   3.226  11.910  0.3355 -0.8489  2.5040
  360TMC3    C7 5397   4.315   3.216  11.680 -0.2196 -0.4889  0.2998
  360TMC3    C8 5398   4.434   3.400  12.120 -0.0427  0.4249  0.2803
  360TMC3    O1 5399   4.430   3.251  11.650 -0.4099 -0.0103  0.5445
  360TMC3    O2 5400   4.384   3.426  12.230  0.0452  0.2876  0.0849
  361MPD2     C 5401   1.664   2.522  17.527 -0.0316 -0.2932  0.4754
  361MPD2    C1 5402   1.659   2.438  17.417  0.1848  0.3127 -0.3081
  361MPD2    C2 5403   1.758   2.356  17.401 -0.0146 -0.0265  0.3333
  361MPD2    C3 5404   1.863   2.346  17.496 -0.2857 -0.5917  0.2067
  361MPD2    C4 5405   1.855   2.425  17.608 -0.0074  0.2620 -0.2056
  361MPD2    C5 5406   1.762   2.522  17.620  0.2601  0.7783  0.9852
  361MPD2     H 5407   1.772   2.310  17.304 -0.5806 -2.5375  1.4351
  361MPD2    H1 5408   1.927   2.418  17.688 -1.7074  2.8847  1.5874
  361MPD2    H2 5409   1.591   2.600  17.548 -0.4647 -0.6559  0.3162
  361MPD2    H3 5410   1.752   2.589   0.007  0.7065  2.0029  0.0729
  361MPD2     N 5411   1.966   2.249  17.496 -0.0522  0.0869  0.4119
  361MPD2    H5 5412   2.029   2.251  17.575  0.5584  1.0446 -0.0905
  361MPD2    N1 5413   1.554   2.449  17.327  0.3366 -0.0821 -0.3778
  361MPD2    H7 5414   1.480   2.513  17.355  0.5366 -0.5611  1.2467
  362TMC3    C1 5415   1.415   2.410  17.151  0.4889  0.1756 -0.7210
  362TMC3    C2 5416   1.314   2.431  17.236  0.7591 -0.1696  0.6650
  362TMC3    C3 5417   1.199   2.485  17.184 -0.6143 -0.6216 -0.4791
  362TMC3    C4 5418   1.410   2.441  17.022  0.1926  0.1327 -0.6059
  362TMC3    C5 5419   1.300   2.496  16.974 -0.1084  0.4287 -0.3532
  362TMC3    C6 5420   1.186   2.506  17.048 -0.0608  0.1896 -0.7451
  362TMC3     C 5421   1.545   2.391  17.206  0.2905  0.7531  0.1999
  362TMC3     O 5422   1.637   2.362  17.131 -0.0170  0.0026  0.0777
  362TMC3     H 5423   1.327   2.398  17.338  0.5706 -1.5993  0.2184
  362TMC3    H1 5424   1.497   2.432  16.958  0.7772 -0.3371  0.2621
  362TMC3    H2 5425   1.095   2.545  17.003 -2.2348 -3.3000  0.6741
  362TMC3    C7 5426   1.298   2.554  16.842  0.1016  0.3992  0.3745
  362TMC3    C8 5427   1.089   2.472  17.258  0.6038  0.1176 -0.3707
  362TMC3    O1 5428   1.218   2.637  16.819  0.0809  0.1856  0.2616
  362TMC3    O2 5429   1.098   2.391  17.347  0.0744  0.1967 -0.2896
  363TMC3    C1 5430   0.701   4.641   9.980  0.0758  0.8941 -0.2166
  363TMC3    C2 5431   0.591   4.557  10.000  0.9022 -0.5346 -1.0436
  363TMC3    C3 5432   0.466   4.606   9.964  0.0600 -0.1882  0.8436
  363TMC3    C4 5433   0.686   0.040   9.923  0.1243  0.2000 -0.2312
  363TMC3    C5 5434   0.560   0.084   9.895  0.1732  0.2682 -0.3046
  363TMC3    C6 5435   0.447   0.006   9.908 -0.1951 -0.7699 -0.1316
  363TMC3     C 5436   0.833   4.598  10.016 -0.5170  0.2977 -0.7734
  363TMC3     O 5437   0.929   4.671   9.987 -0.3629 -0.0639 -0.2366
  363TMC3     H 5438   0.600   4.457  10.041 -1.8692 -0.9218 -1.4145
  363TMC3    H1 5439   0.773   0.095   9.888  2.2126 -2.5974  0.6248
  363TMC3    H2 5440   0.349   0.051   9.917 -0.4942 -1.2409 -1.0461
  363TMC3    C7 5441   0.530   0.213   9.825  0.6841 -1.1979  0.5020
  363TMC3    C8 5442   0.342   4.527   9.985  0.3481 -0.2496 -0.0473
  363TMC3    O1 5443   0.618   0.297   9.809 -0.1218  0.0147  0.6733
  363TMC3    O2 5444   0.233   4.592   9.991  0.4388  0.4238  0.0517
  364MPD2     C 5445   3.089   4.300  10.644  0.6699 -0.6551 -0.1045
  364MPD2    C1 5446   3.181   4.288  10.539  0.3771 -0.6568  0.4837
  364MPD2    C2 5447   3.256   4.164  10.526  0.5613  0.8181 -0.7138
  364MPD2    C3 5448   3.246   4.063  10.621  0.2186 -0.2151  0.0608
  364MPD2    C4 5449   3.159   4.075  10.724 -0.3816 -0.6424 -1.3617
  364MPD2    C5 5450   3.086   4.193  10.730 -0.2855  0.3991 -0.0772
  364MPD2     H 5451   3.332   4.164  10.449  0.7196 -1.1396 -0.5365
  364MPD2    H1 5452   3.148   4.000  10.802 -0.5222  2.0139  1.1971
  364MPD2    H2 5453   3.021   4.382  10.660 -0.6120 -1.6880 -0.2754
  364MPD2    H3 5454   3.013   4.204  10.810 -0.7612  0.2513 -0.4933
  364MPD2     N 5455   3.344   3.961  10.628  0.3009  0.0832 -0.1509
  364MPD2    H5 5456   3.333   3.900  10.708 -1.0059 -1.5540 -1.5808
  364MPD2    N1 5457   3.204   4.390  10.445  0.0781  0.5883 -0.0558
  364MPD2    H7 5458   3.275   4.382  10.373  0.7266 -0.4244  0.6900
  365TMC3    C1 5459   3.213   4.613  10.370 -0.4734  0.5400 -0.1661
  365TMC3    C2 5460   3.262   4.577  10.244 -0.6825  0.6151 -0.1608
  365TMC3    C3 5461   3.334   4.675  10.177  0.5220 -0.2704  0.3420
  365TMC3    C4 5462   3.253   0.018  10.421  0.0107  0.1677  0.3552
  365TMC3    C5 5463   3.328   0.097  10.351 -0.0441 -0.3486 -0.2930
  365TMC3    C6 5464   3.367   0.072  10.223  0.2483  0.1884  0.4587
  365TMC3     C 5465   3.154   4.522  10.462  1.0115  0.1425 -0.1508
  365TMC3     O 5466   3.087   4.569  10.551 -0.1447  0.0193 -0.3813
  365TMC3     H 5467   3.221   4.483  10.210  2.4194 -1.5694  2.0779
  365TMC3    H1 5468   3.213   0.041  10.519 -2.3950  0.7819 -0.7625
  365TMC3    H2 5469   3.433   0.146  10.178 -1.6853  1.2882 -0.5723
  365TMC3    C7 5470   3.393   0.201  10.425 -0.1156  0.0576  0.3514
  365TMC3    C8 5471   3.396   4.640  10.053 -0.2898 -0.2459 -0.0306
  365TMC3    O1 5472   3.432   0.297  10.366 -0.7230 -0.5408  0.2983
  365TMC3    O2 5473   3.416   0.006   9.974 -0.1777 -0.0393  0.2651
  366MPD2     C 5474   1.828   0.803  15.125  1.1175 -0.9107 -0.8687
  366MPD2    C1 5475   1.890   0.899  15.206  0.0604 -0.0120 -0.1880
  366MPD2    C2 5476   2.027   0.893  15.219  0.2866  0.2070 -0.2012
  366MPD2    C3 5477   2.100   0.809  15.143 -0.4446  0.6666  0.2019
  366MPD2    C4 5478   2.045   0.718  15.064  0.5497  0.3144 -0.4092
  366MPD2    C5 5479   1.908   0.721  15.046 -0.4416  0.3282  0.1142
  366MPD2     H 5480   2.076   0.959  15.290 -0.3160  0.6426 -0.1947
  366MPD2    H1 5481   2.106   0.648  15.008  0.0555 -0.9013  0.5786
  366MPD2    H2 5482   1.721   0.802  15.111  1.0610 -0.4608 -0.5033
  366MPD2    H3 5483   1.856   0.660  14.972 -1.2691 -1.5473  2.2677
  366MPD2     N 5484   2.241   0.823  15.161 -0.7213  0.1216 -0.4388
  366MPD2    H5 5485   2.265   0.886  15.237 -0.5170  0.4859 -0.8076
  366MPD2    N1 5486   1.818   0.981  15.297 -0.7328  0.1700  0.9908
  366MPD2    H7 5487   1.879   1.042  15.351  0.7174 -1.0259  0.7028
  367TMC3    C1 5488   1.651   1.095  15.421 -0.0243 -0.3766  0.9295
  367TMC3    C2 5489   1.751   1.147  15.496 -0.4585  0.3940 -0.3599
  367TMC3    C3 5490   1.749   1.280  15.538  0.9492  0.5666  0.3290
  367TMC3    C4 5491   1.552   1.181  15.380 -0.5814 -0.3091  0.0806
  367TMC3    C5 5492   1.546   1.305  15.435  0.2551 -0.3211  0.0347
  367TMC3    C6 5493   1.640   1.363  15.511  0.5771 -0.3174  0.2577
  367TMC3     C 5494   1.684   0.997  15.314  0.6531  0.2313  0.1158
  367TMC3     O 5495   1.595   0.927  15.267 -0.2024 -0.5360  0.0713
  367TMC3     H 5496   1.837   1.086  15.521  0.7462  2.0332 -0.5012
  367TMC3    H1 5497   1.483   1.137  15.309  0.9498  0.7912 -2.0704
  367TMC3    H2 5498   1.626   1.462  15.551  1.5269 -0.2519  0.4247
  367TMC3    C7 5499   1.471   1.407  15.361 -0.0171  0.1533 -0.0141
  367TMC3    C8 5500   1.870   1.335  15.595 -0.1942  0.1502  0.0710
  367TMC3    O1 5501   1.535   1.507  15.329 -0.2470 -0.0632 -0.2842
  367TMC3    O2 5502   1.947   1.249  15.633  0.0869 -0.0134 -0.3906
  368MPD2     C 5503   3.147   2.637  13.399 -0.2710  0.1685 -0.7846
  368MPD2    C1 5504   3.125   2.669  13.261 -0.6413 -0.0087 -0.3316
  368MPD2    C2 5505   3.236   2.699  13.182 -0.2531  0.6254  0.8238
  368MPD2    C3 5506   3.367   2.691  13.224  0.8891  0.3342 -0.4247
  368MPD2    C4 5507   3.386   2.667  13.359 -0.4572 -0.2394  0.2222
  368MPD2    C5 5508   3.280   2.639  13.442 -0.1965 -0.7393 -0.1188
  368MPD2     H 5509   3.218   2.719  13.077  0.1630 -0.7644  0.4856
  368MPD2    H1 5510   3.479   2.655  13.413 -0.1219  1.1632 -0.0556
  368MPD2    H2 5511   3.065   2.606  13.462 -0.1931 -0.5083 -1.0171
  368MPD2    H3 5512   3.301   2.606  13.543 -2.8333 -0.0617  0.6699
  368MPD2     N 5513   3.485   2.710  13.144  0.8420 -0.1868  0.0520
  368MPD2    H5 5514   3.573   2.706  13.194  1.9030 -1.0925 -1.8816
  368MPD2    N1 5515   2.988   2.678  13.213  0.4233  0.0374  1.5256
  368MPD2    H7 5516   2.919   2.665  13.287 -0.6773  0.2783  0.5350
  369TMC3    C1 5517   2.789   2.760  13.113  0.3183  0.1740 -0.8052
  369TMC3    C2 5518   2.736   2.874  13.066  1.0627  0.1984 -0.0834
  369TMC3    C3 5519   2.597   2.884  13.075 -0.7550 -0.1194 -0.1195
  369TMC3    C4 5520   2.721   2.653  13.173 -0.6012 -0.1131  0.2538
  369TMC3    C5 5521   2.585   2.669  13.167  0.3120 -0.7773  1.4742
  369TMC3    C6 5522   2.521   2.783  13.127 -0.1616 -0.4056 -0.3660
  369TMC3     C 5523   2.936   2.746  13.102  1.1577  0.2842  1.1575
  369TMC3     O 5524   2.999   2.824  13.027  0.4358  0.1342 -0.6402
  369TMC3     H 5525   2.809   2.948  13.033 -0.0098  2.0769  1.7025
  369TMC3    H1 5526   2.768   2.558  13.194  3.1413  1.7446  0.2847
  369TMC3    H2 5527   2.416   2.808  13.136 -0.2288 -1.2063  0.9995
  369TMC3    C7 5528   2.510   2.583  13.256 -0.1149 -0.0392 -0.2091
  369TMC3    C8 5529   2.535   3.015  13.096  0.4317  0.1237  0.0597
  369TMC3    O1 5530   2.557   2.522  13.348 -0.0257 -0.0708 -0.2856
  369TMC3    O2 5531   2.435   3.021  13.165  0.4093  0.3356 -0.1532
  370TMC3    C1 5532   2.809   3.518  16.372  0.0923  0.0117  0.1874
  370TMC3    C2 5533   2.755   3.434  16.472  0.3129 -0.0155  0.2953
  370TMC3    C3 5534   2.753   3.295  16.437  0.8403 -0.3509  0.3394
  370TMC3    C4 5535   2.862   3.472  16.254 -0.1718  0.5847  0.1303
  370TMC3    C5 5536   2.854   3.337  16.226  0.6658  0.0571  0.5583
  370TMC3    C6 5537   2.801   3.243  16.313 -0.0656 -0.8097 -0.2989
  370TMC3     C 5538   2.752   3.648  16.367 -0.2220 -0.2393  0.4250
  370TMC3     O 5539   2.642   3.671  16.411  0.0686 -0.1187 -0.0473
  370TMC3     H 5540   2.726   3.472  16.569  0.6300  1.4207 -0.1763
  370TMC3    H1 5541   2.892   3.537  16.173  0.0828 -0.2259 -0.4224
  370TMC3    H2 5542   2.775   3.140  16.289 -1.7050 -0.4461 -0.0499
  370TMC3    C7 5543   2.913   3.283  16.105 -0.4111  0.5700 -0.4663
  370TMC3    C8 5544   2.721   3.201  16.540 -0.4789  0.0085  0.8043
  370TMC3    O1 5545   2.914   3.359  16.009  0.3065 -0.1937  0.4421
  370TMC3    O2 5546   2.751   3.081  16.522 -0.2540  0.0335  0.3038
  371TMC3    C1 5547   4.017   1.436  15.724  0.4418 -0.2704  0.4059
  371TMC3    C2 5548   3.927   1.482  15.821  0.1388  0.5598  0.0665
  371TMC3    C3 5549   3.904   1.617  15.836 -0.6160  0.0238  0.3912
  371TMC3    C4 5550   4.096   1.528  15.661 -0.7077 -0.8867 -0.1517
  371TMC3    C5 5551   4.063   1.656  15.668  0.8770 -0.0084 -0.4044
  371TMC3    C6 5552   3.970   1.703  15.753  0.1577  0.1820 -0.0829
  371TMC3     C 5553   4.071   1.299  15.756 -0.7545  0.0923 -1.0054
  371TMC3     O 5554   4.191   1.285  15.735  0.6827  0.3569 -0.3869
  371TMC3     H 5555   3.861   1.414  15.874  1.6316 -0.3000  0.8055
  371TMC3    H1 5556   4.187   1.509  15.604 -1.5386 -1.3641 -1.3138
  371TMC3    H2 5557   3.937   1.805  15.739  0.3639  0.3107  0.3635
  371TMC3    C7 5558   4.120   1.738  15.559  0.6327  1.1432  0.4851
  371TMC3    C8 5559   3.763   1.655  15.847  0.5126  0.5029 -0.3697
  371TMC3    O1 5560   4.159   1.846  15.599  0.2490  0.4143 -0.4475
  371TMC3    O2 5561   3.684   1.562  15.843 -0.0358  0.5312  0.0739
  372MPD2     C 5562   2.806   2.912  13.437  0.0457  0.5156  0.1099
  372MPD2    C1 5563   2.931   2.889  13.492 -0.0889 -0.7752 -0.6817
  372MPD2    C2 5564   2.948   2.800  13.598 -0.4192  0.1087  0.0941
  372MPD2    C3 5565   2.837   2.728  13.639 -0.1671  0.2071  0.2859
  372MPD2    C4 5566   2.707   2.754  13.588  0.1791  0.3688  0.4633
  372MPD2    C5 5567   2.700   2.848  13.486  0.5898  0.3913  0.2690
  372MPD2     H 5568   3.045   2.774  13.639  1.3625  4.7068 -1.1406
  372MPD2    H1 5569   2.615   2.700  13.608  0.9427 -0.6606  1.1556
  372MPD2    H2 5570   2.794   2.978  13.352  1.8609  1.1397  0.3390
  372MPD2    H3 5571   2.600   2.877  13.453  0.6524  2.1837  1.6237
  372MPD2     N 5572   2.866   2.629  13.744  0.3671 -0.2905  0.2902
  372MPD2    H5 5573   2.960   2.626  13.782  0.5593  1.1333 -0.0871
  372MPD2    N1 5574   3.048   2.948  13.442 -0.0640 -0.2092  0.6086
  372MPD2    H7 5575   3.134   2.920  13.490  0.4790 -1.7612 -1.2469
  373TMC3    C1 5576   2.839   2.475  13.911  0.9777 -0.6909  0.3802
  373TMC3    C2 5577   2.811   2.516  14.041 -0.3344 -0.4049 -0.1650
  373TMC3    C3 5578   2.892   2.476  14.140  0.5314  0.0944 -0.4257
  373TMC3    C4 5579   2.947   2.401  13.872 -0.1585  0.2317  0.3660
  373TMC3    C5 5580   3.027   2.368  13.980  0.3517  0.0602 -0.5237
  373TMC3    C6 5581   2.995   2.391  14.114  0.2367  0.9279 -0.1921
  373TMC3     C 5582   2.774   2.544  13.804  0.5254  0.6430  0.1357
  373TMC3     O 5583   2.657   2.538  13.783  0.3866  0.3652  0.3267
  373TMC3     H 5584   2.714   2.565  14.044  0.8473  1.9644 -1.1972
  373TMC3    H1 5585   2.981   2.388  13.770 -0.4612 -2.8000  0.6296
  373TMC3    H2 5586   3.059   2.351  14.192  0.1038 -0.5378 -0.8371
  373TMC3    C7 5587   3.144   2.283  13.946  0.0553  0.1678 -0.1803
  373TMC3    C8 5588   2.926   2.573  14.241 -0.2388 -0.0164  0.1155
  373TMC3    O1 5589   3.143   2.244  13.830 -0.6567  0.0220 -0.4722
  373TMC3    O2 5590   3.018   2.537  14.315  0.0950 -0.2549  0.5093
  374TMC3    C1 5591   4.063   2.497   9.482 -0.1383 -0.1339  0.0663
  374TMC3    C2 5592   4.100   2.590   9.572 -0.3083  0.3673 -0.3493
  374TMC3    C3 5593   4.145   2.717   9.534 -0.2642  0.0619  0.2883
  374TMC3    C4 5594   4.079   2.510   9.347  0.0240 -0.2601 -0.1704
  374TMC3    C5 5595   4.115   2.640   9.310 -0.0397 -1.2284 -0.0962
  374TMC3    C6 5596   4.135   2.747   9.403 -0.2029 -0.4661  0.5052
  374TMC3     C 5597   4.033   2.365   9.529 -0.6266  0.8057  0.5226
  374TMC3     O 5598   3.987   2.360   9.643  0.3356 -0.5948  0.0403
  374TMC3     H 5599   4.107   2.554   9.674  4.0889  0.8966 -0.4664
  374TMC3    H1 5600   4.048   2.439   9.272 -0.3072  0.5414 -0.7962
  374TMC3    H2 5601   4.175   2.843   9.373  0.8233 -1.6005 -1.7915
  374TMC3    C7 5602   4.183   2.645   9.179  0.2193  0.0437 -0.1788
  374TMC3    C8 5603   4.141   2.825   9.631 -0.5851  0.6022 -0.5105
  374TMC3    O1 5604   4.232   2.539   9.138  0.1084  0.0324  0.5067
  374TMC3    O2 5605   4.127   2.941   9.591 -0.0016 -0.5650 -0.2817
  375MPD2     C 5606   3.792   3.603  17.298 -0.2299 -1.0707  0.3117
  375MPD2    C1 5607   3.763   3.687  17.191 -0.2892 -0.1148 -0.0791
  375MPD2    C2 5608   3.786   3.643  17.060  0.0380  0.5485  0.5819
  375MPD2    C3 5609   3.845   3.524  17.035 -0.1928  0.6069 -0.5101
  375MPD2    C4 5610   3.876   3.440  17.138 -0.3614 -0.0972  0.7064
  375MPD2    C5 5611   3.847   3.479  17.266 -0.0928 -0.1460  1.3463
  375MPD2     H 5612   3.775   3.716  16.981  2.6187  0.9558  0.5946
  375MPD2    H1 5613   3.923   3.342  17.128  0.7802  0.8488 -3.1569
  375MPD2    H2 5614   3.759   3.626  17.399 -1.1384 -1.0598  0.0056
  375MPD2    H3 5615   3.871   3.408  17.344 -0.6344 -1.9965 -0.1928
  375MPD2     N 5616   3.903   3.495  16.908  0.3015  0.2612 -0.1975
  375MPD2    H5 5617   3.965   3.416  16.899  0.8762  0.7154 -0.2175
  375MPD2    N1 5618   3.713   3.823  17.214  0.1407  0.2176 -0.0450
  375MPD2    H7 5619   3.673   3.862  17.129  1.0428  2.3590  0.5064
  376TMC3    C1 5620   3.999   3.555  16.707  1.1948 -0.6444  0.0754
  376TMC3    C2 5621   4.121   3.543  16.757  0.1113 -0.2063 -0.0174
  376TMC3    C3 5622   4.223   3.507  16.674 -0.5028 -0.6790 -0.0044
  376TMC3    C4 5623   3.970   3.545  16.574  0.1021 -0.0574  0.9459
  376TMC3    C5 5624   4.070   3.498  16.490 -0.2900  0.6394 -0.3842
  376TMC3    C6 5625   4.203   3.485  16.536  0.4802  0.6225 -0.2312
  376TMC3     C 5626   3.887   3.575  16.795  0.9546 -0.4826 -0.3037
  376TMC3     O 5627   3.800   3.653  16.754  0.1301  0.0159 -0.0143
  376TMC3     H 5628   4.138   3.533  16.863  1.4056  3.4115  0.0964
  376TMC3    H1 5629   3.869   3.560  16.538  0.1555 -1.8947  0.0392
  376TMC3    H2 5630   4.285   3.447  16.476  1.4024  1.0190  0.7880
  376TMC3    C7 5631   4.047   3.500  16.349  0.4649 -0.1952  0.0447
  376TMC3    C8 5632   4.360   3.511  16.716 -0.6862  0.8112  0.5887
  376TMC3    O1 5633   3.971   3.583  16.306 -0.1058  0.0974 -0.3300
  376TMC3    O2 5634   4.386   3.465  16.824 -0.5151  0.1273  0.4413
  377MPD2     C 5635   1.705   3.756  12.358  0.1181  0.5306  0.3819
  377MPD2    C1 5636   1.767   3.651  12.418 -0.1516  0.1379 -0.2092
  377MPD2    C2 5637   1.711   3.579  12.526  0.4542  0.1585  0.7593
  377MPD2    C3 5638   1.586   3.622  12.575 -0.0631  0.8618 -0.1343
  377MPD2    C4 5639   1.527   3.732  12.519 -0.5502  0.3412  0.7094
  377MPD2    C5 5640   1.582   3.793  12.408 -0.6678 -0.1720  0.3144
  377MPD2     H 5641   1.756   3.492  12.573 -1.0289 -2.5341 -2.7756
  377MPD2    H1 5642   1.437   3.776  12.560  0.1875  0.5833  2.0385
  377MPD2    H2 5643   1.747   3.803  12.270 -0.1377  2.0122  1.0472
  377MPD2    H3 5644   1.531   3.880  12.369  0.6411  0.6271  0.3848
  377MPD2     N 5645   1.510   3.550  12.664  0.1399 -0.0069 -0.2020
  377MPD2    H5 5646   1.441   3.607  12.711  3.0723  1.9033  1.7727
  377MPD2    N1 5647   1.895   3.618  12.372 -0.2717 -0.4776 -0.5551
  377MPD2    H7 5648   1.927   3.665  12.289 -0.8663 -0.2778 -0.6730
  378TMC3    C1 5649   2.168   3.410  12.138 -0.1924  0.0946  0.4839
  378TMC3    C2 5650   2.075   3.478  12.218 -0.7024 -0.0050  0.3931
  378TMC3    C3 5651   2.091   3.486  12.356  0.2472  0.3618  0.3845
  378TMC3    C4 5652   2.272   3.341  12.197  0.5838  1.0470  0.0107
  378TMC3    C5 5653   2.275   3.348  12.339 -0.4793  0.2971 -0.1244
  378TMC3    C6 5654   2.184   3.412  12.418 -0.5077 -0.7126  0.4530
  378TMC3     C 5655   2.127   3.345  12.016 -0.5305  0.0330 -1.1030
  378TMC3     O 5656   2.205   3.292  11.942  0.2973 -0.5883  0.0467
  378TMC3     H 5657   2.004   3.534  12.160 -0.8411 -0.6487 -0.0602
  378TMC3    H1 5658   2.325   3.263  12.143  0.4561 -0.4054  1.9771
  378TMC3    H2 5659   2.186   3.397  12.525  0.4948  1.3235  0.6954
  378TMC3    C7 5660   2.394   3.289  12.406  0.7962  0.1553 -0.2012
  378TMC3    C8 5661   1.977   3.532  12.436  0.7045 -0.1881  0.0154
  378TMC3    O1 5662   2.390   3.287  12.525 -0.6639 -0.0794  0.2745
  378TMC3    O2 5663   1.970   3.494  12.556 -0.0221  0.1361  0.0147
  379MPD2     C 5664   2.646   1.008  16.266 -0.4812 -0.4558  0.5916
  379MPD2    C1 5665   2.751   1.023  16.179 -0.3630  0.3668  0.2235
  379MPD2    C2 5666   2.877   0.995  16.226  0.1208  0.4727  0.1289
  379MPD2    C3 5667   2.906   0.946  16.354 -0.1183  0.8949 -0.2416
  379MPD2    C4 5668   2.795   0.931  16.440  0.1806 -0.3600 -0.4434
  379MPD2    C5 5669   2.670   0.957  16.393  0.4431  0.5065 -0.1470
  379MPD2     H 5670   2.958   1.003  16.154  0.2240  0.8071  0.2813
  379MPD2    H1 5671   2.810   0.877  16.533 -3.1509  1.1442  0.9948
  379MPD2    H2 5672   2.546   1.048  16.253 -0.0593 -0.2636 -2.0433
  379MPD2    H3 5673   2.586   0.944  16.461 -0.1586  2.3292 -0.5238
  379MPD2     N 5674   3.033   0.911  16.408 -0.0617 -0.0484 -0.2415
  379MPD2    H5 5675   3.028   0.891  16.507 -1.9156 -0.2407 -0.3643
  379MPD2    N1 5676   2.722   1.094  16.056  0.1578  0.3680 -0.0762
  379MPD2    H7 5677   2.624   1.121  16.050  0.4897  2.0105  1.8921
  380TMC3    C1 5678   2.733   1.163  15.833 -0.1143 -0.0385 -0.1368
  380TMC3    C2 5679   2.818   1.182  15.724  0.2410 -0.1662 -0.1339
  380TMC3    C3 5680   2.763   1.249  15.613 -0.1992 -0.6472  0.4182
  380TMC3    C4 5681   2.601   1.214  15.828 -0.3222  0.4501  0.0741
  380TMC3    C5 5682   2.556   1.286  15.714  0.5522  0.0486  0.6004
  380TMC3    C6 5683   2.646   1.310  15.610 -0.4054 -0.0067 -0.3561
  380TMC3     C 5684   2.802   1.108  15.949  0.7351 -0.2367  0.3412
  380TMC3     O 5685   2.919   1.077  15.943 -0.3894  0.1056  0.1367
  380TMC3     H 5686   2.922   1.149  15.724  1.2147  2.8856 -2.7565
  380TMC3    H1 5687   2.530   1.200  15.909 -2.3388 -0.7835 -1.8883
  380TMC3    H2 5688   2.609   1.354  15.518 -1.4178 -0.8873 -0.3713
  380TMC3    C7 5689   2.416   1.336  15.717  0.6858 -0.8025 -0.0939
  380TMC3    C8 5690   2.849   1.276  15.500 -0.5851 -0.0294 -0.4395
  380TMC3    O1 5691   2.343   1.287  15.800 -0.1252  0.6325 -0.1892
  380TMC3    O2 5692   2.798   1.313  15.397  0.3194 -0.0035 -0.2691
  381TMC3    C1 5693   2.852   2.487  16.233  0.7033 -0.5233 -1.1428
  381TMC3    C2 5694   2.948   2.581  16.245 -0.3018  0.4976 -0.3586
  381TMC3    C3 5695   2.950   2.669  16.352  0.2024 -0.0434  0.2697
  381TMC3    C4 5696   2.767   2.466  16.338  0.2412 -0.4235  0.0542
  381TMC3    C5 5697   2.778   2.550  16.444  0.1782 -0.3395 -0.1369
  381TMC3    C6 5698   2.861   2.657  16.451  0.4733  0.9259 -0.8553
  381TMC3     C 5699   2.878   2.377  16.141  0.8740 -0.7508  0.0758
  381TMC3     O 5700   2.976   2.389  16.077  0.2029  0.0850 -0.3708
  381TMC3     H 5701   3.009   2.589  16.156 -0.0449 -3.0371 -0.5118
  381TMC3    H1 5702   2.686   2.394  16.340 -0.4865  0.5817  4.8740
  381TMC3    H2 5703   2.868   2.716  16.542  2.4350  0.1198 -0.4855
  381TMC3    C7 5704   2.714   2.508  16.564  0.0854 -0.6266  0.0921
  381TMC3    C8 5705   3.064   2.761  16.368 -0.0625  0.4398  0.3309
  381TMC3    O1 5706   2.695   2.390  16.562  0.0285  0.1195  0.2067
  381TMC3    O2 5707   3.160   2.741  16.291 -0.2424 -0.0871  0.0978
  382MPD2     C 5708   2.014   0.221  17.156 -0.5892 -0.2024 -0.4620
  382MPD2    C1 5709   1.933   0.263  17.264 -0.5552 -0.8385 -0.6117
  382MPD2    C2 5710   1.842   0.176  17.324  0.3217  0.4298  0.3189
  382MPD2    C3 5711   1.830   0.044  17.280  0.2292  0.8367 -0.5327
  382MPD2    C4 5712   1.911   0.002  17.174 -0.3155  0.4216 -0.3118
  382MPD2    C5 5713   2.005   0.092  17.116  0.0520 -0.3456 -0.1016
  382MPD2     H 5714   1.783   0.219  17.404  1.0545  0.5783  0.7805
  382MPD2    H1 5715   1.899   4.626  17.133 -1.0845  0.5594 -0.4339
  382MPD2    H2 5716   2.067   0.292  17.094 -2.0484  0.5774 -0.8086
  382MPD2    H3 5717   2.064   0.045  17.038 -2.0301  0.3777 -2.1102
  382MPD2     N 5718   1.755   4.669  17.350  0.9883 -0.0616 -0.1938
  382MPD2    H5 5719   1.767   4.573  17.320 -1.0221 -0.1635 -0.6430
  382MPD2    N1 5720   1.951   0.389  17.326 -0.1913  0.0746  0.0893
  382MPD2    H7 5721   1.876   0.410  17.391  1.1626 -1.0043  1.9934
  383TMC3    C1 5722   1.644   4.584  17.547 -0.3788  0.1047  0.5996
  383TMC3    C2 5723   1.636   4.460  17.485 -1.0325 -0.3822  0.2597
  383TMC3    C3 5724   1.621   4.349  17.571 -0.4617 -0.0486  0.2987
  383TMC3    C4 5725   1.637   4.607  17.683  0.0266 -0.2152  0.3762
  383TMC3    C5 5726   1.618   4.491   0.059  0.2177  0.5651 -0.1006
  383TMC3    C6 5727   1.614   4.360   0.008 -0.1867 -0.0515 -0.4728
  383TMC3     C 5728   1.679   4.701  17.463 -0.1622  0.2275 -0.3672
  383TMC3     O 5729   1.647   0.086  17.503 -0.2926 -0.1635  0.2868
  383TMC3     H 5730   1.625   4.447  17.378  0.6031  1.8142 -0.1704
  383TMC3    H1 5731   1.651   4.705   0.030 -1.6838  0.2934 -0.1908
  383TMC3    H2 5732   1.593   4.273   0.069 -1.7171  0.1335 -0.7482
  383TMC3    C7 5733   1.589   4.492   0.199  0.4058  0.1065 -0.4904
  383TMC3    C8 5734   1.633   4.214  17.526  0.1627  0.6489  0.0469
  383TMC3    O1 5735   1.589   4.388   0.261 -0.5625 -0.0280  0.1669
  383TMC3    O2 5736   1.660   4.124  17.604  0.0703  0.2340  0.2589
  384MPD2     C 5737   3.167   1.439  11.957 -0.1639 -0.5928 -0.1877
  384MPD2    C1 5738   3.141   1.330  12.029 -0.5031 -0.1724  0.0522
  384MPD2    C2 5739   3.210   1.207  11.999 -0.2891  0.0293 -0.0659
  384MPD2    C3 5740   3.300   1.195  11.902 -0.6377  0.0253 -0.2245
  384MPD2    C4 5741   3.328   1.317  11.831  0.0934 -0.6024  0.0079
  384MPD2    C5 5742   3.259   1.432  11.856 -0.9507  0.4839 -0.4440
  384MPD2     H 5743   3.186   1.126  12.067  1.0003 -1.6426 -1.6312
  384MPD2    H1 5744   3.398   1.313  11.749 -0.2121 -3.1555 -0.1412
  384MPD2    H2 5745   3.119   1.534  11.977 -3.7531 -2.2816 -0.7933
  384MPD2    H3 5746   3.272   1.521  11.795  1.1977  0.7245  0.3591
  384MPD2     N 5747   3.387   1.082  11.900  0.3931  0.2765  0.3318
  384MPD2    H5 5748   3.478   1.084  11.854  0.7851  0.0269  1.0846
  384MPD2    N1 5749   3.063   1.323  12.145  0.3887 -0.6223 -0.1781
  384MPD2    H7 5750   3.082   1.244  12.206 -0.8932 -0.1419  0.8534
  385TMC3    C1 5751   3.480   0.903  12.011  0.1627  0.4606  0.8943
  385TMC3    C2 5752   3.479   0.772  12.004 -0.1942  0.2678 -0.2990
  385TMC3    C3 5753   3.521   0.703  12.106  0.1158 -0.1755  0.0242
  385TMC3    C4 5754   3.525   0.970  12.118  0.4705  0.1228 -0.3143
  385TMC3    C5 5755   3.563   0.894  12.230  0.0404 -0.0599 -0.2191
  385TMC3    C6 5756   3.568   0.762  12.214  0.1325  0.3548 -0.2441
  385TMC3     C 5757   3.360   0.970  11.966 -0.0467  0.6081 -0.1104
  385TMC3     O 5758   3.256   0.928  12.007 -0.0278  0.0335  0.1100
  385TMC3     H 5759   3.426   0.731  11.919  0.5119 -0.0613 -0.5799
  385TMC3    H1 5760   3.485   1.067  12.142  1.3111  0.2945  0.3807
  385TMC3    H2 5761   3.615   0.702  12.291 -2.5917 -1.0429  0.3188
  385TMC3    C7 5762   3.544   0.948  12.362 -0.3627 -0.2335 -0.0760
  385TMC3    C8 5763   3.554   0.563  12.091 -0.0187 -0.1220 -0.0406
  385TMC3    O1 5764   3.565   1.070  12.373  0.3681  0.4587 -0.6108
  385TMC3    O2 5765   3.583   0.506  12.194 -0.0426  0.4700 -1.0768
  386TMC3    C1 5766   3.711   3.225  12.062  0.1086  0.3402  0.6113
  386TMC3    C2 5767   3.749   3.181  11.936  0.1383 -0.1723 -0.5201
  386TMC3    C3 5768   3.672   3.224  11.829  0.0930 -0.2990  0.2980
  386TMC3    C4 5769   3.589   3.289  12.081 -0.6029  0.7035 -0.6891
  386TMC3    C5 5770   3.502   3.300  11.972  0.0893 -0.8584 -0.0336
  386TMC3    C6 5771   3.549   3.289  11.844  0.2415  0.3865  0.2664
  386TMC3     C 5772   3.767   3.147  12.175  0.9204 -0.2599  0.1889
  386TMC3     O 5773   3.791   3.212  12.275 -0.1814  0.0329  0.1213
  386TMC3     H 5774   3.846   3.134  11.924 -0.0010  0.4277 -4.1001
  386TMC3    H1 5775   3.549   3.278  12.181  3.1524 -0.9570  0.6124
  386TMC3    H2 5776   3.488   3.303  11.755 -2.5076 -1.4529  1.8656
  386TMC3    C7 5777   3.364   3.337  12.000 -0.4278  0.8427 -0.3340
  386TMC3    C8 5778   3.726   3.200  11.699 -0.1068 -1.0880  0.3513
  386TMC3    O1 5779   3.348   3.392  12.109  0.0549 -0.0440 -0.1773
  386TMC3    O2 5780   3.847   3.172  11.702 -0.0301 -0.5047  0.0467
  387MPD2     C 5781   1.174   2.937  10.009 -0.0512 -0.2355 -0.3794
  387MPD2    C1 5782   1.196   2.888  10.135  0.1680 -0.4193 -0.3369
  387MPD2    C2 5783   1.244   2.766  10.161 -0.4361  0.0756  0.0646
  387MPD2    C3 5784   1.264   2.680  10.055 -0.2333  0.3866  0.4015
  387MPD2    C4 5785   1.237   2.727   9.925  0.5086 -0.2557  0.1255
  387MPD2    C5 5786   1.195   2.848   9.906  0.4277  0.2811 -0.8962
  387MPD2     H 5787   1.289   2.735  10.255  0.1449 -0.6288 -0.4448
  387MPD2    H1 5788   1.252   2.656   9.844  0.1939 -0.1325 -0.0407
  387MPD2    H2 5789   1.151   3.039   9.980 -3.6277 -0.5815  1.2458
  387MPD2    H3 5790   1.182   2.880   9.803  1.9638 -0.5385 -1.3444
  387MPD2     N 5791   1.320   2.551  10.090  1.0939  0.1195 -0.1229
  387MPD2    H5 5792   1.317   2.527  10.189 -0.7984  0.8194 -0.0028
  387MPD2    N1 5793   1.179   2.966  10.251  0.4095  0.4630  0.9381
  387MPD2    H7 5794   1.210   2.922  10.337 -0.2041 -0.3992  0.7225
  388TMC3    C1 5795   1.246   3.143  10.374  0.2926 -0.1271 -0.1097
  388TMC3    C2 5796   1.250   3.274  10.408 -0.3343 -1.1750  0.2798
  388TMC3    C3 5797   1.330   3.309  10.518  0.2330 -0.1754  0.1606
  388TMC3    C4 5798   1.316   3.045  10.440  0.0882 -0.1040  0.5628
  388TMC3    C5 5799   1.386   3.084  10.549  1.0023  0.1729  0.4721
  388TMC3    C6 5800   1.396   3.216  10.595  0.9679 -0.5736 -0.1269
  388TMC3     C 5801   1.179   3.103  10.250  0.2056 -0.6923 -0.6957
  388TMC3     O 5802   1.114   3.183  10.183 -0.9261  0.2409 -0.4325
  388TMC3     H 5803   1.196   3.351  10.354  0.2351 -1.1419 -0.2331
  388TMC3    H1 5804   1.364   2.975  10.373 -1.0186  0.3158 -0.6760
  388TMC3    H2 5805   1.475   3.249  10.662  1.3304 -0.1936 -0.7386
  388TMC3    C7 5806   1.491   2.994  10.590 -0.6855  0.5498 -0.0212
  388TMC3    C8 5807   1.370   3.448  10.540  0.3417 -0.3381  0.1738
  388TMC3    O1 5808   1.573   3.034  10.673 -0.0721 -0.3942  0.1695
  388TMC3    O2 5809   1.422   3.475  10.651  0.0268  0.0513  0.3840
  389MPD2     C 5810   0.733   1.369  11.588  0.0688  0.6464  0.2124
  389MPD2    C1 5811   0.657   1.285  11.507  0.2457  0.5467 -0.0709
  389MPD2    C2 5812   0.546   1.221  11.571  0.0271 -0.6548 -0.0441
  389MPD2    C3 5813   0.518   1.241  11.704 -0.3205 -0.2724  0.1491
  389MPD2    C4 5814   0.605   1.326  11.782  0.0833  0.1646  0.3147
  389MPD2    C5 5815   0.713   1.389  11.722 -0.3758 -1.4275  0.1022
  389MPD2     H 5816   0.483   1.151  11.517 -2.0487 -0.4723  2.1324
  389MPD2    H1 5817   0.576   1.347  11.885 -1.2638 -0.5386  0.0833
  389MPD2    H2 5818   0.821   1.414  11.545 -0.3322  1.5241  0.3071
  389MPD2    H3 5819   0.779   1.442  11.788 -1.7145 -1.0479  1.1415
  389MPD2     N 5820   0.420   1.181  11.782  0.3493  0.0001  0.0609
  389MPD2    H5 5821   0.415   1.209  11.879 -1.6426  0.1115 -0.0897
  389MPD2    N1 5822   0.689   1.282  11.370  0.4806  0.8329  0.1067
  389MPD2    H7 5823   0.768   1.333  11.333 -0.3424  0.2110 -2.4423
  390TMC3    C1 5824   0.240   1.047  11.846 -0.5512 -0.0411 -0.2131
  390TMC3    C2 5825   0.169   0.933  11.834  0.1829 -0.0759  0.5981
  390TMC3    C3 5826   0.066   0.905  11.922 -0.2243 -0.3803  0.2606
  390TMC3    C4 5827   0.210   1.139  11.945 -0.3155  0.1669  0.5399
  390TMC3    C5 5828   0.109   1.100  12.033  0.8355  0.0536 -0.0750
  390TMC3    C6 5829   0.030   0.994  12.015 -0.2572  0.4091 -0.3353
  390TMC3     C 5830   0.329   1.083  11.747  0.1744  0.2045  0.2587
  390TMC3     O 5831   0.313   1.034  11.636 -0.4165  1.0275  0.4273
  390TMC3     H 5832   0.203   0.861  11.761 -1.2303  2.5828 -2.6508
  390TMC3    H1 5833   0.272   1.225  11.966 -1.3991  0.7326  1.3992
  390TMC3    H2 5834   4.684   0.969  12.094 -1.5594  0.3419 -1.5217
  390TMC3    C7 5835   0.057   1.216  12.095  0.5168 -0.7983 -0.2876
  390TMC3    C8 5836   4.710   0.788  11.886 -0.3326  0.0316  0.7794
  390TMC3    O1 5837   0.141   1.285  12.155  0.5217 -0.0637  0.2361
  390TMC3    O2 5838   0.030   0.711  11.803 -0.3347  0.2538 -0.3289
  391MPD2     C 5839   4.173   2.622  11.177 -0.1198  0.2138 -0.0348
  391MPD2    C1 5840   4.292   2.683  11.186 -0.5716  0.0828  0.0285
  391MPD2    C2 5841   4.368   2.697  11.066 -0.9016  0.1470  0.2631
  391MPD2    C3 5842   4.319   2.654  10.948  0.0798 -0.0928 -0.3501
  391MPD2    C4 5843   4.190   2.612  10.941  0.3583  0.1595  0.4194
  391MPD2    C5 5844   4.115   2.602  11.056 -0.8541  0.1859 -0.2978
  391MPD2     H 5845   4.472   2.728  11.068 -0.8829  0.2027 -1.2966
  391MPD2    H1 5846   4.136   2.587  10.851  0.7251  2.8239 -0.5479
  391MPD2    H2 5847   4.123   2.617  11.273 -2.2005  0.4770 -1.1011
  391MPD2    H3 5848   4.012   2.569  11.048 -0.0775 -1.8926 -1.9407
  391MPD2     N 5849   4.403   2.685  10.838 -0.1501 -0.0828  0.1563
  391MPD2    H5 5850   4.501   2.703  10.857 -0.8020  1.6630  1.8403
  391MPD2    N1 5851   4.341   2.728  11.311  0.6115  0.0977  0.0365
  391MPD2    H7 5852   4.293   2.708  11.399 -2.1150  1.5595 -1.1045
  392TMC3    C1 5853   4.441   2.733  10.596 -0.3630  0.6842 -0.3378
  392TMC3    C2 5854   4.399   2.701  10.469 -0.3213  0.0223  0.1862
  392TMC3    C3 5855   4.427   2.800  10.379  0.2567  0.6900  0.0370
  392TMC3    C4 5856   4.527   2.837  10.630 -0.1453  0.4533 -0.1275
  392TMC3    C5 5857   4.571   2.916  10.528 -0.2929  0.5395  0.6512
  392TMC3    C6 5858   4.508   2.907  10.410  0.0218 -0.3318 -0.3682
  392TMC3     C 5859   4.357   2.679  10.707 -0.0371 -0.2898 -0.3096
  392TMC3     O 5860   4.257   2.621  10.661 -0.5301  0.2268 -0.7952
  392TMC3     H 5861   4.340   2.615  10.440  0.3149 -0.0734 -0.8093
  392TMC3    H1 5862   4.563   2.849  10.731 -2.2109 -1.7821  0.8736
  392TMC3    H2 5863   4.537   2.980  10.334 -0.8248 -0.0552 -0.4286
  392TMC3    C7 5864   4.689   2.997  10.548 -1.0616 -0.1808 -0.5959
  392TMC3    C8 5865   4.349   2.800  10.252 -0.0170  0.4910 -0.4664
  392TMC3    O1 5866   0.018   2.983  10.651 -0.5494  0.6125  0.5255
  392TMC3    O2 5867   4.308   2.691  10.212 -0.5065  0.2017 -0.2786
  393TMC3    C1 5868   3.276   0.953  10.331 -0.7730  0.3631  0.0063
  393TMC3    C2 5869   3.150   0.947  10.385 -0.7341  0.2345  0.0837
  393TMC3    C3 5870   3.140   0.951  10.522  0.1103  0.4894  0.2302
  393TMC3    C4 5871   3.388   0.962  10.406  0.0202  0.3403  0.1077
  393TMC3    C5 5872   3.376   0.956  10.544 -0.1578 -1.2958  0.5458
  393TMC3    C6 5873   3.252   0.959  10.602  0.3726  0.4714  0.3702
  393TMC3     C 5874   3.294   0.961  10.192  0.1790  0.2277  0.1233
  393TMC3     O 5875   3.407   0.993  10.157  0.6625  0.8778  0.0018
  393TMC3     H 5876   3.063   0.936  10.320  0.0897  0.3402 -1.0375
  393TMC3    H1 5877   3.486   0.948  10.362  0.6378  4.8783  0.1050
  393TMC3    H2 5878   3.243   0.961  10.710 -0.4308 -0.0262  0.3121
  393TMC3    C7 5879   3.491   0.924  10.629 -0.0651 -0.0147 -0.0468
  393TMC3    C8 5880   3.009   0.951  10.590 -0.3870  0.0457  0.3332
  393TMC3    O1 5881   3.483   0.968  10.742  0.2039 -0.3624  0.1965
  393TMC3    O2 5882   3.011   0.941  10.710 -1.1018  0.4320  0.0068
  394TMC3    C1 5883   0.651   1.243  11.140  0.4099 -0.6959  0.5222
  394TMC3    C2 5884   0.552   1.259  11.051 -0.2528  0.6920  0.7739
  394TMC3    C3 5885   0.575   1.310  10.927  0.3096  0.3728  0.4134
  394TMC3    C4 5886   0.781   1.287  11.112  0.5576 -0.0159 -0.4429
  394TMC3    C5 5887   0.790   1.367  10.995  0.0414  0.0353  0.2699
  394TMC3    C6 5888   0.695   1.373  10.899  0.1899  0.0391 -0.2000
  394TMC3     C 5889   0.607   1.220  11.276  0.0550  0.6035 -0.4246
  394TMC3     O 5890   0.518   1.142  11.291 -0.1154 -0.0359 -0.1755
  394TMC3     H 5891   0.449   1.233  11.073  0.6711 -1.3495  2.6111
  394TMC3    H1 5892   0.862   1.287  11.184  2.0745  1.4579 -2.1553
  394TMC3    H2 5893   0.715   1.424  10.806  0.4174 -0.5155 -0.4542
  394TMC3    C7 5894   0.909   1.439  10.956 -0.1485 -0.0510 -0.2653
  394TMC3    C8 5895   0.475   1.316  10.828  0.0731 -0.1434  0.0185
  394TMC3    O1 5896   0.897   1.538  10.886 -0.1356 -0.2623 -0.0378
  394TMC3    O2 5897   0.365   1.368  10.859  0.1318  0.4670 -0.3558
  395TMC3    C1 5898   0.187   3.785  14.319  0.5309 -0.1180  0.0918
  395TMC3    C2 5899   0.067   3.798  14.384 -0.3889 -0.2036 -0.5493
  395TMC3    C3 5900   0.058   3.889  14.481  0.2362  0.1648  0.2709
  395TMC3    C4 5901   0.301   3.860  14.344 -0.2028 -0.5571  0.5422
  395TMC3    C5 5902   0.280   3.959  14.439 -0.3589 -0.1779  0.2108
  395TMC3    C6 5903   0.162   3.967  14.511 -0.2496  0.2775 -0.3488
  395TMC3     C 5904   0.224   3.648  14.293 -0.1467 -0.0098  0.1735
  395TMC3     O 5905   0.328   3.606  14.340  0.1286  0.2048 -0.5932
  395TMC3     H 5906   4.702   3.744  14.352 -2.6512  4.1487 -1.6456
  395TMC3    H1 5907   0.393   3.842  14.290 -1.2034 -0.4643 -1.1855
  395TMC3    H2 5908   0.153   4.023  14.604 -0.0846  1.2556 -0.9217
  395TMC3    C7 5909   0.390   4.043  14.471 -0.1775 -0.1355  0.9899
  395TMC3    C8 5910   4.683   3.877  14.590  0.4860  0.4017 -0.1415
  395TMC3    O1 5911   0.379   4.118  14.568 -0.3041  0.1823  0.3121
  395TMC3    O2 5912   4.656   3.958  14.679 -0.5267 -0.4065  0.1544
  396MPD2     C 5913   0.006   4.538   0.005 -0.9113  0.1031  0.0128
  396MPD2    C1 5914   0.134   4.572  17.697  0.4897 -0.4043 -0.1262
  396MPD2    C2 5915   0.171   4.685  17.628 -0.5845 -0.0025  0.1163
  396MPD2    C3 5916   0.085   0.026  17.551  0.6532  1.3121  0.3741
  396MPD2    C4 5917   4.675   4.709  17.550  0.3445 -0.2282  1.0594
  396MPD2    C5 5918   4.643   4.598  17.620 -0.1200 -0.0232  0.2993
  396MPD2     H 5919   0.275   4.711  17.644 -0.1818 -1.6887  0.2260
  396MPD2    H1 5920   4.600   0.038  17.494  1.5735  0.4725  0.0726
  396MPD2    H2 5921   4.698   4.446   0.053  0.2233 -1.5487 -2.3575
  396MPD2    H3 5922   4.539   4.568  17.619 -0.7716  2.1174  2.8694
  396MPD2     N 5923   0.138   0.131  17.468  0.1127  0.1962  0.2410
  396MPD2    H5 5924   0.235   0.161  17.465  0.3115 -0.4994 -0.2778
  396MPD2    N1 5925   0.222   4.500   0.073  0.4819 -0.0575 -0.3153
  396MPD2    H7 5926   0.178   4.433   0.135 -0.0853  1.0660  0.5022
  397TMC3    C1 5927   0.422   4.383   0.119 -0.5121 -0.4574 -0.1253
  397TMC3    C2 5928   0.506   4.327   0.033  0.4593 -0.6271 -0.3543
  397TMC3    C3 5929   0.558   4.201   0.048  0.7822  0.3220 -0.6769
  397TMC3    C4 5930   0.361   4.303   0.216 -0.1266  0.5777  0.3226
  397TMC3    C5 5931   0.415   4.174   0.236  0.5724  0.2997 -0.5371
  397TMC3    C6 5932   0.502   4.116   0.143 -0.2258  0.0903  0.8182
  397TMC3     C 5933   0.355   4.496   0.057 -0.2050  0.5343  0.1984
  397TMC3     O 5934   0.433   4.573   0.003  0.5825  0.6835 -0.0642
  397TMC3     H 5935   0.557   4.397  17.667 -0.7754  0.3516 -0.2845
  397TMC3    H1 5936   0.302   4.356   0.290  0.1996 -0.8807  1.6263
  397TMC3    H2 5937   0.544   4.017   0.149 -0.0032  0.1716  0.6405
  397TMC3    C7 5938   0.355   4.075   0.332  0.0624  0.2132 -0.7320
  397TMC3    C8 5939   0.652   4.169  17.642 -0.5730  0.0906  0.4533
  397TMC3    O1 5940   0.391   3.960   0.324  0.7376 -0.3308 -0.0988
  397TMC3    O2 5941   0.734   4.081  17.660 -0.2340  0.1663  0.1635
  398MPD2     C 5942   2.878   0.277   0.328  0.3201 -0.0813  0.6270
  398MPD2    C1 5943   2.943   0.152   0.318  0.1641 -0.5216  0.2325
  398MPD2    C2 5944   2.982   0.112   0.189  0.6028 -0.0962  0.3220
  398MPD2    C3 5945   2.969   0.196   0.076  0.5752  0.0436 -0.0763
  398MPD2    C4 5946   2.899   0.308   0.092 -0.7831  0.0979  0.2780
  398MPD2    C5 5947   2.861   0.351   0.219 -0.2901 -0.2143 -0.1219
  398MPD2     H 5948   3.033   0.017   0.181 -0.4638 -0.5710 -0.7391
  398MPD2    H1 5949   2.866   0.365   0.006  4.0901  0.5283 -1.3489
  398MPD2    H2 5950   2.828   0.316   0.416 -0.4189 -0.7160  0.4861
  398MPD2    H3 5951   2.809   0.446   0.223  0.4195  0.1321  0.8295
  398MPD2     N 5952   3.027   0.170  17.649  0.5559 -0.4196  0.5170
  398MPD2    H5 5953   3.035   0.250  17.587  0.9729 -0.4466  0.5337
  398MPD2    N1 5954   2.976   0.071   0.431  0.1718  0.0423  0.6321
  398MPD2    H7 5955   3.034   4.712   0.422  0.0378  0.0649 -0.4913
  399TMC3    C1 5956   2.985   0.010   0.660 -0.1972 -0.9026 -0.2431
  399TMC3    C2 5957   3.117   4.693   0.629  0.1113  0.7035 -0.3516
  399TMC3    C3 5958   3.184   4.633   0.734  0.7683  0.1452  0.0695
  399TMC3    C4 5959   2.921   4.716   0.779  0.1722 -0.6326  0.0453
  399TMC3    C5 5960   2.994   4.656   0.877  0.5264  0.5765 -0.8540
  399TMC3    C6 5961   3.128   4.615   0.860 -0.1081  0.1057  0.1688
  399TMC3     C 5962   2.928   0.096   0.560  0.0011 -0.2288 -0.5175
  399TMC3     O 5963   2.831   0.167   0.589 -0.1436  0.1883  0.3739
  399TMC3     H 5964   3.172   0.014   0.547  2.1565  0.9470  1.1507
  399TMC3    H1 5965   2.820   0.028   0.791  0.4885  0.5054 -0.6996
  399TMC3    H2 5966   3.188   4.581   0.943  1.2972  0.0347 -0.8734
  399TMC3    C7 5967   2.940   4.660   1.011  0.4180 -0.2667 -0.2521
  399TMC3    C8 5968   3.327   4.597   0.716  0.1226  0.0356 -0.2994
  399TMC3    O1 5969   3.013   4.722   1.091  0.3523  0.2097  0.7368
  399TMC3    O2 5970   3.393   4.588   0.817  0.3389  0.5775 -0.2692
  400TMC3    C1 5971   1.756   3.695  16.997  0.1389 -0.0874 -0.3864
  400TMC3    C2 5972   1.632   3.649  16.957 -0.2271 -0.1348 -0.0527
  400TMC3    C3 5973   1.529   3.745  16.933  0.1409  0.2077 -0.0377
  400TMC3    C4 5974   1.784   3.831  16.998  0.1775  0.5132  0.2916
  400TMC3    C5 5975   1.671   3.915  16.986 -0.5996  0.1893  0.7876
  400TMC3    C6 5976   1.547   3.881  16.950 -0.6687  0.5029  0.3729
  400TMC3     C 5977   1.792   3.623  17.115  0.3972  0.3656 -0.1337
  400TMC3     O 5978   1.743   3.511  17.126 -0.2212 -0.3291 -0.1745
  400TMC3     H 5979   1.612   3.543  16.946 -2.7581  0.4954 -1.6641
  400TMC3    H1 5980   1.877   3.865  17.042  0.5232 -1.2358  0.8991
  400TMC3    H2 5981   1.463   3.948  16.938 -0.4978  0.7503  0.5568
  400TMC3    C7 5982   1.706   4.053  17.002  0.0154  0.1346  0.3170
  400TMC3    C8 5983   1.401   3.709  16.876 -0.0140 -0.4662  0.3179
  400TMC3    O1 5984   1.822   4.084  17.011 -0.1569 -0.1957 -0.2544
  400TMC3    O2 5985   1.312   3.780  16.915  0.5483  0.0629  0.0139
  401MPD2     C 5986   4.689   3.125   0.766  0.7283  0.1281 -0.0691
  401MPD2    C1 5987   0.074   3.064   0.817  0.1657 -0.3292  0.3149
  401MPD2    C2 5988   0.142   2.965   0.746 -0.6186 -0.5679  0.4247
  401MPD2    C3 5989   0.101   2.934   0.619  0.5939 -0.0091 -0.3069
  401MPD2    C4 5990   4.714   2.999   0.568  0.4572  0.0048 -0.5136
  401MPD2    C5 5991   4.647   3.093   0.638 -0.4939  0.2712 -0.0130
  401MPD2     H 5992   0.233   2.921   0.786 -0.0685 -0.9331 -1.2300
  401MPD2    H1 5993   4.687   2.984   0.464 -0.5442  1.9208 -0.5299
  401MPD2    H2 5994   4.628   3.187   0.831 -0.2193  1.0972 -1.8784
  401MPD2    H3 5995   4.565   3.143   0.586  0.6141  1.6549 -0.4225
  401MPD2     N 5996   0.168   2.826   0.551  0.0968  0.3116  0.6999
  401MPD2    H5 5997   0.251   2.799   0.602 -0.7634 -2.6483  0.5338
  401MPD2    N1 5998   0.118   3.081   0.953 -0.1520 -0.0295  0.9631
  401MPD2    H7 5999   0.188   3.020   0.993  0.7766  1.2726  1.3526
  402TMC3    C1 6000   0.212   2.655   0.409 -0.4323 -0.5339 -0.1289
  402TMC3    C2 6001   0.155   2.535   0.381 -0.3812  0.9384  0.7378
  402TMC3    C3 6002   0.239   2.430   0.342 -0.5602  0.5272 -0.3346
  402TMC3    C4 6003   0.346   2.678   0.402 -0.3818  0.2214 -0.6465
  402TMC3    C5 6004   0.426   2.571   0.341  0.1808  0.1871 -0.1814
  402TMC3    C6 6005   0.366   2.452   0.318 -0.2107 -1.0609  0.4934
  402TMC3     C 6006   0.128   2.767   0.438 -0.0464 -0.7782  0.8657
  402TMC3     O 6007   0.024   2.782   0.378 -0.1010 -0.0624  0.2684
  402TMC3     H 6008   0.050   2.524   0.402 -0.1042  0.0757  1.6515
  402TMC3    H1 6009   0.390   2.777   0.411 -1.3123  0.4185  1.8049
  402TMC3    H2 6010   0.430   2.369   0.292  0.7856 -0.0063 -0.3872
  402TMC3    C7 6011   0.569   2.570   0.362  0.5949 -0.0272  0.0998
  402TMC3    C8 6012   0.226   2.317   0.423  0.6066  0.7636 -0.7387
  402TMC3    O1 6013   0.632   2.490   0.295 -0.6076  0.0709 -0.1978
  402TMC3    O2 6014   0.325   2.278   0.478  0.2525 -0.0213  0.2751
  403MPD2     C 6015   2.581   1.406  13.888 -0.1890  0.3114  0.6993
  403MPD2    C1 6016   2.662   1.301  13.914  0.6700  0.4158 -0.2173
  403MPD2    C2 6017   2.772   1.321  13.992 -0.1143  0.0730  0.4599
  403MPD2    C3 6018   2.789   1.432  14.075 -0.3362 -0.1291 -0.1652
  403MPD2    C4 6019   2.694   1.529  14.066  0.3295  0.4104 -0.0830
  403MPD2    C5 6020   2.593   1.510  13.974 -0.0327  0.6873 -0.5989
  403MPD2     H 6021   2.847   1.243  13.996 -0.4328 -0.4021 -2.5180
  403MPD2    H1 6022   2.694   1.612  14.136  1.0097  1.7645 -1.7025
  403MPD2    H2 6023   2.504   1.396  13.812  0.6923 -0.6178 -0.0707
  403MPD2    H3 6024   2.526   1.595  13.965 -0.8578  0.1077  0.0376
  403MPD2     N 6025   2.898   1.441  14.163 -0.3030 -0.6690 -0.3500
  403MPD2    H5 6026   2.951   1.356  14.182 -0.0017 -0.1112  1.3468
  403MPD2    N1 6027   2.631   1.183  13.846 -0.4599 -0.0113 -0.1358
  403MPD2    H7 6028   2.550   1.175  13.786 -0.6142  0.2202  0.0392
  404TMC3    C1 6029   2.642   0.966  13.776 -0.4274 -0.7831  0.1531
  404TMC3    C2 6030   2.644   0.848  13.846  0.1254  0.2460  0.3961
  404TMC3    C3 6031   2.684   0.737  13.771 -0.0151 -0.4406 -0.3645
  404TMC3    C4 6032   2.656   0.976  13.645  0.2291 -0.1910 -0.5873
  404TMC3    C5 6033   2.695   0.870  13.577 -0.6312 -0.3490 -0.1899
  404TMC3    C6 6034   2.719   0.749  13.638 -0.3385 -0.1505 -0.0438
  404TMC3     C 6035   2.706   1.068  13.851 -0.2708 -0.0284  0.6256
  404TMC3     O 6036   2.813   1.044  13.905  0.5347 -0.2106 -0.3601
  404TMC3     H 6037   2.642   0.846  13.954 -2.3260  1.3658  0.3583
  404TMC3    H1 6038   2.652   1.076  13.603  1.4485 -0.3243 -0.9913
  404TMC3    H2 6039   2.750   0.663  13.579  0.5250  1.4051 -1.8547
  404TMC3    C7 6040   2.646   0.854  13.442  0.1396 -0.8782 -0.2114
  404TMC3    C8 6041   2.755   0.631  13.843  0.2236 -0.2954 -0.5432
  404TMC3    O1 6042   2.641   0.740  13.402  0.4116 -0.5766  0.3010
  404TMC3    O2 6043   2.868   0.603  13.811  0.3129 -0.2111  0.0855
  405MPD2     C 6044   3.184   1.411  14.867 -0.1166 -0.0812 -0.3627
  405MPD2    C1 6045   3.079   1.323  14.881  0.3231  0.0194  0.1203
  405MPD2    C2 6046   2.954   1.351  14.824 -0.4398  0.5808 -0.2479
  405MPD2    C3 6047   2.935   1.471  14.766 -0.1399  0.4049  0.8800
  405MPD2    C4 6048   3.037   1.565  14.762  0.1991 -0.0377 -0.1209
  405MPD2    C5 6049   3.164   1.526  14.795 -0.4265  0.2995  0.8702
  405MPD2     H 6050   2.880   1.272  14.811 -0.6788  0.6854  0.4259
  405MPD2    H1 6051   3.022   1.666  14.725  0.3363 -0.3002 -0.8814
  405MPD2    H2 6052   3.272   1.384  14.924  0.2867  0.3268 -0.7915
  405MPD2    H3 6053   3.247   1.593  14.774 -0.6095 -0.1092 -1.2238
  405MPD2     N 6054   2.811   1.494  14.708  0.0673 -0.5211 -0.5875
  405MPD2    H5 6055   2.739   1.425  14.725 -2.5608  2.5075  0.4318
  405MPD2    N1 6056   3.088   1.196  14.950 -0.6473  0.0216 -0.6399
  405MPD2    H7 6057   3.179   1.167  14.984 -0.8514  1.4242  1.0924
  406TMC3    C1 6058   2.436   1.640  14.524 -0.0252 -0.3254 -0.1611
  406TMC3    C2 6059   2.386   1.514  14.515  0.4824  0.4629  0.4497
  406TMC3    C3 6060   2.477   1.410  14.534 -0.6561 -0.0173 -0.2096
  406TMC3    C4 6061   2.568   1.661  14.533  0.1171 -0.0496 -0.3019
  406TMC3    C5 6062   2.659   1.558  14.545 -0.1512 -0.0329  0.0431
  406TMC3    C6 6063   2.612   1.431  14.552  0.0122  0.0986  0.0133
  406TMC3     C 6064   2.357   1.721  14.616 -0.2042 -0.0036  0.0624
  406TMC3     O 6065   2.420   1.775  14.705  0.1402  0.2750  0.2627
  406TMC3     H 6066   2.285   1.496  14.480  1.4866 -2.0925 -1.1067
  406TMC3    H1 6067   2.599   1.761  14.563  0.8844 -0.0204 -1.1829
  406TMC3    H2 6068   2.687   1.353  14.551  1.6994  1.6640  3.7306
  406TMC3    C7 6069   2.777   1.593  14.620  0.3021  0.1676  0.5835
  406TMC3    C8 6070   2.428   1.276  14.568 -0.0189  0.3337 -0.0502
  406TMC3    O1 6071   2.844   1.682  14.573  0.2065 -0.3462 -0.5164
  406TMC3    O2 6072   2.335   1.235  14.499  0.6160 -0.3015 -0.1570
  407MPD2     C 6073   0.868   2.208   9.811 -0.3450 -0.4308 -0.0422
  407MPD2    C1 6074   0.980   2.275   9.849 -0.2912  0.4924  0.1006
  407MPD2    C2 6075   0.973   2.366   9.949  0.5012 -0.2772  0.2115
  407MPD2    C3 6076   0.851   2.393  10.006  0.2456 -0.6936  0.4696
  407MPD2    C4 6077   0.736   2.330   9.960  0.2446  0.2080 -0.1231
  407MPD2    C5 6078   0.752   2.233   9.867  0.2763  0.3245 -0.4776
  407MPD2     H 6079   1.055   2.435   9.964  0.7191 -0.3971 -0.4654
  407MPD2    H1 6080   0.638   2.348  10.002  0.1799 -0.3038 -0.0533
  407MPD2    H2 6081   0.874   2.124   9.743  2.1295  0.0268 -0.4016
  407MPD2    H3 6082   0.668   2.173   9.833 -0.4544  0.5253  1.0031
  407MPD2     N 6083   0.834   2.492  10.102  0.2041  0.7916 -0.4198
  407MPD2    H5 6084   0.747   2.537  10.127  0.8641  0.4893  2.5059
  407MPD2    N1 6085   1.104   2.256   9.782 -0.1896  0.2890  0.1786
  407MPD2    H7 6086   1.183   2.315   9.806 -0.0810 -0.2412  1.1173
  408TMC3    C1 6087   1.287   2.156   9.677  0.1656  0.5385 -0.3112
  408TMC3    C2 6088   1.355   2.044   9.664 -0.7701  0.2426  0.5762
  408TMC3    C3 6089   1.488   2.057   9.633  0.3996 -0.6677  0.0553
  408TMC3    C4 6090   1.341   2.278   9.647 -0.1542  0.2000  0.4687
  408TMC3    C5 6091   1.473   2.287   9.606  0.3129 -0.3778 -0.1045
  408TMC3    C6 6092   1.542   2.181   9.608 -0.0763 -0.0722  0.2832
  408TMC3     C 6093   1.145   2.148   9.709 -0.3551 -0.0401 -0.5051
  408TMC3     O 6094   1.091   2.039   9.691  0.5975 -0.0710 -0.0613
  408TMC3     H 6095   1.315   1.952   9.705  1.2564 -1.2439 -0.7273
  408TMC3    H1 6096   1.275   2.364   9.646 -1.0951 -0.5268 -0.1645
  408TMC3    H2 6097   1.646   2.204   9.587 -0.1443  0.7987  0.9083
  408TMC3    C7 6098   1.542   2.403   9.667 -0.2315  0.0693 -0.0401
  408TMC3    C8 6099   1.570   1.967   9.712 -0.2079  0.3826 -0.0837
  408TMC3    O1 6100   1.639   2.370   9.740  0.2279 -0.1458 -0.2141
  408TMC3    O2 6101   1.558   1.844   9.706  0.4411  0.4480 -0.7184
  409MPD2     C 6102   0.344   3.527  17.001 -0.1213  0.5177  0.0189
  409MPD2    C1 6103   0.436   3.517  17.100  0.1086 -0.6374  0.1435
  409MPD2    C2 6104   0.544   3.615  17.096 -0.2955  0.5295 -0.9573
  409MPD2    C3 6105   0.542   3.716  17.001 -0.2540 -0.0989  0.1429
  409MPD2    C4 6106   0.436   3.723  16.905 -0.0537 -0.0687  0.7367
  409MPD2    C5 6107   0.345   3.625  16.904  0.1504  0.6991 -0.1391
  409MPD2     H 6108   0.619   3.608  17.174  0.1672  2.2297 -1.2510
  409MPD2    H1 6109   0.434   3.795  16.824  1.4603 -1.9544 -0.9756
  409MPD2    H2 6110   0.261   3.458  16.994  1.5167 -1.4185 -0.3979
  409MPD2    H3 6111   0.272   3.616  16.823  0.0207 -2.9028  0.3888
  409MPD2     N 6112   0.647   3.808  16.985 -0.4086  0.1854  0.0576
  409MPD2    H5 6113   0.646   3.854  16.895 -1.1114 -2.0195 -1.0444
  409MPD2    N1 6114   0.429   3.423  17.204  0.3797  0.4355  0.1324
  409MPD2    H7 6115   0.487   3.441  17.285  0.2892  0.1402  0.2632
  410TMC3    C1 6116   0.832   3.957  17.036  0.1246 -0.6510 -0.1655
  410TMC3    C2 6117   0.958   3.934  17.085  0.4497 -0.1151 -0.2507
  410TMC3    C3 6118   1.067   3.984  17.015  0.2174 -0.4723  0.5144
  410TMC3    C4 6119   0.810   4.025  16.917  0.4604 -0.1773  0.0946
  410TMC3    C5 6120   0.923   4.077  16.855  0.1738  0.4613  0.3238
  410TMC3    C6 6121   1.050   4.058  16.903  0.5256  0.1695  0.5742
  410TMC3     C 6122   0.743   3.849  17.076  0.0538  0.2657  0.2742
  410TMC3     O 6123   0.757   3.814  17.194 -0.0779 -0.2933 -0.0264
  410TMC3     H 6124   0.972   3.870  17.171  0.6663 -0.3998 -0.4975
  410TMC3    H1 6125   0.707   4.042  16.888  0.6340 -0.6547 -0.7890
  410TMC3    H2 6126   1.137   4.095  16.847 -0.4959  0.9089 -0.5378
  410TMC3    C7 6127   0.905   4.136  16.723 -0.7014  0.3719 -0.1532
  410TMC3    C8 6128   1.176   4.034  17.091  0.6540  0.6094 -0.0716
  410TMC3    O1 6129   0.791   4.127  16.687 -0.5396 -0.5533  0.0085
  410TMC3    O2 6130   1.206   4.152  17.072 -0.1660  0.5773  0.4984
  411MPD2     C 6131   0.780   4.549  14.210 -0.2911  0.0050  0.1430
  411MPD2    C1 6132   0.660   4.605  14.175  0.3772 -0.2623  1.1258
  411MPD2    C2 6133   0.582   4.529  14.089  0.3552 -0.0793 -0.1187
  411MPD2    C3 6134   0.619   4.405  14.048 -0.4257  0.1401  0.0492
  411MPD2    C4 6135   0.733   4.345  14.089 -0.6300 -0.1428  0.0723
  411MPD2    C5 6136   0.811   4.426  14.166 -0.6047 -0.7240 -0.3632
  411MPD2     H 6137   0.486   4.571  14.061 -0.5966 -0.3270  2.8126
  411MPD2    H1 6138   0.775   4.256  14.043 -2.5935 -0.6742 -0.7154
  411MPD2    H2 6139   0.850   4.595  14.279 -2.8976  1.4719  1.8170
  411MPD2    H3 6140   0.911   4.395  14.195 -0.8598 -2.5148 -1.4261
  411MPD2     N 6141   0.549   4.321  13.960  0.5277  0.6084 -0.2057
  411MPD2    H5 6142   0.600   4.239  13.928 -1.4109 -0.9810  0.7908
  411MPD2    N1 6143   0.615   4.715  14.251 -0.0068  1.1098  0.9326
  411MPD2    H7 6144   0.669   0.022  14.331  1.7928 -0.0526  0.1542
  412TMC3    C1 6145   0.408   4.295  13.783  0.0219 -0.6035 -0.0620
  412TMC3    C2 6146   0.278   4.277  13.754  0.6699 -0.0378 -0.4564
  412TMC3    C3 6147   0.243   4.311  13.627 -0.6424 -0.4960 -0.4609
  412TMC3    C4 6148   0.507   4.335  13.694  0.1405  0.0759  0.0551
  412TMC3    C5 6149   0.466   4.372  13.572 -0.4656  0.1775 -0.4721
  412TMC3    C6 6150   0.339   4.351  13.537  0.6405 -0.3839  0.1454
  412TMC3     C 6151   0.430   4.357  13.907 -0.4157  0.3510  0.5240
  412TMC3     O 6152   0.352   4.443  13.941 -0.2067 -0.0840  0.1454
  412TMC3     H 6153   0.204   4.273  13.834  2.3897  0.5244  1.1818
  412TMC3    H1 6154   0.608   4.349  13.732  0.6628 -0.6385 -1.0906
  412TMC3    H2 6155   0.301   4.351  13.435 -3.0135  0.5026  1.4904
  412TMC3    C7 6156   0.486   4.513  13.540  0.0208  0.3376 -0.2833
  412TMC3    C8 6157   0.117   4.389  13.628  0.8202  0.0040 -0.3099
  412TMC3    O1 6158   0.425   4.558  13.444  0.2023 -0.4091  0.3027
  412TMC3    O2 6159   0.030   4.356  13.706 -0.1243 -0.7971  0.2008
  413MPD2     C 6160   2.540   3.418  15.712 -0.1825 -0.1170  0.9308
  413MPD2    C1 6161   2.467   3.390  15.603 -0.2149  0.6567 -0.5230
  413MPD2    C2 6162   2.495   3.263  15.545  0.5975 -0.2368  0.1132
  413MPD2    C3 6163   2.602   3.185  15.576 -0.7098  0.4670  0.3071
  413MPD2    C4 6164   2.686   3.223  15.683 -0.4924 -0.4990  0.2751
  413MPD2    C5 6165   2.647   3.335  15.752  0.1732 -0.5137 -0.1327
  413MPD2     H 6166   2.435   3.224  15.463  1.4476 -0.2615 -0.4946
  413MPD2    H1 6167   2.762   3.161  15.728 -0.8078 -0.9927  0.1323
  413MPD2    H2 6168   2.509   3.498  15.778  1.9316 -1.1587  3.1951
  413MPD2    H3 6169   2.706   3.360  15.840  1.6161 -0.5014 -1.1140
  413MPD2     N 6170   2.620   3.067  15.503  0.4325 -0.6133  0.4841
  413MPD2    H5 6171   2.547   3.043  15.437 -0.3654  0.2534  1.0495
  413MPD2    N1 6172   2.347   3.467  15.583 -0.3982  0.2094  0.1859
  413MPD2    H7 6173   2.294   3.509  15.659 -0.1805 -1.3786  1.2108
  414TMC3    C1 6174   2.719   2.885  15.421  0.2300 -0.0361 -0.2796
  414TMC3    C2 6175   2.776   2.764  15.455 -0.0302  0.5291  0.7336
  414TMC3    C3 6176   2.735   2.650  15.394  0.1520 -0.0063 -0.8479
  414TMC3    C4 6177   2.624   2.893  15.323  0.2790 -1.0892 -0.1394
  414TMC3    C5 6178   2.592   2.778  15.262 -0.4143 -0.5349 -0.6522
  414TMC3    C6 6179   2.636   2.657  15.297  0.0650 -0.3925  0.1798
  414TMC3     C 6180   2.735   2.992  15.513  1.0713  0.1013 -0.4226
  414TMC3     O 6181   2.835   2.997  15.581 -0.0546 -0.4907  0.7300
  414TMC3     H 6182   2.854   2.765  15.530 -0.5237  1.2589  1.2352
  414TMC3    H1 6183   2.590   2.986  15.280  1.2051 -0.1786  1.1210
  414TMC3    H2 6184   2.605   2.568  15.243 -1.0144 -1.3446  2.3624
  414TMC3    C7 6185   2.471   2.790  15.177  0.0853  0.6564  0.0038
  414TMC3    C8 6186   2.806   2.520  15.409 -0.6125 -0.4262 -0.3913
  414TMC3    O1 6187   2.380   2.860  15.227 -0.3463 -0.0940  0.0208
  414TMC3    O2 6188   2.755   2.419  15.356  0.1493 -0.0100 -0.1699
  415TMC3    C1 6189   3.190   0.355  10.086 -0.1185 -0.0441 -0.3096
  415TMC3    C2 6190   3.270   0.406   9.992 -0.0800 -0.5118  0.1095
  415TMC3    C3 6191   3.280   0.339   9.873 -0.2137  0.0142  0.0183
  415TMC3    C4 6192   3.122   0.236  10.059 -0.2328  0.1424 -0.2172
  415TMC3    C5 6193   3.135   0.170   9.941  0.2257  0.0665  0.3266
  415TMC3    C6 6194   3.218   0.222   9.841  0.5717 -0.0561 -0.0115
  415TMC3     C 6195   3.116   0.432  10.174  0.1788 -0.1834  0.4293
  415TMC3     O 6196   2.996   0.405  10.187  0.2321 -0.3651 -0.4824
  415TMC3     H 6197   3.302   0.510   9.995 -0.6522 -0.3303 -0.0992
  415TMC3    H1 6198   3.050   0.200  10.132  0.8182 -1.6278 -0.0552
  415TMC3    H2 6199   3.228   0.185   9.740  2.2836  0.3595  0.0053
  415TMC3    C7 6200   3.099   0.026   9.923 -0.3527 -0.5886  0.2149
  415TMC3    C8 6201   3.354   0.395   9.770  0.0843  0.3669 -0.8964
  415TMC3    O1 6202   3.160   4.685   9.836  0.3038  0.5220  0.5808
  415TMC3    O2 6203   3.311   0.391   9.656 -0.2860  0.1037  0.2601
  416MPD2     C 6204   0.022   4.020  11.390 -0.4979 -0.1242  0.2286
  416MPD2    C1 6205   4.617   3.976  11.383  0.1071 -0.2883 -0.3681
  416MPD2    C2 6206   4.590   3.867  11.301 -0.3358 -0.3882  0.0212
  416MPD2    C3 6207   4.688   3.813  11.218 -0.2146  0.1420  0.3481
  416MPD2    C4 6208   0.079   3.890  11.201  0.7906  0.1695  0.8326
  416MPD2    C5 6209   0.114   3.985  11.293  0.7960  0.5779  0.1521
  416MPD2     H 6210   4.492   3.820  11.293 -0.5210 -0.0540  0.3341
  416MPD2    H1 6211   0.149   3.867  11.122  0.1701 -0.3155  0.4270
  416MPD2    H2 6212   0.055   4.095  11.460 -1.0862  0.3654 -0.0227
  416MPD2    H3 6213   0.204   4.044  11.283  0.5421  1.1989  1.5056
  416MPD2     N 6214   4.655   3.694  11.155 -0.2721 -0.4285  0.8923
  416MPD2    H5 6215   4.577   3.642  11.193 -0.0907 -2.0083 -0.9245
  416MPD2    N1 6216   4.518   4.036  11.458 -0.8600  0.1650 -0.1026
  416MPD2    H7 6217   4.540   4.097  11.536  0.5973 -1.3465  0.6655
  417TMC3    C1 6218   4.300   4.115  11.523  0.1611  0.5372 -0.5547
  417TMC3    C2 6219   4.350   4.168  11.637 -0.5879 -0.1895  0.0125
  417TMC3    C3 6220   4.328   4.298  11.668 -0.2170 -0.1176 -0.9316
  417TMC3    C4 6221   4.216   4.188  11.449 -0.4610  0.3731  0.7090
  417TMC3    C5 6222   4.200   4.323  11.473  0.1955 -0.8513 -0.4905
  417TMC3    C6 6223   4.256   4.383  11.584 -0.8377 -0.4223  0.0010
  417TMC3     C 6224   4.383   4.020  11.450 -0.0550 -0.6970  0.0020
  417TMC3     O 6225   4.328   3.944  11.365 -0.7896 -0.0252  0.0898
  417TMC3     H 6226   4.414   4.107  11.701  0.4860  0.2252 -0.6663
  417TMC3    H1 6227   4.171   4.138  11.364 -0.6137  0.2756  0.8462
  417TMC3    H2 6228   4.238   4.483  11.622  3.4287 -0.0032  0.9331
  417TMC3    C7 6229   4.129   4.403  11.381  0.3360 -0.6279 -0.2118
  417TMC3    C8 6230   4.354   4.328  11.811  0.1477  1.1532  0.0392
  417TMC3    O1 6231   4.169   4.517  11.364  0.2444  0.7156 -0.2071
  417TMC3    O2 6232   4.300   4.264  11.902 -0.1142  0.1013 -0.2816
  418TMC3    C1 6233   3.363   4.641  17.480  0.7922 -0.2254  0.2481
  418TMC3    C2 6234   3.228   4.645  17.483 -0.6727  0.0362 -0.5979
  418TMC3    C3 6235   3.174   0.046  17.497  0.1689 -0.0456  0.1244
  418TMC3    C4 6236   3.440   0.032  17.470 -0.5837  0.1330  0.3054
  418TMC3    C5 6237   3.380   0.155  17.476 -0.4169 -0.1281  0.5952
  418TMC3    C6 6238   3.246   0.163  17.489 -0.4628  0.0709 -0.3757
  418TMC3     C 6239   3.429   4.507  17.518 -0.2645 -0.2566  0.0124
  418TMC3     O 6240   3.356   4.412  17.545  0.1964  0.2782 -0.0597
  418TMC3     H 6241   3.173   4.552  17.483 -0.1009 -0.3029 -0.8212
  418TMC3    H1 6242   3.548   0.034  17.456 -0.7137 -0.4293 -0.7281
  418TMC3    H2 6243   3.195   0.258  17.478 -0.5400  0.2181  1.2042
  418TMC3    C7 6244   3.452   0.249  17.559 -0.0125 -0.3052 -0.0105
  418TMC3    C8 6245   3.076   0.049  17.596  0.6503  0.1496 -0.4301
  418TMC3    O1 6246   3.554   0.212  17.606  0.4405 -0.7924 -0.4063
  418TMC3    O2 6247   3.050   4.663  17.635  0.2311  0.5853  0.1231
  419MPD2     C 6248   1.779   0.104  12.245  0.5820 -0.4243  0.6071
  419MPD2    C1 6249   1.713   0.228  12.247  0.9195 -0.0131  0.5353
  419MPD2    C2 6250   1.669   0.281  12.371 -0.3650 -0.0170  0.1748
  419MPD2    C3 6251   1.693   0.207  12.489 -0.1116  0.0945 -0.4059
  419MPD2    C4 6252   1.750   0.084  12.487  0.3366  0.2155  0.3165
  419MPD2    C5 6253   1.800   0.038  12.369  0.2936  0.1062 -0.1067
  419MPD2     H 6254   1.634   0.383  12.375 -0.6290 -0.0291 -1.9863
  419MPD2    H1 6255   1.770   0.024  12.576  2.3937 -0.5161 -0.6371
  419MPD2    H2 6256   1.819   0.055  12.157 -1.3631 -3.0179  1.1862
  419MPD2    H3 6257   1.855   4.669  12.365  0.9278  0.5031 -0.6934
  419MPD2     N 6258   1.659   0.267  12.613  0.4704  0.1203  0.1274
  419MPD2    H5 6259   1.596   0.347  12.608 -0.8542 -0.8604  1.3414
  419MPD2    N1 6260   1.696   0.307  12.132  0.2258 -0.3858 -0.2751
  419MPD2    H7 6261   1.667   0.403  12.148  0.0810 -0.3357 -0.8194
  420TMC3    C1 6262   1.638   0.289  12.844  0.2693 -0.4451 -0.1510
  420TMC3    C2 6263   1.514   0.335  12.829  0.3318 -0.2541  0.9584
  420TMC3    C3 6264   1.442   0.365  12.944  0.1121 -0.3271  0.1197
  420TMC3    C4 6265   1.707   0.290  12.966  1.0400 -0.3834  0.0019
  420TMC3    C5 6266   1.636   0.330  13.073 -0.3745 -0.0690 -0.5043
  420TMC3    C6 6267   1.498   0.360  13.065  0.1166  0.1113 -0.2537
  420TMC3     C 6268   1.714   0.238  12.734 -0.9803  0.3393  0.0691
  420TMC3     O 6269   1.827   0.196  12.760 -0.1803  0.1789 -0.2750
  420TMC3     H 6270   1.458   0.320  12.738 -0.3837  4.4530  0.6117
  420TMC3    H1 6271   1.810   0.261  12.985  1.1159  1.2391  2.0564
  420TMC3    H2 6272   1.440   0.375  13.155  0.9633  0.1152  0.2899
  420TMC3    C7 6273   1.681   0.277  13.198 -0.1126 -0.1196 -0.5819
  420TMC3    C8 6274   1.302   0.366  12.929 -0.0056  0.1053 -0.4109
  420TMC3    O1 6275   1.776   0.194  13.201  0.3155 -0.1833 -0.2038
  420TMC3    O2 6276   1.253   0.404  12.821  0.4594 -0.1101  0.5916
  421TMC3    C1 6277   3.054   1.551  14.300 -0.1854 -0.8063 -0.0214
  421TMC3    C2 6278   3.083   1.646  14.393  0.4664 -0.1993  0.2710
  421TMC3    C3 6279   3.214   1.670  14.422 -0.3273  0.6695  0.3343
  421TMC3    C4 6280   3.154   1.480  14.232  0.1449  0.7868 -0.0065
  421TMC3    C5 6281   3.283   1.508  14.268  0.4464  0.0249 -0.2986
  421TMC3    C6 6282   3.318   1.605  14.360 -0.2033 -0.1978  0.1364
  421TMC3     C 6283   2.923   1.552  14.244  0.2685  0.0568 -0.4458
  421TMC3     O 6284   2.858   1.656  14.266  0.1962 -0.2437 -0.0702
  421TMC3     H 6285   3.001   1.706  14.431 -0.7795  0.0265 -2.7420
  421TMC3    H1 6286   3.127   1.393  14.173  1.4450 -0.1178  0.7477
  421TMC3    H2 6287   3.421   1.612  14.396 -0.5289  0.3222  0.9728
  421TMC3    C7 6288   3.386   1.410  14.242 -0.3662 -0.1806  0.0780
  421TMC3    C8 6289   3.250   1.759  14.532  0.6575  0.3318  0.0071
  421TMC3    O1 6290   3.494   1.448  14.264  0.1081  0.2595  0.3248
  421TMC3    O2 6291   3.165   1.790  14.613 -0.1736  0.7220  0.1586
  422TMC3    C1 6292   0.718   2.652  13.133  0.4157 -0.1236  0.3962
  422TMC3    C2 6293   0.652   2.772  13.155  0.3007  0.3308  0.5255
  422TMC3    C3 6294   0.542   2.772  13.229  0.5594  0.2445 -0.6929
  422TMC3    C4 6295   0.659   2.534  13.168  0.0614 -0.6298 -0.8115
  422TMC3    C5 6296   0.542   2.538  13.237 -0.1086 -0.0530 -0.2673
  422TMC3    C6 6297   0.484   2.656  13.272 -0.4373 -0.2170  0.4085
  422TMC3     C 6298   0.803   2.651  13.013  0.0227  0.1185 -0.5331
  422TMC3     O 6299   0.811   2.754  12.954 -0.0323  0.3489  0.2578
  422TMC3     H 6300   0.697   2.865  13.122 -0.8228  0.3913 -0.8284
  422TMC3    H1 6301   0.691   2.435  13.138 -0.2660 -0.9731 -0.0403
  422TMC3    H2 6302   0.390   2.656  13.327 -0.3591  1.7274  0.5550
  422TMC3    C7 6303   0.458   2.414  13.218 -0.6140  0.0156 -0.5864
  422TMC3    C8 6304   0.498   2.900  13.281 -0.2081  0.1089  0.1903
  422TMC3    O1 6305   0.524   2.312  13.181  0.0899  0.1462  0.0447
  422TMC3    O2 6306   0.536   2.993  13.203 -0.1063 -0.4586  0.3536
  423MPD2     C 6307   2.547   3.431   0.559 -0.8003  0.0299 -0.2277
  423MPD2    C1 6308   2.608   3.425   0.434  0.0430 -0.3583 -0.4681
  423MPD2    C2 6309   2.556   3.339   0.339  0.8044  0.2849 -0.0849
  423MPD2    C3 6310   2.463   3.240   0.371 -0.4417 -1.4595 -0.1277
  423MPD2    C4 6311   2.414   3.231   0.494  0.2563 -1.0447 -0.4307
  423MPD2    C5 6312   2.459   3.328   0.586 -0.0102 -0.1706 -1.0698
  423MPD2     H 6313   2.603   3.332   0.242 -1.8978 -1.0133 -1.2912
  423MPD2    H1 6314   2.343   3.155   0.525 -1.1193  0.7053  0.7693
  423MPD2    H2 6315   2.584   3.481   0.647  0.8603  0.9170 -1.4132
  423MPD2    H3 6316   2.421   3.310   0.686 -0.0604  0.1413 -1.0310
  423MPD2     N 6317   2.426   3.151   0.267  0.0890  0.2415  0.1506
  423MPD2    H5 6318   2.379   3.065   0.293  0.0334  0.7161  1.5997
  423MPD2    N1 6319   2.720   3.514   0.396 -0.2116 -0.5206 -0.0760
  423MPD2    H7 6320   2.776   3.496   0.314  1.1475 -0.1286  0.7627
  424TMC3    C1 6321   2.905   3.659   0.447  0.0069 -0.1934 -0.1718
  424TMC3    C2 6322   2.987   3.566   0.386  0.0614 -0.6472  0.1474
  424TMC3    C3 6323   3.125   3.607   0.381  0.5825 -0.6045  0.2222
  424TMC3    C4 6324   2.949   3.767   0.513 -0.1755  0.4768 -0.0397
  424TMC3    C5 6325   3.083   3.792   0.509  0.4222  0.8097  0.8850
  424TMC3    C6 6326   3.172   3.714   0.442  0.8517  0.3466  0.1784
  424TMC3     C 6327   2.771   3.618   0.481 -0.0105 -0.6973 -0.4076
  424TMC3     O 6328   2.728   3.664   0.587  0.6558  0.3075 -0.1905
  424TMC3     H 6329   2.955   3.471   0.346 -1.8234 -0.7270  1.8214
  424TMC3    H1 6330   2.877   3.837   0.554 -0.9980 -0.8071  0.6876
  424TMC3    H2 6331   3.276   3.736   0.422  0.2940  0.4057 -2.7416
  424TMC3    C7 6332   3.137   3.902   0.591 -0.5787 -0.0544  0.2583
  424TMC3    C8 6333   3.215   3.496   0.403  0.5327 -0.2654  0.1761
  424TMC3    O1 6334   3.248   3.943   0.560 -0.2945 -0.1198  0.0857
  424TMC3    O2 6335   3.332   3.514   0.373  0.2930  0.5713  0.8157
  425MPD2     C 6336   1.501   2.766   0.183  0.7377  0.3084  0.6687
  425MPD2    C1 6337   1.417   2.659   0.156  1.0093  0.4184 -0.8000
  425MPD2    C2 6338   1.282   2.687   0.143  0.2345  0.5367  0.2827
  425MPD2    C3 6339   1.235   2.814   0.153 -0.4387 -0.0499 -0.5051
  425MPD2    C4 6340   1.322   2.920   0.180 -0.3832 -0.3163  0.3898
  425MPD2    C5 6341   1.456   2.889   0.203 -0.1745 -0.5100 -0.0183
  425MPD2     H 6342   1.203   2.618   0.113  1.6415 -1.1803  0.5327
  425MPD2    H1 6343   1.284   3.021   0.193  2.4940  0.9704 -0.9278
  425MPD2    H2 6344   1.606   2.750   0.206  0.4339 -1.2255  1.0112
  425MPD2    H3 6345   1.527   2.969   0.224 -1.1021  0.2819  0.0938
  425MPD2     N 6346   1.100   2.835   0.131 -0.3028  0.2769  0.8653
  425MPD2    H5 6347   1.057   2.756   0.084  1.5495  0.6666 -1.4443
  425MPD2    N1 6348   1.478   2.526   0.136  0.4120 -0.2224 -0.2356
  425MPD2    H7 6349   1.576   2.516   0.114  0.5082  1.6636 -0.6311
  426TMC3    C1 6350   1.479   2.291   0.071 -0.3488  0.3948  0.1192
  426TMC3    C2 6351   1.435   2.224  17.659  0.3484 -1.2719  1.0684
  426TMC3    C3 6352   1.520   2.134  17.597 -0.7347  0.2108 -0.3914
  426TMC3    C4 6353   1.602   2.274   0.125 -0.4359  1.1970  0.1083
  426TMC3    C5 6354   1.685   2.180   0.065  0.4637 -0.0653 -0.3671
  426TMC3    C6 6355   1.645   2.106  17.652  0.1379  0.1709  0.5092
  426TMC3     C 6356   1.406   2.413   0.100 -0.4325  0.0055  0.2923
  426TMC3     O 6357   1.286   2.404   0.079  0.1924  0.1327 -0.1153
  426TMC3     H 6358   1.349   2.274  17.616  1.5366  1.3811  1.7487
  426TMC3    H1 6359   1.628   2.344   0.204  2.2124  0.2979  0.0439
  426TMC3    H2 6360   1.713   2.036  17.605 -1.6933 -0.1692 -1.6152
  426TMC3    C7 6361   1.814   2.152   0.122  0.4799 -0.0355 -0.8248
  426TMC3    C8 6362   1.483   2.093  17.466 -0.4527  0.2293 -0.3348
  426TMC3    O1 6363   1.899   2.103   0.049 -0.2377 -0.3539 -0.3459
  426TMC3    O2 6364   1.568   2.061  17.383  0.1317 -0.1054 -0.4690
  427MPD2     C 6365   4.526   4.474  14.576  0.5359 -0.5659  1.3232
  427MPD2    C1 6366   4.515   4.433  14.712 -0.2475 -0.1148 -0.4659
  427MPD2    C2 6367   4.404   4.468  14.785 -0.2274 -0.6525 -0.1473
  427MPD2    C3 6368   4.327   4.574  14.754 -0.5049  0.6926  0.3082
  427MPD2    C4 6369   4.352   4.629  14.631  0.2003 -0.1916  0.8064
  427MPD2    C5 6370   4.438   4.576  14.539 -0.0397 -0.3285 -0.1711
  427MPD2     H 6371   4.408   4.437  14.888 -2.9831 -0.7441 -0.0695
  427MPD2    H1 6372   4.302   4.721  14.605 -0.0636 -0.2912  0.9665
  427MPD2    H2 6373   4.608   4.440  14.512 -0.5441 -1.2590  0.3067
  427MPD2    H3 6374   4.430   4.612  14.437  1.0853 -1.2146 -0.5789
  427MPD2     N 6375   4.230   4.636  14.834  0.6675  0.8982  0.1397
  427MPD2    H5 6376   4.169   4.699  14.782 -0.1756 -0.5487 -0.6306
  427MPD2    N1 6377   4.613   4.345  14.769  0.3678  0.6447  0.0278
  427MPD2    H7 6378   4.594   4.319  14.865  0.0776 -0.2328 -0.2651
  428TMC3    C1 6379   0.097   4.309  14.843 -0.3518  0.9368 -0.2105
  428TMC3    C2 6380   0.075   4.183  14.890 -0.1728 -0.4350  0.0844
  428TMC3    C3 6381   0.147   4.143  15.000 -0.0358  0.5525 -0.0018
  428TMC3    C4 6382   0.193   4.385  14.888  0.0438  0.0371  0.1187
  428TMC3    C5 6383   0.269   4.346  14.998  0.1251 -0.8708  1.0331
  428TMC3    C6 6384   0.236   4.231  15.065 -0.0573  0.5524  0.8816
  428TMC3     C 6385   0.018   4.349  14.736  0.2169 -0.0091  0.4136
  428TMC3     O 6386   0.072   4.403  14.643  0.5696 -0.9830 -0.0393
  428TMC3     H 6387   0.002   4.119  14.842 -1.4340  0.2729  1.0485
  428TMC3    H1 6388   0.208   4.481  14.839  0.0433  1.2280  2.4290
  428TMC3    H2 6389   0.303   4.197  15.144  0.7635 -1.5617 -0.7062
  428TMC3    C7 6390   0.378   4.425  15.049 -0.1139 -0.0768 -0.2239
  428TMC3    C8 6391   0.151   4.002  15.033  0.0635 -0.2952 -0.0370
  428TMC3    O1 6392   0.425   4.410  15.165  0.4285  0.3963 -0.0362
  428TMC3    O2 6393   0.130   3.928  14.938 -0.1218  0.5433  0.2397
  429MPD2     C 6394   0.793   4.378   0.282  0.1341  0.4910  0.3186
  429MPD2    C1 6395   0.861   4.282   0.209  0.2693 -0.3343 -0.7658
  429MPD2    C2 6396   0.905   4.322   0.080  0.4720  0.0460 -0.1599
  429MPD2    C3 6397   0.892   4.445   0.033  0.2865 -0.7985  0.1923
  429MPD2    C4 6398   0.827   4.543   0.112  0.7169 -0.2116 -0.3121
  429MPD2    C5 6399   0.778   4.506   0.237  0.0998 -0.4739 -0.4949
  429MPD2     H 6400   0.959   4.253   0.016  0.9112 -0.0626  0.3296
  429MPD2    H1 6401   0.807   4.646   0.084  1.4995 -0.0232 -0.1944
  429MPD2    H2 6402   0.769   4.341   0.381 -0.3031  2.7951  1.0693
  429MPD2    H3 6403   0.718   4.580   0.289 -1.4344 -3.5627  2.1338
  429MPD2     N 6404   0.940   4.468  17.603  0.2233  0.1845  0.5321
  429MPD2    H5 6405   1.001   4.405  17.553 -0.8441 -3.1241  3.3756
  429MPD2    N1 6406   0.883   4.155   0.258  0.0463  0.5237 -0.4899
  429MPD2    H7 6407   0.932   4.090   0.197 -1.3400  0.5473 -1.6327
  430TMC3    C1 6408   0.982   4.594  17.409 -0.1109 -0.1484 -0.8070
  430TMC3    C2 6409   0.965   4.721  17.371  0.0049 -0.1553 -0.3911
  430TMC3    C3 6410   1.063   0.048  17.291 -0.4377  0.0029  0.3681
  430TMC3    C4 6411   1.089   4.521  17.375 -0.4232  0.5803 -0.2135
  430TMC3    C5 6412   1.188   4.581  17.304  0.7054  0.1153  0.1609
  430TMC3    C6 6413   1.188   4.714  17.274 -0.1886 -0.5802 -0.0429
  430TMC3     C 6414   0.904   4.579  17.528  0.6292  0.3971 -0.1181
  430TMC3     O 6415   0.800   4.644  17.550 -0.2542  0.2611  0.2694
  430TMC3     H 6416   0.877   0.059  17.381  1.1288  1.1031  1.7932
  430TMC3    H1 6417   1.094   4.419  17.410 -1.3914  1.2623  1.8750
  430TMC3    H2 6418   1.260   0.040  17.210 -0.4831 -2.0843 -1.5557
  430TMC3    C7 6419   1.297   4.492  17.265  0.2699  0.2257 -0.2253
  430TMC3    C8 6420   1.039   0.173  17.226  0.0588 -0.3417 -0.5829
  430TMC3    O1 6421   1.299   4.381  17.309 -0.0066 -0.3656  0.0514
  430TMC3    O2 6422   0.958   0.255  17.263 -0.7576 -0.3895 -0.3445
  431MPD2     C 6423   1.964   0.551  12.540  0.5432 -0.3396 -0.3713
  431MPD2    C1 6424   2.064   0.556  12.446 -0.0679 -0.4566  0.1929
  431MPD2    C2 6425   2.047   0.599  12.316  0.0425  0.3913 -0.1613
  431MPD2    C3 6426   1.913   0.617  12.278  0.4175  0.2413 -0.2682
  431MPD2    C4 6427   1.810   0.603  12.367  0.2052 -0.2014 -0.0846
  431MPD2    C5 6428   1.835   0.567  12.497  0.0808 -0.0187 -0.2100
  431MPD2     H 6429   2.127   0.585  12.244  0.9725 -0.1884  0.9857
  431MPD2    H1 6430   1.706   0.598  12.337  0.3209 -2.4213 -0.1341
  431MPD2    H2 6431   1.969   0.512  12.642  3.9727  1.6790  0.2249
  431MPD2    H3 6432   1.759   0.531  12.566 -0.0342 -0.7218 -0.7033
  431MPD2     N 6433   1.865   0.630  12.150  0.5118 -0.2346  0.4368
  431MPD2    H5 6434   1.767   0.645  12.131  0.6352  0.9834  0.7365
  431MPD2    N1 6435   2.196   0.522  12.488 -1.0337  0.5266  0.1085
  431MPD2    H7 6436   2.268   0.550  12.422 -0.3297  2.8001  1.8198
  432TMC3    C1 6437   1.863   0.559  11.931 -1.1416 -0.2196 -0.3452
  432TMC3    C2 6438   1.942   0.518  11.829 -0.2673 -0.2084 -1.1334
  432TMC3    C3 6439   1.894   0.410  11.758 -0.2433 -0.2017 -0.2070
  432TMC3    C4 6440   1.747   0.499  11.975 -0.3756  0.3769 -0.1152
  432TMC3    C5 6441   1.719   0.384  11.916  0.4887 -0.4875  0.0304
  432TMC3    C6 6442   1.788   0.342  11.807  0.8016 -0.5573  0.1072
  432TMC3     C 6443   1.941   0.623  12.039  0.3253  0.0998  0.8080
  432TMC3     O 6444   2.060   0.626  12.017 -0.5382 -0.0710 -0.0922
  432TMC3     H 6445   2.031   0.566  11.790  0.1606 -0.6243 -0.6649
  432TMC3    H1 6446   1.680   0.536  12.053  1.7286  1.7980  1.0111
  432TMC3    H2 6447   1.747   0.257  11.754 -3.0338 -0.5882  3.1502
  432TMC3    C7 6448   1.708   0.271  12.003  0.4780 -0.2024  0.1296
  432TMC3    C8 6449   1.980   0.341  11.665 -0.0678 -0.4598  0.6645
  432TMC3    O1 6450   1.766   0.168  11.967 -0.2205  0.3331 -0.0604
  432TMC3    O2 6451   1.928   0.272  11.582 -0.1041  0.0054  0.3069
  433MPD2     C 6452   0.615   3.305  11.204  0.2299 -0.2204  0.2430
  433MPD2    C1 6453   0.562   3.199  11.279  0.5255  0.1448  0.9062
  433MPD2    C2 6454   0.571   3.209  11.415 -0.5110  0.3103 -0.1856
  433MPD2    C3 6455   0.634   3.320  11.480  0.6902  0.0212 -0.0301
  433MPD2    C4 6456   0.694   3.413  11.405  0.3825  0.2293 -0.5907
  433MPD2    C5 6457   0.675   3.408  11.276 -0.5781  0.3289 -0.0948
  433MPD2     H 6458   0.506   3.142  11.471  0.3947  0.2561  0.8018
  433MPD2    H1 6459   0.747   3.502  11.438  1.2108 -1.6876  3.2262
  433MPD2    H2 6460   0.613   3.311  11.096 -0.0028 -1.1776  0.1849
  433MPD2    H3 6461   0.711   3.495  11.223  1.9972  0.0292  1.1738
  433MPD2     N 6462   0.628   3.326  11.621 -0.5158  0.2195  0.2090
  433MPD2    H5 6463   0.585   3.250  11.672 -2.9602  1.6858  0.3134
  433MPD2    N1 6464   0.503   3.084  11.210 -0.3630 -0.4074 -0.4480
  433MPD2    H7 6465   0.490   3.093  11.110 -0.2760  2.5432 -0.2048
  434TMC3    C1 6466   0.462   2.856  11.180  0.3275 -0.1255  0.3781
  434TMC3    C2 6467   0.470   2.726  11.234 -0.2461  0.2344  0.4575
  434TMC3    C3 6468   0.536   2.629  11.159 -0.2163 -0.5360  0.2859
  434TMC3    C4 6469   0.505   2.881  11.053  0.3745  0.2885  0.4030
  434TMC3    C5 6470   0.567   2.785  10.984  1.0183 -0.5012  0.4983
  434TMC3    C6 6471   0.593   2.659  11.044  0.1382 -0.1729  0.2620
  434TMC3     C 6472   0.488   2.966  11.271 -0.0598 -0.3430 -0.4359
  434TMC3     O 6473   0.515   2.928  11.383  0.2399 -0.6301 -0.2949
  434TMC3     H 6474   0.445   2.708  11.338 -1.2025  1.4956  0.4450
  434TMC3    H1 6475   0.484   2.971  10.998  1.0434 -1.0811 -2.0863
  434TMC3    H2 6476   0.627   2.574  10.985 -1.1903  0.1835 -1.0108
  434TMC3    C7 6477   0.555   2.784  10.837  0.4642 -0.0917 -0.0514
  434TMC3    C8 6478   0.631   2.554  11.240  0.2649 -0.0615 -0.1587
  434TMC3    O1 6479   0.478   2.860  10.778  0.5578  0.3109 -0.6331
  434TMC3    O2 6480   0.583   2.483  11.323 -0.2317 -0.0572  0.2892
  435MPD2     C 6481   3.033   3.585  15.604  0.2267  0.1896  0.1715
  435MPD2    C1 6482   3.028   3.561  15.741  0.2053 -0.4496  0.0257
  435MPD2    C2 6483   3.107   3.468  15.798  0.1053 -0.1326 -0.6165
  435MPD2    C3 6484   3.206   3.407  15.733 -0.7355  1.0130  0.3005
  435MPD2    C4 6485   3.221   3.429  15.596 -0.0886 -0.0826 -0.1645
  435MPD2    C5 6486   3.130   3.515  15.535 -0.2044  0.3654  0.0867
  435MPD2     H 6487   3.091   3.452  15.904  1.6744  1.9227 -0.0758
  435MPD2    H1 6488   3.310   3.403  15.541  0.8762  0.2828  1.2261
  435MPD2    H2 6489   2.968   3.650  15.545 -0.0627 -0.4747 -0.2437
  435MPD2    H3 6490   3.143   3.525  15.428 -1.0503  1.0902  0.0517
  435MPD2     N 6491   3.296   3.333  15.807  0.2080 -0.0605 -0.1642
  435MPD2    H5 6492   3.288   3.348  15.907  1.6781  1.5621 -0.2876
  435MPD2    N1 6493   2.943   3.625  15.822 -0.1927  0.4557  0.2948
  435MPD2    H7 6494   2.958   3.605  15.921  1.0118  1.4419  0.3183
  436TMC3    C1 6495   2.600   3.725  16.029 -0.0586 -0.1107  0.3973
  436TMC3    C2 6496   2.712   3.682  15.960 -0.3081 -0.3806  0.4972
  436TMC3    C3 6497   2.788   3.772  15.895 -0.0282 -0.1011  0.4473
  436TMC3    C4 6498   2.568   3.856  16.018  0.5896 -0.2882 -0.3617
  436TMC3    C5 6499   2.637   3.939  15.939 -0.5388 -0.0657 -0.0889
  436TMC3    C6 6500   2.748   3.900  15.872  0.2331 -0.7788 -0.7430
  436TMC3     C 6501   2.510   3.626  16.089  0.5250  0.0517 -0.0748
  436TMC3     O 6502   2.539   3.507  16.068  0.2107  0.1980 -0.4990
  436TMC3     H 6503   2.738   3.576  15.957  0.3406 -0.2250  0.6763
  436TMC3    H1 6504   2.498   3.897  16.090  0.4294  0.4626 -0.9479
  436TMC3    H2 6505   2.817   3.963  15.817  1.5325 -2.7236 -1.3248
  436TMC3    C7 6506   2.565   4.048  15.884  0.6496  0.3177 -0.3616
  436TMC3    C8 6507   2.859   3.720  15.783  0.1582  0.2139 -0.3214
  436TMC3    O1 6508   2.454   4.066  15.936  0.2889  0.5914 -0.5644
  436TMC3    O2 6509   2.832   3.778  15.680 -0.1970 -0.0905 -0.1562
  437TMC3    C1 6510   1.022   0.643  13.033  0.1843 -0.1945  0.1254
  437TMC3    C2 6511   0.898   0.600  12.985 -0.9212  0.6112 -0.2446
  437TMC3    C3 6512   0.859   0.590  12.853  0.2130  0.8856  0.5320
  437TMC3    C4 6513   1.112   0.671  12.936  0.2286 -0.1697 -0.6011
  437TMC3    C5 6514   1.081   0.663  12.802 -0.7652  0.4136 -0.5032
  437TMC3    C6 6515   0.957   0.617  12.759 -0.1149  0.0780 -0.4664
  437TMC3     C 6516   1.081   0.582  13.149  0.5981  0.7237  0.2583
  437TMC3     O 6517   1.199   0.563  13.136 -0.3373  0.4421 -0.0791
  437TMC3     H 6518   0.828   0.564  13.061  0.3997 -0.0067  0.6858
  437TMC3    H1 6519   1.211   0.708  12.961  0.6876 -0.8162 -1.4903
  437TMC3    H2 6520   0.929   0.638  12.656 -3.5579 -2.3441 -0.0327
  437TMC3    C7 6521   1.159   0.749  12.719  0.0086  0.6337  0.4588
  437TMC3    C8 6522   0.716   0.598  12.829  0.7034 -0.7360  0.3407
  437TMC3    O1 6523   1.097   0.841  12.665  0.1766 -0.0247  0.6606
  437TMC3    O2 6524   0.649   0.630  12.925 -0.3697  0.5485  0.1761
  438MPD2     C 6525   4.059   0.648  16.528 -0.1367 -0.0507  0.9983
  438MPD2    C1 6526   4.164   0.625  16.612  0.5307 -0.3856 -0.9778
  438MPD2    C2 6527   4.140   0.582  16.747  0.4836 -1.1088  0.3380
  438MPD2    C3 6528   4.008   0.578  16.787 -0.3621  0.0540  0.0991
  438MPD2    C4 6529   3.907   0.614  16.701  0.5477 -0.4464  0.1046
  438MPD2    C5 6530   3.933   0.643  16.570  1.0242  0.6528 -0.1458
  438MPD2     H 6531   4.229   0.557  16.803 -0.2210  0.7844  2.2848
  438MPD2    H1 6532   3.802   0.615  16.727  0.7437  0.3216  0.8813
  438MPD2    H2 6533   4.071   0.660  16.421  0.7564  1.6819  1.3017
  438MPD2    H3 6534   3.852   0.649  16.497  0.2608 -3.2768  0.3506
  438MPD2     N 6535   3.967   0.532  16.912  0.8943  0.0105 -0.1637
  438MPD2    H5 6536   3.870   0.502  16.912  1.1122 -0.6850 -0.8438
  438MPD2    N1 6537   4.296   0.627  16.572  0.2785 -0.7309 -0.0954
  438MPD2    H7 6538   4.371   0.613  16.639  0.8011  1.3241 -0.2615
  439TMC3    C1 6539   4.482   0.629  16.428 -0.0232 -0.0030 -0.3647
  439TMC3    C2 6540   4.530   0.528  16.355  0.3161  0.3013 -0.0458
  439TMC3    C3 6541   4.657   0.487  16.380  0.0476 -0.2866  0.4959
  439TMC3    C4 6542   4.550   0.682  16.531  0.0052 -0.7978  0.9270
  439TMC3    C5 6543   4.673   0.634  16.548  0.0138  0.2955 -0.0666
  439TMC3    C6 6544   0.012   0.535  16.481 -0.0010 -0.6249  1.0176
  439TMC3     C 6545   4.338   0.636  16.444  0.5326 -0.0333  0.6865
  439TMC3     O 6546   4.282   0.605  16.341 -0.4579  0.6968 -0.4896
  439TMC3     H 6547   4.471   0.493  16.271 -1.3642  0.1067  1.2069
  439TMC3    H1 6548   4.508   0.755  16.599  1.0044  1.1609 -0.5785
  439TMC3    H2 6549   0.111   0.496  16.503  0.5892  0.7239  0.7336
  439TMC3    C7 6550   0.031   0.686  16.652 -0.2061 -1.0210 -0.7281
  439TMC3    C8 6551   4.720   0.377  16.301  0.1523  0.2037 -0.4320
  439TMC3    O1 6552   4.691   0.710  16.759 -0.0199  0.6306 -0.3474
  439TMC3    O2 6553   0.114   0.354  16.331 -0.4500  0.1499  0.3273
  440MPD2     C 6554   2.398   2.180  14.923  0.1124  0.8355  0.6877
  440MPD2    C1 6555   2.487   2.218  15.021  0.0462 -0.6373  0.6503
  440MPD2    C2 6556   2.615   2.167  15.020 -0.8010  0.0802  0.5528
  440MPD2    C3 6557   2.651   2.066  14.929 -0.4951  0.3194 -0.0106
  440MPD2    C4 6558   2.560   2.026  14.839  0.0166 -0.0410 -1.3469
  440MPD2    C5 6559   2.435   2.086  14.827  0.5821 -0.0145 -0.0835
  440MPD2     H 6560   2.694   2.199  15.087 -1.3550 -0.8313  1.6337
  440MPD2    H1 6561   2.566   1.944  14.767 -1.6445  1.7329 -3.5441
  440MPD2    H2 6562   2.299   2.223  14.914  0.1541  0.7018 -0.3902
  440MPD2    H3 6563   2.375   2.057  14.742 -0.7610 -2.6895  1.7941
  440MPD2     N 6564   2.780   2.005  14.932  0.3944  0.2222 -0.2716
  440MPD2    H5 6565   2.799   1.944  14.853  0.9847 -1.4761  1.1863
  440MPD2    N1 6566   2.457   2.303  15.130  0.1540  0.3442 -0.1357
  440MPD2    H7 6567   2.528   2.319  15.201 -0.5295 -2.5940  1.2306
  441TMC3    C1 6568   3.009   1.966  14.988 -0.4776  0.2348  0.3066
  441TMC3    C2 6569   3.103   2.025  15.060 -0.3766 -0.9189 -0.3955
  441TMC3    C3 6570   3.181   1.950  15.147 -0.5615  0.0953 -0.2059
  441TMC3    C4 6571   2.990   1.826  15.004 -0.1158 -0.0183 -0.4458
  441TMC3    C5 6572   3.084   1.755  15.068 -0.5060  0.6724  0.4459
  441TMC3    C6 6573   3.181   1.812  15.142  0.0480  1.2292 -0.3159
  441TMC3     C 6574   2.892   2.053  14.994 -0.3370 -0.1984 -0.1242
  441TMC3     O 6575   2.901   2.128  15.089 -0.1187  0.5402  0.0438
  441TMC3     H 6576   3.124   2.132  15.060 -2.6580 -0.4556 -2.6274
  441TMC3    H1 6577   2.909   1.775  14.954 -0.1893 -2.5222  2.2850
  441TMC3    H2 6578   3.216   1.757  15.229 -0.7381  1.7150  0.3111
  441TMC3    C7 6579   3.041   1.634  15.122 -0.1484  0.0847  0.2809
  441TMC3    C8 6580   3.205   2.009  15.278  0.2827 -0.1405 -0.5982
  441TMC3    O1 6581   2.922   1.632  15.153  0.4701  0.2636  0.0475
  441TMC3    O2 6582   3.300   1.975  15.347  0.1109 -0.8450 -0.0859
  442MPD2     C 6583   0.906   2.515  16.661 -0.6558  0.1026  0.1640
  442MPD2    C1 6584   0.818   2.416  16.703  0.2475 -0.1743  0.1827
  442MPD2    C2 6585   0.818   2.300  16.640  0.7912  0.0288  0.2565
  442MPD2    C3 6586   0.905   2.273  16.540 -0.2533 -0.0611  0.1421
  442MPD2    C4 6587   1.002   2.360  16.510  0.2844  0.9081 -0.0494
  442MPD2    C5 6588   1.002   2.487  16.567  0.0943  0.0992  0.1563
  442MPD2     H 6589   0.733   2.236  16.663  0.6567  1.2459  3.2239
  442MPD2    H1 6590   1.082   2.334  16.441 -0.3751 -0.0587 -0.4425
  442MPD2    H2 6591   0.914   2.607  16.718 -2.7801  0.7114 -0.5255
  442MPD2    H3 6592   1.071   2.565  16.536  2.2687 -0.6874  3.0179
  442MPD2     N 6593   0.914   2.142  16.478  0.0114  1.0055 -0.0532
  442MPD2    H5 6594   0.969   2.139  16.393  1.1047 -3.7985  0.8228
  442MPD2    N1 6595   0.724   2.439  16.810  0.3671  0.0037 -0.4605
  442MPD2    H7 6596   0.662   2.363  16.837  2.1912 -1.0210  0.8136
  443TMC3    C1 6597   0.598   2.545  16.986  0.5527 -0.0576 -0.1131
  443TMC3    C2 6598   0.501   2.643  16.979  0.2789 -0.2926 -0.6098
  443TMC3    C3 6599   0.368   2.613  16.992  0.4496  0.4711 -0.1836
  443TMC3    C4 6600   0.561   2.431  17.045  0.0939  0.4938 -0.1309
  443TMC3    C5 6601   0.435   2.419  17.102  0.9126 -0.8588 -0.9394
  443TMC3    C6 6602   0.337   2.509  17.074 -0.2726 -0.1498 -0.3096
  443TMC3     C 6603   0.710   2.549  16.889 -0.0441  0.7434 -0.0732
  443TMC3     O 6604   0.776   2.651  16.887  0.1627  0.7263 -0.2750
  443TMC3     H 6605   0.526   2.734  16.927  2.2028 -1.3844 -1.6246
  443TMC3    H1 6606   0.643   2.364  17.069 -0.6472  0.0376  1.1019
  443TMC3    H2 6607   0.236   2.487  17.104 -0.1938  1.1909  0.9449
  443TMC3    C7 6608   0.402   2.285  17.156  0.2828 -0.1677  0.2170
  443TMC3    C8 6609   0.307   2.593  16.859  0.3094  0.2968 -0.0711
  443TMC3    O1 6610   0.465   2.191  17.110 -0.8465  0.4249  0.0571
  443TMC3    O2 6611   0.253   2.489  16.827  0.3885 -0.1351 -0.1770
  444MPD2     C 6612   0.784   2.007  17.011 -0.2237  0.1441  0.3737
  444MPD2    C1 6613   0.807   1.894  17.091  0.3951 -0.1966  0.0067
  444MPD2    C2 6614   0.891   1.788  17.044  0.1011 -0.1902 -0.0405
  444MPD2    C3 6615   0.941   1.798  16.918 -0.1986  0.0333 -0.3795
  444MPD2    C4 6616   0.903   1.904  16.845  0.4749  0.0071 -0.1601
  444MPD2    C5 6617   0.836   2.011  16.887  0.6237 -0.4852 -0.1265
  444MPD2     H 6618   0.920   1.714  17.118  1.6871 -0.0094 -0.4726
  444MPD2    H1 6619   0.930   1.892  16.741 -1.8297 -1.9144 -0.5244
  444MPD2    H2 6620   0.716   2.089  17.030  0.0138  0.4573 -0.1181
  444MPD2    H3 6621   0.823   2.097  16.822 -0.5912  0.8877  1.9604
  444MPD2     N 6622   1.028   1.700  16.863  0.3323 -0.0054  0.4991
  444MPD2    H5 6623   1.048   1.710  16.764 -0.7600  2.3638  0.5113
  444MPD2    N1 6624   0.750   1.879  17.212  0.2681 -0.7371 -0.1337
  444MPD2    H7 6625   0.760   1.789  17.258 -2.0703 -0.8155  0.1964
  445TMC3    C1 6626   1.175   1.521  16.845  0.4936  0.6626 -0.1557
  445TMC3    C2 6627   1.110   1.483  16.730  0.1602 -0.3139 -0.1108
  445TMC3    C3 6628   1.186   1.421  16.636 -0.4806  0.2422  0.1586
  445TMC3    C4 6629   1.309   1.489  16.872 -0.8020 -0.2234  0.0136
  445TMC3    C5 6630   1.383   1.425  16.774  0.4729  0.1822  0.6056
  445TMC3    C6 6631   1.321   1.389  16.660 -0.1817  0.6490  0.6300
  445TMC3     C 6632   1.093   1.604  16.938 -0.0017  0.4694 -0.6194
  445TMC3     O 6633   1.129   1.606  17.058 -0.3523 -0.0332 -0.0042
  445TMC3     H 6634   1.009   1.515  16.708  0.3626 -0.1196 -0.7763
  445TMC3    H1 6635   1.350   1.515  16.969  1.4389 -1.7076 -0.5360
  445TMC3    H2 6636   1.367   1.324  16.586 -1.4026 -0.0816  0.5098
  445TMC3    C7 6637   1.518   1.374  16.816  0.1245 -0.8614  0.8257
  445TMC3    C8 6638   1.151   1.417  16.494  0.0618  0.3772 -0.0551
  445TMC3    O1 6639   1.533   1.362  16.937  0.6922 -0.3011 -0.7767
  445TMC3    O2 6640   1.101   1.519  16.452  0.5488  0.0087  0.0386
  446MPD2     C 6641   0.584   2.539  11.792 -0.0688 -0.1599  0.1372
  446MPD2    C1 6642   0.564   2.546  11.657 -0.6072 -0.3826 -0.4572
  446MPD2    C2 6643   0.595   2.666  11.596  0.2653 -0.4818 -0.6492
  446MPD2    C3 6644   0.666   2.764  11.656 -0.6957  0.2569  0.1983
  446MPD2    C4 6645   0.694   2.754  11.792  0.2097 -0.2361 -0.2999
  446MPD2    C5 6646   0.651   2.642  11.858 -0.5712  0.7413 -0.1310
  446MPD2     H 6647   0.574   2.673  11.490  0.1933 -1.2692 -0.6894
  446MPD2    H1 6648   0.739   2.835  11.850  0.4678 -1.7651  1.6427
  446MPD2    H2 6649   0.553   2.452  11.847 -0.1724  0.3596  0.9008
  446MPD2    H3 6650   0.677   2.644  11.964 -0.9118  1.3129 -0.0630
  446MPD2     N 6651   0.726   2.862  11.579 -0.4972 -0.6890  0.1076
  446MPD2    H5 6652   0.678   2.872  11.490  1.9139 -0.2617 -1.1600
  446MPD2    N1 6653   0.504   2.443  11.584 -0.0025  0.2499 -0.4323
  446MPD2    H7 6654   0.502   2.452  11.483 -1.4721  1.9749 -0.2516
  447TMC3    C1 6655   0.886   3.011  11.502  0.4575  0.0299  0.0190
  447TMC3    C2 6656   0.827   3.005  11.376  0.0429 -0.2299 -0.1360
  447TMC3    C3 6657   0.882   3.082  11.280 -0.2000  1.0145  0.5323
  447TMC3    C4 6658   0.987   3.095  11.534  0.6836  0.5852  0.6670
  447TMC3    C5 6659   1.030   3.173  11.430  0.4768  0.2063  0.0169
  447TMC3    C6 6660   0.977   3.174  11.304 -0.2754  0.5777 -0.1437
  447TMC3     C 6661   0.844   2.928  11.613 -0.1932 -0.4024 -0.8945
  447TMC3     O 6662   0.911   2.908  11.712 -0.1722 -0.1416  0.5128
  447TMC3     H 6663   0.766   2.924  11.338 -1.4434  0.8676 -0.0977
  447TMC3    H1 6664   1.049   3.084  11.622  1.2391 -0.4586  0.1426
  447TMC3    H2 6665   1.037   3.221  11.227 -2.0227 -2.2863 -3.2304
  447TMC3    C7 6666   1.171   3.193  11.431 -0.0854  0.0708  0.7709
  447TMC3    C8 6667   0.904   3.009  11.152 -0.4703 -0.4428  0.3737
  447TMC3    O1 6668   1.231   3.156  11.327  0.1428 -0.3109 -0.4847
  447TMC3    O2 6669   0.817   2.936  11.104  0.4726 -0.2399 -0.1879
  448TMC3    C1 6670   3.952   2.401  16.407 -0.6234 -0.2468  0.7134
  448TMC3    C2 6671   3.932   2.268  16.387  0.6235 -0.4710 -0.4281
  448TMC3    C3 6672   3.936   2.182  16.494  0.4184 -0.1421  0.2996
  448TMC3    C4 6673   3.970   2.461  16.527  0.0314  0.0527 -0.4520
  448TMC3    C5 6674   3.970   2.371  16.631  0.8453 -0.7471 -0.0302
  448TMC3    C6 6675   3.966   2.235  16.620  0.3032 -0.1228  0.2209
  448TMC3     C 6676   4.027   2.453  16.295  0.2608 -0.4853 -0.2443
  448TMC3     O 6677   4.014   2.410  16.183 -0.2516  0.0593  0.1924
  448TMC3     H 6678   3.932   2.219  16.290  0.3692 -2.1669  0.4335
  448TMC3    H1 6679   3.979   2.568  16.536  1.6856  0.0912 -2.5025
  448TMC3    H2 6680   3.984   2.160  16.696  3.7856  0.2900 -0.1960
  448TMC3    C7 6681   3.974   2.434  16.756  0.4945 -0.4019 -0.0264
  448TMC3    C8 6682   3.988   2.048  16.468 -0.2606 -0.0346 -0.4543
  448TMC3    O1 6683   4.034   2.543  16.756  0.3732  0.1332 -0.7467
  448TMC3    O2 6684   4.097   2.025  16.514 -0.2260 -0.3715  0.0967
  449MPD2     C 6685   0.559   1.347  14.156  0.5100  0.0097  0.2389
  449MPD2    C1 6686   0.425   1.380  14.144  0.2104 -0.0273  0.1178
  449MPD2    C2 6687   0.329   1.346  14.236  0.1193  0.1018  0.1032
  449MPD2    C3 6688   0.368   1.267  14.342  0.3121  0.4443  0.3182
  449MPD2    C4 6689   0.498   1.218  14.348 -0.2614  0.0415 -0.0724
  449MPD2    C5 6690   0.593   1.258  14.255 -0.2084 -0.2243  0.7895
  449MPD2     H 6691   0.228   1.379  14.218  0.9906  1.0525 -2.9351
  449MPD2    H1 6692   0.536   1.165  14.435 -0.1153  0.4417  0.1083
  449MPD2    H2 6693   0.636   1.382  14.088 -1.2316  1.4068 -1.0108
  449MPD2    H3 6694   0.694   1.224  14.277  0.9092  0.4601 -3.3967
  449MPD2     N 6695   0.262   1.223  14.425  0.2430  0.4373 -0.0497
  449MPD2    H5 6696   0.164   1.247  14.414  0.0430 -1.7633 -3.0335
  449MPD2    N1 6697   0.374   1.462  14.043 -0.4700  0.2489 -0.4747
  449MPD2    H7 6698   0.275   1.486  14.044 -0.7658 -0.9425 -1.8863
  450TMC3    C1 6699   0.343   1.553  13.837 -0.9023  0.1478 -0.1499
  450TMC3    C2 6700   0.348   1.495  13.716  1.2208 -0.3094  0.1505
  450TMC3    C3 6701   0.229   1.484  13.654 -0.2395  0.5703  0.1361
  450TMC3    C4 6702   0.231   1.611  13.889 -0.0241 -0.1684  0.2496
  450TMC3    C5 6703   0.108   1.581  13.835  0.1105  0.9102 -0.4155
  450TMC3    C6 6704   0.104   1.522  13.713 -0.0442  0.1100 -0.0985
  450TMC3     C 6705   0.435   1.486  13.925 -0.4556 -0.1145  0.6016
  450TMC3     O 6706   0.540   1.434  13.890  0.2346  0.1440  0.4795
  450TMC3     H 6707   0.438   1.446  13.682  1.1769 -0.5863  0.4254
  450TMC3    H1 6708   0.241   1.663  13.984 -2.6611 -1.1043  1.0321
  450TMC3    H2 6709   0.015   1.490  13.661 -1.8244  3.4541  0.8959
  450TMC3    C7 6710   0.033   1.534  13.942  0.0995 -0.2499  0.4435
  450TMC3    C8 6711   0.214   1.398  13.541  0.6787  0.1903  0.3678
  450TMC3    O1 6712   0.099   1.501  14.042 -0.5382  0.3683  0.4124
  450TMC3    O2 6713   0.133   1.433  13.461 -0.4539  0.6555 -0.0989
  451MPD2     C 6714   1.953   1.116   1.614  0.4148  0.1024 -0.2607
  451MPD2    C1 6715   1.860   1.019   1.627 -0.0749  0.6399  0.1927
  451MPD2    C2 6716   1.898   0.892   1.672  0.4867  0.0547 -0.0568
  451MPD2    C3 6717   2.023   0.871   1.737 -0.1681 -0.4823  0.3834
  451MPD2    C4 6718   2.109   0.983   1.729  0.0534  0.3508 -1.0204
  451MPD2    C5 6719   2.084   1.097   1.663  0.6216 -0.2722  0.6313
  451MPD2     H 6720   1.828   0.810   1.667 -0.0249  0.3619  2.1121
  451MPD2    H1 6721   2.209   0.985   1.773 -0.0937 -0.1737 -0.6561
  451MPD2    H2 6722   1.937   1.221   1.590  2.5188  0.6945  0.8355
  451MPD2    H3 6723   2.149   1.182   1.678  0.0712  0.0702  1.0855
  451MPD2     N 6724   2.074   0.749   1.778 -0.0932 -0.6958  0.0638
  451MPD2    H5 6725   2.172   0.737   1.804  0.0612  1.4203  0.4912
  451MPD2    N1 6726   1.733   1.048   1.577 -0.1198 -0.2783 -1.0148
  451MPD2    H7 6727   1.722   1.134   1.524  0.4750  0.9690  0.8618
  452TMC3    C1 6728   2.052   0.528   1.848  0.1538 -0.4300 -0.4994
  452TMC3    C2 6729   2.134   0.550   1.949  0.6110  0.6456 -0.3962
  452TMC3    C3 6730   2.209   0.444   1.987  0.2614  0.1175 -0.2196
  452TMC3    C4 6731   2.020   0.406   1.802 -0.3099 -0.2839 -0.3306
  452TMC3    C5 6732   2.102   0.302   1.833  0.2595 -0.1027  0.6907
  452TMC3    C6 6733   2.200   0.317   1.928  0.7732 -0.2814  0.2969
  452TMC3     C 6734   1.993   0.637   1.790  0.0410  0.2805  0.0740
  452TMC3     O 6735   1.888   0.616   1.748 -0.1362 -0.5072  0.2388
  452TMC3     H 6736   2.162   0.649   1.983 -3.5329  0.9856  1.9452
  452TMC3    H1 6737   1.950   0.396   1.720 -1.3548  1.0844  0.3945
  452TMC3    H2 6738   2.274   0.240   1.947  2.7699  1.9307  1.5472
  452TMC3    C7 6739   2.086   0.187   1.752 -0.2730  0.4371 -0.0733
  452TMC3    C8 6740   2.323   0.478   2.075  0.1857  0.4249  0.1886
  452TMC3    O1 6741   2.098   0.204   1.627  0.0190  0.0580 -0.2047
  452TMC3    O2 6742   2.319   0.589   2.126 -0.0957 -0.6560 -0.2773
  453TMC3    C1 6743   2.912   1.578  11.743  0.1462  0.5296 -0.0285
  453TMC3    C2 6744   2.801   1.511  11.792  0.2391 -0.6206  0.7893
  453TMC3    C3 6745   2.806   1.375  11.787  0.1553  0.3611 -0.4944
  453TMC3    C4 6746   3.008   1.523  11.658 -0.0194  0.6774 -0.0903
  453TMC3    C5 6747   2.998   1.392  11.645 -0.1337  0.4182 -0.7794
  453TMC3    C6 6748   2.900   1.312  11.713 -0.3771  0.2044  0.0703
  453TMC3     C 6749   2.951   1.703  11.810  0.1190 -0.0493 -0.4702
  453TMC3     O 6750   3.020   1.784  11.754 -0.2704  0.0364 -0.1619
  453TMC3     H 6751   2.725   1.566  11.846 -1.5401 -0.9209 -1.3965
  453TMC3    H1 6752   3.092   1.576  11.616  1.1618 -1.1020  0.0241
  453TMC3    H2 6753   2.910   1.204  11.709 -1.5472  0.0960  0.3323
  453TMC3    C7 6754   3.107   1.331  11.565 -0.1570  0.4089 -0.6265
  453TMC3    C8 6755   2.730   1.318  11.896 -0.5165 -0.3390  0.5565
  453TMC3    O1 6756   3.170   1.401  11.491 -0.8631 -0.1030 -0.3200
  453TMC3    O2 6757   2.635   1.377  11.937 -0.7976 -0.2969 -0.3737
  454MPD2     C 6758   1.981   1.557  16.561 -0.2601 -0.2197  0.2315
  454MPD2    C1 6759   1.938   1.648  16.463  0.1390  0.6399  0.2996
  454MPD2    C2 6760   1.897   1.772  16.497  0.9005 -0.3635  0.4299
  454MPD2    C3 6761   1.879   1.813  16.627  0.1200 -0.9590  0.6181
  454MPD2    C4 6762   1.914   1.723  16.728  0.8610 -0.1947 -0.0819
  454MPD2    C5 6763   1.971   1.600  16.692 -0.2277 -0.5882 -0.2270
  454MPD2     H 6764   1.872   1.836  16.413 -1.6211  0.6907  1.9750
  454MPD2    H1 6765   1.898   1.751  16.832  1.2650  0.1348 -0.1110
  454MPD2    H2 6766   2.016   1.457  16.539  0.3583  0.3328 -1.3138
  454MPD2    H3 6767   2.013   1.543  16.774  1.0244  1.3977  0.5310
  454MPD2     N 6768   1.812   1.924  16.670  0.3369 -0.1453  0.5297
  454MPD2    H5 6769   1.773   1.915  16.763 -0.5074 -2.6360 -0.0734
  454MPD2    N1 6770   1.928   1.610  16.330 -0.3256  0.4456 -0.0293
  454MPD2    H7 6771   1.938   1.677  16.254 -0.1679  0.6237  0.1483
  455TMC3    C1 6772   1.638   2.064  16.623 -0.2275 -0.1273  0.0939
  455TMC3    C2 6773   1.608   2.044  16.753  0.0592 -0.3142  0.9325
  455TMC3    C3 6774   1.478   2.004  16.779  0.0848 -0.0226 -0.0980
  455TMC3    C4 6775   1.558   2.001  16.521 -0.3301  0.1419 -0.5061
  455TMC3    C5 6776   1.443   1.941  16.565 -0.7198 -0.3622  0.1030
  455TMC3    C6 6777   1.393   1.951  16.689 -0.4162 -0.4537  0.0187
  455TMC3     C 6778   1.772   2.028  16.588 -0.7376  0.5715 -0.9389
  455TMC3     O 6779   1.803   2.050  16.473 -0.1879  0.7876 -0.1708
  455TMC3     H 6780   1.667   2.082  16.836 -0.7329  0.1188  1.3103
  455TMC3    H1 6781   1.588   1.992  16.418 -0.9632 -0.3174 -0.6516
  455TMC3    H2 6782   1.298   1.910  16.720 -0.2447 -1.4216 -0.7297
  455TMC3    C7 6783   1.334   1.902  16.474  0.3826 -0.1100  0.2262
  455TMC3    C8 6784   1.446   2.010  16.917 -0.5176  0.1130 -0.4602
  455TMC3    O1 6785   1.248   1.982  16.474  0.3753  0.2365 -0.2445
  455TMC3    O2 6786   1.524   1.962  16.996 -0.7239  0.3885 -0.3052
  456MPD2     C 6787   4.515   0.732  16.071  0.1095 -0.0798 -0.1000
  456MPD2    C1 6788   4.622   0.779  16.144 -0.0821  0.1666  0.4464
  456MPD2    C2 6789   4.604   0.866  16.246  0.3934 -0.1253 -0.6746
  456MPD2    C3 6790   4.478   0.925  16.259 -0.1101  0.6445  0.0007
  456MPD2    C4 6791   4.377   0.886  16.179 -0.4777 -0.0909 -0.1218
  456MPD2    C5 6792   4.396   0.786  16.087 -0.5840  0.0685  0.5918
  456MPD2     H 6793   4.686   0.897  16.310 -0.6719 -1.1704  1.2044
  456MPD2    H1 6794   4.276   0.926  16.180  0.1147  1.3335  2.4745
  456MPD2    H2 6795   4.539   0.653  16.001 -3.4652 -0.3123 -1.0649
  456MPD2    H3 6796   4.321   0.736  16.028  0.4916  0.0296 -0.7336
  456MPD2     N 6797   4.469   1.044  16.336 -0.3770 -0.0355 -0.7359
  456MPD2    H5 6798   4.551   1.068  16.392  0.3303 -1.2730 -1.2347
  456MPD2    N1 6799   0.020   0.711  16.126 -0.0947  0.1078  0.1664
  456MPD2    H7 6800   0.026   0.653  16.042  2.9634 -0.3298  0.7047
  457TMC3    C1 6801   4.396   1.253  16.416 -0.5952  0.1627 -1.1553
  457TMC3    C2 6802   4.354   1.365  16.360 -0.0673 -0.8898  1.0416
  457TMC3    C3 6803   4.380   1.486  16.418  0.0944 -0.3583 -0.0375
  457TMC3    C4 6804   4.481   1.254  16.528 -0.4788  0.8540 -0.1855
  457TMC3    C5 6805   4.515   1.377  16.582  0.1600  0.1853  0.2079
  457TMC3    C6 6806   4.459   1.495  16.533  0.5034 -0.4521  0.1872
  457TMC3     C 6807   4.363   1.137  16.333 -0.3740 -0.4070 -0.2439
  457TMC3     O 6808   4.268   1.137  16.256  1.2022 -0.1896  0.6550
  457TMC3     H 6809   4.292   1.361  16.271  1.9902  0.4408 -0.4632
  457TMC3    H1 6810   4.504   1.161  16.577 -1.7135  0.0092 -1.2206
  457TMC3    H2 6811   4.470   1.589  16.586 -0.5562 -0.7487  0.9299
  457TMC3    C7 6812   4.565   1.377  16.718 -0.3837  0.0095 -0.5546
  457TMC3    C8 6813   4.303   1.601  16.385 -0.7615  0.2501  0.4622
  457TMC3    O1 6814   4.525   1.288  16.795  0.1067 -0.5111 -0.3938
  457TMC3    O2 6815   4.321   1.707  16.448 -0.5266  0.0375  0.2022
  458MPD2     C 6816   1.595   0.999  12.622  0.0761  0.7083  0.7441
  458MPD2    C1 6817   1.626   0.881  12.678  0.4904  0.5360 -0.4018
  458MPD2    C2 6818   1.521   0.786  12.691  0.0218  0.7404 -0.1427
  458MPD2    C3 6819   1.393   0.818  12.674  0.0244 -0.4036  0.0409
  458MPD2    C4 6820   1.365   0.935  12.614  0.4087 -0.1149 -0.0278
  458MPD2    C5 6821   1.466   1.025  12.586  0.0110 -0.3615  0.4677
  458MPD2     H 6822   1.537   0.683  12.724  0.9617  0.6027 -1.0213
  458MPD2    H1 6823   1.264   0.965  12.590  0.3311 -0.2856  0.0889
  458MPD2    H2 6824   1.665   1.078  12.594 -0.8543  1.1062 -0.4789
  458MPD2    H3 6825   1.455   1.127  12.551 -0.1139 -0.3570  0.5181
  458MPD2     N 6826   1.294   0.729  12.726  0.5918  0.2279  0.5435
  458MPD2    H5 6827   1.326   0.644  12.771  1.2738 -0.1839 -0.7029
  458MPD2    N1 6828   1.760   0.860  12.711  0.0457 -0.2666 -0.4853
  458MPD2    H7 6829   1.826   0.933  12.684  0.1157 -0.1830 -0.0941
  459TMC3    C1 6830   1.946   0.758  12.803 -0.4183  0.7875  0.3332
  459TMC3    C2 6831   2.027   0.840  12.730 -0.0614 -0.8330  1.2583
  459TMC3    C3 6832   2.154   0.856  12.781  0.0833  0.1487  0.7160
  459TMC3    C4 6833   1.987   0.692  12.915  0.0082 -0.7613  0.7106
  459TMC3    C5 6834   2.110   0.720  12.966  0.3811  0.1974 -0.2643
  459TMC3    C6 6835   2.196   0.797  12.895  1.0300  0.7476  0.6430
  459TMC3     C 6836   1.806   0.755  12.786 -0.0735 -0.6381 -0.3400
  459TMC3     O 6837   1.733   0.683  12.852  0.1485  0.4744 -0.4196
  459TMC3     H 6838   2.005   0.873  12.629 -0.4244 -1.1366  1.2386
  459TMC3    H1 6839   1.927   0.623  12.972 -2.9035  1.4883  0.3301
  459TMC3    H2 6840   2.296   0.806  12.936  1.0397  0.7227  0.6250
  459TMC3    C7 6841   2.155   0.677  13.096  0.5745  0.5446 -0.5908
  459TMC3    C8 6842   2.254   0.956  12.721 -1.2596  0.3110  0.1913
  459TMC3    O1 6843   2.103   0.573  13.139  0.1662  0.0580  0.3004
  459TMC3    O2 6844   2.368   0.915  12.718 -0.1419 -0.4290 -0.2328
  460MPD2     C 6845   1.226   2.929  11.014  0.1860 -0.7191  0.2611
  460MPD2    C1 6846   1.092   2.949  11.002  0.3908  0.4981 -0.1005
  460MPD2    C2 6847   1.021   2.921  10.891  1.0356  0.9607 -0.1278
  460MPD2    C3 6848   1.086   2.879  10.778 -0.5284 -0.3643 -0.2480
  460MPD2    C4 6849   1.221   2.856  10.785 -0.5114  0.2106 -0.9183
  460MPD2    C5 6850   1.293   2.886  10.900 -0.6430 -0.4459  0.7098
  460MPD2     H 6851   0.918   2.956  10.888  0.4679 -0.7095  0.2398
  460MPD2    H1 6852   1.275   2.801  10.710  2.1262  0.2288  0.9501
  460MPD2    H2 6853   1.281   2.949  11.105  0.2203 -1.0874  0.3224
  460MPD2    H3 6854   1.401   2.888  10.911 -0.7522 -1.7114  2.0346
  460MPD2     N 6855   1.013   2.854  10.665 -0.1813  0.3983  1.1740
  460MPD2    H5 6856   0.913   2.856  10.680  0.0785  0.7012  2.8273
  460MPD2    N1 6857   1.040   3.008  11.121  0.0790 -0.0183 -0.3789
  460MPD2    H7 6858   1.103   3.055  11.184  0.4291  0.4930 -1.1083
  461TMC3    C1 6859   0.946   2.785  10.444  0.2554  0.2180 -0.2273
  461TMC3    C2 6860   0.972   2.677  10.369  0.9691  0.1927 -0.6368
  461TMC3    C3 6861   0.898   2.647  10.264  0.7789 -0.8191  1.0039
  461TMC3    C4 6862   0.857   2.884  10.401 -0.4082 -0.2145  1.0411
  461TMC3    C5 6863   0.788   2.853  10.290 -0.2912 -0.5709 -0.4961
  461TMC3    C6 6864   0.807   2.742  10.213  0.1637  0.6748 -0.0430
  461TMC3     C 6865   1.059   2.817  10.535  0.6590  0.5541 -0.1119
  461TMC3     O 6866   1.172   2.791  10.492  0.4489 -0.6627  0.4403
  461TMC3     H 6867   1.051   2.607  10.393  0.3813 -0.2788 -0.0867
  461TMC3    H1 6868   0.840   2.982  10.445 -1.4193 -0.0647  0.3067
  461TMC3    H2 6869   0.779   2.736  10.108  2.5462 -2.4159 -0.5303
  461TMC3    C7 6870   0.702   2.957  10.233  0.7330  0.0466  0.0986
  461TMC3    C8 6871   0.934   2.523  10.196  0.2097  0.0691  0.3406
  461TMC3    O1 6872   0.705   3.075  10.273 -0.4405 -0.2658  0.2654
  461TMC3    O2 6873   1.030   2.456  10.229  0.0626  0.6625 -0.0504
  462TMC3    C1 6874   1.272   4.456   0.048  0.1201  0.3564 -0.1558
  462TMC3    C2 6875   1.275   4.360  17.650 -0.3078 -0.3488  0.0421
  462TMC3    C3 6876   1.276   4.234  17.696  1.0404 -0.7579 -0.8550
  462TMC3    C4 6877   1.246   4.434   0.179  0.3166 -0.1942 -0.0492
  462TMC3    C5 6878   1.250   4.300   0.215  0.4331 -0.7004 -0.3402
  462TMC3    C6 6879   1.284   4.199   0.131 -0.0199  0.0364 -0.2217
  462TMC3     C 6880   1.282   4.588   0.002 -0.1828  0.6478  0.5803
  462TMC3     O 6881   1.344   4.595  17.593  0.6474 -0.0637 -0.3122
  462TMC3     H 6882   1.280   4.388  17.545 -1.8628  0.4330  0.1651
  462TMC3    H1 6883   1.232   4.507   0.257  1.9966 -1.0610  1.0537
  462TMC3    H2 6884   1.263   4.098   0.164  1.8260 -0.2740 -0.0370
  462TMC3    C7 6885   1.201   4.260   0.342 -0.4557 -0.3389  0.2310
  462TMC3    C8 6886   1.225   4.134  17.610 -0.5092 -0.0654  0.5494
  462TMC3    O1 6887   1.234   4.150   0.385  0.0118 -0.1704  0.2284
  462TMC3    O2 6888   1.134   4.170  17.537  0.0083 -0.2690 -0.7546
  463MPD2     C 6889   1.997   3.435   1.327  0.5304  0.2311 -0.5023
  463MPD2    C1 6890   1.951   3.455   1.452  0.3727 -0.2064  0.0288
  463MPD2    C2 6891   2.029   3.528   1.535  0.5308 -0.1713 -0.1757
  463MPD2    C3 6892   2.156   3.578   1.488  0.2744  0.0544  0.8147
  463MPD2    C4 6893   2.190   3.558   1.358 -0.9590  0.2168 -0.2965
  463MPD2    C5 6894   2.113   3.479   1.280 -1.0532  0.0840  1.1161
  463MPD2     H 6895   1.994   3.571   1.628  0.6607  0.5046 -0.4378
  463MPD2    H1 6896   2.284   3.600   1.324 -0.1553 -1.0692  0.3006
  463MPD2    H2 6897   1.949   3.371   1.255  0.7704  0.3533 -0.7742
  463MPD2    H3 6898   2.122   3.461   1.173  0.0288 -1.4485  1.4681
  463MPD2     N 6899   2.240   3.663   1.567 -0.8180  0.8569  0.4599
  463MPD2    H5 6900   2.317   3.708   1.519  0.8280 -1.0034  1.3503
  463MPD2    N1 6901   1.826   3.417   1.505 -0.2746  0.8345 -0.9639
  463MPD2    H7 6902   1.804   3.443   1.600  0.3034  1.2058 -0.9294
  464TMC3    C1 6903   1.626   3.288   1.514  0.3858  0.6842 -0.4948
  464TMC3    C2 6904   1.511   3.246   1.447 -0.2713 -0.2249  0.5825
  464TMC3    C3 6905   1.416   3.173   1.514 -0.2010  1.3222  0.5021
  464TMC3    C4 6906   1.632   3.265   1.651 -0.3299 -0.3387 -0.5908
  464TMC3    C5 6907   1.535   3.188   1.708 -0.2331 -0.7204  0.1436
  464TMC3    C6 6908   1.423   3.141   1.647  0.1511  0.4184  0.7453
  464TMC3     C 6909   1.728   3.351   1.438  0.0754 -0.4501 -0.0993
  464TMC3     O 6910   1.730   3.316   1.318 -0.2881  0.0643  0.3897
  464TMC3     H 6911   1.494   3.278   1.344 -0.9944 -1.2871  0.3699
  464TMC3    H1 6912   1.712   3.296   1.718 -1.0072  0.3892 -0.1243
  464TMC3    H2 6913   1.344   3.092   1.703  1.3195 -0.8585  1.2800
  464TMC3    C7 6914   1.585   3.111   1.817  0.2530 -0.1534  0.3284
  464TMC3    C8 6915   1.319   3.114   1.430  0.6918 -0.2495  0.5152
  464TMC3    O1 6916   1.669   3.157   1.894 -0.0740  0.6316 -0.1211
  464TMC3    O2 6917   1.332   3.137   1.311  0.4100 -0.6251 -0.9236
  465MPD2     C 6918   3.478   1.165  16.148 -0.4496  0.5583  0.7341
  465MPD2    C1 6919   3.443   1.193  16.274 -0.6209  0.4059 -0.5664
  465MPD2    C2 6920   3.365   1.309  16.299 -0.0025  0.4213  0.0373
  465MPD2    C3 6921   3.319   1.390  16.198 -0.1597 -0.0002  0.0789
  465MPD2    C4 6922   3.353   1.352  16.071 -0.8681  0.6035  0.0629
  465MPD2    C5 6923   3.442   1.245  16.049  0.5615 -0.3575 -0.1143
  465MPD2     H 6924   3.346   1.335  16.403 -1.2377 -0.7529  0.0929
  465MPD2    H1 6925   3.323   1.414  15.988 -1.4110 -1.3841 -1.2346
  465MPD2    H2 6926   3.539   1.078  16.128 -1.1366  0.0480  0.8667
  465MPD2    H3 6927   3.479   1.216  15.951 -2.0303  0.2871 -1.2982
  465MPD2     N 6928   3.239   1.500  16.227 -0.1405  0.3493 -0.3383
  465MPD2    H5 6929   3.215   1.518  16.324 -1.0742 -0.8087 -0.3467
  465MPD2    N1 6930   3.489   1.128  16.388 -0.5986  1.0002  0.2775
  465MPD2    H7 6931   3.444   1.158  16.475 -2.2888 -0.7636  0.0191
  466TMC3    C1 6932   2.915   1.711  16.349 -0.5968  0.1970  0.0268
  466TMC3    C2 6933   2.930   1.847  16.333  0.9990 -0.3807  0.4591
  466TMC3    C3 6934   3.023   1.895  16.241  0.0229 -0.2793  0.0587
  466TMC3    C4 6935   3.000   1.623  16.295 -0.0547 -0.6824  0.2432
  466TMC3    C5 6936   3.085   1.673  16.205  0.3256  0.4789  0.1619
  466TMC3    C6 6937   3.097   1.805  16.175 -0.5866 -0.2865  0.1356
  466TMC3     C 6938   2.838   1.672  16.468  0.1515 -0.2555  0.3621
  466TMC3     O 6939   2.807   1.758  16.551  0.2873 -0.0533  0.0476
  466TMC3     H 6940   2.859   1.910  16.385 -0.3290 -1.0965 -0.4970
  466TMC3    H1 6941   2.993   1.519  16.322 -2.5862 -0.1922  1.4996
  466TMC3    H2 6942   3.168   1.839  16.101 -0.0395  0.2348  0.9044
  466TMC3    C7 6943   3.186   1.597  16.139  0.4919  0.6308 -0.3628
  466TMC3    C8 6944   3.067   2.037  16.232 -0.1612 -0.5373 -0.3557
  466TMC3    O1 6945   3.202   1.621  16.017 -0.4772 -0.3719 -0.4056
  466TMC3    O2 6946   3.147   2.070  16.151  0.1468 -0.2447 -0.1849
  467TMC3    C1 6947   4.079   1.037  13.840 -0.2473  1.2203  1.1175
  467TMC3    C2 6948   4.085   1.117  13.728  0.3260  0.2262  0.0653
  467TMC3    C3 6949   4.071   1.058  13.605 -0.0833  0.5548  0.6458
  467TMC3    C4 6950   4.022   0.911  13.832 -0.7811  0.1811 -0.0408
  467TMC3    C5 6951   4.006   0.858  13.706 -0.2169 -0.2997 -0.7112
  467TMC3    C6 6952   4.026   0.928  13.588 -0.2204  0.3424  0.4614
  467TMC3     C 6953   4.215   1.028  13.896 -0.1382  0.5476 -0.6351
  467TMC3     O 6954   4.236   0.997  14.012  0.3165 -0.4651 -0.0579
  467TMC3     H 6955   4.113   1.220  13.746 -0.7880  0.3795  0.9515
  467TMC3    H1 6956   4.004   0.852  13.920 -1.6978  1.5014  0.6520
  467TMC3    H2 6957   4.015   0.887  13.488 -1.0422  4.0097 -0.9455
  467TMC3    C7 6958   3.934   0.730  13.694  0.2439 -0.2402 -0.2070
  467TMC3    C8 6959   4.154   1.115  13.505 -0.4281  0.4585  0.4532
  467TMC3    O1 6960   3.970   0.659  13.603  0.0132 -0.3425 -0.8274
  467TMC3    O2 6961   4.166   1.237  13.518 -0.3110 -0.1217  0.6193
  468MPD2     C 6962   3.392   2.251  10.723 -0.0037  0.8351  0.1432
  468MPD2    C1 6963   3.310   2.287  10.832 -0.2773 -0.4161  0.2903
  468MPD2    C2 6964   3.264   2.181  10.913 -0.2602 -0.6537 -0.8544
  468MPD2    C3 6965   3.285   2.048  10.870  0.7233 -0.4225  0.6620
  468MPD2    C4 6966   3.356   2.015  10.752 -0.7244  0.0411 -0.2546
  468MPD2    C5 6967   3.405   2.122  10.682  0.9752 -0.9619  0.1059
  468MPD2     H 6968   3.223   2.202  11.012 -1.9260 -1.1822 -1.4302
  468MPD2    H1 6969   3.372   1.917  10.707 -1.3718 -0.7390  1.1948
  468MPD2    H2 6970   3.455   2.315  10.661 -0.8940  1.0536 -0.5375
  468MPD2    H3 6971   3.445   2.094  10.585 -1.1673  0.4481 -1.1966
  468MPD2     N 6972   3.232   1.947  10.946 -0.6021 -0.5377  0.6453
  468MPD2    H5 6973   3.243   1.852  10.913  0.1082 -0.2174 -0.0619
  468MPD2    N1 6974   3.313   2.420  10.881 -0.7497 -0.1627 -0.2467
  468MPD2    H7 6975   3.253   2.445  10.958 -2.3942 -2.8604 -0.6197
  469TMC3    C1 6976   3.373   2.644  10.911  0.2974  0.2186 -0.8189
  469TMC3    C2 6977   3.484   2.724  10.959 -0.3909 -0.0967 -0.1551
  469TMC3    C3 6978   3.454   2.846  11.007 -0.4950  0.2692 -0.1569
  469TMC3    C4 6979   3.244   2.674  10.943 -0.9412  0.1302 -0.6006
  469TMC3    C5 6980   3.219   2.798  10.999 -0.1344  0.2277  0.4490
  469TMC3    C6 6981   3.325   2.891  11.023  0.1439  0.1195 -0.0546
  469TMC3     C 6982   3.395   2.518  10.835 -0.9746 -0.6770  0.2463
  469TMC3     O 6983   3.494   2.517  10.760 -0.1194 -0.0296  0.1455
  469TMC3     H 6984   3.582   2.679  10.944 -0.4984 -0.1424 -0.7483
  469TMC3    H1 6985   3.161   2.615  10.905 -0.2768  0.5131 -2.6378
  469TMC3    H2 6986   3.303   2.995  11.046  2.6918  1.2072 -2.6511
  469TMC3    C7 6987   3.081   2.827  11.037  0.5229 -0.0497  0.8004
  469TMC3    C8 6988   3.565   2.936  11.041 -0.1130 -0.4432  0.3124
  469TMC3    O1 6989   2.995   2.764  10.980 -0.8951  0.1896 -0.7876
  469TMC3    O2 6990   3.665   2.922  10.969 -0.4126 -0.0245  0.3669
  470TMC3    C1 6991   0.262   4.523   1.444 -0.2938 -0.5584 -0.2675
  470TMC3    C2 6992   0.339   4.625   1.510 -0.2766  0.6395  0.4981
  470TMC3    C3 6993   0.282   4.688   1.618 -0.4003 -0.0232  0.0718
  470TMC3    C4 6994   0.134   4.492   1.497 -0.0691  0.1487 -0.2997
  470TMC3    C5 6995   0.082   4.548   1.610  0.8587  0.6455 -0.9132
  470TMC3    C6 6996   0.160   4.647   1.672  0.2007  0.1733 -0.1393
  470TMC3     C 6997   0.312   4.492   1.308 -0.6039 -0.4930 -0.1269
  470TMC3     O 6998   0.420   4.544   1.278  0.0650  0.2586 -0.0294
  470TMC3     H 6999   0.440   4.639   1.475 -0.5771 -1.9402 -1.4433
  470TMC3    H1 7000   0.068   4.416   1.457 -1.8233  0.0768  2.7211
  470TMC3    H2 7001   0.121   4.689   1.764 -2.5122 -0.3935 -1.0147
  470TMC3    C7 7002   4.666   4.550   1.623  0.9886 -0.6521 -0.0929
  470TMC3    C8 7003   0.335   0.090   1.658 -0.0051 -0.8174  0.5785
  470TMC3    O1 7004   4.600   4.512   1.525 -0.9423  0.0493 -0.1000
  470TMC3    O2 7005   0.261   0.172   1.709 -0.4077 -0.0476  0.7581
  471MPD2     C 7006   1.153   0.490  16.831 -0.3171  0.3418 -0.1108
  471MPD2    C1 7007   1.218   0.367  16.812  0.3566 -0.1750 -0.1390
  471MPD2    C2 7008   1.204   0.278  16.907  0.4486 -0.2148 -0.5110
  471MPD2    C3 7009   1.125   0.291  17.020  0.8199 -0.0186  0.6729
  471MPD2    C4 7010   1.056   0.412  17.033 -0.1227 -0.1028 -0.5406
  471MPD2    C5 7011   1.083   0.509  16.943  0.2443  0.2235  0.2119
  471MPD2     H 7012   1.244   0.180  16.884  2.1505 -0.0641  1.7929
  471MPD2    H1 7013   0.984   0.443  17.108  2.1818  0.0461  1.5943
  471MPD2    H2 7014   1.161   0.570  16.760 -1.0481 -0.3407 -0.9664
  471MPD2    H3 7015   1.021   0.597  16.955  0.3401  0.5543 -1.6746
  471MPD2     N 7016   1.116   0.178  17.110 -0.0780 -0.1911  0.6198
  471MPD2    H5 7017   1.176   0.103  17.078 -2.1591 -1.8218  0.5422
  471MPD2    N1 7018   1.267   0.320  16.691  0.1856 -0.4124  0.2725
  471MPD2    H7 7019   1.305   0.226  16.681 -0.6752 -0.3546 -3.7263
  472TMC3    C1 7020   1.282   0.291  16.460 -0.1911 -0.5102  0.3015
  472TMC3    C2 7021   1.198   0.313  16.356  0.1926 -0.5322 -0.4775
  472TMC3    C3 7022   1.181   0.212  16.267  0.1446 -0.5515 -0.1651
  472TMC3    C4 7023   1.314   0.161  16.495 -0.1311  0.4486 -0.0544
  472TMC3    C5 7024   1.280   0.056  16.409  0.2796 -0.1311 -0.0534
  472TMC3    C6 7025   1.214   0.079  16.290  0.0786  0.1598 -0.6287
  472TMC3     C 7026   1.262   0.389  16.570 -0.2128 -0.2550  0.1891
  472TMC3     O 7027   1.222   0.505  16.548  0.3229  0.1925  0.5356
  472TMC3     H 7028   1.145   0.407  16.346  1.5293  0.1818 -0.8001
  472TMC3    H1 7029   1.370   0.135  16.585 -1.2500 -2.4645 -0.2327
  472TMC3    H2 7030   1.187   4.722  16.223  2.2586 -1.1749  0.1308
  472TMC3    C7 7031   1.216   4.659  16.472 -0.3738 -0.0578  0.4660
  472TMC3    C8 7032   1.052   0.197  16.207 -0.1530  0.4008  0.7112
  472TMC3    O1 7033   1.203   4.653  16.594 -0.6425  0.4434  0.2959
  472TMC3    O2 7034   1.039   0.208  16.087  0.6685 -0.2686  0.4053
  473MPD2     C 7035   0.687   2.971  14.242 -0.4088 -0.6318 -0.6050
  473MPD2    C1 7036   0.663   2.986  14.106  0.0810 -0.2903 -0.0416
  473MPD2    C2 7037   0.701   3.098  14.040  0.7969  0.4602 -0.4234
  473MPD2    C3 7038   0.773   3.193  14.109  0.3427  0.3808 -0.4321
  473MPD2    C4 7039   0.797   3.172  14.246 -0.3744 -0.0608  0.8003
  473MPD2    C5 7040   0.741   3.069  14.317 -0.6986 -0.2576  0.2836
  473MPD2     H 7041   0.667   3.115  13.938 -1.8935  1.2302  0.5956
  473MPD2    H1 7042   0.861   3.239  14.302 -0.3010 -0.6123  1.3764
  473MPD2    H2 7043   0.644   2.887  14.296 -0.1818  0.1195  0.7467
  473MPD2    H3 7044   0.769   3.061  14.421  0.4893 -0.6763 -0.0661
  473MPD2     N 7045   0.830   3.308  14.053 -0.2855  0.4143 -0.7132
  473MPD2    H5 7046   0.881   3.374  14.111 -1.4373  0.8055 -0.1488
  473MPD2    N1 7047   0.596   2.889  14.033  0.5224 -0.1594 -0.0546
  473MPD2    H7 7048   0.591   2.894  13.932  0.1816 -3.4420 -0.2165
  474TMC3    C1 7049   0.899   3.452  13.883 -0.0836  0.2046  0.2921
  474TMC3    C2 7050   0.860   3.535  13.779  0.6538  0.7235  0.3574
  474TMC3    C3 7051   0.943   3.641  13.756  0.5102  0.3195 -0.2708
  474TMC3    C4 7052   1.010   3.475  13.960 -0.9419  0.1408 -0.3452
  474TMC3    C5 7053   1.088   3.581  13.934 -0.0035 -0.0163  0.4164
  474TMC3    C6 7054   1.052   3.674  13.839  0.2980  0.0338 -0.3489
  474TMC3     C 7055   0.813   3.343  13.919 -0.4938  0.1625 -0.5182
  474TMC3     O 7056   0.724   3.310  13.841  0.5534  0.2878 -0.4002
  474TMC3     H 7057   0.782   3.499  13.713  1.3411 -0.7602  0.3555
  474TMC3    H1 7058   1.040   3.405  14.037  0.8210 -0.2790 -1.4119
  474TMC3    H2 7059   1.124   3.750  13.812  0.9423  0.4987  2.6817
  474TMC3    C7 7060   1.214   3.611  14.004  0.1036 -0.8022  0.8622
  474TMC3    C8 7061   0.873   3.753  13.693  0.3588 -0.0428  0.0134
  474TMC3    O1 7062   1.293   3.686  13.952 -0.0156 -0.3032  0.1292
  474TMC3    O2 7063   0.767   3.726  13.636 -0.3439 -0.0488  0.0459
  475MPD2     C 7064   3.950   0.740  10.748  0.5956 -0.6535  0.0644
  475MPD2    C1 7065   3.913   0.695  10.624 -0.2370 -0.4477 -0.3617
  475MPD2    C2 7066   3.786   0.712  10.571 -0.1036 -0.0271 -0.0994
  475MPD2    C3 7067   3.690   0.784  10.651 -0.2236  0.0712 -0.3217
  475MPD2    C4 7068   3.721   0.817  10.782 -0.8783  0.4069 -0.0636
  475MPD2    C5 7069   3.849   0.797  10.824 -0.2539 -0.0497 -0.1953
  475MPD2     H 7070   3.750   0.703  10.469  0.4994 -1.5081 -0.1737
  475MPD2    H1 7071   3.653   0.876  10.843 -1.5663 -1.2986  0.8270
  475MPD2    H2 7072   4.049   0.714  10.783  0.4836 -0.4342  0.5431
  475MPD2    H3 7073   3.870   0.828  10.926 -2.4722 -0.4662  0.3698
  475MPD2     N 7074   3.571   0.826  10.584  0.0013  0.7874 -0.2184
  475MPD2    H5 7075   3.564   0.802  10.485  1.5064 -2.1963  0.4104
  475MPD2    N1 7076   4.018   0.642  10.551  0.8158 -0.5708 -0.3738
  475MPD2    H7 7077   4.107   0.644  10.598  0.9675 -2.2575 -0.5810
  476TMC3    C1 7078   4.152   0.589  10.363  0.0719 -0.1309 -0.5960
  476TMC3    C2 7079   4.161   0.522  10.246  0.0232 -0.3874 -0.7612
  476TMC3    C3 7080   4.285   0.506  10.192  0.3440  0.2106  0.0378
  476TMC3    C4 7081   4.258   0.650  10.425 -0.1507 -0.5057  0.8097
  476TMC3    C5 7082   4.375   0.638  10.366  0.0328 -0.8643  0.4764
  476TMC3    C6 7083   4.392   0.559  10.256 -0.2946  0.0233  0.6479
  476TMC3     C 7084   4.022   0.610  10.417 -0.4190  0.1938  0.6773
  476TMC3     O 7085   3.929   0.599  10.338 -0.6428  0.6370 -0.1513
  476TMC3     H 7086   4.070   0.484  10.200 -0.3142 -0.0142 -0.3992
  476TMC3    H1 7087   4.248   0.720  10.507 -2.9214  0.7001 -0.5569
  476TMC3    H2 7088   4.490   0.521  10.230 -0.2156  0.6701  0.0188
  476TMC3    C7 7089   4.496   0.687  10.415 -0.3846  0.3237 -0.2566
  476TMC3    C8 7090   4.305   0.483  10.048  0.2799  0.7383 -0.4150
  476TMC3    O1 7091   4.581   0.686  10.329 -0.3947 -0.2717  0.7473
  476TMC3    O2 7092   4.417   0.499   9.995 -0.0182  0.3203 -0.2544
  477MPD2     C 7093   1.561   2.162  11.916  0.1717 -0.0295 -0.5604
  477MPD2    C1 7094   1.462   2.135  12.015  0.5721  0.2742 -0.4841
  477MPD2    C2 7095   1.491   2.045  12.116  0.1321 -0.1748  0.2514
  477MPD2    C3 7096   1.614   1.987  12.117  0.8177  1.0156 -0.0098
  477MPD2    C4 7097   1.711   2.014  12.021 -0.7651 -1.0283  0.3344
  477MPD2    C5 7098   1.683   2.097  11.923  0.0078 -0.4466 -0.2832
  477MPD2     H 7099   1.418   2.025  12.193  0.2943  1.0754  0.7437
  477MPD2    H1 7100   1.811   1.971  12.024  0.2056  1.3554  2.4972
  477MPD2    H2 7101   1.539   2.234  11.838 -0.4805  0.8117  0.4131
  477MPD2    H3 7102   1.759   2.124  11.851 -0.7777  0.3495 -0.8227
  477MPD2     N 7103   1.632   1.889  12.219 -0.1694  0.1107 -0.1383
  477MPD2    H5 7104   1.545   1.866  12.265 -0.2996 -2.0478 -1.4755
  477MPD2    N1 7105   1.348   2.218  12.013 -0.0905 -0.0768 -0.1525
  477MPD2    H7 7106   1.342   2.294  11.945  2.8193 -0.2969 -0.6189
  478TMC3    C1 7107   1.128   2.294  12.059  0.2201 -0.2750  0.2485
  478TMC3    C2 7108   1.056   2.346  12.165  0.8543  0.3074 -0.4635
  478TMC3    C3 7109   0.956   2.430  12.121 -0.4789 -0.1185 -0.4670
  478TMC3    C4 7110   1.103   2.314  11.925 -0.1856 -0.7379  0.1500
  478TMC3    C5 7111   0.989   2.381  11.884 -0.3599 -0.9747 -0.2104
  478TMC3    C6 7112   0.925   2.447  11.988  0.3212  0.2644 -0.3062
  478TMC3     C 7113   1.242   2.215  12.102  0.0644  0.7878 -0.4221
  478TMC3     O 7114   1.244   2.172  12.218 -0.1672  0.0052  0.2034
  478TMC3     H 7115   1.082   2.335  12.270 -0.9922 -0.9062 -0.1300
  478TMC3    H1 7116   1.156   2.251  11.855 -1.6064  0.4391 -1.9512
  478TMC3    H2 7117   0.856   2.524  11.957  0.7304  0.5018 -0.6274
  478TMC3    C7 7118   1.026   2.463  11.769 -0.0550  0.5004 -0.3502
  478TMC3    C8 7119   0.889   2.509  12.219 -0.7540  0.1662  0.1486
  478TMC3    O1 7120   1.144   2.484  11.763  0.4961 -0.1737  0.3036
  478TMC3    O2 7121   0.873   2.463  12.331  0.5529 -0.2573 -0.2295
  479MPD2     C 7122   0.567   4.656  14.834  0.6745 -0.3762  0.0538
  479MPD2    C1 7123   0.542   4.589  14.950 -0.1576  0.6484 -0.2340
  479MPD2    C2 7124   0.590   4.632  15.076 -0.5557  0.7700 -0.0691
  479MPD2    C3 7125   0.666   0.026  15.075  0.2895 -0.2390 -0.3461
  479MPD2    C4 7126   0.700   0.085  14.954  0.2941 -0.1127  0.3665
  479MPD2    C5 7127   0.658   0.038  14.833 -0.0284 -0.1335  0.2239
  479MPD2     H 7128   0.580   4.576  15.167 -1.3797 -2.1680 -1.9873
  479MPD2    H1 7129   0.772   0.166  14.957  1.0575 -0.8404  1.8947
  479MPD2    H2 7130   0.515   4.627  14.744 -2.4471  3.6129  0.5661
  479MPD2    H3 7131   0.683   0.100  14.747 -1.9934 -2.0497 -1.7072
  479MPD2     N 7132   0.722   0.087  15.194 -0.5681  0.0713 -0.0713
  479MPD2    H5 7133   0.759   0.176  15.162 -1.0447  0.4425  0.4200
  479MPD2    N1 7134   0.432   4.498  14.943 -0.3823  0.0636 -0.5395
  479MPD2    H7 7135   0.390   4.484  14.851 -2.1094 -1.8946  0.5659
  480TMC3    C1 7136   0.493   4.528  15.470  0.9201 -0.6627 -0.6609
  480TMC3    C2 7137   0.367   4.563  15.428  0.1573  0.0464  0.1203
  480TMC3    C3 7138   0.356   4.671  15.343  0.5221 -0.5497  0.7962
  480TMC3    C4 7139   0.607   4.603  15.449 -0.1565  0.0672 -0.0216
  480TMC3    C5 7140   0.584   4.711  15.362 -0.0916  0.4311  0.1771
  480TMC3    C6 7141   0.466   0.017  15.302 -0.3791 -0.6179 -0.0577
  480TMC3     C 7142   0.498   4.425  15.568 -0.3329  0.1338  0.8829
  480TMC3     O 7143   0.406   4.343  15.571 -0.1501  0.1774  0.5913
  480TMC3     H 7144   0.284   4.502  15.463  0.5524 -1.4826 -1.5763
  480TMC3    H1 7145   0.707   4.567  15.471  0.0469  1.4262  1.3309
  480TMC3    H2 7146   0.458   0.106  15.241  0.3785  0.3514  1.2751
  480TMC3    C7 7147   0.708   0.057  15.327 -0.3407 -0.3932 -0.3165
  480TMC3    C8 7148   0.245   4.680  15.256 -0.3235  0.0117 -0.0387
  480TMC3    O1 7149   0.773   0.115  15.413 -0.3713 -0.1786 -0.3168
  480TMC3    O2 7150   0.145   4.621  15.292  0.8651  0.3015  0.1162
  481MPD2     C 7151   2.453   4.250  14.023  0.0346 -0.3841 -0.0558
  481MPD2    C1 7152   2.332   4.302  14.054 -0.1812 -0.5703 -0.3309
  481MPD2    C2 7153   2.293   4.302  14.189  0.1998  0.1841 -0.0957
  481MPD2    C3 7154   2.362   4.237  14.288 -0.8032  0.1603  0.3052
  481MPD2    C4 7155   2.477   4.176  14.252  0.1588 -0.2112 -0.0301
  481MPD2    C5 7156   2.529   4.196  14.125 -0.5514  0.1838 -0.0946
  481MPD2     H 7157   2.204   4.358  14.216  0.6875  0.6444  0.5704
  481MPD2    H1 7158   2.533   4.114  14.321  1.4086  1.1069  0.1347
  481MPD2    H2 7159   2.503   4.258  13.927 -0.7477 -2.0634 -0.6069
  481MPD2    H3 7160   2.624   4.150  14.102 -0.9007 -0.8542  0.5387
  481MPD2     N 7161   2.320   4.228  14.422  0.4990 -0.4058  0.0962
  481MPD2    H5 7162   2.391   4.191  14.484  2.3315 -0.2762 -1.9255
  481MPD2    N1 7163   2.257   4.361  13.946 -0.4877  0.2654 -0.0751
  481MPD2    H7 7164   2.293   4.347  13.852  0.5323 -1.7340  0.6071
  482TMC3    C1 7165   2.088   4.463  13.827 -0.7874 -0.2885  0.1292
  482TMC3    C2 7166   2.040   4.357  13.753 -0.0042 -0.4349 -0.5955
  482TMC3    C3 7167   1.912   4.372  13.696 -0.7531 -0.2505 -0.6740
  482TMC3    C4 7168   2.024   4.579  13.826  0.6374 -0.3105  0.7922
  482TMC3    C5 7169   1.915   4.599  13.748 -0.9930 -0.6244  0.8143
  482TMC3    C6 7170   1.854   4.496  13.676  0.4856  0.8995 -0.2292
  482TMC3     C 7171   2.135   4.429  13.961  0.0327 -0.1273  0.0436
  482TMC3     O 7172   2.063   4.464  14.052 -0.2882  0.2017 -0.5842
  482TMC3     H 7173   2.075   4.255  13.762  0.6155 -0.2347 -0.7427
  482TMC3    H1 7174   2.049   4.659  13.895  0.2853 -1.3919  2.1676
  482TMC3    H2 7175   1.752   4.506  13.640 -0.5413  0.7787  2.6416
  482TMC3    C7 7176   1.853   0.012  13.758  0.1932  0.4405  0.2890
  482TMC3    C8 7177   1.838   4.255  13.651 -0.2787  0.4288 -0.4549
  482TMC3    O1 7178   1.900   0.094  13.833  0.5332  1.0721 -0.5254
  482TMC3    O2 7179   1.870   4.150  13.702  0.4980  0.1753  0.1350
  483TMC3    C1 7180   0.118   3.190   1.164  0.5672  0.2217 -1.5565
  483TMC3    C2 7181   0.147   3.311   1.219  0.4023  0.3226 -0.4015
  483TMC3    C3 7182   0.228   3.322   1.328 -0.4452  0.5446 -0.3158
  483TMC3    C4 7183   0.172   3.077   1.216 -0.3157  0.2773 -0.4364
  483TMC3    C5 7184   0.258   3.092   1.324  0.0166 -0.0108  0.6119
  483TMC3    C6 7185   0.293   3.213   1.382  0.0439  0.0105 -0.4244
  483TMC3     C 7186   0.070   3.190   1.024 -0.4372  0.7741  0.3093
  483TMC3     O 7187   0.010   3.291   0.989  0.0819 -0.0478 -0.4621
  483TMC3     H 7188   0.113   3.405   1.175  1.7397  1.9278  2.0066
  483TMC3    H1 7189   0.159   2.978   1.174  0.8763 -0.3434  0.6406
  483TMC3    H2 7190   0.362   3.218   1.465 -1.0273  3.1940  0.2704
  483TMC3    C7 7191   0.343   2.974   1.362 -0.4874  0.3689  0.0723
  483TMC3    C8 7192   0.314   3.435   1.326  0.1424 -0.4060 -0.7377
  483TMC3    O1 7193   0.409   2.989   1.464  0.3895  0.6618 -0.2525
  483TMC3    O2 7194   0.427   3.395   1.338 -0.2590 -0.4714 -0.3986
  484MPD2     C 7195   2.175   1.260  12.539  0.7960 -0.2316 -0.2780
  484MPD2    C1 7196   2.260   1.166  12.588  0.5558 -0.2784 -0.0703
  484MPD2    C2 7197   2.396   1.186  12.571  0.0836  0.4389  0.2630
  484MPD2    C3 7198   2.435   1.291  12.490 -0.0612  0.4753 -0.1521
  484MPD2    C4 7199   2.346   1.371  12.426  0.5604  0.9286  0.3988
  484MPD2    C5 7200   2.215   1.361  12.453  0.3790 -0.0242  0.0400
  484MPD2     H 7201   2.467   1.116  12.614  0.1778  1.0808  1.1454
  484MPD2    H1 7202   2.372   1.445  12.351  0.8634  0.7720  0.3524
  484MPD2    H2 7203   2.068   1.253  12.546  0.8457  0.6554  1.2374
  484MPD2    H3 7204   2.142   1.427  12.409 -0.2718 -2.1904 -2.1190
  484MPD2     N 7205   2.575   1.318  12.465 -0.1799  0.2188  0.4550
  484MPD2    H5 7206   2.601   1.391  12.400  1.9778 -0.6460  0.3380
  484MPD2    N1 7207   2.197   1.055  12.654  0.2458  0.2933  0.7904
  484MPD2    H7 7208   2.096   1.061  12.665 -0.0822 -1.5104 -1.2568
  485TMC3    C1 7209   2.812   1.297  12.474 -0.0553  0.1579  0.1298
  485TMC3    C2 7210   2.922   1.267  12.559 -0.0210 -0.3735  0.0376
  485TMC3    C3 7211   3.050   1.315  12.522 -0.1936 -0.0571 -0.4555
  485TMC3    C4 7212   2.825   1.368  12.354  0.2377 -0.3426  0.2350
  485TMC3    C5 7213   2.954   1.411  12.327  0.5686 -0.0357 -0.1919
  485TMC3    C6 7214   3.061   1.388  12.409 -0.4429 -0.6864 -0.1460
  485TMC3     C 7215   2.679   1.260  12.531 -0.6015 -0.2464 -0.5149
  485TMC3     O 7216   2.680   1.190  12.629 -0.1094 -0.2934  0.0105
  485TMC3     H 7217   2.910   1.207  12.649  1.0930 -1.8565 -0.7833
  485TMC3    H1 7218   2.746   1.381  12.281  1.7799 -0.4964 -1.4828
  485TMC3    H2 7219   3.154   1.432  12.375  0.5353 -2.6738 -0.0026
  485TMC3    C7 7220   2.982   1.428  12.189 -0.1400 -0.0552 -0.7365
  485TMC3    C8 7221   3.171   1.247  12.564  0.1506  0.3852 -0.3269
  485TMC3    O1 7222   2.919   1.509  12.123 -0.6551 -0.2027  0.5856
  485TMC3    O2 7223   3.267   1.274  12.493  0.2821 -0.4106  0.0693
  486MPD2     C 7224   4.685   0.313  12.736  0.2469  0.1382 -0.5620
  486MPD2    C1 7225   4.636   0.230  12.633 -0.4596  0.0517  0.0742
  486MPD2    C2 7226   4.505   0.245  12.588  0.3791  0.2427  0.3629
  486MPD2    C3 7227   4.426   0.350  12.639 -0.3022 -0.2215 -0.5678
  486MPD2    C4 7228   4.475   0.432  12.738 -0.4747  0.4989  0.0706
  486MPD2    C5 7229   4.603   0.415  12.787  0.4449  0.3023  0.3241
  486MPD2     H 7230   4.468   0.176  12.513 -1.7012 -0.4459  2.0151
  486MPD2    H1 7231   4.416   0.509  12.787  0.3028  1.8698 -1.1300
  486MPD2    H2 7232   0.059   0.301  12.780  0.4140  0.4125 -0.8600
  486MPD2    H3 7233   4.638   0.489  12.857 -0.9767  1.9172 -0.6597
  486MPD2     N 7234   4.298   0.371  12.593 -0.1736  0.1667  0.2582
  486MPD2    H5 7235   4.263   0.320  12.512 -1.4311 -1.1087  1.6078
  486MPD2    N1 7236   0.010   0.141  12.586  0.2585 -0.2620  0.4577
  486MPD2    H7 7237   0.107   0.145  12.618  0.1506 -2.7977  1.1218
  487TMC3    C1 7238   0.098   4.667  12.493  0.1881 -0.2425 -1.0072
  487TMC3    C2 7239   0.077   4.550  12.563 -0.3072  0.0030 -0.2869
  487TMC3    C3 7240   0.175   4.518  12.655 -0.6604 -0.0948 -0.9347
  487TMC3    C4 7241   0.215   0.008  12.507 -0.2783  0.3318  0.2311
  487TMC3    C5 7242   0.309   4.694  12.602  0.4317 -0.3244 -0.1911
  487TMC3    C6 7243   0.297   4.576  12.667 -0.2148 -0.5265 -0.6073
  487TMC3     C 7244   4.710   0.032  12.506  0.2619 -0.3867 -0.1521
  487TMC3     O 7245   4.600   4.707  12.468  0.0710  0.0847 -0.4972
  487TMC3     H 7246   4.711   4.490  12.552 -0.9917  1.2679 -1.5779
  487TMC3    H1 7247   0.215   0.110  12.470 -1.0364 -0.0756 -0.8735
  487TMC3    H2 7248   0.351   4.556  12.759  0.7245 -1.5834 -1.3853
  487TMC3    C7 7249   0.337   0.076  12.686 -0.1136  0.3572 -0.6622
  487TMC3    C8 7250   0.170   4.380  12.698 -0.0847  0.6153 -0.7429
  487TMC3    O1 7251   0.277   0.181  12.672 -0.4209 -0.4573  0.4758
  487TMC3    O2 7252   0.259   4.303  12.681 -0.0847  0.5228 -0.7628
  488MPD2     C 7253   0.413   1.533  16.387 -0.1290  0.8539 -1.0503
  488MPD2    C1 7254   0.417   1.644  16.466 -0.1321  0.0214  0.8245
  488MPD2    C2 7255   0.417   1.632  16.602 -0.1594 -0.2766 -0.1705
  488MPD2    C3 7256   0.374   1.519  16.662 -0.3836  0.2656  0.3375
  488MPD2    C4 7257   0.348   1.407  16.584 -0.1138  0.6937 -0.3452
  488MPD2    C5 7258   0.382   1.418  16.451 -0.2657  0.4768 -0.8040
  488MPD2     H 7259   0.445   1.722  16.655  0.0423 -0.5667  0.2070
  488MPD2    H1 7260   0.340   1.305  16.619  0.7154  1.3780  1.8584
  488MPD2    H2 7261   0.418   1.527  16.279 -1.7187 -1.0920 -1.0115
  488MPD2    H3 7262   0.395   1.324  16.398 -2.2779 -0.2214 -0.0836
  488MPD2     N 7263   0.377   1.516  16.805  0.0164 -0.1184  0.9548
  488MPD2    H5 7264   0.419   1.592  16.857  0.0599 -0.7301  1.8136
  488MPD2    N1 7265   0.431   1.776  16.413  0.0976  0.3628  0.0420
  488MPD2    H7 7266   0.433   1.851  16.481  0.7412  1.3581 -1.0859
  489TMC3    C1 7267   0.301   1.457  17.029  0.3233 -0.1109  0.2208
  489TMC3    C2 7268   0.340   1.578  17.071 -0.2709 -0.7121 -0.5944
  489TMC3    C3 7269   0.293   1.618  17.193  0.6821 -1.0095  0.4467
  489TMC3    C4 7270   0.228   1.372  17.107  0.7751 -0.0091  0.7672
  489TMC3    C5 7271   0.182   1.418  17.230 -0.6692  0.2908 -0.2484
  489TMC3    C6 7272   0.213   1.542  17.277 -0.1832 -0.3559 -0.3637
  489TMC3     C 7273   0.317   1.423  16.884 -0.5861 -0.4629 -0.3345
  489TMC3     O 7274   0.271   1.317  16.842  0.4134  0.3505 -0.7700
  489TMC3     H 7275   0.404   1.648  17.019 -0.9137 -0.4989 -1.0834
  489TMC3    H1 7276   0.200   1.276  17.065  1.4633 -0.8323  2.1740
  489TMC3    H2 7277   0.195   1.564  17.381 -3.9955 -3.5358 -0.3619
  489TMC3    C7 7278   0.078   1.346  17.295 -0.3797  0.3474 -0.8314
  489TMC3    C8 7279   0.317   1.755  17.229 -0.2533  0.1744 -0.1015
  489TMC3    O1 7280   0.052   1.393  17.406 -0.0591  0.3034 -0.0689
  489TMC3    O2 7281   0.397   1.815  17.154 -0.7273  0.2762  0.0501
  490MPD2     C 7282   1.297   1.218  17.212 -0.4787  1.2017  0.1278
  490MPD2    C1 7283   1.251   1.306  17.303 -1.0612  0.0783  0.0301
  490MPD2    C2 7284   1.336   1.398  17.363 -0.9088 -0.1648 -1.4077
  490MPD2    C3 7285   1.467   1.398  17.322 -0.2161 -0.1301  0.7283
  490MPD2    C4 7286   1.516   1.308  17.237 -0.8203  0.3247 -0.6292
  490MPD2    C5 7287   1.430   1.215  17.186 -0.5418  0.2606 -0.4161
  490MPD2     H 7288   1.293   1.466  17.436  1.5046 -1.5738  1.3458
  490MPD2    H1 7289   1.622   1.314  17.214 -1.2245 -0.0860 -2.5971
  490MPD2    H2 7290   1.231   1.154  17.153  1.7285  0.2037 -1.2676
  490MPD2    H3 7291   1.462   1.145  17.111  1.7584  2.8432 -1.8814
  490MPD2     N 7292   1.558   1.496  17.365 -0.1907  0.5429  1.3195
  490MPD2    H5 7293   1.641   1.499  17.307 -0.8400  1.4086  0.4198
  490MPD2    N1 7294   1.118   1.305  17.338 -0.3833  0.8034  0.5718
  490MPD2    H7 7295   1.086   1.384  17.394  1.0722  1.9013 -0.1646
  491TMC3    C1 7296   0.893   1.234  17.367  0.0762  0.4693  0.1974
  491TMC3    C2 7297   0.874   1.350  17.432  0.3447 -0.6127  0.2428
  491TMC3    C3 7298   0.776   1.354  17.526 -0.6883 -0.5452  0.5923
  491TMC3    C4 7299   0.797   1.135  17.366 -0.3798  0.0750 -0.0575
  491TMC3    C5 7300   0.689   1.150  17.452  0.1951 -0.1676  0.5920
  491TMC3    C6 7301   0.684   1.259  17.542 -0.1020 -0.0983  0.2097
  491TMC3     C 7302   1.021   1.214  17.300 -0.0130 -0.5328  0.1412
  491TMC3     O 7303   1.025   1.110  17.239 -0.5512 -0.3801  0.0154
  491TMC3     H 7304   0.923   1.443  17.407 -2.2988  1.1995  1.9188
  491TMC3    H1 7305   0.795   1.047  17.302  0.5750 -0.6915  0.9823
  491TMC3    H2 7306   0.596   1.276  17.603 -0.8710  1.9166 -1.4580
  491TMC3    C7 7307   0.620   1.028  17.476 -0.2812  0.3216 -0.1774
  491TMC3    C8 7308   0.746   1.480  17.598  0.2312  0.0171  0.9197
  491TMC3    O1 7309   0.631   0.943  17.393  0.1981 -0.5311 -0.3612
  491TMC3    O2 7310   0.676   1.467  17.696 -0.0979 -0.6600 -0.0059
  492MPD2     C 7311   1.195   0.843  11.961  0.7355 -0.3238 -0.1651
  492MPD2    C1 7312   1.130   0.791  11.848  0.5259 -0.1971 -0.2844
  492MPD2    C2 7313   1.012   0.723  11.876 -0.5887  0.1715  0.1763
  492MPD2    C3 7314   0.966   0.701  12.003  0.7033  0.0805  0.1777
  492MPD2    C4 7315   1.035   0.762  12.104  0.6086  0.2927  0.9009
  492MPD2    C5 7316   1.149   0.833  12.085 -0.6289  0.0406  0.0538
  492MPD2     H 7317   0.964   0.680  11.790  1.7250  1.4937 -1.7847
  492MPD2    H1 7318   1.013   0.749  12.210 -0.6267  0.4674  0.6755
  492MPD2    H2 7319   1.283   0.903  11.944  1.7635 -1.4465  1.2758
  492MPD2    H3 7320   1.218   0.885  12.151  0.2306 -2.1944  0.9219
  492MPD2     N 7321   0.841   0.636  12.032 -0.0972 -0.4405  0.0237
  492MPD2    H5 7322   0.812   0.646  12.128  2.9427 -0.1439  0.9028
  492MPD2    N1 7323   1.182   0.812  11.713  0.2933  0.9363 -0.3456
  492MPD2    H7 7324   1.252   0.885  11.713 -0.1643  1.3682 -0.6301
  493TMC3    C1 7325   1.214   0.775  11.484  0.3692 -0.1401 -0.1516
  493TMC3    C2 7326   1.328   0.849  11.489  0.1576  0.4150  0.1104
  493TMC3    C3 7327   1.388   0.885  11.372  0.7944 -0.8162 -0.8453
  493TMC3    C4 7328   1.160   0.730  11.370  1.0428 -0.2138 -1.0301
  493TMC3    C5 7329   1.208   0.783  11.251 -0.2244  0.6440  0.2805
  493TMC3    C6 7330   1.319   0.867  11.253 -0.2734  0.0666  0.3057
  493TMC3     C 7331   1.127   0.757  11.600 -1.3902 -0.1745 -0.0279
  493TMC3     O 7332   1.028   0.688  11.582  0.2131 -0.0452 -0.3679
  493TMC3     H 7333   1.369   0.889  11.581 -0.5247 -2.8252  1.8026
  493TMC3    H1 7334   1.065   0.678  11.370  0.9072  0.0306 -2.7668
  493TMC3    H2 7335   1.353   0.902  11.156 -2.1600  1.0160 -0.0165
  493TMC3    C7 7336   1.183   0.724  11.122  0.0441 -0.2121 -0.7245
  493TMC3    C8 7337   1.484   0.989  11.374  0.8982  0.3877 -0.4895
  493TMC3    O1 7338   1.189   0.792  11.020  0.2744  0.2666 -0.2416
  493TMC3    O2 7339   1.512   1.026  11.490  0.5085  0.3923 -0.3969
  494TMC3    C1 7340   1.768   2.654   0.506 -0.0991 -0.7348  0.0901
  494TMC3    C2 7341   1.745   2.730   0.615 -0.5306  0.1520  0.1751
  494TMC3    C3 7342   1.824   2.841   0.634 -0.3794  0.1505 -0.2005
  494TMC3    C4 7343   1.847   2.701   0.410 -0.1486  0.0787  0.4016
  494TMC3    C5 7344   1.923   2.815   0.434  0.8437 -0.2195  0.1102
  494TMC3    C6 7345   1.919   2.881   0.549 -0.2493 -0.1927  0.0428
  494TMC3     C 7346   1.651   2.574   0.458 -0.1230 -0.5605 -0.4291
  494TMC3     O 7347   1.673   2.488   0.373  0.2194  0.0826 -0.5460
  494TMC3     H 7348   1.691   2.687   0.698 -1.4139 -0.8182 -0.9140
  494TMC3    H1 7349   1.856   2.648   0.316  1.8440 -1.2856  1.3526
  494TMC3    H2 7350   1.988   2.958   0.582 -0.2221  0.0865 -0.6508
  494TMC3    C7 7351   1.949   2.890   0.311  0.2661  0.9464 -0.2961
  494TMC3    C8 7352   1.818   2.906   0.771 -0.5802 -0.2766  0.8773
  494TMC3    O1 7353   1.934   2.838   0.200 -0.1338 -0.3431  0.1883
  494TMC3    O2 7354   1.905   2.986   0.805  0.4977  0.2586  0.5777
  495TMC3    C1 7355   0.468   0.184  14.295  0.6797  0.7233  0.1664
  495TMC3    C2 7356   0.376   0.261  14.226  0.3744 -0.1679 -0.4874
  495TMC3    C3 7357   0.262   0.296  14.286  0.0010 -0.9123 -0.0334
  495TMC3    C4 7358   0.443   0.152  14.428  0.2314 -0.1124  0.1998
  495TMC3    C5 7359   0.322   0.185  14.484 -0.0568  0.0174 -0.1966
  495TMC3    C6 7360   0.228   0.253  14.408 -0.2355  0.1426  0.3145
  495TMC3     C 7361   0.507   0.071  14.210  0.2849 -0.3574  0.0242
  495TMC3     O 7362   0.433   0.048  14.115  0.2414 -0.0729  0.0413
  495TMC3     H 7363   0.394   0.276  14.120 -1.5968  0.7308 -0.6844
  495TMC3    H1 7364   0.519   0.108  14.491  0.3336 -1.5843 -0.9558
  495TMC3    H2 7365   0.151   0.302  14.466 -0.6377  0.9096 -0.8731
  495TMC3    C7 7366   0.317   0.168  14.626  0.7161  0.5643  1.1738
  495TMC3    C8 7367   0.166   0.381  14.213  0.1054  0.0859  0.3390
  495TMC3    O1 7368   0.418   0.184  14.693  0.4587 -0.8425 -0.0802
  495TMC3    O2 7369   0.049   0.354  14.236  0.2015 -0.3777 -0.4455
  496MPD2     C 7370   2.437   4.521  15.047  0.2641  0.3712  0.5488
  496MPD2    C1 7371   2.501   4.579  15.155 -0.2544 -0.3467  0.3418
  496MPD2    C2 7372   2.442   4.641  15.266  0.1027 -0.1410  0.3313
  496MPD2    C3 7373   2.304   4.638  15.273  0.3144 -0.4797 -0.0580
  496MPD2    C4 7374   2.238   4.573  15.170  0.6454 -0.3118  0.1292
  496MPD2    C5 7375   2.301   4.510  15.065 -0.2589  0.0139  0.3780
  496MPD2     H 7376   2.507   4.685  15.341  1.1347  0.2886 -0.8007
  496MPD2    H1 7377   2.130   4.569  15.170  0.6980 -1.7278  3.6387
  496MPD2    H2 7378   2.490   4.482  14.961 -2.2730 -3.1216  0.5575
  496MPD2    H3 7379   2.239   4.457  14.993  0.0280  0.1205  0.0506
  496MPD2     N 7380   2.222   4.708  15.368  0.8259 -0.5693  0.3180
  496MPD2    H5 7381   2.125   4.680  15.376  0.0016  1.6793 -1.8483
  496MPD2    N1 7382   2.644   4.574  15.166  0.2681 -0.3054 -0.0498
  496MPD2    H7 7383   2.685   4.595  15.256 -0.7885 -1.5457  0.7241
  497TMC3    C1 7384   2.149   0.136  15.524  0.1657 -0.2973  0.1967
  497TMC3    C2 7385   2.026   0.121  15.463 -0.0347 -0.6862  0.2285
  497TMC3    C3 7386   1.918   0.098  15.542  0.3607  0.5751 -0.2330
  497TMC3    C4 7387   2.157   0.150  15.660  0.3237  0.6852 -0.0264
  497TMC3    C5 7388   2.046   0.145  15.738  0.7887  0.2431  0.5025
  497TMC3    C6 7389   1.927   0.111  15.681 -0.3340  0.1748  0.2136
  497TMC3     C 7390   2.263   0.082  15.455  0.4748  0.1717  0.9576
  497TMC3     O 7391   2.369   0.086  15.513 -0.2513  0.1321 -0.2327
  497TMC3     H 7392   2.021   0.112  15.356 -0.3650 -0.2718  0.2077
  497TMC3    H1 7393   2.254   0.176  15.701  0.6808 -0.1930 -0.3256
  497TMC3    H2 7394   1.843   0.093  15.747 -2.1951 -3.3445 -3.1236
  497TMC3    C7 7395   2.055   0.148  15.888 -0.5342  0.3800  0.0243
  497TMC3    C8 7396   1.808   0.036  15.471  0.2848 -0.3523 -0.5330
  497TMC3    O1 7397   1.956   0.140  15.953 -0.3144 -0.5817  0.7958
  497TMC3    O2 7398   1.832   4.711  15.363 -0.3475  0.0237  0.5209
  498MPD2     C 7399   3.774   0.625   9.583 -0.4492  0.0701  0.5376
  498MPD2    C1 7400   3.786   0.633   9.721 -0.2860 -0.4229  0.7205
  498MPD2    C2 7401   3.682   0.580   9.791 -0.2248  0.4025  0.5796
  498MPD2    C3 7402   3.573   0.510   9.734  0.4707 -0.1782 -0.3040
  498MPD2    C4 7403   3.569   0.511   9.598  0.3563 -0.0249  0.0820
  498MPD2    C5 7404   3.672   0.560   9.526 -0.5187 -0.0117  0.6238
  498MPD2     H 7405   3.705   0.576   9.897 -0.8222 -0.5433  0.6734
  498MPD2    H1 7406   3.496   0.453   9.544  2.0694  0.8742 -3.1724
  498MPD2    H2 7407   3.855   0.657   9.517  0.9990 -2.2311  1.2251
  498MPD2    H3 7408   3.675   0.562   9.418 -2.9442 -1.2297  0.5370
  498MPD2     N 7409   3.472   0.455   9.816  0.8228  0.0340 -0.1420
  498MPD2    H5 7410   3.495   0.469   9.913 -2.2867 -3.4787  1.1072
  498MPD2    N1 7411   3.899   0.696   9.785  0.3909  0.4414 -0.2083
  498MPD2    H7 7412   3.897   0.689   9.886 -1.8238  0.2744 -0.2583
  499TMC3    C1 7413   4.108   0.831   9.804 -0.4490  0.3196  0.6827
  499TMC3    C2 7414   4.095   0.844   9.941  0.1169  0.4830  0.0048
  499TMC3    C3 7415   4.211   0.876  10.014  0.5485 -0.3169 -0.3032
  499TMC3    C4 7416   4.228   0.858   9.736 -0.3151  0.3489 -0.1548
  499TMC3    C5 7417   4.338   0.886   9.806  0.0950  0.0783  0.5844
  499TMC3    C6 7418   4.333   0.885   9.947  0.0881 -0.6971 -0.2773
  499TMC3     C 7419   4.000   0.766   9.721  1.0239 -0.4155 -0.1335
  499TMC3     O 7420   4.011   0.785   9.602 -0.4703  0.6210  0.2939
  499TMC3     H 7421   4.002   0.826   9.993 -0.5928  0.5769 -1.2174
  499TMC3    H1 7422   4.241   0.854   9.628  0.7316  0.0368 -0.0189
  499TMC3    H2 7423   4.407   0.934  10.009 -1.6871 -0.9624  2.0469
  499TMC3    C7 7424   4.450   0.947   9.736  0.4815  0.5695  0.1626
  499TMC3    C8 7425   4.204   0.915  10.156 -0.2459  0.5908  0.4324
  499TMC3    O1 7426   4.435   0.981   9.624  0.0195 -0.1465  0.4411
  499TMC3    O2 7427   4.313   0.926  10.211  0.2684  0.6410 -0.5666
  500MPD2     C 7428   0.535   1.698  10.367  0.1260 -0.1572 -0.2178
  500MPD2    C1 7429   0.543   1.836  10.376 -0.3750  0.3036 -0.6342
  500MPD2    C2 7430   0.441   1.912  10.323 -0.7058 -0.3011  0.7126
  500MPD2    C3 7431   0.329   1.853  10.266 -0.3237 -0.0755  0.1529
  500MPD2    C4 7432   0.321   1.719  10.252  0.1799 -0.3430 -0.0899
  500MPD2    C5 7433   0.421   1.639  10.310 -0.0085  0.0064 -0.4441
  500MPD2     H 7434   0.447   2.019  10.339  0.4566 -0.2762  0.0986
  500MPD2    H1 7435   0.237   1.673  10.202  1.6599 -1.3798 -1.6359
  500MPD2    H2 7436   0.608   1.636  10.418 -2.1590  0.1248  3.3582
  500MPD2    H3 7437   0.413   1.533  10.292 -1.9409 -0.0120  0.5572
  500MPD2     N 7438   0.218   1.928  10.229  0.4258  0.1872  0.8007
  500MPD2    H5 7439   0.134   1.875  10.209  0.9920 -1.1339  1.9848
  500MPD2    N1 7440   0.646   1.908  10.441  0.3709  0.1529  0.6812
  500MPD2    H7 7441   0.651   2.008  10.423 -1.2864 -0.0630 -1.0316
  501TMC3    C1 7442   0.843   1.963  10.559 -0.5524 -0.3852  0.5195
  501TMC3    C2 7443   0.839   2.084  10.508  0.3261 -0.0709 -0.0885
  501TMC3    C3 7444   0.926   2.177  10.564 -0.0801  0.4886 -0.0779
  501TMC3    C4 7445   0.929   1.920  10.662  0.3105  0.1013 -0.2747
  501TMC3    C5 7446   1.015   2.013  10.700  0.8590 -0.0516 -0.4704
  501TMC3    C6 7447   1.019   2.144  10.656 -0.0601 -1.0134  0.0225
  501TMC3     C 7448   0.747   1.860  10.516 -0.5411  0.3522  0.4475
  501TMC3     O 7449   0.761   1.748  10.562 -0.0441  0.6622  0.7647
  501TMC3     H 7450   0.772   2.108  10.425 -0.3856  0.6944  0.7135
  501TMC3    H1 7451   0.944   1.819  10.696 -0.6275 -0.1748 -0.6671
  501TMC3    H2 7452   1.099   2.212  10.682  1.0116 -1.5673 -1.8952
  501TMC3    C7 7453   1.085   1.975  10.825 -0.3771  0.1343  0.3105
  501TMC3    C8 7454   0.887   2.320  10.559 -0.4389 -0.3061  0.0023
  501TMC3    O1 7455   1.113   1.854  10.826  0.4154 -0.6646  0.0816
  501TMC3    O2 7456   0.956   2.397  10.625 -0.5137 -0.0967  0.1533
  502TMC3    C1 7457   0.105   0.802  15.573  0.4236  0.1755  0.0802
  502TMC3    C2 7458   0.079   0.904  15.487  0.0199  0.1614 -0.2647
  502TMC3    C3 7459   4.687   0.972  15.493  0.4661 -0.4840  0.1698
  502TMC3    C4 7460   0.016   0.776  15.673  0.2185 -0.0961  0.7152
  502TMC3    C5 7461   4.618   0.838  15.675 -0.3268 -0.1939  0.2081
  502TMC3    C6 7462   4.591   0.940  15.583 -0.0935  0.1503 -0.3993
  502TMC3     C 7463   0.251   0.762  15.596  0.2829 -0.2901  0.2891
  502TMC3     O 7464   0.334   0.835  15.544  0.6416  0.0705 -0.3251
  502TMC3     H 7465   0.158   0.935  15.419  1.0811 -0.3487  0.7339
  502TMC3    H1 7466   0.035   0.700  15.748  0.2762 -1.8185 -1.0714
  502TMC3    H2 7467   4.501   1.001  15.591 -0.3683  0.0586 -2.8236
  502TMC3    C7 7468   4.512   0.739  15.692  0.1012 -0.0821 -0.2342
  502TMC3    C8 7469   4.679   1.098  15.412 -0.4606 -0.3543 -0.4940
  502TMC3    O1 7470   4.533   0.650  15.769  0.0419 -0.2693 -0.1308
  502TMC3    O2 7471   0.045   1.101  15.329  0.1608 -0.2790 -0.3448
  503MPD2     C 7472   2.342   1.574  17.069 -0.0998 -0.2421  0.0597
  503MPD2    C1 7473   2.348   1.557  17.211  0.2091 -0.1058 -0.1256
  503MPD2    C2 7474   2.403   1.442  17.260  0.2448 -0.3924  0.6512
  503MPD2    C3 7475   2.444   1.336  17.174 -0.1662 -0.2265 -0.2713
  503MPD2    C4 7476   2.430   1.351  17.041  0.2612 -0.1912  0.5695
  503MPD2    C5 7477   2.382   1.470  16.991  0.4075 -0.5601 -0.6927
  503MPD2     H 7478   2.395   1.424  17.367 -0.7739  2.5796  1.0972
  503MPD2    H1 7479   2.456   1.278  16.965  1.2937  0.2864  0.4585
  503MPD2    H2 7480   2.294   1.659  17.022  0.4376  0.6250  1.0533
  503MPD2    H3 7481   2.371   1.482  16.884 -0.1739 -0.7945 -0.6576
  503MPD2     N 7482   2.488   1.221  17.235 -0.2223 -0.0357  0.2540
  503MPD2    H5 7483   2.492   1.229  17.336  0.2821 -1.0667  0.3182
  503MPD2    N1 7484   2.309   1.660  17.298 -0.2136 -0.3661 -0.4583
  503MPD2    H7 7485   2.318   1.636  17.396  0.2921  0.5632 -0.2842
  504TMC3    C1 7486   2.599   1.018  17.271  0.4985  0.4069  0.1192
  504TMC3    C2 7487   2.524   0.990  17.383  0.3162 -0.7626 -0.1753
  504TMC3    C3 7488   2.592   0.933  17.488 -0.3758 -0.3170  0.0312
  504TMC3    C4 7489   2.727   0.977  17.252  0.8448  0.0363 -0.0410
  504TMC3    C5 7490   2.784   0.908  17.354 -0.0195 -0.3238 -0.3910
  504TMC3    C6 7491   2.721   0.892  17.477  0.0708 -0.7817 -0.2785
  504TMC3     C 7492   2.544   1.113  17.172  0.3368  0.0283  0.5984
  504TMC3     O 7493   2.596   1.114  17.060  0.3490 -0.0370  0.2611
  504TMC3     H 7494   2.419   1.017  17.387  0.3606 -0.7904  1.2837
  504TMC3    H1 7495   2.779   0.993  17.158  1.1109 -1.2206 -0.1168
  504TMC3    H2 7496   2.775   0.828  17.546  0.7791  1.3155  1.1320
  504TMC3    C7 7497   2.918   0.853  17.334  0.0428 -0.7754 -0.1406
  504TMC3    C8 7498   2.508   0.867  17.585 -0.3129 -0.0577 -0.8314
  504TMC3    O1 7499   2.988   0.834  17.432 -0.2270 -0.0055  0.2275
  504TMC3    O2 7500   2.409   0.815  17.533  0.1130 -0.7683 -0.0609
  505MPD2     C 7501   2.342   0.163  10.123 -0.3456  0.0062  0.6421
  505MPD2    C1 7502   2.333   0.104  10.244 -0.6854 -0.1080  0.7441
  505MPD2    C2 7503   2.347   0.186  10.354 -0.3815  0.4215  0.1742
  505MPD2    C3 7504   2.364   0.326  10.347 -0.6528  0.0090  0.0125
  505MPD2    C4 7505   2.376   0.380  10.227  0.2140  1.2567 -0.0474
  505MPD2    C5 7506   2.363   0.297  10.118 -0.0281 -0.4853 -0.5878
  505MPD2     H 7507   2.366   0.136  10.448 -0.4895 -0.4526 -0.2749
  505MPD2    H1 7508   2.394   0.486  10.214  0.2213  1.3213  0.4838
  505MPD2    H2 7509   2.327   0.112  10.029  2.5769  0.2785  0.0190
  505MPD2    H3 7510   2.369   0.344  10.021 -1.6411 -0.1706 -0.5397
  505MPD2     N 7511   2.381   0.416  10.455 -0.4912 -0.0166  0.7140
  505MPD2    H5 7512   2.397   0.514  10.435  0.3596 -0.1593  0.7177
  505MPD2    N1 7513   2.338   4.687  10.256 -0.1254 -0.0654  0.2293
  505MPD2    H7 7514   2.359   4.642  10.168 -4.1098  0.3770 -0.9910
  506TMC3    C1 7515   2.341   4.483  10.351 -0.3293 -0.3972 -0.2903
  506TMC3    C2 7516   2.456   4.442  10.287 -0.4154  0.1549  0.1235
  506TMC3    C3 7517   2.530   4.332  10.333  0.9178 -0.1639  0.1039
  506TMC3    C4 7518   2.303   4.410  10.466 -0.1684 -0.2247 -0.5322
  506TMC3    C5 7519   2.384   4.314  10.516 -0.3135 -0.6916 -0.2666
  506TMC3    C6 7520   2.496   4.278  10.448 -0.2662  0.0153 -0.2305
  506TMC3     C 7521   2.313   4.616  10.368  0.6978 -0.6223  0.0880
  506TMC3     O 7522   2.244   4.656  10.457  1.0546 -0.1098 -0.0991
  506TMC3     H 7523   2.488   4.496  10.199 -0.0840 -0.4394 -0.1207
  506TMC3    H1 7524   2.221   4.439  10.530 -0.1843 -0.9442 -0.2230
  506TMC3    H2 7525   2.563   4.204  10.490 -1.1484 -0.3011  0.6098
  506TMC3    C7 7526   2.423   4.346  10.650 -0.0452 -0.5193  0.0192
  506TMC3    C8 7527   2.663   4.301  10.285  0.0543 -0.0395  0.2578
  506TMC3    O1 7528   2.455   4.255  10.720  0.1171 -0.1322  0.6530
  506TMC3    O2 7529   2.712   4.196  10.320  0.0934  0.6740  0.7099
  507TMC3    C1 7530   2.959   0.861  15.219  0.1096  0.1594 -0.3835
  507TMC3    C2 7531   2.882   0.776  15.144  0.4161 -0.4872  0.1392
  507TMC3    C3 7532   2.899   0.795  15.011 -0.1608 -0.2263  0.0355
  507TMC3    C4 7533   3.028   0.970  15.162  0.1042  0.9108  0.0906
  507TMC3    C5 7534   3.031   0.990  15.028 -0.7906 -0.2770  0.1307
  507TMC3    C6 7535   2.977   0.890  14.951  0.2768 -0.0951  0.5993
  507TMC3     C 7536   2.956   0.853  15.363 -0.0407  0.5889  0.0592
  507TMC3     O 7537   3.037   0.924  15.424 -0.1652 -0.6556 -0.2531
  507TMC3     H 7538   2.812   0.696  15.166  1.3657 -1.1830  0.6079
  507TMC3    H1 7539   3.075   1.043  15.227 -0.3598 -0.0657  1.5300
  507TMC3    H2 7540   2.987   0.889  14.843 -2.1912 -2.0645  0.4096
  507TMC3    C7 7541   2.988   1.113  14.983  0.1333 -0.3138 -0.3539
  507TMC3    C8 7542   2.781   0.758  14.939 -0.7983  0.4796  0.8482
  507TMC3    O1 7543   2.862   1.116  14.972  0.4597 -0.5465  0.3544
  507TMC3    O2 7544   2.717   0.653  14.955 -0.0690  0.6605 -0.3786
  508MPD2     C 7545   4.215   3.284  16.096  0.0478  0.3392  0.1438
  508MPD2    C1 7546   4.142   3.394  16.133  0.5083 -0.0665 -0.3009
  508MPD2    C2 7547   4.088   3.477  16.036  0.2104 -0.5869 -0.7850
  508MPD2    C3 7548   4.108   3.445  15.898 -0.3362  0.2736  0.0158
  508MPD2    C4 7549   4.174   3.323  15.871  0.4323 -0.8242  0.1151
  508MPD2    C5 7550   4.225   3.247  15.967  0.1332 -0.3262 -0.4860
  508MPD2     H 7551   4.032   3.566  16.063  1.8308 -0.3369  1.7503
  508MPD2    H1 7552   4.172   3.286  15.769  0.6913 -1.8907  0.4970
  508MPD2    H2 7553   4.256   3.217  16.171 -0.5240  0.3316  0.4497
  508MPD2    H3 7554   4.275   3.156  15.937  0.4968 -0.3429  0.1874
  508MPD2     N 7555   4.061   3.540  15.799 -0.1877 -0.0703 -0.1603
  508MPD2    H5 7556   4.024   3.626  15.838 -4.6725 -0.3697 -3.7778
  508MPD2    N1 7557   4.121   3.407  16.276  0.1447  0.1640  0.3021
  508MPD2    H7 7558   4.173   3.334  16.325  0.1909  0.0537  0.0902
  509TMC3    C1 7559   3.915   3.839  15.547  0.5796 -0.0503  0.0454
  509TMC3    C2 7560   3.952   3.832  15.411  0.2537 -0.1935 -0.2184
  509TMC3    C3 7561   4.025   3.724  15.371 -0.2883 -0.2043 -0.2534
  509TMC3    C4 7562   3.943   3.735  15.637  0.0785 -0.0682  0.3078
  509TMC3    C5 7563   4.018   3.634  15.588  0.4210 -0.6351 -0.0705
  509TMC3    C6 7564   4.053   3.623  15.451  1.4327 -0.3179  0.5769
  509TMC3     C 7565   3.887   3.971  15.603  0.9093 -0.3982  0.3983
  509TMC3     O 7566   3.853   3.973  15.723  0.0464  0.4952 -0.7172
  509TMC3     H 7567   3.947   3.911  15.338 -1.5613 -2.9681 -3.0575
  509TMC3    H1 7568   3.913   3.739  15.742 -2.2824  0.5447 -0.3860
  509TMC3    H2 7569   4.104   3.539  15.405 -0.7424 -1.5305  0.3749
  509TMC3    C7 7570   4.078   3.527  15.665 -0.1429  0.3860  0.3412
  509TMC3    C8 7571   4.159   3.758  15.315 -0.3715 -0.2237 -0.5018
  509TMC3    O1 7572   4.124   3.431  15.606 -0.1358 -0.0266 -0.2013
  509TMC3    O2 7573   4.195   3.694  15.219 -0.4733 -0.5964  0.0367
  510MPD2     C 7574   1.694   0.473  14.768  0.2267 -0.1426 -0.3513
  510MPD2    C1 7575   1.755   0.415  14.882 -0.1651 -0.7011 -0.1165
  510MPD2    C2 7576   1.897   0.420  14.886 -0.1813 -0.4815  0.1739
  510MPD2    C3 7577   1.971   0.476  14.779  0.1191 -0.8034 -0.5067
  510MPD2    C4 7578   1.904   0.539  14.673  0.1297  0.9574  0.8099
  510MPD2    C5 7579   1.767   0.533  14.668  0.7276 -0.0272 -0.2634
  510MPD2     H 7580   1.953   0.383  14.972  0.4261  1.9236  0.8120
  510MPD2    H1 7581   1.952   0.600  14.597 -1.0422  0.9841  0.0880
  510MPD2    H2 7582   1.586   0.475  14.756  0.2597 -0.3269 -0.6681
  510MPD2    H3 7583   1.717   0.580  14.584  2.6352  1.6617 -0.4725
  510MPD2     N 7584   2.113   0.475  14.782 -0.3557 -0.1662  0.3179
  510MPD2    H5 7585   2.157   0.446  14.869  0.0548  2.7618  1.0772
  510MPD2    N1 7586   1.667   0.371  14.985 -0.0950  0.1042  0.0389
  510MPD2    H7 7587   1.567   0.363  14.970  0.2426 -1.8174 -1.1573
  511TMC3    C1 7588   1.583   0.268  15.158 -0.8451  0.6998  0.0214
  511TMC3    C2 7589   1.568   0.263  15.291  0.6569  0.0712  0.0293
  511TMC3    C3 7590   1.467   0.197  15.345 -0.4570  0.0780  0.2976
  511TMC3    C4 7591   1.510   0.186  15.079 -0.1434  0.3194  0.0647
  511TMC3    C5 7592   1.419   0.099  15.142 -0.6534 -0.1287  0.2571
  511TMC3    C6 7593   1.402   0.102  15.273 -0.1227  0.0410  0.4980
  511TMC3     C 7594   1.700   0.322  15.101  0.3348 -0.3356  0.1447
  511TMC3     O 7595   1.804   0.292  15.158  0.1017  0.0859  0.7566
  511TMC3     H 7596   1.633   0.316  15.361  0.1519  1.3996 -0.5050
  511TMC3    H1 7597   1.534   0.177  14.974  1.8744 -1.3888  0.6689
  511TMC3    H2 7598   1.331   0.043  15.329  1.2010 -2.6498 -0.6584
  511TMC3    C7 7599   1.372   4.703  15.071 -0.5142  0.5388  0.1302
  511TMC3    C8 7600   1.396   0.253  15.463 -0.1890 -0.8150 -0.0562
  511TMC3    O1 7601   1.420   4.709  14.955  0.0625 -0.1406 -0.5897
  511TMC3    O2 7602   1.278   0.213  15.461 -0.2769 -0.6687 -0.1396
  512TMC3    C1 7603   0.763   0.246  13.357  0.2316  0.2588 -0.3056
  512TMC3    C2 7604   0.877   0.210  13.423 -0.0432 -0.7164 -0.6142
  512TMC3    C3 7605   0.916   0.079  13.409  0.9929  0.1679  0.3963
  512TMC3    C4 7606   0.692   0.157  13.275  0.2944 -0.2489 -0.1309
  512TMC3    C5 7607   0.724   0.023  13.277 -0.1647  0.2974 -0.6464
  512TMC3    C6 7608   0.838   4.709  13.348 -0.0840 -0.7823  0.2979
  512TMC3     C 7609   0.698   0.365  13.391  0.6273 -0.0383  0.4780
  512TMC3     O 7610   0.636   0.411  13.299 -0.3708  0.0214  0.6523
  512TMC3     H 7611   0.945   0.279  13.471 -1.1798 -0.0184 -0.0218
  512TMC3    H1 7612   0.599   0.188  13.230  0.8591  1.6437  0.0060
  512TMC3    H2 7613   0.850   4.604  13.373  1.9143 -0.3814  1.0697
  512TMC3    C7 7614   0.644   4.657  13.194  0.5729  0.0076  0.8377
  512TMC3    C8 7615   1.022   0.023  13.481  0.3571  0.6302 -0.1154
  512TMC3    O1 7616   0.537   4.696  13.157  0.2937  0.2937 -0.3554
  512TMC3    O2 7617   1.072   4.647  13.433  0.4932  0.0467 -0.3114
  513MPD2     C 7618   2.736   0.364  13.532 -0.0651 -0.4043 -0.6584
  513MPD2    C1 7619   2.840   0.348  13.441  0.2773 -0.0992 -0.1381
  513MPD2    C2 7620   2.964   0.316  13.486  0.3641  0.3589 -0.1588
  513MPD2    C3 7621   2.982   0.287  13.621 -0.4133 -0.2515 -0.1113
  513MPD2    C4 7622   2.881   0.306  13.718  0.3401  0.4368 -0.2770
  513MPD2    C5 7623   2.761   0.346  13.669 -0.4309  0.4140  0.4879
  513MPD2     H 7624   3.056   0.299  13.432  0.0408 -2.2644  0.1270
  513MPD2    H1 7625   2.903   0.312  13.824  1.6257 -0.9750 -0.4645
  513MPD2    H2 7626   2.645   0.415  13.503  0.6174 -0.6894 -3.2359
  513MPD2    H3 7627   2.682   0.370  13.740 -1.1946  3.1774 -1.2968
  513MPD2     N 7628   3.105   0.230  13.661  0.1527  0.0369 -0.0070
  513MPD2    H5 7629   3.173   0.205  13.590  1.5415 -1.4018  1.8081
  513MPD2    N1 7630   2.813   0.361  13.300  0.1842 -0.3084  0.2642
  513MPD2    H7 7631   2.726   0.403  13.268  1.9378  1.3784 -2.3042
  514TMC3    C1 7632   2.853   0.300  13.071 -0.1269 -0.2145  0.6162
  514TMC3    C2 7633   2.727   0.253  13.052 -0.8152 -0.0711 -0.4342
  514TMC3    C3 7634   2.710   0.156  12.955  0.3775 -0.7820  0.1940
  514TMC3    C4 7635   2.957   0.243  13.006 -0.1085  0.1689 -0.0363
  514TMC3    C5 7636   2.946   0.131  12.922  0.3664  0.2363 -0.2368
  514TMC3    C6 7637   2.814   0.092  12.889 -0.1058 -0.0110  0.0522
  514TMC3     C 7638   2.893   0.295  13.207  0.0689 -0.1987  0.2119
  514TMC3     O 7639   2.987   0.215  13.223 -0.0823 -0.7167 -0.3586
  514TMC3     H 7640   2.638   0.301  13.094 -0.1382  0.8580 -0.0485
  514TMC3    H1 7641   3.058   0.279  13.021  0.0534 -0.0548 -0.5918
  514TMC3    H2 7642   2.792   0.003  12.831 -0.1092  0.3813 -0.5504
  514TMC3    C7 7643   3.052   0.026  12.943  0.0728  0.3171  0.3026
  514TMC3    C8 7644   2.595   0.185  12.865  0.0400 -0.1648 -0.2770
  514TMC3    O1 7645   3.070   4.689  12.840  0.3458  0.0462 -0.1198
  514TMC3    O2 7646   2.490   0.215  12.919  0.2649 -0.7141 -0.0558
  515MPD2     C 7647   0.720   1.719  15.454 -0.0959 -0.0490 -0.1457
  515MPD2    C1 7648   0.728   1.711  15.315 -0.5680 -0.0179  0.3871
  515MPD2    C2 7649   0.799   1.804  15.241 -0.1431  0.5082 -0.7827
  515MPD2    C3 7650   0.879   1.893  15.302  0.7746 -0.4865  0.3178
  515MPD2    C4 7651   0.884   1.891  15.443 -0.1304 -0.4920  0.0547
  515MPD2    C5 7652   0.808   1.804  15.520  0.0283  0.4093 -0.1644
  515MPD2     H 7653   0.790   1.803  15.133 -1.1796 -0.2282 -0.6973
  515MPD2    H1 7654   0.941   1.964  15.500  0.9174 -0.5521 -0.9215
  515MPD2    H2 7655   0.665   1.648  15.516 -1.7566 -0.5507 -2.1963
  515MPD2    H3 7656   0.812   1.805  15.629  2.7069 -1.1027 -0.2668
  515MPD2     N 7657   0.976   1.973  15.231 -0.0070  0.2597 -0.0637
  515MPD2    H5 7658   1.040   2.019  15.294 -0.1793  0.7510 -0.2474
  515MPD2    N1 7659   0.658   1.612  15.243 -0.4702 -0.5321 -0.1473
  515MPD2    H7 7660   0.669   1.620  15.142 -0.7400 -3.2480 -0.3816
  516TMC3    C1 7661   0.538   1.413  15.192 -0.0716 -0.8170  0.3449
  516TMC3    C2 7662   0.469   1.467  15.091  0.3971  0.2298  0.1219
  516TMC3    C3 7663   0.406   1.377  15.007 -0.7843  0.6537 -0.2062
  516TMC3    C4 7664   0.559   1.279  15.216 -0.0587 -0.5316  0.1865
  516TMC3    C5 7665   0.485   1.197  15.128 -0.1538  0.1886  0.8208
  516TMC3    C6 7666   0.411   1.247  15.030  0.0301  0.8380 -0.0453
  516TMC3     C 7667   0.593   1.504  15.291 -0.1872  0.3326 -0.0232
  516TMC3     O 7668   0.594   1.462  15.403  0.3131  0.4462 -0.6517
  516TMC3     H 7669   0.459   1.574  15.074  1.3731  0.4128  0.7036
  516TMC3    H1 7670   0.622   1.248  15.298  0.2284 -0.7459 -0.1173
  516TMC3    H2 7671   0.363   1.190  14.952  0.3121  3.1086 -1.8777
  516TMC3    C7 7672   0.473   1.060  15.175  0.6643 -0.0957  0.1067
  516TMC3    C8 7673   0.371   1.415  14.875 -0.0045  0.1458 -0.2062
  516TMC3    O1 7674   0.564   1.023  15.248 -0.8057 -0.6534  0.3401
  516TMC3    O2 7675   0.257   1.384  14.838  0.2619 -0.2616 -0.3075
  517MPD2     C 7676   0.467   3.213   0.535 -0.0685 -0.2364  0.1195
  517MPD2    C1 7677   0.592   3.230   0.493 -0.2425  0.4774 -0.1299
  517MPD2    C2 7678   0.668   3.329   0.553  0.3518 -0.5640 -0.2290
  517MPD2    C3 7679   0.612   3.412   0.651  0.0027 -0.0005  0.5718
  517MPD2    C4 7680   0.476   3.402   0.679 -0.1685 -0.3437 -0.1921
  517MPD2    C5 7681   0.404   3.308   0.611  0.5090  0.3543  0.6329
  517MPD2     H 7682   0.771   3.344   0.523  0.1442  0.1275 -0.6094
  517MPD2    H1 7683   0.427   3.464   0.753  1.8427  2.9315 -1.5969
  517MPD2    H2 7684   0.408   3.128   0.504 -1.2857  0.9780 -0.9133
  517MPD2    H3 7685   0.299   3.302   0.637  0.7275  0.6340  1.5890
  517MPD2     N 7686   0.673   3.518   0.711  0.0127 -0.0716  0.1199
  517MPD2    H5 7687   0.611   3.562   0.778  0.0124  0.0204  0.0586
  517MPD2    N1 7688   0.649   3.154   0.384  0.7869 -0.2950 -0.5481
  517MPD2    H7 7689   0.736   3.187   0.342  1.9270 -2.8737 -0.2286
  518TMC3    C1 7690   0.669   2.983   0.231  0.6640  0.4475 -0.2943
  518TMC3    C2 7691   0.609   2.899   0.138  0.1480  0.5651 -0.1961
  518TMC3    C3 7692   0.689   2.842   0.042 -0.7682  0.1401  0.5897
  518TMC3    C4 7693   0.804   3.000   0.235  0.4426 -0.3710 -0.6184
  518TMC3    C5 7694   0.880   2.939   0.139 -0.5234 -0.0961  0.4110
  518TMC3    C6 7695   0.824   2.863   0.042  0.1110 -0.5740 -0.2378
  518TMC3     C 7696   0.578   3.061   0.313  0.0483  0.3169 -0.8686
  518TMC3     O 7697   0.461   3.029   0.317 -0.1861 -0.2254 -0.3157
  518TMC3     H 7698   0.501   2.903   0.146  0.2575  2.4869  0.3313
  518TMC3    H1 7699   0.852   3.046   0.320 -2.7096 -0.4688  1.1949
  518TMC3    H2 7700   0.887   2.831  17.659  2.1692  1.9308  0.3671
  518TMC3    C7 7701   1.029   2.952   0.159  0.4864  0.0207  0.0139
  518TMC3    C8 7702   0.647   2.714   0.002  0.5200  0.4686  0.2127
  518TMC3    O1 7703   1.067   3.050   0.222 -0.1405 -0.1265  0.1290
  518TMC3    O2 7704   0.738   2.627   0.001  0.1215  0.4472 -0.1930
  519MPD2     C 7705   1.896   1.453  14.705  0.1211 -0.9425  0.0368
  519MPD2    C1 7706   1.842   1.457  14.581  0.6194  0.7941 -0.3200
  519MPD2    C2 7707   1.904   1.395  14.477 -0.3110 -0.5522  0.2023
  519MPD2    C3 7708   2.016   1.324  14.491  0.3755  0.0299 -0.3163
  519MPD2    C4 7709   2.069   1.313  14.617  0.0734 -0.2044  0.1496
  519MPD2    C5 7710   2.012   1.383  14.722 -0.0210 -0.6475  0.2617
  519MPD2     H 7711   1.865   1.409  14.377  2.6196  0.0500 -0.8758
  519MPD2    H1 7712   2.154   1.254  14.651  0.5871  0.4278 -0.0598
  519MPD2    H2 7713   1.852   1.499  14.793 -0.5920 -0.4416 -0.5782
  519MPD2    H3 7714   2.057   1.385  14.821  0.2606  4.3371  0.0064
  519MPD2     N 7715   2.082   1.253  14.385  0.4197 -0.1956 -0.1077
  519MPD2    H5 7716   2.163   1.197  14.410 -0.3083 -0.8192  0.8999
  519MPD2    N1 7717   1.721   1.528  14.570 -0.2513 -0.1308  0.1046
  519MPD2    H7 7718   1.675   1.553  14.658 -1.5885 -0.0989 -0.6066
  520TMC3    C1 7719   2.104   1.128  14.190 -0.6805  0.2237  1.1859
  520TMC3    C2 7720   2.054   1.084  14.077 -0.2122 -0.4133  0.2353
  520TMC3    C3 7721   2.119   0.992  14.006 -0.6135 -0.1526 -0.1876
  520TMC3    C4 7722   2.222   1.071  14.242  0.1660  0.2226 -0.6582
  520TMC3    C5 7723   2.287   0.976  14.168 -1.0810 -0.1598 -0.1916
  520TMC3    C6 7724   2.238   0.934  14.050  0.6248  0.0807 -0.0700
  520TMC3     C 7725   2.029   1.234  14.264  0.2614 -0.2153  0.0970
  520TMC3     O 7726   1.930   1.276  14.215 -0.8843 -0.5751 -0.3490
  520TMC3     H 7727   1.973   1.137  14.029 -0.7204 -2.6399 -1.3470
  520TMC3    H1 7728   2.276   1.103  14.331  0.9626 -3.7868  0.2977
  520TMC3    H2 7729   2.308   0.876  13.990 -0.5787 -1.7696  0.3367
  520TMC3    C7 7730   2.425   0.947  14.190  0.5395  0.7609 -0.1241
  520TMC3    C8 7731   2.100   0.987  13.859 -0.3014  0.8255  0.4011
  520TMC3    O1 7732   2.473   0.836  14.164 -0.0007  0.1081 -0.2547
  520TMC3    O2 7733   2.206   0.986  13.797 -0.1830 -0.1767  0.2607
  521MPD2     C 7734   2.816   4.245  17.570  0.3491  0.8493 -0.2898
  521MPD2    C1 7735   2.801   4.159  17.463  0.0597  0.1535 -0.1408
  521MPD2    C2 7736   2.910   4.100  17.397  1.0491 -0.5779  0.0505
  521MPD2    C3 7737   3.037   4.127  17.450 -0.1123 -0.3925  0.3532
  521MPD2    C4 7738   3.050   4.196  17.570  0.0423 -0.3345  0.5387
  521MPD2    C5 7739   2.940   4.254  17.626  0.8656 -0.1310  0.0101
  521MPD2     H 7740   2.897   4.053  17.300 -1.6783 -1.1272  0.6560
  521MPD2    H1 7741   3.146   4.227  17.611  0.3479 -0.0901 -0.3620
  521MPD2    H2 7742   2.737   4.293  17.626 -0.6838 -0.7389 -0.3913
  521MPD2    H3 7743   2.949   4.309   0.021  3.2312 -0.3455 -0.0747
  521MPD2     N 7744   3.149   4.079  17.385  0.2571  0.7424  0.8411
  521MPD2    H5 7745   3.121   4.031  17.300 -1.8176  1.0245  1.3575
  521MPD2    N1 7746   2.671   4.154  17.414  0.0042 -0.1181 -0.4652
  521MPD2    H7 7747   2.602   4.205  17.468  0.7598 -0.4154  0.7604
  522TMC3    C1 7748   3.357   3.996  17.339  0.3450  0.1523 -0.8337
  522TMC3    C2 7749   3.479   3.970  17.398  0.6801 -0.6018  0.6512
  522TMC3    C3 7750   3.594   3.990  17.323 -0.8479 -0.3783 -0.2005
  522TMC3    C4 7751   3.342   4.027  17.206 -0.8708  0.9933  0.1039
  522TMC3    C5 7752   3.458   4.041  17.138 -0.2038  0.3602  0.8152
  522TMC3    C6 7753   3.581   4.035  17.195  0.2416  0.6094 -0.7526
  522TMC3     C 7754   3.266   4.056  17.437 -0.1260  0.1599 -0.0317
  522TMC3     O 7755   3.310   4.085  17.545  0.3579 -0.7705  0.2273
  522TMC3     H 7756   3.495   3.941  17.502  0.1305 -1.1913  0.5745
  522TMC3    H1 7757   3.246   4.038  17.157 -0.4079 -1.7489 -1.4716
  522TMC3    H2 7758   3.667   4.069  17.138  0.7971  0.7209  0.1544
  522TMC3    C7 7759   3.455   4.079  16.999  0.0895 -0.3138 -0.3453
  522TMC3    C8 7760   3.686   3.875  17.334  0.5239 -0.0921 -0.9184
  522TMC3    O1 7761   3.561   4.095  16.938  0.1930  0.6334  0.2392
  522TMC3    O2 7762   3.713   3.832  17.446  0.0366 -0.5762 -0.0324
  523MPD2     C 7763   0.383   2.880  10.067  0.2008 -0.5367 -0.5754
  523MPD2    C1 7764   0.482   2.967  10.103 -0.1491  0.3650 -0.0299
  523MPD2    C2 7765   0.475   3.100  10.081 -0.4300 -0.5857 -0.6688
  523MPD2    C3 7766   0.363   3.158  10.024 -0.1125 -0.5242 -1.1264
  523MPD2    C4 7767   0.263   3.069   9.982  0.4633  0.0250  0.0336
  523MPD2    C5 7768   0.274   2.934  10.012 -0.4741  0.5777 -0.0598
  523MPD2     H 7769   0.566   3.156  10.101 -1.3331  0.6051  0.1121
  523MPD2    H1 7770   0.170   3.097   9.935  0.7838  0.1178 -0.5424
  523MPD2    H2 7771   0.371   2.774  10.088 -1.6931 -0.8021 -3.0375
  523MPD2    H3 7772   0.181   2.880   9.995  0.7579 -1.2634 -1.1018
  523MPD2     N 7773   0.352   3.294   9.992 -0.1911 -0.1663  0.0711
  523MPD2    H5 7774   0.267   3.321   9.943 -0.3912 -0.3030  0.3389
  523MPD2    N1 7775   0.599   2.896  10.161  0.4287 -0.4435 -0.1462
  523MPD2    H7 7776   0.608   2.795  10.154  0.8027 -0.4126 -0.0779
  524TMC3    C1 7777   0.426   3.501   9.916  0.0188  0.0899  0.9126
  524TMC3    C2 7778   0.362   3.466   9.797  0.0545  0.2289  0.1608
  524TMC3    C3 7779   0.305   3.566   9.718  0.5711 -0.1199  0.8333
  524TMC3    C4 7780   0.422   3.635   9.966 -0.1290 -0.0286  0.3210
  524TMC3    C5 7781   0.354   3.726   9.880  0.1792  0.6218  0.1398
  524TMC3    C6 7782   0.300   3.698   9.756  0.3768 -0.2528 -0.5582
  524TMC3     C 7783   0.451   3.389  10.010  0.0622  0.3096  0.2417
  524TMC3     O 7784   0.542   3.388  10.094 -0.1761 -0.5636 -0.2212
  524TMC3     H 7785   0.370   3.365   9.757  1.0637 -0.2814  1.6701
  524TMC3    H1 7786   0.461   3.652  10.065 -1.2235  3.2976  0.1851
  524TMC3    H2 7787   0.261   3.786   9.705 -1.3604 -0.7330 -0.0511
  524TMC3    C7 7788   0.358   3.864   9.923  0.9999  0.6756 -0.1656
  524TMC3    C8 7789   0.260   3.534   9.582  0.8690  0.0970  0.4701
  524TMC3    O1 7790   0.455   3.898   9.995 -0.5196  0.3426  0.3582
  524TMC3    O2 7791   0.311   3.434   9.535  0.1065 -0.2239  0.8842
  525MPD2     C 7792   3.296   0.996  14.676 -0.0174  0.2515 -0.2440
  525MPD2    C1 7793   3.433   0.996  14.700 -0.3738 -0.0695  1.1196
  525MPD2    C2 7794   3.501   1.121  14.678  0.4904 -1.0969 -0.5260
  525MPD2    C3 7795   3.432   1.235  14.636  0.1458  0.2677 -0.4874
  525MPD2    C4 7796   3.295   1.220  14.619  0.5851 -0.2534 -0.4205
  525MPD2    C5 7797   3.237   1.102  14.636 -0.0987  0.0232 -0.3134
  525MPD2     H 7798   3.609   1.122  14.687  0.3746  2.4643  0.1352
  525MPD2    H1 7799   3.231   1.304  14.593 -0.1681 -0.0286  2.2493
  525MPD2    H2 7800   3.236   0.906  14.671 -1.2514  1.1847 -2.4354
  525MPD2    H3 7801   3.130   1.088  14.620 -0.3203 -1.6750  2.7766
  525MPD2     N 7802   3.488   1.363  14.611  0.3075  0.5010 -0.1568
  525MPD2    H5 7803   3.421   1.436  14.587 -1.5716 -0.9241  0.6733
  525MPD2    N1 7804   3.501   0.885  14.748 -0.3702 -0.4828 -0.4718
  525MPD2    H7 7805   3.601   0.889  14.765 -0.2256 -0.8963 -1.2055
  526TMC3    C1 7806   3.551   0.656  14.809  0.2699 -0.0660 -0.6770
  526TMC3    C2 7807   3.512   0.567  14.902  0.0384  0.2964 -0.5061
  526TMC3    C3 7808   3.615   0.501  14.972  0.3137  0.2983  0.3390
  526TMC3    C4 7809   3.683   0.678  14.776 -0.8175 -0.4738 -0.4002
  526TMC3    C5 7810   3.774   0.611  14.844  0.8037 -0.4082 -0.1122
  526TMC3    C6 7811   3.749   0.528  14.941  0.8837 -0.3883  0.3488
  526TMC3     C 7812   3.448   0.755  14.770  0.1846 -1.0003  0.0963
  526TMC3     O 7813   3.328   0.723  14.770 -0.0754 -0.5437 -0.2328
  526TMC3     H 7814   3.415   0.560  14.949 -0.2451  0.0067 -1.1389
  526TMC3    H1 7815   3.711   0.753  14.703  0.4081  1.8430  2.4821
  526TMC3    H2 7816   3.822   0.476  15.002 -0.2276  0.0745  2.0781
  526TMC3    C7 7817   3.911   0.617  14.808  0.5695  0.1545  0.3576
  526TMC3    C8 7818   3.582   0.428  15.090 -0.2404 -0.2979  0.6531
  526TMC3    O1 7819   3.994   0.586  14.891  0.0541  0.5803 -0.1629
  526TMC3    O2 7820   3.670   0.435  15.178  0.4081 -0.4344  0.2347
  527MPD2     C 7821   3.099   4.289   0.921  0.2417 -0.4843  0.9398
  527MPD2    C1 7822   2.987   4.205   0.946 -0.1612 -0.3075 -0.0682
  527MPD2    C2 7823   2.970   4.101   0.855 -0.4991 -0.0921  0.3235
  527MPD2    C3 7824   3.066   4.076   0.758  0.1733  0.4577 -0.7949
  527MPD2    C4 7825   3.183   4.160   0.745 -0.5512  0.7240 -0.4569
  527MPD2    C5 7826   3.195   4.270   0.825  0.0758 -0.6594  0.2543
  527MPD2     H 7827   2.886   4.034   0.866  0.7991 -1.6192  0.8382
  527MPD2    H1 7828   3.253   4.144   0.663 -0.5001 -0.8299 -0.1134
  527MPD2    H2 7829   3.117   4.380   0.976 -1.1543  1.5766 -2.0203
  527MPD2    H3 7830   3.279   4.339   0.816 -0.1577 -0.4358 -0.1971
  527MPD2     N 7831   3.045   3.958   0.682 -0.3768  0.6232  0.2246
  527MPD2    H5 7832   2.961   3.909   0.711  0.5534 -1.3882 -0.4310
  527MPD2    N1 7833   2.892   4.227   1.045 -0.2488 -0.1635  0.3006
  527MPD2    H7 7834   2.809   4.168   1.045  0.4988 -1.2348  2.0265
  528TMC3    C1 7835   2.813   4.290   1.270  0.9320  0.6839 -0.7607
  528TMC3    C2 7836   2.861   4.327   1.390 -0.4463  0.3842  0.3627
  528TMC3    C3 7837   2.787   4.285   1.502 -0.0510  0.0194 -0.2965
  528TMC3    C4 7838   2.697   4.228   1.246  0.1003  0.5237 -0.0375
  528TMC3    C5 7839   2.623   4.192   1.366  0.4504 -0.9159 -0.1373
  528TMC3    C6 7840   2.666   4.216   1.499  0.4805 -0.1184 -0.3997
  528TMC3     C 7841   2.910   4.312   1.155  0.0931 -0.5493  0.2931
  528TMC3     O 7842   2.992   4.400   1.169  0.1018 -0.1017 -0.6314
  528TMC3     H 7843   2.960   4.369   1.400 -1.0703  2.0160 -0.4240
  528TMC3    H1 7844   2.651   4.231   1.148  0.8181 -1.7331 -0.4284
  528TMC3    H2 7845   2.610   4.201   1.591  0.6505  1.8132  0.0348
  528TMC3    C7 7846   2.496   4.121   1.343  1.0963  0.0267  0.0280
  528TMC3    C8 7847   2.845   4.289   1.633  0.2888  0.5893  0.1909
  528TMC3    O1 7848   2.484   4.067   1.233  0.7272 -0.3894  1.2401
  528TMC3    O2 7849   2.768   4.303   1.725  0.3514 -0.0895 -0.0179
  529MPD2     C 7850   4.205   1.856   0.576  0.2813 -0.0016 -0.3148
  529MPD2    C1 7851   4.113   1.770   0.512  0.6221  0.0656 -0.1640
  529MPD2    C2 7852   4.112   1.772   0.374  0.5248 -0.1915 -0.0184
  529MPD2    C3 7853   4.173   1.873   0.302 -0.0759 -0.0262  0.1675
  529MPD2    C4 7854   4.248   1.966   0.366 -0.0262 -0.3446  0.1964
  529MPD2    C5 7855   4.268   1.956   0.506 -0.4240  0.1045  0.8897
  529MPD2     H 7856   4.050   1.697   0.325 -0.5179  1.4828 -1.2315
  529MPD2    H1 7857   4.286   2.051   0.311 -2.3353  0.2756 -0.4285
  529MPD2    H2 7858   4.236   1.852   0.679  1.3571  2.8311 -0.5249
  529MPD2    H3 7859   4.329   2.030   0.557  0.7369 -0.1639 -0.1189
  529MPD2     N 7860   4.156   1.885   0.159  0.8009 -0.2102 -0.5473
  529MPD2    H5 7861   4.212   1.952   0.109  2.6588 -1.8094 -0.6043
  529MPD2    N1 7862   4.039   1.676   0.588  0.0475  0.9175 -0.8175
  529MPD2    H7 7863   3.973   1.620   0.535  0.1299 -0.1651  0.2030
  530TMC3    C1 7864   3.947   1.577   0.782 -0.1979 -0.0360 -0.5165
  530TMC3    C2 7865   3.974   1.502   0.895  0.1797 -0.2915 -0.0784
  530TMC3    C3 7866   3.878   1.427   0.958 -0.1714  0.8347 -0.0261
  530TMC3    C4 7867   3.816   1.584   0.738 -0.3771  0.0195 -0.3605
  530TMC3    C5 7868   3.717   1.528   0.815  0.4177 -0.2697 -0.1868
  530TMC3    C6 7869   3.748   1.443   0.923 -0.1419 -0.5817  0.3628
  530TMC3     C 7870   4.052   1.659   0.725  0.0546  0.6417  0.4425
  530TMC3     O 7871   4.116   1.708   0.815  0.0551  0.0026 -0.2998
  530TMC3     H 7872   4.076   1.486   0.926 -0.2633 -1.0605  0.9978
  530TMC3    H1 7873   3.794   1.646   0.652  0.2660 -0.3274 -0.7792
  530TMC3    H2 7874   3.675   1.392   0.985  0.0457  0.0320  1.0797
  530TMC3    C7 7875   3.587   1.567   0.788  0.2566 -0.1990 -0.1743
  530TMC3    C8 7876   3.913   1.336   1.070 -0.4270  0.0015 -0.0562
  530TMC3    O1 7877   3.570   1.641   0.691 -0.2169 -0.5070 -0.4311
  530TMC3    O2 7878   3.830   1.246   1.086 -0.1764  0.5059  0.6443
  531MPD2     C 7879   3.435   4.573  13.214 -0.4351 -0.1615  0.6103
  531MPD2    C1 7880   3.388   4.687  13.283  0.4365  0.0455 -0.5485
  531MPD2    C2 7881   3.284   0.028  13.224  0.2657  0.0921 -0.1439
  531MPD2    C3 7882   3.237   4.716  13.099 -0.1394  0.2041 -0.4170
  531MPD2    C4 7883   3.303   4.622  13.025  0.1485 -0.4981  0.5057
  531MPD2    C5 7884   3.393   4.541  13.084 -0.7382 -0.3260 -0.4480
  531MPD2     H 7885   3.228   0.102  13.280  0.0288  1.0761 -1.7036
  531MPD2    H1 7886   3.276   4.584  12.927 -1.4461 -0.5463  0.9612
  531MPD2    H2 7887   3.509   4.507  13.259 -0.9449 -1.0518  0.1495
  531MPD2    H3 7888   3.444   4.459  13.034  0.4145 -0.1322  0.3937
  531MPD2     N 7889   3.114   0.043  13.060 -0.5457 -0.3631 -0.3158
  531MPD2    H5 7890   3.070   0.106  13.126  2.8191  1.7404 -0.1336
  531MPD2    N1 7891   3.444   4.708  13.415 -0.3148  0.5900 -0.0326
  531MPD2    H7 7892   3.522   4.647  13.435 -1.6277 -0.8844  0.5975
  532TMC3    C1 7893   3.445   0.066  13.634  0.3126  0.0111 -0.4192
  532TMC3    C2 7894   3.349   0.143  13.691  0.0453 -0.1699  0.6971
  532TMC3    C3 7895   3.248   0.088  13.768  0.4678 -0.7978 -0.0151
  532TMC3    C4 7896   3.452   4.659  13.667  0.5849  0.1735  0.7522
  532TMC3    C5 7897   3.343   4.604  13.734  1.0037 -0.4850  0.7812
  532TMC3    C6 7898   3.238   4.679  13.781  0.0937 -0.1235 -0.5829
  532TMC3     C 7899   3.400   0.078  13.495  0.4134 -0.2210 -0.2076
  532TMC3     O 7900   3.325   0.171  13.483 -0.2571  0.0800 -0.6708
  532TMC3     H 7901   3.356   0.251  13.676  2.7190 -0.3702  0.5616
  532TMC3    H1 7902   3.519   4.588  13.620 -0.2101 -2.1591  3.1234
  532TMC3    H2 7903   3.159   4.623  13.829  1.3418 -2.0989 -0.7921
  532TMC3    C7 7904   3.312   4.471  13.687  0.0629 -0.9261  0.4802
  532TMC3    C8 7905   3.129   0.162  13.779 -1.3354 -0.3668  0.1832
  532TMC3    O1 7906   3.400   4.387  13.666  0.3569  0.9799 -0.2590
  532TMC3    O2 7907   3.051   0.126  13.865  0.6555  0.0374 -0.1187
  533TMC3    C1 7908   3.627   1.555  14.629  0.0275  0.3260  0.2465
  533TMC3    C2 7909   3.752   1.601  14.614  0.0991  0.1455 -0.1883
  533TMC3    C3 7910   3.804   1.678  14.718  0.5599  0.2778 -0.6566
  533TMC3    C4 7911   3.550   1.593  14.742  0.5740  0.0392 -0.4141
  533TMC3    C5 7912   3.594   1.677  14.835  0.4576  0.1469  0.6346
  533TMC3    C6 7913   3.731   1.711  14.829  0.4331  0.1077  0.1210
  533TMC3     C 7914   3.619   1.407  14.621  0.1400  0.0379 -0.0424
  533TMC3     O 7915   3.723   1.341  14.638 -0.0966  0.8741  0.2577
  533TMC3     H 7916   3.809   1.548  14.538  0.6628  0.4970 -0.0132
  533TMC3    H1 7917   3.448   1.557  14.752  0.8350 -0.2694  1.1106
  533TMC3    H2 7918   3.783   1.752  14.914  1.1236  0.7600 -0.6181
  533TMC3    C7 7919   3.554   1.626  14.966  0.1072  0.4823  0.4944
  533TMC3    C8 7920   3.947   1.716  14.712  0.7340 -0.4029 -0.8133
  533TMC3    O1 7921   3.466   1.541  14.980  0.3730 -0.5259  0.0357
  533TMC3    O2 7922   4.007   1.742  14.820  0.1000  0.4921  0.3182
  534MPD2     C 7923   1.711   2.864   1.928  0.0590 -0.5646  0.8294
  534MPD2    C1 7924   1.597   2.862   1.853  0.1137 -0.7437 -0.0349
  534MPD2    C2 7925   1.547   2.744   1.813  0.3299 -0.1530 -0.6897
  534MPD2    C3 7926   1.603   2.623   1.846 -0.2980 -0.0822  0.4808
  534MPD2    C4 7927   1.715   2.623   1.928 -0.2762  0.3384 -0.5311
  534MPD2    C5 7928   1.766   2.745   1.969 -0.0783 -0.6816 -0.0617
  534MPD2     H 7929   1.448   2.741   1.768  0.0932 -3.0310  0.0174
  534MPD2    H1 7930   1.767   2.530   1.945  1.1669  1.2758  0.1565
  534MPD2    H2 7931   1.768   2.950   1.961 -2.2792  1.9585 -1.7128
  534MPD2    H3 7932   1.854   2.748   2.032  0.1659 -0.4062 -0.4127
  534MPD2     N 7933   1.560   2.498   1.798  0.1139  0.3882  0.1925
  534MPD2    H5 7934   1.622   2.418   1.805  2.0019  1.7223 -0.9940
  534MPD2    N1 7935   1.536   2.982   1.801 -0.6960 -0.0273  0.1682
  534MPD2    H7 7936   1.455   2.962   1.743  0.3739 -0.9128 -1.0340
  535TMC3    C1 7937   1.428   2.359   1.673  0.1251 -0.4131 -0.1494
  535TMC3    C2 7938   1.300   2.328   1.650 -0.3367 -0.5305  0.3147
  535TMC3    C3 7939   1.258   2.284   1.528  0.2482 -0.6346  0.2193
  535TMC3    C4 7940   1.528   2.340   1.580  0.5677 -0.3879 -0.2692
  535TMC3    C5 7941   1.478   2.300   1.456 -0.0051  0.1934  0.4895
  535TMC3    C6 7942   1.344   2.268   1.425  0.1819  0.5794 -0.2789
  535TMC3     C 7943   1.439   2.487   1.733  0.0762 -0.4681  0.0855
  535TMC3     O 7944   1.337   2.547   1.755  0.4233  0.2262 -0.2652
  535TMC3     H 7945   1.235   2.359   1.730 -0.0854 -2.5178  1.2972
  535TMC3    H1 7946   1.627   2.382   1.594  0.2846  0.9788 -2.3554
  535TMC3    H2 7947   1.323   2.241   1.322 -0.8025  0.0809  0.0483
  535TMC3    C7 7948   1.577   2.275   1.348 -0.3856 -0.7039 -0.7829
  535TMC3    C8 7949   1.121   2.283   1.490 -0.6965  0.4825 -0.0380
  535TMC3    O1 7950   1.555   2.188   1.267  0.4520 -0.5101  0.3143
  535TMC3    O2 7951   1.089   2.259   1.375  0.0505 -0.4769 -0.5075
  536MPD2     C 7952   0.471   0.613  16.818 -0.1920  0.6201  0.4836
  536MPD2    C1 7953   0.402   0.499  16.828 -0.0854  0.3536 -0.2586
  536MPD2    C2 7954   0.400   0.410  16.723 -0.7382 -0.2670 -0.0691
  536MPD2    C3 7955   0.460   0.444  16.603  0.9569  0.2175  0.5354
  536MPD2    C4 7956   0.513   0.571  16.588 -0.5171  0.2416 -0.3237
  536MPD2    C5 7957   0.520   0.651  16.700  0.1225  0.8183  0.6694
  536MPD2     H 7958   0.348   0.315  16.729  0.1982 -0.8151 -0.7725
  536MPD2    H1 7959   0.557   0.606  16.496 -1.1350  0.8205 -0.3976
  536MPD2    H2 7960   0.484   0.682  16.901 -0.1156  2.0650 -0.7229
  536MPD2    H3 7961   0.579   0.741  16.697  3.6006 -1.3674  2.9578
  536MPD2     N 7962   0.465   0.362  16.484 -0.0896  0.9250  0.3274
  536MPD2    H5 7963   0.497   0.406  16.398 -0.8322  1.4267  0.3126
  536MPD2    N1 7964   0.352   0.466  16.957  0.5479 -0.0616 -0.4434
  536MPD2    H7 7965   0.367   0.541  17.024  0.3455 -1.8057  1.5814
  537TMC3    C1 7966   0.273   0.347  17.137 -0.2920 -0.3361  0.0147
  537TMC3    C2 7967   0.357   0.422  17.211  0.1087  0.6722 -0.0937
  537TMC3    C3 7968   0.346   0.436  17.345 -0.6266 -0.6601 -0.5453
  537TMC3    C4 7969   0.161   0.299  17.195  0.2986 -0.0573 -0.4617
  537TMC3    C5 7970   0.142   0.312  17.330 -0.0601  0.0971 -0.6478
  537TMC3    C6 7971   0.237   0.378  17.405 -0.6706 -0.8491 -0.1411
  537TMC3     C 7972   0.287   0.351  16.994  0.1951  0.0851 -0.5668
  537TMC3     O 7973   0.245   0.258  16.927  0.1968  0.3962  0.3779
  537TMC3     H 7974   0.453   0.444  17.165  0.1983  2.9573  1.1583
  537TMC3    H1 7975   0.089   0.242  17.136  0.4438  0.0197 -0.7136
  537TMC3    H2 7976   0.233   0.377  17.514  0.2025 -0.3696 -0.1101
  537TMC3    C7 7977   0.065   0.214  17.392 -0.4803 -0.2943  0.3994
  537TMC3    C8 7978   0.426   0.537  17.411 -0.4932  0.4007 -0.2612
  537TMC3    O1 7979   4.671   0.207  17.368  0.3226 -0.4789  0.7181
  537TMC3    O2 7980   0.498   0.603  17.338  0.0711 -0.1137 -0.1317
  538TMC3    C1 7981   1.285   3.737  11.487  0.2204 -0.5653 -0.1177
  538TMC3    C2 7982   1.416   3.755  11.434 -0.0672  0.1348  0.1734
  538TMC3    C3 7983   1.450   3.680  11.323 -0.4655  0.9003 -0.0211
  538TMC3    C4 7984   1.190   3.656  11.425  0.2237  0.2229  0.2678
  538TMC3    C5 7985   1.224   3.605  11.303 -0.0578  0.0575 -0.1328
  538TMC3    C6 7986   1.351   3.611  11.256  0.2178  0.5507  0.1016
  538TMC3     C 7987   1.270   3.758  11.630  0.3186 -0.4140  0.2260
  538TMC3     O 7988   1.349   3.834  11.683 -0.3471  0.0486 -0.2832
  538TMC3     H 7989   1.491   3.819  11.478 -0.2382  0.6512 -0.2852
  538TMC3    H1 7990   1.087   3.653  11.459  0.1466 -1.6732 -0.1016
  538TMC3    H2 7991   1.371   3.575  11.156 -0.0807  0.8810 -0.0778
  538TMC3    C7 7992   1.113   3.540  11.235 -0.3586 -0.0926  0.3073
  538TMC3    C8 7993   1.592   3.686  11.277 -0.2666 -0.0162  0.7521
  538TMC3    O1 7994   1.002   3.518  11.285 -0.4033 -0.3394  0.3593
  538TMC3    O2 7995   1.662   3.734  11.362  0.1641  0.1206  0.2668
  539MPD2     C 7996   0.802   2.741  12.401 -0.6741  0.1303 -0.7492
  539MPD2    C1 7997   0.829   2.750  12.266  0.6955  0.0193  0.0500
  539MPD2    C2 7998   0.798   2.865  12.197 -0.5333  0.2953 -0.8659
  539MPD2    C3 7999   0.728   2.969  12.256 -0.6748 -0.5281 -0.2726
  539MPD2    C4 8000   0.701   2.961  12.396  0.1967 -0.0942  0.1299
  539MPD2    C5 8001   0.749   2.851  12.462 -0.0978  0.3580 -0.0566
  539MPD2     H 8002   0.827   2.868  12.092 -0.3987 -1.5215 -0.8830
  539MPD2    H1 8003   0.645   3.036  12.452 -1.2151 -1.2633  0.2879
  539MPD2    H2 8004   0.836   2.659  12.463 -1.5373  0.4262  0.1076
  539MPD2    H3 8005   0.737   2.845  12.570 -1.0951  1.2683 -0.1159
  539MPD2     N 8006   0.693   3.089  12.185  0.6222 -0.4433 -0.0988
  539MPD2    H5 8007   0.648   3.159  12.243 -1.6334 -0.5287 -1.7286
  539MPD2    N1 8008   0.879   2.644  12.185 -0.4092  0.1810 -0.2059
  539MPD2    H7 8009   0.906   2.668  12.090 -0.7678  1.2029 -0.0461
  540TMC3    C1 8010   0.668   3.248  12.008 -0.0309 -0.1515  0.5075
  540TMC3    C2 8011   0.711   3.299  11.885 -0.0927 -0.5776 -0.1760
  540TMC3    C3 8012   0.657   3.410  11.841  0.3056  0.0110  0.6215
  540TMC3    C4 8013   0.549   3.299  12.053  0.5852  0.6599  0.1996
  540TMC3    C5 8014   0.493   3.412  12.004  0.1295  0.2976  0.0376
  540TMC3    C6 8015   0.555   3.476  11.899 -0.1968  0.1970  1.0606
  540TMC3     C 8016   0.712   3.115  12.052  0.4663  0.0724  0.2311
  540TMC3     O 8017   0.763   3.047  11.963  0.5867 -0.8387 -0.0639
  540TMC3     H 8018   0.788   3.250  11.827 -0.0357  0.8371 -1.3044
  540TMC3    H1 8019   0.504   3.249  12.138  0.6693 -1.0913 -0.7901
  540TMC3    H2 8020   0.519   3.567  11.853  0.9960  0.5432  0.8108
  540TMC3    C7 8021   0.355   3.441  12.033  0.1175 -0.8861 -0.2146
  540TMC3    C8 8022   0.658   3.434  11.696  0.5698  0.6569  0.4526
  540TMC3    O1 8023   0.291   3.487  11.940 -0.2306 -0.1142 -0.0368
  540TMC3    O2 8024   0.693   3.545  11.658  0.3848  0.2598  0.1002
  541MPD2     C 8025   4.287   0.115  13.261  0.0816 -0.0547 -0.1439
  541MPD2    C1 8026   4.326   4.724  13.191 -0.1763 -0.0237  0.5107
  541MPD2    C2 8027   4.346   0.002  13.052  1.4801 -0.5458 -0.4187
  541MPD2    C3 8028   4.323   0.113  12.975  0.3502  0.0619  0.3558
  541MPD2    C4 8029   4.276   0.224  13.044  0.1624 -0.3990 -0.0986
  541MPD2    C5 8030   4.258   0.223  13.180  0.2792 -0.2410  0.3665
  541MPD2     H 8031   4.371   4.630  13.007  1.8864 -0.2254 -0.8769
  541MPD2    H1 8032   4.258   0.318  12.994  2.3117 -0.6597 -1.4105
  541MPD2    H2 8033   4.279   0.104  13.368  1.1866 -3.4857 -0.4014
  541MPD2    H3 8034   4.212   0.310  13.225 -1.0010 -0.3743 -0.6893
  541MPD2     N 8035   4.309   0.114  12.838 -0.2746  0.1750 -0.6414
  541MPD2    H5 8036   4.265   0.195  12.794 -0.6806  1.1698  1.5733
  541MPD2    N1 8037   4.339   4.593  13.244 -0.1783  0.4616 -0.0557
  541MPD2    H7 8038   4.353   4.520  13.174 -0.0791  0.5891 -0.1707
  542TMC3    C1 8039   4.261   0.015  12.632 -0.5328  0.2120  1.0916
  542TMC3    C2 8040   4.309   4.664  12.525  0.0670  0.1607  0.4802
  542TMC3    C3 8041   4.222   4.632  12.427 -0.1537 -0.1664  0.1558
  542TMC3    C4 8042   4.127   0.053  12.647 -0.2845 -0.0346 -0.6295
  542TMC3    C5 8043   4.043   0.026  12.548 -0.3159  0.5029 -0.2426
  542TMC3    C6 8044   4.085   4.669  12.441 -0.7258 -0.3922 -0.1297
  542TMC3     C 8045   4.324   4.722  12.760  0.2188 -0.1599 -0.8778
  542TMC3     O 8046   4.384   4.617  12.786 -0.3186 -0.6503 -0.1118
  542TMC3     H 8047   4.410   4.626  12.534 -0.2277 -0.7462  0.0193
  542TMC3    H1 8048   4.090   0.108  12.733 -0.7829 -0.4627 -0.5695
  542TMC3    H2 8049   4.012   4.635  12.368  0.2369  0.0248 -1.2934
  542TMC3    C7 8050   3.906   0.045  12.568  0.1092 -0.6474 -0.5772
  542TMC3    C8 8051   4.270   4.553  12.314 -0.4844 -0.0786  0.8674
  542TMC3    O1 8052   3.869   0.059  12.683 -0.0781 -0.3719  0.3133
  542TMC3    O2 8053   4.188   4.494  12.244  0.3595 -0.1928  0.2009
  543TMC3    C1 8054   3.968   0.403  17.101 -0.7084 -0.9759  0.1726
  543TMC3    C2 8055   4.051   0.317  17.177  0.1457  0.1739 -0.0910
  543TMC3    C3 8056   4.020   0.189  17.191  0.5486  0.8621  0.0835
  543TMC3    C4 8057   3.846   0.358  17.056 -0.1141  0.4617  0.4461
  543TMC3    C5 8058   3.816   0.219  17.078  0.2254 -0.9897 -0.2496
  543TMC3    C6 8059   3.906   0.136  17.131 -0.3254 -0.4593 -0.1622
  543TMC3     C 8060   4.047   0.487  17.012  0.2246  0.8932  0.1883
  543TMC3     O 8061   4.170   0.483  17.029  0.5642  0.3088 -0.0733
  543TMC3     H 8062   4.153   0.344  17.203 -0.4541  3.1123 -0.7321
  543TMC3    H1 8063   3.777   0.425  17.007 -1.5820 -0.1393  1.6987
  543TMC3    H2 8064   3.884   0.029  17.131 -1.5430 -0.2102  0.6007
  543TMC3    C7 8065   3.684   0.174  17.096 -0.5925 -0.1668  0.5949
  543TMC3    C8 8066   4.121   0.099  17.254 -0.5465 -0.5877  0.2945
  543TMC3    O1 8067   3.666   0.060  17.134 -0.2000 -0.3424  0.5964
  543TMC3    O2 8068   4.234   0.144  17.270 -0.1219  0.1995 -0.4648
  544MPD2     C 8069   4.291   4.367  17.420  0.0433 -0.2545  0.2849
  544MPD2    C1 8070   4.359   4.477  17.375  0.2473  1.0476  0.1129
  544MPD2    C2 8071   4.289   4.589  17.333 -0.0498 -0.7172  0.6632
  544MPD2    C3 8072   4.146   4.595  17.342 -0.1810  0.3616  0.5462
  544MPD2    C4 8073   4.082   4.483  17.404  0.1874  1.3882 -0.3502
  544MPD2    C5 8074   4.156   4.366  17.433 -0.3121  0.0427 -0.3687
  544MPD2     H 8075   4.339   4.673  17.287 -0.3816  0.4037  2.3452
  544MPD2    H1 8076   3.975   4.467  17.418  0.8533 -0.6245  2.3393
  544MPD2    H2 8077   4.347   4.284  17.461 -1.0101 -1.5952 -1.0060
  544MPD2    H3 8078   4.109   4.274  17.467 -0.1770 -0.4217 -1.4468
  544MPD2     N 8079   4.072   4.701  17.299 -0.3592 -0.6185 -0.3798
  544MPD2    H5 8080   3.972   4.693  17.311 -0.2221  0.8828  1.8000
  544MPD2    N1 8081   4.499   4.457  17.359  0.3771 -0.2441 -0.4565
  544MPD2    H7 8082   4.526   4.367  17.397  2.0110  0.4883  0.1131
  545TMC3    C1 8083   0.003   4.498  17.311  0.2566  0.2320  0.0156
  545TMC3    C2 8084   0.085   4.580  17.240 -0.6028 -0.6635  0.0681
  545TMC3    C3 8085   0.221   4.560  17.247  0.2053  0.2055 -0.3442
  545TMC3    C4 8086   0.045   4.386  17.368 -0.0702  0.1590  0.4029
  545TMC3    C5 8087   0.183   4.371  17.377 -0.1308  0.4809 -0.8757
  545TMC3    C6 8088   0.273   4.453  17.315  0.3111  0.0564  0.2814
  545TMC3     C 8089   4.586   4.544  17.293 -0.5845 -0.0068 -0.3168
  545TMC3     O 8090   4.554   4.651  17.239  0.0600 -0.1593 -0.1358
  545TMC3     H 8091   0.055   4.665  17.180 -0.0195 -0.7532 -0.3445
  545TMC3    H1 8092   4.694   4.316  17.403 -1.6117  2.4125  1.6244
  545TMC3    H2 8093   0.381   4.446  17.323  0.3184 -1.6383 -1.2775
  545TMC3    C7 8094   0.231   4.284  17.469 -0.5264 -0.4634  0.2854
  545TMC3    C8 8095   0.308   4.640  17.160  0.2848  0.1182 -0.7135
  545TMC3    O1 8096   0.346   4.238  17.456 -0.6437 -0.5642  0.1191
  545TMC3    O2 8097   0.253   4.706  17.072  0.7880 -0.1127  0.9964
  546MPD2     C 8098   0.217   1.268   0.117  0.7440 -0.4515  0.5059
  546MPD2    C1 8099   0.251   1.270  17.684  0.2790 -0.2208  0.5518
  546MPD2    C2 8100   0.311   1.386  17.636 -0.4872  1.2399  0.0006
  546MPD2    C3 8101   0.354   1.491   0.018 -0.4145  0.2634  0.0420
  546MPD2    C4 8102   0.329   1.481   0.154 -0.3047  0.9147  0.4518
  546MPD2    C5 8103   0.254   1.377   0.197  0.7207 -0.5245  0.4807
  546MPD2     H 8104   0.325   1.395  17.528 -0.2391 -1.4397 -0.1928
  546MPD2    H1 8105   0.355   1.559   0.225  2.3719 -0.0208  0.5060
  546MPD2    H2 8106   0.159   1.189   0.161 -0.5213  0.1129 -0.1491
  546MPD2    H3 8107   0.221   1.387   0.300 -2.5364  0.2854 -0.6611
  546MPD2     N 8108   0.412   1.614  17.678 -0.2878 -1.0155  0.5420
  546MPD2    H5 8109   0.433   1.691   0.043 -0.2793 -1.4906  1.1145
  546MPD2    N1 8110   0.225   1.150  17.605 -0.6809 -0.3288 -0.7259
  546MPD2    H7 8111   0.169   1.081  17.653 -1.6198 -0.1992 -1.6308
  547TMC3    C1 8112   0.223   0.996  17.425 -0.1677  0.0459 -0.7436
  547TMC3    C2 8113   0.271   0.971  17.296  0.0378 -0.1154 -0.3883
  547TMC3    C3 8114   0.232   0.852  17.235  0.2588  0.1215  0.0620
  547TMC3    C4 8115   0.150   0.908  17.500 -0.9191  0.9161 -0.2722
  547TMC3    C5 8116   0.108   0.798  17.433 -0.4320 -0.3065 -0.3011
  547TMC3    C6 8117   0.150   0.764  17.304 -0.8454  0.0533 -0.5237
  547TMC3     C 8118   0.263   1.124  17.473  1.0704  0.3508  0.1767
  547TMC3     O 8119   0.340   1.188  17.400 -0.5373  0.5920  0.2400
  547TMC3     H 8120   0.338   1.041  17.248  3.3705 -1.6222  2.0739
  547TMC3    H1 8121   0.109   0.928  17.599  0.7318 -1.0732  0.8271
  547TMC3    H2 8122   0.140   0.663  17.266  0.6418 -1.1083  2.1515
  547TMC3    C7 8123   0.020   0.710  17.501  0.3443 -0.0788 -0.1958
  547TMC3    C8 8124   0.266   0.813  17.101 -0.1324 -0.2630  0.1885
  547TMC3    O1 8125   0.002   0.725  17.618  0.4862 -0.0429  0.0747
  547TMC3    O2 8126   0.228   0.699  17.072  0.1482  0.0521  0.2316
  548MPD2     C 8127   4.513   1.639  12.610 -0.5640 -0.5054 -0.5129
  548MPD2    C1 8128   4.456   1.520  12.578  0.2025  0.3982  0.3394
  548MPD2    C2 8129   4.529   1.408  12.555 -0.4503  0.1494  0.0059
  548MPD2    C3 8130   4.668   1.417  12.561  0.1936 -0.4793 -0.1316
  548MPD2    C4 8131   0.003   1.537  12.603 -0.4411  0.4411  1.0407
  548MPD2    C5 8132   4.647   1.642  12.637 -0.5128 -0.6628  0.0258
  548MPD2     H 8133   4.484   1.312  12.532 -0.5091  0.2772 -0.4123
  548MPD2    H1 8134   0.110   1.552  12.618  0.6124 -0.9800 -5.0613
  548MPD2    H2 8135   4.457   1.728  12.635  2.1493  1.1054 -0.1676
  548MPD2    H3 8136   4.685   1.737  12.675  1.6598 -0.8908 -1.5407
  548MPD2     N 8137   0.020   1.302  12.533 -0.1918 -0.3966  0.1424
  548MPD2    H5 8138   4.699   1.222  12.491 -1.1701 -0.1266  0.6893
  548MPD2    N1 8139   4.317   1.519  12.583  0.3367  0.2676 -0.2360
  548MPD2    H7 8140   4.275   1.610  12.600  0.3482  0.4115 -0.9748
  549TMC3    C1 8141   4.088   1.462  12.573 -0.4192  0.0830 -0.8464
  549TMC3    C2 8142   4.056   1.594  12.561 -0.2109 -0.3541  0.1537
  549TMC3    C3 8143   3.932   1.626  12.605 -0.0585 -0.7954 -0.7722
  549TMC3    C4 8144   3.998   1.367  12.622  0.1206 -0.1918  0.0102
  549TMC3    C5 8145   3.872   1.407  12.653  0.0358  0.1939  0.1190
  549TMC3    C6 8146   3.842   1.541  12.654 -0.6311 -0.1205 -0.3262
  549TMC3     C 8147   4.229   1.418  12.566 -0.1072  0.6934 -0.2883
  549TMC3     O 8148   4.258   1.302  12.540  0.1503 -0.0557 -0.5428
  549TMC3     H 8149   4.117   1.674  12.520 -0.0270 -0.1161  0.8911
  549TMC3    H1 8150   4.032   1.264  12.623 -0.5696 -0.4280 -1.1197
  549TMC3    H2 8151   3.757   1.579  12.709 -0.8915 -1.4627  0.2103
  549TMC3    C7 8152   3.787   1.316  12.735 -0.5515  0.2363 -0.6420
  549TMC3    C8 8153   3.873   1.746  12.564  0.2395 -0.2458 -0.0209
  549TMC3    O1 8154   3.706   1.368  12.816 -0.0925  0.5839 -0.7194
  549TMC3    O2 8155   3.759   1.751  12.527 -0.4104  0.6738  0.2869
  550TMC3    C1 8156   3.654   4.300  12.601 -0.1795 -0.6255 -0.3566
  550TMC3    C2 8157   3.652   4.370  12.721 -0.0918 -0.5000 -0.1456
  550TMC3    C3 8158   3.602   4.497  12.720  0.2280  0.5800 -0.6903
  550TMC3    C4 8159   3.599   4.351  12.488 -0.5585 -0.0688 -0.0152
  550TMC3    C5 8160   3.535   4.468  12.509 -0.1411 -0.0661 -0.0418
  550TMC3    C6 8161   3.537   4.548  12.620  0.4468 -0.0254  0.1757
  550TMC3     C 8162   3.719   4.169  12.593 -0.0506 -0.1593  0.1086
  550TMC3     O 8163   3.761   4.131  12.699  0.3458 -0.5151 -0.2771
  550TMC3     H 8164   3.681   4.321  12.814 -0.7387  0.1375  0.3971
  550TMC3    H1 8165   3.584   4.298  12.395  1.6297 -0.8563  0.0825
  550TMC3    H2 8166   3.474   4.637  12.622 -0.1606 -0.4110 -1.1507
  550TMC3    C7 8167   3.452   4.525  12.399  0.2717  0.4109  0.6655
  550TMC3    C8 8168   3.628   4.587  12.829  0.1563 -0.3557  0.0858
  550TMC3    O1 8169   3.358   4.598  12.430 -0.1528  0.2431  0.1644
  550TMC3    O2 8170   3.555   4.683  12.843 -0.0581 -0.1372 -0.3693
  551TMC3    C1 8171   1.324   2.484  13.634 -0.0040  0.1059  0.1907
  551TMC3    C2 8172   1.411   2.525  13.542  1.2143 -0.4299  0.2562
  551TMC3    C3 8173   1.505   2.618  13.582  0.0677  0.7550 -0.8576
  551TMC3    C4 8174   1.327   2.510  13.769  0.8420  0.5109 -0.7347
  551TMC3    C5 8175   1.427   2.594  13.808  0.3814 -0.4981 -0.4417
  551TMC3    C6 8176   1.518   2.646  13.718  0.2811 -0.1231  0.6269
  551TMC3     C 8177   1.240   2.372  13.603  0.4265 -0.3126  0.1177
  551TMC3     O 8178   1.273   2.311  13.504  0.1553 -0.3159  0.4608
  551TMC3     H 8179   1.400   2.507  13.436 -0.3569 -0.4444  0.4125
  551TMC3    H1 8180   1.257   2.466  13.839  1.6637  1.1280  0.4742
  551TMC3    H2 8181   1.592   2.716  13.754  1.4945 -0.8489 -0.4433
  551TMC3    C7 8182   1.413   2.661  13.939 -0.5643  0.9596 -0.3348
  551TMC3    C8 8183   1.613   2.663  13.498  0.6961  0.0673 -0.1933
  551TMC3    O1 8184   1.510   2.666  14.014  0.0298  0.0858 -0.5621
  551TMC3    O2 8185   1.727   2.672  13.539  0.2608 -0.1015 -0.0480
  552MPD2     C 8186   2.880   4.364  13.906  0.2106  0.8825 -0.1957
  552MPD2    C1 8187   2.948   4.246  13.940 -0.5680  0.7611 -0.5810
  552MPD2    C2 8188   3.067   4.254  14.005 -0.9128 -0.2543 -0.3619
  552MPD2    C3 8189   3.117   4.385  14.041 -0.5761 -0.4037  0.3807
  552MPD2    C4 8190   3.031   4.499  14.026 -0.5630  0.3489  0.2185
  552MPD2    C5 8191   2.919   4.488  13.949 -0.1648 -0.1403 -0.1408
  552MPD2     H 8192   3.133   4.169  14.015  0.2453  0.6515 -0.4235
  552MPD2    H1 8193   3.070   4.599  14.047  0.3620  0.3015 -1.2422
  552MPD2    H2 8194   2.789   4.360  13.847 -0.4799 -1.4114  0.9995
  552MPD2    H3 8195   2.860   4.576  13.926 -1.1753 -1.3333 -2.1000
  552MPD2     N 8196   3.250   4.395  14.087 -0.5209  0.0575 -0.1167
  552MPD2    H5 8197   3.305   4.310  14.088 -1.1222 -0.3025  1.7099
  552MPD2    N1 8198   2.907   4.120  13.891 -0.2887 -0.2592  0.1364
  552MPD2    H7 8199   2.972   4.044  13.904 -1.7097 -1.3821  0.6730
  553TMC3    C1 8200   2.788   3.961  13.748 -0.2638  0.2753  0.5058
  553TMC3    C2 8201   2.716   3.946  13.632 -0.0121 -0.2305  0.2293
  553TMC3    C3 8202   2.719   3.824  13.562  0.4631 -0.8805  0.5575
  553TMC3    C4 8203   2.846   3.849  13.798  0.2027 -0.6371  0.0794
  553TMC3    C5 8204   2.854   3.734  13.722  0.5886 -0.4683 -0.5949
  553TMC3    C6 8205   2.785   3.715  13.608  0.1865 -0.2248 -0.6133
  553TMC3     C 8206   2.796   4.097  13.807  0.1508 -0.2543  0.4370
  553TMC3     O 8207   2.705   4.173  13.771  0.3664  0.1270 -0.7579
  553TMC3     H 8208   2.673   4.034  13.584 -0.4373  0.8152  2.5263
  553TMC3    H1 8209   2.899   3.856  13.893  3.9511  0.8987 -2.1054
  553TMC3    H2 8210   2.794   3.621  13.555  1.0568  0.4155 -1.6004
  553TMC3    C7 8211   2.917   3.619  13.777 -0.1930 -0.3396 -0.4751
  553TMC3    C8 8212   2.731   3.832  13.419  0.4153  0.2088  0.8575
  553TMC3    O1 8213   2.865   3.508  13.764  0.2633  0.4102 -0.0007
  553TMC3    O2 8214   2.781   3.739  13.355 -0.0951  0.6910  0.5241
  554TMC3    C1 8215   4.538   2.738  11.677 -0.1624 -0.1171 -0.0003
  554TMC3    C2 8216   4.459   2.729  11.565  0.3323 -0.1649 -0.4162
  554TMC3    C3 8217   4.470   2.835  11.473 -0.1120  0.1240  0.0794
  554TMC3    C4 8218   4.613   2.849  11.712  0.2233 -0.0532  0.7996
  554TMC3    C5 8219   4.613   2.950  11.618  0.9134  0.1062  0.0374
  554TMC3    C6 8220   4.554   2.944  11.497 -0.1706  0.6587  0.1095
  554TMC3     C 8221   4.524   2.623  11.766  0.7715  0.3173 -0.2811
  554TMC3     O 8222   4.434   2.541  11.737 -0.1129  0.2824  0.4147
  554TMC3     H 8223   4.400   2.641  11.540  0.1848 -0.0200 -0.5759
  554TMC3    H1 8224   4.678   2.862  11.799  0.3121 -0.5794  0.8098
  554TMC3    H2 8225   4.577   3.020  11.424  1.4675 -0.7055 -0.7985
  554TMC3    C7 8226   4.696   3.064  11.653 -0.0573 -0.0955  0.0972
  554TMC3    C8 8227   4.441   2.819  11.332 -0.3787  0.2534  0.1283
  554TMC3    O1 8228   4.718   3.084  11.771  0.9991 -0.4437 -0.0899
  554TMC3    O2 8229   4.519   2.872  11.255  0.1729 -0.2198  0.6830
  555TMC3    C1 8230   4.210   2.494  15.036  0.0927  0.7007 -0.0746
  555TMC3    C2 8231   4.231   2.590  15.133 -0.3479  0.0584  0.4721
  555TMC3    C3 8232   4.281   2.557  15.256  0.7704  0.2378  0.4726
  555TMC3    C4 8233   4.226   2.363  15.071  0.0371  0.0192 -0.9440
  555TMC3    C5 8234   4.252   2.333  15.209  0.5642  0.0348 -0.0349
  555TMC3    C6 8235   4.280   2.429  15.308  0.1785  0.6141  0.1790
  555TMC3     C 8236   4.196   2.533  14.899 -0.4368 -0.3532 -0.4237
  555TMC3     O 8237   4.251   2.454  14.824 -0.0008 -0.6630  0.5261
  555TMC3     H 8238   4.221   2.695  15.110 -0.7661 -0.0826 -0.0089
  555TMC3    H1 8239   4.203   2.286  14.998 -3.0192  0.4187 -0.4189
  555TMC3    H2 8240   4.331   2.402  15.400 -0.9232  0.4767  0.7440
  555TMC3    C7 8241   4.224   2.193  15.256  0.0386  0.2560 -0.7536
  555TMC3    C8 8242   4.301   2.674  15.354 -0.9362  0.2526  0.5506
  555TMC3    O1 8243   4.219   2.177  15.374 -0.3245  0.2928  0.2890
  555TMC3    O2 8244   4.243   2.781  15.340 -0.3002  0.1623 -0.1172
  556MPD2     C 8245   1.911   4.165  10.502 -0.0538 -0.2458 -0.2911
  556MPD2    C1 8246   1.955   4.091  10.609  0.3814  0.4824  0.6720
  556MPD2    C2 8247   1.922   3.958  10.610  0.1799 -0.0459  0.2055
  556MPD2    C3 8248   1.836   3.901  10.516 -0.3772  0.6149  0.3774
  556MPD2    C4 8249   1.794   3.978  10.413  0.2702  0.0961 -0.1380
  556MPD2    C5 8250   1.844   4.103  10.396 -0.2976  0.3023  0.1540
  556MPD2     H 8251   1.957   3.900  10.695 -0.9470 -0.1724  0.5902
  556MPD2    H1 8252   1.725   3.945  10.337  0.3703  0.3454 -0.3372
  556MPD2    H2 8253   1.923   4.273  10.501 -1.3842 -0.0846  0.0573
  556MPD2    H3 8254   1.808   4.164  10.314 -1.1139  1.9388  1.7145
  556MPD2     N 8255   1.811   3.763  10.520 -0.5400 -0.7351  0.4640
  556MPD2    H5 8256   1.850   3.710  10.597 -0.3272  0.0200  0.8806
  556MPD2    N1 8257   2.014   4.138  10.733  0.0337 -0.1797  0.0163
  556MPD2    H7 8258   2.036   4.068  10.802 -1.5119  0.7155  1.4205
  557TMC3    C1 8259   1.718   3.562  10.481  0.1597 -0.6859  0.4699
  557TMC3    C2 8260   1.680   3.469  10.386 -0.2221  0.0406 -0.2672
  557TMC3    C3 8261   1.694   3.333  10.419  0.7315 -0.0927 -0.0019
  557TMC3    C4 8262   1.752   3.531  10.610 -0.6342  0.3448 -0.1721
  557TMC3    C5 8263   1.748   3.397  10.638  0.1100  0.9684 -0.8297
  557TMC3    C6 8264   1.722   3.294  10.551 -0.0414 -0.3725 -0.1082
  557TMC3     C 8265   1.744   3.698  10.426 -0.3701  1.5074 -0.4312
  557TMC3     O 8266   1.713   3.727  10.310 -0.0080 -0.1665 -0.4284
  557TMC3     H 8267   1.654   3.497  10.284 -1.4670  0.7079  0.2257
  557TMC3    H1 8268   1.756   3.600  10.694  1.9232 -2.1307  1.7392
  557TMC3    H2 8269   1.719   3.190  10.581 -0.0818 -1.2287 -3.0933
  557TMC3    C7 8270   1.795   3.357  10.772 -0.0020  0.2588  0.2965
  557TMC3    C8 8271   1.654   3.242  10.317 -0.2157 -0.2428  0.5264
  557TMC3    O1 8272   1.735   3.273  10.834  0.1990  0.4182  0.5655
  557TMC3    O2 8273   1.578   3.286  10.233 -0.1270  0.0518  0.0732
  558TMC3    C1 8274   0.060   2.103  10.228  0.2987  0.0254 -0.3359
  558TMC3    C2 8275   4.693   2.002  10.261  0.5385  0.6232  0.5475
  558TMC3    C3 8276   4.571   2.004  10.202 -1.3459  1.0120 -0.9688
  558TMC3    C4 8277   0.028   2.203  10.137 -0.3740  0.8199  0.2171
  558TMC3    C5 8278   4.627   2.199  10.083 -0.0131 -0.2489 -0.4294
  558TMC3    C6 8279   4.541   2.099  10.108 -0.6698  0.1071  0.0869
  558TMC3     C 8280   0.202   2.062  10.240 -0.1386  0.3329 -0.4982
  558TMC3     O 8281   0.292   2.147  10.248  0.4333  0.3259 -0.0135
  558TMC3     H 8282   0.003   1.921  10.325 -2.7159 -0.0610  1.4034
  558TMC3    H1 8283   0.098   2.281  10.110  1.8527 -1.3241 -0.2889
  558TMC3    H2 8284   4.447   2.107  10.056 -1.7496 -0.7241  1.9178
  558TMC3    C7 8285   4.637   2.243   9.943  0.3493 -0.3604  1.0124
  558TMC3    C8 8286   4.453   1.934  10.257  0.5666 -0.0226  0.0239
  558TMC3    O1 8287   4.631   2.361   9.919 -0.0241 -0.1826  0.1337
  558TMC3    O2 8288   4.347   1.936  10.195 -0.0296 -0.4370 -0.2436
  559MPD2     C 8289   4.526   2.336  10.907  0.0939 -0.7546 -0.2007
  559MPD2    C1 8290   4.539   2.199  10.928 -0.0572 -0.0416 -0.2748
  559MPD2    C2 8291   4.630   2.158  11.027  0.1424  0.1726  0.2386
  559MPD2    C3 8292   4.696   2.251  11.105  0.1849  0.1978  0.0880
  559MPD2    C4 8293   4.679   2.386  11.077  0.0749  0.0336  0.5738
  559MPD2    C5 8294   4.599   2.423  10.984  0.4654 -0.0221  0.1574
  559MPD2     H 8295   4.660   2.055  11.047 -1.2245 -0.2449  0.1110
  559MPD2    H1 8296   4.720   2.461  11.143  1.5203  0.1646 -0.4816
  559MPD2    H2 8297   4.453   2.363  10.832  1.1361 -1.2051 -1.3715
  559MPD2    H3 8298   4.580   2.527  10.958  3.0137  0.2591 -0.5721
  559MPD2     N 8299   0.071   2.208  11.196 -0.0882 -0.0102  0.5300
  559MPD2    H5 8300   0.084   2.108  11.205 -1.4811 -0.2861 -0.6343
  559MPD2    N1 8301   4.445   2.119  10.861 -0.3327 -0.0736  0.1980
  559MPD2    H7 8302   4.391   2.166  10.789  0.1234 -0.3415 -0.3151
  560TMC3    C1 8303   0.242   2.216  11.361 -0.3909 -0.1878 -0.1474
  560TMC3    C2 8304   0.221   2.085  11.396  0.0845 -0.2411  0.7509
  560TMC3    C3 8305   0.303   2.021  11.481 -0.2776  0.4675  0.4106
  560TMC3    C4 8306   0.340   2.292  11.418  0.0559 -0.4318 -0.0211
  560TMC3    C5 8307   0.410   2.231  11.523  0.2335  1.3078  0.1946
  560TMC3    C6 8308   0.405   2.094  11.546 -0.2868  0.8088  0.6471
  560TMC3     C 8309   0.171   2.285  11.253 -0.3831 -0.5982  0.2718
  560TMC3     O 8310   0.195   2.399  11.223 -0.0175  0.5629  0.1403
  560TMC3     H 8311   0.148   2.027  11.342 -0.0835 -0.8306  1.6320
  560TMC3    H1 8312   0.348   2.397  11.392  0.5067 -1.0029 -2.1577
  560TMC3    H2 8313   0.479   2.047  11.610 -1.8909 -0.8640  1.2530
  560TMC3    C7 8314   0.460   2.321  11.630 -0.0075 -0.1932  0.0231
  560TMC3    C8 8315   0.317   1.883  11.437  0.3785 -0.9515 -0.0506
  560TMC3    O1 8316   0.461   2.274  11.741 -0.0559 -0.7272 -0.4833
  560TMC3    O2 8317   0.211   1.832  11.413  0.0133 -0.4040 -0.4897
  561TMC3    C1 8318   2.260   1.059  11.442 -0.3604  0.2855 -0.9033
  561TMC3    C2 8319   2.180   1.024  11.548 -0.2689 -0.0917 -0.0307
  561TMC3    C3 8320   2.194   1.079  11.672  0.4211 -0.0156 -0.2730
  561TMC3    C4 8321   2.363   1.148  11.467  1.0682  0.0507  0.4768
  561TMC3    C5 8322   2.374   1.201  11.598 -0.1442  0.6157  0.3823
  561TMC3    C6 8323   2.289   1.168  11.697  0.7736 -0.3532 -0.3472
  561TMC3     C 8324   2.199   1.057  11.310  0.6259 -0.2530  0.2610
  561TMC3     O 8325   2.077   1.075  11.313  0.4328  0.0469 -0.6991
  561TMC3     H 8326   2.085   0.975  11.529  0.0074 -0.9487  0.7601
  561TMC3    H1 8327   2.433   1.175  11.389  3.4658 -0.9830  2.2773
  561TMC3    H2 8328   2.305   1.203  11.799 -3.3953 -1.5092  0.7008
  561TMC3    C7 8329   2.423   1.340  11.613  0.1517 -0.1506 -0.3292
  561TMC3    C8 8330   2.113   1.025  11.782  0.1442  0.6197  0.8028
  561TMC3    O1 8331   2.361   1.403  11.700 -0.2890 -0.0388 -0.1008
  561TMC3    O2 8332   2.066   0.913  11.773 -0.1678  0.9675  0.0641
  562TMC3    C1 8333   3.933   2.858  15.496  0.5150  0.2485  0.3319
  562TMC3    C2 8334   3.939   2.918  15.376  0.6244  0.1720 -0.0985
  562TMC3    C3 8335   3.913   2.841  15.262  0.2713  0.0840  0.5588
  562TMC3    C4 8336   3.931   2.723  15.509  0.9368  0.3245  0.7165
  562TMC3    C5 8337   3.915   2.648  15.398  0.1699 -0.3800 -0.3388
  562TMC3    C6 8338   3.914   2.701  15.269  0.1780  0.5144 -1.0622
  562TMC3     C 8339   3.900   2.932  15.615  0.8708  0.2426  0.1938
  562TMC3     O 8340   3.938   2.889  15.723 -0.4309  0.2148 -0.2731
  562TMC3     H 8341   3.966   3.023  15.365 -0.9330  1.0919  4.8919
  562TMC3    H1 8342   3.895   2.685  15.604 -0.3133  3.1835  1.3639
  562TMC3    H2 8343   3.905   2.632  15.185  0.8445 -1.4141  0.4387
  562TMC3    C7 8344   3.919   2.504  15.405 -0.3988  0.1608  0.4598
  562TMC3    C8 8345   3.961   2.902  15.137 -0.3828 -0.3707  0.2438
  562TMC3    O1 8346   3.906   2.433  15.305 -0.4282 -0.0702 -0.0340
  562TMC3    O2 8347   4.025   2.831  15.064  0.9963  0.3382 -0.6661
  563MPD2     C 8348   1.395   3.974  15.499  0.3966 -0.1165  0.4150
  563MPD2    C1 8349   1.352   4.057  15.601  0.3341  0.2107 -0.7268
  563MPD2    C2 8350   1.436   4.165  15.642 -0.3081  0.3981 -0.5296
  563MPD2    C3 8351   1.562   4.186  15.582 -0.0427 -0.2479  0.1129
  563MPD2    C4 8352   1.599   4.094  15.480 -0.4162  0.1954 -0.1203
  563MPD2    C5 8353   1.519   3.983  15.446 -0.1256 -0.0317 -0.3733
  563MPD2     H 8354   1.402   4.238  15.715  0.3465  1.9292 -1.7439
  563MPD2    H1 8355   1.702   4.096  15.445 -1.1653  1.2308 -2.2154
  563MPD2    H2 8356   1.342   3.883  15.473 -0.4751  0.1074  1.4142
  563MPD2    H3 8357   1.556   3.908  15.378  0.8516  0.3998 -0.3183
  563MPD2     N 8358   1.641   4.285  15.641 -0.5677 -0.3386  0.3710
  563MPD2    H5 8359   1.599   4.351  15.705  0.5908  1.1678 -0.4239
  563MPD2    N1 8360   1.225   4.028  15.659 -0.4745 -0.6109 -0.4218
  563MPD2    H7 8361   1.187   3.938  15.630  0.2099 -1.0183 -0.0620
  564TMC3    C1 8362   1.035   4.069  15.804 -0.9158  0.2048 -0.3221
  564TMC3    C2 8363   1.004   3.935  15.800 -0.1818  0.3388  0.0866
  564TMC3    C3 8364   0.947   3.880  15.912  0.0178  0.0200 -1.1764
  564TMC3    C4 8365   1.027   4.133  15.926  0.2671 -0.2052 -0.6618
  564TMC3    C5 8366   0.986   4.073  16.036  0.1003 -0.8172  0.6435
  564TMC3    C6 8367   0.934   3.944  16.026 -0.5785 -0.0280  0.7553
  564TMC3     C 8368   1.143   4.121  15.726  0.4386  0.4125 -0.0449
  564TMC3     O 8369   1.159   4.241  15.731 -0.1283 -0.7651 -0.4439
  564TMC3     H 8370   1.021   3.876  15.711 -1.7875 -0.2524  0.1645
  564TMC3    H1 8371   1.065   4.235  15.927  4.1931 -1.6430 -1.0496
  564TMC3    H2 8372   0.892   3.894  16.113  0.1889  0.5358  1.4436
  564TMC3    C7 8373   1.079   4.081  16.148 -0.6528 -0.0558  0.1690
  564TMC3    C8 8374   0.980   3.744  15.926 -0.9311 -0.6363  0.5100
  564TMC3    O1 8375   1.168   4.163  16.128 -0.2781  0.8805 -0.0101
  564TMC3    O2 8376   1.034   3.724  16.032 -0.0021 -0.0402 -1.0723
  565TMC3    C1 8377   1.939   2.167   9.286  0.1730 -0.5667  0.0285
  565TMC3    C2 8378   1.803   2.175   9.295 -0.3391  0.4565 -0.5111
  565TMC3    C3 8379   1.737   2.292   9.253  0.4996 -0.4975  0.2512
  565TMC3    C4 8380   2.009   2.282   9.254  0.7804 -0.7467 -0.0632
  565TMC3    C5 8381   1.942   2.402   9.222  0.2437  0.2855 -0.1247
  565TMC3    C6 8382   1.804   2.404   9.218 -0.4353  0.3624  0.9561
  565TMC3     C 8383   2.018   2.072   9.360 -0.3880  0.0132  0.2828
  565TMC3     O 8384   2.130   2.105   9.391 -0.5675  0.5513  0.3968
  565TMC3     H 8385   1.740   2.095   9.332 -0.1713  0.0706 -1.0623
  565TMC3    H1 8386   2.117   2.290   9.256  0.6886  0.7449 -1.5511
  565TMC3    H2 8387   1.741   2.490   9.199 -0.2074  0.3823  0.2914
  565TMC3    C7 8388   2.022   2.524   9.213  0.5214  0.4730 -0.2141
  565TMC3    C8 8389   1.592   2.304   9.275 -0.1668  0.3550  0.3030
  565TMC3    O1 8390   2.136   2.524   9.250  0.3310 -0.4073  0.0447
  565TMC3    O2 8391   1.557   2.413   9.317 -0.0621 -0.5283  0.3181
  566MPD2     C 8392   3.028   3.057  14.364  0.2026 -1.1865  1.2349
  566MPD2    C1 8393   3.100   2.940  14.382 -0.3192  0.1011 -0.5124
  566MPD2    C2 8394   3.044   2.822  14.352 -0.0412 -0.1834 -0.8703
  566MPD2    C3 8395   2.921   2.815  14.284 -0.0745 -0.5360  0.5430
  566MPD2    C4 8396   2.852   2.929  14.266 -0.4742 -0.9117 -0.8292
  566MPD2    C5 8397   2.900   3.047  14.315  0.3850 -0.6753 -0.3472
  566MPD2     H 8398   3.107   2.739  14.381 -2.4733 -1.1365  1.6952
  566MPD2    H1 8399   2.752   2.918  14.226 -0.5306  0.1346 -0.9760
  566MPD2    H2 8400   3.050   3.155  14.406 -1.0206 -1.2099  1.9102
  566MPD2    H3 8401   2.848   3.141  14.303 -0.8270 -1.5634 -2.0992
  566MPD2     N 8402   2.866   2.695  14.233 -0.5530 -0.5062 -0.1729
  566MPD2    H5 8403   2.782   2.702  14.177  0.2576  1.8346 -1.0656
  566MPD2    N1 8404   3.229   2.944  14.437 -0.0662  0.0520 -0.1016
  566MPD2    H7 8405   3.272   2.853  14.446 -1.5115 -0.5951  0.3385
  567TMC3    C1 8406   3.448   3.015  14.385 -0.1113 -0.0317 -0.4472
  567TMC3    C2 8407   3.484   3.050  14.258  0.2068  0.1713 -0.4495
  567TMC3    C3 8408   3.580   2.979  14.191  0.1803 -0.2977 -0.2327
  567TMC3    C4 8409   3.492   2.902  14.449 -1.0244 -0.6033  0.0343
  567TMC3    C5 8410   3.587   2.828  14.383  0.0890 -0.3917 -0.0057
  567TMC3    C6 8411   3.633   2.866  14.257  0.3850 -0.2213  1.2003
  567TMC3     C 8412   3.312   3.052  14.410 -0.2666  0.0122  0.1397
  567TMC3     O 8413   3.282   3.169  14.391 -0.0242 -0.1105  0.6238
  567TMC3     H 8414   3.439   3.135  14.210 -0.7358 -0.4188 -0.6053
  567TMC3    H1 8415   3.462   2.887  14.552  0.5988  1.2489  0.7678
  567TMC3    H2 8416   3.722   2.820  14.216 -2.0447 -2.0932 -1.9071
  567TMC3    C7 8417   3.659   2.720  14.450  0.5249 -0.4402 -0.4113
  567TMC3    C8 8418   3.596   2.995  14.049  0.6506 -0.4937  0.7857
  567TMC3    O1 8419   3.773   2.696  14.408  0.4116 -0.5118  0.2744
  567TMC3    O2 8420   3.511   3.058  13.988  0.4218 -0.3734  0.5879
  568MPD2     C 8421   1.449   2.393  16.540 -0.0204  0.2915 -0.1089
  568MPD2    C1 8422   1.403   2.497  16.621 -0.1880 -0.8467  0.6491
  568MPD2    C2 8423   1.380   2.625  16.564 -0.8241  0.0639 -0.0653
  568MPD2    C3 8424   1.419   2.647  16.432 -0.4316 -0.4068  0.5718
  568MPD2    C4 8425   1.459   2.539  16.353  0.4579  0.5554 -0.2716
  568MPD2    C5 8426   1.478   2.419  16.409 -0.1861  0.2645 -0.0791
  568MPD2     H 8427   1.341   2.702  16.629  2.5556  1.4024  0.3967
  568MPD2    H1 8428   1.493   2.548  16.251 -0.0803 -1.2813 -0.6107
  568MPD2    H2 8429   1.473   2.299  16.589 -0.9034  1.1813  2.0068
  568MPD2    H3 8430   1.534   2.345  16.352  0.2450  0.5871 -0.0708
  568MPD2     N 8431   1.389   2.770  16.372 -0.1567  0.2418 -0.0194
  568MPD2    H5 8432   1.354   2.836  16.441  3.3898  2.3369 -0.2296
  568MPD2    N1 8433   1.372   2.471  16.759  0.6510  0.2112 -0.1036
  568MPD2    H7 8434   1.400   2.381  16.796  0.4327  1.2026  2.5044
  569TMC3    C1 8435   1.340   2.939  16.220  0.9422 -1.3507 -0.1232
  569TMC3    C2 8436   1.367   3.026  16.323  0.1228  0.4149  0.2227
  569TMC3    C3 8437   1.303   3.139  16.330 -1.1820  0.2445  0.1681
  569TMC3    C4 8438   1.261   2.973  16.115  0.7808  0.0651 -0.2462
  569TMC3    C5 8439   1.189   3.087  16.128  0.5887 -0.0372  0.2866
  569TMC3    C6 8440   1.205   3.169  16.240  0.0563  0.3314  0.2997
  569TMC3     C 8441   1.389   2.803  16.238 -0.0021 -0.5238  0.8460
  569TMC3     O 8442   1.397   2.731  16.140  1.1324  0.2168 -0.1435
  569TMC3     H 8443   1.433   2.991  16.402  0.0710 -0.5693 -0.1589
  569TMC3    H1 8444   1.258   2.904  16.032  0.9128  1.3116 -1.2899
  569TMC3    H2 8445   1.152   3.263  16.244  0.8021  0.7330  0.6951
  569TMC3    C7 8446   1.099   3.123  16.019 -0.1355 -0.0937  0.3196
  569TMC3    C8 8447   1.315   3.220  16.445  0.2594 -0.2794  0.0671
  569TMC3    O1 8448   1.073   3.036  15.939  0.3787 -0.8882  0.1652
  569TMC3    O2 8449   1.415   3.206  16.513 -0.4227  0.0250  0.2426
  570TMC3    C1 8450   0.505   1.947  16.270  0.2802  0.0561 -0.1405
  570TMC3    C2 8451   0.577   1.984  16.162  0.8187 -0.1710  0.1110
  570TMC3    C3 8452   0.624   2.114  16.142  0.4482 -0.1805 -0.3989
  570TMC3    C4 8453   0.467   2.042  16.370  0.8845 -0.3483  0.2323
  570TMC3    C5 8454   0.506   2.175  16.344  0.0549  0.0291  0.4585
  570TMC3    C6 8455   0.592   2.204  16.243 -0.4153 -0.1666 -0.0764
  570TMC3     C 8456   0.462   1.808  16.284  0.1614 -0.5764 -0.0239
  570TMC3     O 8457   0.471   1.739  16.182  0.1794 -0.6188  0.2876
  570TMC3     H 8458   0.605   1.917  16.082  2.6748  0.2582  0.4161
  570TMC3    H1 8459   0.411   2.025  16.461 -0.2559 -0.2734 -0.4523
  570TMC3    H2 8460   0.646   2.298  16.245 -0.6051 -0.0827  0.8219
  570TMC3    C7 8461   0.467   2.286  16.432 -0.0351 -0.2802  0.2043
  570TMC3    C8 8462   0.742   2.148  16.061  0.1649 -0.3304 -0.8335
  570TMC3    O1 8463   0.433   2.252  16.547 -0.0896  0.0447  0.5319
  570TMC3    O2 8464   0.770   2.266  16.060  0.1366 -0.2021 -0.1850
  571MPD2     C 8465   3.526   3.402  17.305 -0.6146 -0.1178 -0.0435
  571MPD2    C1 8466   3.459   3.512  17.274 -0.0942  0.1436  0.1332
  571MPD2    C2 8467   3.431   3.605  17.373  0.0337  0.3513 -0.7492
  571MPD2    C3 8468   3.463   3.580  17.506 -0.1205  0.1150 -0.2644
  571MPD2    C4 8469   3.537   3.468  17.533  0.2835  0.3260 -0.5214
  571MPD2    C5 8470   3.555   3.373  17.436  0.1842 -0.5130 -0.2174
  571MPD2     H 8471   3.396   3.700  17.336  1.3389  0.8334 -0.7419
  571MPD2    H1 8472   3.573   3.445  17.632  0.1438  1.5290 -0.1924
  571MPD2    H2 8473   3.550   3.328  17.230 -0.7139  1.3065 -1.4707
  571MPD2    H3 8474   3.622   3.290  17.456  1.7587  0.5730 -0.9848
  571MPD2     N 8475   3.432   3.669  17.609 -0.3985  0.7072  0.5297
  571MPD2    H5 8476   3.471   3.655   0.004 -2.0666 -2.1224  0.8291
  571MPD2    N1 8477   3.446   3.533  17.130  0.3280  0.1321 -0.3260
  571MPD2    H7 8478   3.486   3.473  17.059  0.5462 -0.3966  0.2472
  572TMC3    C1 8479   3.326   3.828   0.032 -0.5366 -0.2328  0.4202
  572TMC3    C2 8480   3.442   3.851   0.103  0.1545  0.1178 -0.0295
  572TMC3    C3 8481   3.430   3.936   0.213 -0.1645  0.0780  1.0660
  572TMC3    C4 8482   3.199   3.870   0.071 -0.2155 -0.3044  0.0128
  572TMC3    C5 8483   3.194   3.963   0.177  0.6855  0.6611  0.1115
  572TMC3    C6 8484   3.307   3.997   0.245 -0.2274 -0.9604  0.4156
  572TMC3     C 8485   3.323   3.756  17.608 -0.0554  0.2745  0.3222
  572TMC3     O 8486   3.229   3.759  17.527  0.3914 -0.0685 -0.2428
  572TMC3     H 8487   3.542   3.832   0.066 -0.8289 -2.6033 -1.2782
  572TMC3    H1 8488   3.110   3.847   0.013  0.0676  1.6791 -1.2152
  572TMC3    H2 8489   3.307   4.072   0.323  0.6114  1.0604 -1.5253
  572TMC3    C7 8490   3.060   4.022   0.205  0.0255 -0.6582  0.4312
  572TMC3    C8 8491   3.539   3.952   0.301 -0.5567 -0.4497  0.0699
  572TMC3    O1 8492   2.960   3.983   0.144 -0.0916  1.0289 -0.5067
  572TMC3    O2 8493   3.645   3.901   0.266  0.4321  0.0865  0.0712
  573MPD2     C 8494   4.434   4.694   0.758 -0.1045 -0.2285 -0.6301
  573MPD2    C1 8495   4.313   4.634   0.742  0.3556 -0.0772 -0.4924
  573MPD2    C2 8496   4.307   4.523   0.664  0.3110 -0.2115 -0.1973
  573MPD2    C3 8497   4.422   4.472   0.600 -0.0003 -0.2872 -0.4248
  573MPD2    C4 8498   4.543   4.538   0.617 -0.4638  0.4032  0.2904
  573MPD2    C5 8499   4.545   4.654   0.684  0.6560 -0.1619 -0.1543
  573MPD2     H 8500   4.210   4.477   0.649 -0.1560  0.6661  0.1534
  573MPD2    H1 8501   4.629   4.494   0.568  0.5674  0.3847  2.1237
  573MPD2    H2 8502   4.451   0.064   0.809 -0.7578 -1.1479  1.2886
  573MPD2    H3 8503   4.638   4.706   0.698 -0.3224  0.9687  2.1199
  573MPD2     N 8504   4.423   4.346   0.532 -0.3028 -0.8547 -0.2541
  573MPD2    H5 8505   4.506   4.325   0.477 -1.1259 -0.7356 -1.5436
  573MPD2    N1 8506   4.197   4.703   0.797 -0.4213 -0.2016  0.2299
  573MPD2    H7 8507   4.225   0.058   0.852 -3.4647  0.4748  0.8364
  574TMC3    C1 8508   4.357   4.133   0.466  0.8484  0.1761  0.7837
  574TMC3    C2 8509   4.488   4.098   0.440 -0.1980  0.2737 -0.7115
  574TMC3    C3 8510   4.515   3.969   0.403  0.1992  0.4687 -0.0225
  574TMC3    C4 8511   4.252   4.044   0.454 -0.0196 -0.0776 -0.3151
  574TMC3    C5 8512   4.290   3.919   0.425  0.4904 -0.7108 -0.1742
  574TMC3    C6 8513   4.415   3.882   0.387 -0.0578 -0.2194 -0.3073
  574TMC3     C 8514   4.319   4.258   0.526  0.3687  0.1981 -0.0060
  574TMC3     O 8515   4.196   4.276   0.542 -0.2301  0.3210  0.4901
  574TMC3     H 8516   4.571   4.163   0.469 -0.0924 -1.1988  2.2945
  574TMC3    H1 8517   4.149   4.057   0.483  0.4028  0.6416  0.8172
  574TMC3    H2 8518   4.424   3.783   0.344  0.2165 -0.4315  0.2515
  574TMC3    C7 8519   4.181   3.829   0.387  0.7590 -0.4203  0.1142
  574TMC3    C8 8520   4.638   3.948   0.332  0.7363  0.0685  0.1990
  574TMC3    O1 8521   4.097   3.801   0.474  0.6801 -0.3912  0.0789
  574TMC3    O2 8522   4.671   3.830   0.314  0.1945  0.2474  0.2245
  575TMC3    C1 8523   0.754   2.530   9.544 -0.1285  0.0957 -0.6639
  575TMC3    C2 8524   0.755   2.662   9.557  0.1715  0.2225  0.6101
  575TMC3    C3 8525   0.875   2.721   9.539  0.4852  0.5438  0.4660
  575TMC3    C4 8526   0.870   2.462   9.515 -0.2476  0.6711 -0.0777
  575TMC3    C5 8527   0.987   2.525   9.492 -0.5380  0.4256  0.0713
  575TMC3    C6 8528   0.993   2.662   9.506 -0.9018 -0.4884  0.0397
  575TMC3     C 8529   0.649   2.459   9.611  0.2757  0.5883 -0.2408
  575TMC3     O 8530   0.582   2.520   9.694  0.3156  0.6140 -0.2392
  575TMC3     H 8531   0.664   2.716   9.582 -0.3436 -0.0987 -0.5528
  575TMC3    H1 8532   0.876   2.356   9.535 -1.4403  0.9820  1.9768
  575TMC3    H2 8533   1.089   2.712   9.496 -2.1354  1.7950 -0.4428
  575TMC3    C7 8534   1.108   2.457   9.443  0.2033 -0.9976  0.0343
  575TMC3    C8 8535   0.885   2.852   9.602  0.5285  0.3954  0.2473
  575TMC3    O1 8536   1.216   2.508   9.472  0.0875 -0.0095 -0.2076
  575TMC3    O2 8537   0.811   2.867   9.695 -0.4753  0.4084  0.2772
  576MPD2     C 8538   1.500   1.780  12.909 -0.9095 -0.5824  0.0772
  576MPD2    C1 8539   1.545   1.845  12.801  0.0313  0.1252 -0.1410
  576MPD2    C2 8540   1.560   1.982  12.810  0.6773 -0.0922  0.2762
  576MPD2    C3 8541   1.512   2.050  12.925 -0.4554 -0.3148 -0.1720
  576MPD2    C4 8542   1.441   1.983  13.018  0.3308 -0.8060  0.0285
  576MPD2    C5 8543   1.445   1.850  13.016 -0.0357  0.2072 -0.3888
  576MPD2     H 8544   1.616   2.036  12.735 -2.5763 -1.1434 -2.8726
  576MPD2    H1 8545   1.395   2.025  13.107 -2.1989  0.8615 -2.0734
  576MPD2    H2 8546   1.499   1.672  12.917 -1.9966 -0.6950 -1.6144
  576MPD2    H3 8547   1.394   1.797  13.096  2.2800 -2.2736 -0.5653
  576MPD2     N 8548   1.531   2.194  12.921  0.5946 -0.4188  0.2018
  576MPD2    H5 8549   1.580   2.229  12.839  1.0021  1.3416  1.1971
  576MPD2    N1 8550   1.605   1.782  12.692 -0.5746 -0.4376  0.3155
  576MPD2    H7 8551   1.643   1.845  12.622 -0.3402 -2.4308 -1.3433
  577TMC3    C1 8552   1.671   1.625  12.535 -0.0212  0.1206  0.3161
  577TMC3    C2 8553   1.719   1.496  12.516  0.7881  0.2954  0.0863
  577TMC3    C3 8554   1.771   1.474  12.391 -0.1901  0.8052 -0.4040
  577TMC3    C4 8555   1.675   1.721  12.439 -0.0805  0.1370 -0.1056
  577TMC3    C5 8556   1.715   1.688  12.317  0.0969 -0.5486 -0.1382
  577TMC3    C6 8557   1.771   1.569  12.291  0.0596 -0.4752 -0.0681
  577TMC3     C 8558   1.603   1.651  12.666 -0.4754  0.0819  0.2765
  577TMC3     O 8559   1.543   1.563  12.721  0.3356 -0.0262  0.8024
  577TMC3     H 8560   1.723   1.421  12.595 -2.3589  1.9091  1.7483
  577TMC3    H1 8561   1.636   1.821  12.454 -0.0514  0.1866 -0.3544
  577TMC3    H2 8562   1.812   1.552  12.192  0.3509  1.3685 -0.2688
  577TMC3    C7 8563   1.735   1.797  12.225  0.4022  0.5961  0.4470
  577TMC3    C8 8564   1.831   1.346  12.366  0.2946 -0.7121  0.1198
  577TMC3    O1 8565   1.834   1.786  12.156 -0.2037  0.0309 -0.2195
  577TMC3    O2 8566   1.807   1.263  12.456  0.9310  0.1396  0.2874
  578MPD2     C 8567   4.641   2.222   0.582  0.9326 -0.2492  0.1720
  578MPD2    C1 8568   0.050   2.226   0.567 -0.7724 -0.2982  0.3715
  578MPD2    C2 8569   0.128   2.194   0.676  0.4566  0.2107  0.1276
  578MPD2    C3 8570   0.074   2.161   0.800 -0.2914 -0.3203  0.1957
  578MPD2    C4 8571   4.661   2.163   0.816  0.0950 -0.4941 -0.1878
  578MPD2    C5 8572   4.584   2.194   0.707 -0.7867  0.2177  0.7932
  578MPD2     H 8573   0.235   2.183   0.663  0.5069 -0.2942  0.9885
  578MPD2    H1 8574   4.606   2.152   0.909  0.0194 -0.3219 -0.2119
  578MPD2    H2 8575   4.577   2.233   0.495  0.7556 -0.7605  0.2325
  578MPD2    H3 8576   4.476   2.203   0.710 -0.7439  0.9724  0.1522
  578MPD2     N 8577   0.161   2.113   0.905  0.0870  0.2051 -0.2392
  578MPD2    H5 8578   0.260   2.101   0.885 -0.1164  0.5358 -1.4583
  578MPD2    N1 8579   0.096   2.287   0.447  0.0809  0.2052  0.4222
  578MPD2    H7 8580   0.024   2.329   0.389 -0.7694  0.3538  1.5949
  579TMC3    C1 8581   0.231   2.067   1.119 -1.2805 -0.1603  0.1772
  579TMC3    C2 8582   0.272   2.144   1.226  0.5026 -0.2173 -0.1812
  579TMC3    C3 8583   0.396   2.113   1.285 -0.2137 -0.1331  0.1278
  579TMC3    C4 8584   0.288   1.950   1.085 -0.7884  0.1689 -0.7533
  579TMC3    C5 8585   0.382   1.907   1.166 -0.5649  0.3871 -0.2834
  579TMC3    C6 8586   0.451   1.991   1.259 -0.6566  0.2281 -0.1849
  579TMC3     C 8587   0.127   2.114   1.032 -0.3492 -0.1883  0.1914
  579TMC3     O 8588   0.039   2.175   1.089  0.1829 -0.5512 -0.7163
  579TMC3     H 8589   0.232   2.239   1.258 -0.3766 -0.2212 -1.2877
  579TMC3    H1 8590   0.241   1.887   1.010 -2.1328  2.7248 -2.0621
  579TMC3    H2 8591   0.520   1.948   1.331  0.2558  0.4812 -0.9040
  579TMC3    C7 8592   0.416   1.768   1.160  0.4924  0.3174  0.4479
  579TMC3    C8 8593   0.461   2.207   1.371  0.2646 -0.2337 -0.0152
  579TMC3    O1 8594   0.526   1.731   1.201  0.2642  0.7864 -0.5180
  579TMC3    O2 8595   0.388   2.277   1.435  0.2619 -0.3298 -0.0063
  580TMC3    C1 8596   3.803   1.425  11.926  0.4144  0.2598 -0.0799
  580TMC3    C2 8597   3.912   1.490  11.978 -0.0433 -0.0660 -0.1808
  580TMC3    C3 8598   3.979   1.417  12.069 -0.1786 -0.7352  0.1733
  580TMC3    C4 8599   3.775   1.292  11.964  0.1715 -0.3916 -0.2672
  580TMC3    C5 8600   3.846   1.231  12.060  0.1042  0.3771 -0.1293
  580TMC3    C6 8601   3.950   1.292  12.119 -0.2893  0.2904 -0.4834
  580TMC3     C 8602   3.739   1.471  11.808  0.4239  1.0824 -0.0009
  580TMC3     O 8603   3.619   1.476  11.796  0.2127 -0.2914 -0.4812
  580TMC3     H 8604   3.944   1.590  11.952 -0.5209  0.3728  0.9540
  580TMC3    H1 8605   3.679   1.249  11.935  0.5890  0.7703 -3.3628
  580TMC3    H2 8606   4.008   1.248  12.199  1.1135  1.8921 -0.6428
  580TMC3    C7 8607   3.841   1.085  12.084  0.3383 -0.0773 -1.2202
  580TMC3    C8 8608   4.096   1.465  12.129  0.3737 -0.4857 -0.5210
  580TMC3    O1 8609   3.859   1.059  12.200 -0.5176 -0.3231  0.3520
  580TMC3    O2 8610   4.103   1.590  12.128  0.1262 -0.2124 -0.9563
  581MPD2     C 8611   1.969   0.913  14.796  0.2541 -0.6050  0.1339
  581MPD2    C1 8612   1.988   1.028  14.870  0.5909  0.4521  0.6864
  581MPD2    C2 8613   1.872   1.097  14.909 -0.7209 -0.2938 -0.2186
  581MPD2    C3 8614   1.751   1.070  14.849  0.4754  0.0630  0.7179
  581MPD2    C4 8615   1.741   0.967  14.761  0.5565 -0.2732  0.2115
  581MPD2    C5 8616   1.851   0.889  14.737 -0.1962 -0.2310  0.1948
  581MPD2     H 8617   1.879   1.185  14.973  5.3346 -2.7990  2.5834
  581MPD2    H1 8618   1.655   0.935  14.704 -1.6761  2.5920  2.0016
  581MPD2    H2 8619   2.057   0.856  14.771 -2.3053 -3.4214 -2.3588
  581MPD2    H3 8620   1.856   0.825  14.650  1.4247 -0.9070  0.7887
  581MPD2     N 8621   1.639   1.154  14.880 -0.1537  0.4645  0.0166
  581MPD2    H5 8622   1.652   1.239  14.934 -0.0643 -1.2940  2.7574
  581MPD2    N1 8623   2.120   1.047  14.919  0.4303  0.6854 -0.2591
  581MPD2    H7 8624   2.175   0.965  14.897 -0.2216  0.4251 -0.9200
  582TMC3    C1 8625   2.306   1.119  15.045  0.4442 -0.5929  0.5444
  582TMC3    C2 8626   2.329   1.157  15.183 -0.1573 -0.4664 -0.3116
  582TMC3    C3 8627   2.402   1.072  15.250 -0.1162 -0.3846  0.0542
  582TMC3    C4 8628   2.367   1.010  14.982  0.8364  0.5436  0.3074
  582TMC3    C5 8629   2.419   0.919  15.067  0.6329  0.0762 -0.4855
  582TMC3    C6 8630   2.446   0.956  15.197  0.2755 -0.3466 -0.0727
  582TMC3     C 8631   2.166   1.140  15.011  0.1487 -0.2796 -0.1143
  582TMC3     O 8632   2.103   1.228  15.066  0.5311  0.2751 -0.1959
  582TMC3     H 8633   2.277   1.244  15.222  1.0921  0.3692 -0.5090
  582TMC3    H1 8634   2.350   0.987  14.878  1.4528  1.1874  0.0648
  582TMC3    H2 8635   2.507   0.880  15.244  0.3215  0.4499  1.1566
  582TMC3    C7 8636   2.325   0.812  15.052  0.3096 -0.7740 -0.2471
  582TMC3    C8 8637   2.393   1.073  15.395 -0.6301  0.4974  0.0177
  582TMC3    O1 8638   2.290   0.775  14.940 -0.0020  0.2057  0.2592
  582TMC3    O2 8639   2.319   1.165  15.434 -0.3210  0.5049 -0.2749
  583MPD2     C 8640   2.589   2.457  16.818 -0.3119  0.2725 -0.3359
  583MPD2    C1 8641   2.566   2.577  16.748  0.0083  0.1825  0.2434
  583MPD2    C2 8642   2.491   2.678  16.803 -0.6554  0.7783 -0.0819
  583MPD2    C3 8643   2.431   2.664  16.925 -1.3832 -0.1277 -0.0385
  583MPD2    C4 8644   2.432   2.540  16.980 -0.0086 -0.3664  0.6604
  583MPD2    C5 8645   2.513   2.441  16.935 -0.3945  0.1129  0.0899
  583MPD2     H 8646   2.492   2.778  16.761  0.7756 -0.1083 -2.1216
  583MPD2    H1 8647   2.377   2.505  17.067  0.2995 -0.3738  0.8500
  583MPD2    H2 8648   2.652   2.375  16.786 -1.6502 -1.0149  0.3622
  583MPD2    H3 8649   2.515   2.347  16.989  1.0902 -0.5231 -1.0421
  583MPD2     N 8650   2.352   2.771  16.986 -0.2142  0.7787  0.0697
  583MPD2    H5 8651   2.331   2.852  16.929 -0.1809  0.5330 -0.2853
  583MPD2    N1 8652   2.643   2.602  16.630 -0.2619 -0.4788  1.1037
  583MPD2    H7 8653   2.639   2.695  16.591 -2.5997 -0.6025  1.0133
  584TMC3    C1 8654   2.239   2.897  17.157 -0.0943  0.1251 -0.1367
  584TMC3    C2 8655   2.206   2.999  17.076  0.3374 -0.6273  0.1857
  584TMC3    C3 8656   2.144   3.108  17.126  0.0565  0.2719  0.6706
  584TMC3    C4 8657   2.203   2.902  17.290 -0.1116 -0.3607  0.2597
  584TMC3    C5 8658   2.126   3.004  17.331  0.5480  0.1221  0.0673
  584TMC3    C6 8659   2.101   3.116  17.257  0.3155 -0.4461  0.5216
  584TMC3     C 8660   2.306   2.764  17.110 -0.4712  0.0019  1.0359
  584TMC3     O 8661   2.313   2.681  17.200  0.2560 -0.1681  0.7863
  584TMC3     H 8662   2.233   3.006  16.971 -3.2203  0.6023 -0.6723
  584TMC3    H1 8663   2.230   2.828  17.365  2.1731  1.2417  1.0198
  584TMC3    H2 8664   2.033   3.194  17.292 -0.7531 -1.2095  0.1644
  584TMC3    C7 8665   2.081   3.001  17.472  0.2594 -0.8483  0.1581
  584TMC3    C8 8666   2.129   3.223  17.043  0.6673  0.6627  0.1005
  584TMC3    O1 8667   2.050   2.892  17.524 -0.2179  0.2078 -0.2557
  584TMC3    O2 8668   2.131   3.202  16.925 -0.4455  0.1573 -0.0784
  585MPD2     C 8669   1.620   2.015   0.536 -0.3672  0.8297 -0.6262
  585MPD2    C1 8670   1.742   1.959   0.508  0.2348 -0.4667 -0.7089
  585MPD2    C2 8671   1.771   1.899   0.387 -0.2930 -0.0091 -0.4662
  585MPD2    C3 8672   1.672   1.880   0.294 -0.5531 -0.9169 -0.3359
  585MPD2    C4 8673   1.550   1.938   0.322 -0.0007 -0.2228  0.1286
  585MPD2    C5 8674   1.527   2.008   0.440  0.2289 -0.2267 -0.4251
  585MPD2     H 8675   1.875   1.882   0.362 -0.3700 -0.5548 -0.4214
  585MPD2    H1 8676   1.468   1.928   0.252 -1.4938  0.4335  1.8149
  585MPD2    H2 8677   1.595   2.065   0.629 -0.6203 -0.8601  0.2070
  585MPD2    H3 8678   1.430   2.056   0.450 -0.0520 -1.3751  2.2668
  585MPD2     N 8679   1.688   1.822   0.173 -0.2188 -0.5572 -0.6766
  585MPD2    H5 8680   1.607   1.820   0.112  1.3357  1.6572 -2.8275
  585MPD2    N1 8681   1.839   1.969   0.618  0.0140 -0.0154  0.1238
  585MPD2    H7 8682   1.808   2.003   0.709  0.3296  0.1684  0.1634
  586TMC3    C1 8683   1.787   1.736  17.675 -0.4364 -0.2050 -0.4925
  586TMC3    C2 8684   1.903   1.720  17.601 -0.0268  0.1151 -0.0233
  586TMC3    C3 8685   1.896   1.668  17.477  0.5946 -0.1859 -0.0006
  586TMC3    C4 8686   1.667   1.710  17.625 -0.2563  0.1202 -0.1898
  586TMC3    C5 8687   1.662   1.664  17.496  0.2947 -0.2273  0.0373
  586TMC3    C6 8688   1.775   1.646  17.420  0.1530  0.2916 -0.1829
  586TMC3     C 8689   1.800   1.767   0.115 -0.3293  0.4495 -0.4252
  586TMC3     O 8690   1.908   1.747   0.163 -0.0680 -0.1841  0.0676
  586TMC3     H 8691   2.002   1.749  17.634  0.0573  0.4847 -0.6017
  586TMC3    H1 8692   1.581   1.699  17.690 -1.2603  1.7703 -1.2373
  586TMC3    H2 8693   1.764   1.624  17.314 -0.6830  0.2018 -0.0732
  586TMC3    C7 8694   1.545   1.588  17.465 -0.6890  0.0593  0.8173
  586TMC3    C8 8695   1.996   1.564  17.451 -0.0745 -0.2434  0.2471
  586TMC3    O1 8696   1.453   1.602  17.544  0.6240  0.3570  0.1456
  586TMC3    O2 8697   2.072   1.503  17.528 -0.7619  0.2794  0.4740
  587TMC3    C1 8698   3.937   4.654  16.323  0.5678 -0.2123 -0.2301
  587TMC3    C2 8699   3.931   0.057  16.274  0.0871  0.1223  0.5613
  587TMC3    C3 8700   4.049   0.125  16.236 -0.0417  0.2539  0.1217
  587TMC3    C4 8701   4.056   4.582  16.329 -0.0867 -1.0219  0.1179
  587TMC3    C5 8702   4.174   4.645  16.287  0.2310  0.1194 -0.2013
  587TMC3    C6 8703   4.165   0.051  16.233 -0.2630 -0.6100 -0.5564
  587TMC3     C 8704   3.823   4.596  16.396 -0.9466  0.2411  1.3719
  587TMC3     O 8705   3.847   4.514  16.486 -0.2191 -0.0076 -0.0169
  587TMC3     H 8706   3.839   0.115  16.284  0.8636  1.2054  1.3618
  587TMC3    H1 8707   4.062   4.475  16.348 -0.6331 -1.2780 -1.1529
  587TMC3    H2 8708   4.255   0.094  16.192  0.3165  0.0115  1.3737
  587TMC3    C7 8709   4.297   4.604  16.342  0.1242  0.7808  0.0813
  587TMC3    C8 8710   4.050   0.259  16.173  0.5476 -0.7242 -0.2438
  587TMC3    O1 8711   4.310   4.486  16.369  0.2746  0.2185  0.8032
  587TMC3    O2 8712   4.161   0.298  16.135 -0.2917 -0.1858  0.1401
  588TMC3    C1 8713   1.422   2.348  10.064  0.2354  0.1043  0.0313
  588TMC3    C2 8714   1.399   2.221  10.035 -0.2964 -0.8841 -0.2428
  588TMC3    C3 8715   1.455   2.124  10.110  0.3803 -0.2617  0.7724
  588TMC3    C4 8716   1.497   2.392  10.174  0.1931  0.0304  0.6190
  588TMC3    C5 8717   1.567   2.292  10.238  0.3146 -0.1808  0.4578
  588TMC3    C6 8718   1.539   2.160  10.213 -0.9779  0.2204  0.1848
  588TMC3     C 8719   1.346   2.452   9.997 -0.2479 -0.4109  0.3323
  588TMC3     O 8720   1.309   2.438   9.881 -0.2043  0.0588  0.5988
  588TMC3     H 8721   1.331   2.199   9.953 -0.3678 -1.6428  0.0171
  588TMC3    H1 8722   1.525   2.497  10.185  2.3566 -0.5383  0.5236
  588TMC3    H2 8723   1.563   2.090  10.293  1.9872  1.4837  0.3965
  588TMC3    C7 8724   1.625   2.331  10.366 -0.2947  0.9154  0.1265
  588TMC3    C8 8725   1.428   1.978  10.082  0.5400  0.2670  0.5610
  588TMC3    O1 8726   1.731   2.277  10.394  0.0626 -0.0394 -0.0681
  588TMC3    O2 8727   1.332   1.950  10.010 -0.9665  0.0711 -0.8768
  589TMC3    C1 8728   0.248   0.900   1.908  0.0737 -0.4349  0.3263
  589TMC3    C2 8729   0.353   0.972   1.963  0.3230  0.4858  0.2193
  589TMC3    C3 8730   0.481   0.933   1.934 -0.5911 -0.1709 -0.0157
  589TMC3    C4 8731   0.278   0.786   1.837  0.2263 -0.7452  0.2597
  589TMC3    C5 8732   0.405   0.732   1.835 -0.1594  0.2093  0.1016
  589TMC3    C6 8733   0.517   0.811   1.875 -0.0017 -0.3188  1.0734
  589TMC3     C 8734   0.124   0.973   1.867  0.1407 -0.2996 -0.0635
  589TMC3     O 8735   0.039   0.907   1.809  0.3160 -0.2290  0.2288
  589TMC3     H 8736   0.330   1.058   2.024  1.5133  0.9215  0.0540
  589TMC3    H1 8737   0.195   0.732   1.793 -1.1530  1.3253  0.3024
  589TMC3    H2 8738   0.619   0.776   1.870 -0.4190 -1.2996 -0.6530
  589TMC3    C7 8739   0.425   0.605   1.779  0.1646  1.2796 -0.2667
  589TMC3    C8 8740   0.572   1.044   1.921 -0.2267  0.1718  0.7549
  589TMC3    O1 8741   0.323   0.539   1.765 -0.2080  0.5854 -0.4404
  589TMC3    O2 8742   0.531   1.146   1.960  0.7382  0.3210  0.0980
  590MPD2     C 8743   4.587   3.669  16.789  0.1909 -0.4311 -0.5586
  590MPD2    C1 8744   4.545   3.658  16.657  0.0669 -0.6848 -0.0840
  590MPD2    C2 8745   4.630   3.704  16.550  0.0734 -0.4483  0.1311
  590MPD2    C3 8746   0.025   3.762  16.579 -0.0964  0.5347  0.2193
  590MPD2    C4 8747   0.064   3.782  16.708  0.2149  0.0429 -0.3704
  590MPD2    C5 8748   4.703   3.738  16.811 -1.1333 -0.4601 -0.9408
  590MPD2     H 8749   4.608   3.686  16.446  0.3879 -2.1961  0.3725
  590MPD2    H1 8750   0.164   3.814  16.737  0.0427 -1.2670  1.6782
  590MPD2    H2 8751   4.528   3.643  16.877  0.8570  0.2623  0.0930
  590MPD2    H3 8752   4.722   3.761  16.915 -1.6252  2.3262 -1.4521
  590MPD2     N 8753   0.093   3.811  16.470  0.1707 -0.4551 -0.4810
  590MPD2    H5 8754   0.044   3.807  16.381 -0.5706  1.9806 -0.1976
  590MPD2    N1 8755   4.432   3.581  16.623 -0.6097  0.9708 -0.2478
  590MPD2    H7 8756   4.408   3.589  16.525  0.3545  0.4468 -0.5317
  591TMC3    C1 8757   0.253   3.885  16.322 -0.4583  0.0011  0.2939
  591TMC3    C2 8758   0.187   3.810  16.229  0.1724 -0.2221 -0.1178
  591TMC3    C3 8759   0.215   3.838  16.099 -0.4940  0.0533  0.1832
  591TMC3    C4 8760   0.345   3.979  16.290  0.6767 -0.3917 -0.7287
  591TMC3    C5 8761   0.371   3.997  16.155 -0.2855  0.2884  0.4051
  591TMC3    C6 8762   0.309   3.926  16.055  0.1143 -0.5664 -0.6232
  591TMC3     C 8763   0.217   3.865  16.466  0.1728  0.3630 -0.3932
  591TMC3     O 8764   0.291   3.901  16.556 -0.2141  0.6406  0.1080
  591TMC3     H 8765   0.141   3.715  16.255 -2.1705  0.1481 -2.8216
  591TMC3    H1 8766   0.383   4.045  16.367 -1.4449  0.2120 -0.2219
  591TMC3    H2 8767   0.327   3.930  15.948  0.9405 -0.1890 -0.4722
  591TMC3    C7 8768   0.488   4.071  16.125 -0.5269 -0.1522 -0.2798
  591TMC3    C8 8769   0.158   3.759  15.995  0.3259 -0.1959 -0.2849
  591TMC3    O1 8770   0.567   4.082  16.217 -0.1982  0.1268 -0.0230
  591TMC3    O2 8771   0.230   3.730  15.901  0.3240  0.5444 -0.0759
  592MPD2     C 8772   0.449   0.670  11.489 -0.7494 -0.0283  0.7291
  592MPD2    C1 8773   0.422   0.681  11.624 -0.0336  0.4672  0.8947
  592MPD2    C2 8774   0.330   0.601  11.686 -0.1344  0.9150 -0.5704
  592MPD2    C3 8775   0.254   0.512  11.619  0.4628  0.7049  0.8568
  592MPD2    C4 8776   0.272   0.497  11.483 -0.1503  0.2071  0.0866
  592MPD2    C5 8777   0.368   0.581  11.420 -0.2464 -0.5172  0.7018
  592MPD2     H 8778   0.308   0.604  11.793  3.3409 -1.2917  0.1896
  592MPD2    H1 8779   0.224   0.418  11.425  1.1223  0.8690 -1.8497
  592MPD2    H2 8780   0.536   0.716  11.445 -1.1340 -0.1162 -0.1157
  592MPD2    H3 8781   0.384   0.577  11.313  0.8146  0.4642  0.8222
  592MPD2     N 8782   0.156   0.445  11.698 -0.3926  0.2078 -0.6719
  592MPD2    H5 8783   0.145   0.465  11.797 -1.1548  0.4248 -0.7981
  592MPD2    N1 8784   0.506   0.771  11.697 -0.6391  0.9020 -0.6828
  592MPD2    H7 8785   0.563   0.835  11.643  2.9269 -0.3995  1.4977
  593TMC3    C1 8786   0.611   0.871  11.876 -0.1626  0.1869 -0.6349
  593TMC3    C2 8787   0.586   0.930  11.998 -0.2159  0.5911  0.3080
  593TMC3    C3 8788   0.655   1.040  12.016 -0.2034  0.1355  0.7312
  593TMC3    C4 8789   0.707   0.911  11.787 -0.1851 -0.1364  0.3424
  593TMC3    C5 8790   0.784   1.019  11.824  0.2246  0.0806  0.6931
  593TMC3    C6 8791   0.756   1.082  11.939  0.5246 -0.5484 -0.3749
  593TMC3     C 8792   0.510   0.785  11.834  0.0382  0.3053  0.6821
  593TMC3     O 8793   0.448   0.724  11.918  0.3432 -0.2804  0.4768
  593TMC3     H 8794   0.498   0.904  12.057  0.0115 -0.2012  0.3012
  593TMC3    H1 8795   0.735   0.859  11.696 -0.1497  0.0172  0.2649
  593TMC3    H2 8796   0.822   1.162  11.970 -0.1144 -0.1351 -0.0644
  593TMC3    C7 8797   0.893   1.066  11.736  0.3803  0.7762  0.1366
  593TMC3    C8 8798   0.593   1.135  12.113  0.2377 -0.1131  0.7051
  593TMC3    O1 8799   0.981   1.138  11.782  0.0573  0.1596  0.1542
  593TMC3    O2 8800   0.469   1.144  12.112 -0.0356 -0.0003 -0.0804
  594MPD2     C 8801   3.886   4.652  13.744 -1.2741 -0.2126  0.2379
  594MPD2    C1 8802   3.865   4.710  13.867  0.3491 -0.1314 -0.2308
  594MPD2    C2 8803   3.953   0.086  13.897  0.6908 -0.0776  0.1829
  594MPD2    C3 8804   4.026   0.157  13.805 -0.9080 -0.7264  0.0582
  594MPD2    C4 8805   4.045   0.100  13.679 -0.6364  0.6404  0.7795
  594MPD2    C5 8806   3.969   4.711  13.650 -0.4176 -0.0181 -0.1971
  594MPD2     H 8807   3.945   0.125  13.998 -0.3000 -0.7465  0.3555
  594MPD2    H1 8808   4.110   0.142  13.603 -2.7401 -0.5616 -1.6828
  594MPD2    H2 8809   3.831   4.562  13.718  1.1526 -1.7987  0.6375
  594MPD2    H3 8810   3.991   4.651  13.562 -1.7386 -2.8692  1.4052
  594MPD2     N 8811   4.078   0.282  13.847  0.2041 -0.5576 -0.1023
  594MPD2    H5 8812   4.061   0.306  13.944 -1.8255  2.0434 -1.1037
  594MPD2    N1 8813   3.774   4.653  13.957  0.1311 -0.3622 -1.2135
  594MPD2    H7 8814   3.704   4.590  13.918 -1.1120 -0.8184  1.7308
  595TMC3    C1 8815   4.345   0.649  13.941  0.0411 -0.0010 -0.0823
  595TMC3    C2 8816   4.310   0.553  13.856 -0.3831 -0.4657  0.8589
  595TMC3    C3 8817   4.185   0.486  13.859 -0.1684  0.2158  0.5504
  595TMC3    C4 8818   4.257   0.686  14.040 -0.0792  0.0791 -0.0610
  595TMC3    C5 8819   4.131   0.633  14.034  0.6999  0.5668 -0.3767
  595TMC3    C6 8820   4.089   0.533  13.948 -0.0244 -0.6427  0.5168
  595TMC3     C 8821   4.480   0.635  13.988 -0.7531  0.7935 -0.5116
  595TMC3     O 8822   4.505   0.623  14.109 -0.8295  0.0632 -0.0036
  595TMC3     H 8823   4.388   0.533  13.784 -1.6824  0.5588 -0.8424
  595TMC3    H1 8824   4.283   0.769  14.105 -1.1498  0.3713 -0.0030
  595TMC3    H2 8825   4.004   0.470  13.974  0.3113 -1.0373  0.6724
  595TMC3    C7 8826   4.078   0.618  14.169  0.4216 -0.0296  0.0546
  595TMC3    C8 8827   4.176   0.354  13.790 -0.6820  0.1529  0.2546
  595TMC3    O1 8828   3.957   0.598  14.183 -0.4188  0.1986  0.1184
  595TMC3    O2 8829   4.255   0.314  13.700  0.2731 -0.0237 -0.0228
  596MPD2     C 8830   3.577   2.862  16.748  0.6035 -0.5275  0.7737
  596MPD2    C1 8831   3.548   2.726  16.736 -0.2031 -1.1857 -0.0745
  596MPD2    C2 8832   3.552   2.669  16.605 -0.0062  0.0113  0.0010
  596MPD2    C3 8833   3.548   2.753  16.500  1.1461 -0.1993 -0.2154
  596MPD2    C4 8834   3.558   2.888  16.517  0.6041 -0.5140  0.1712
  596MPD2    C5 8835   3.580   2.946  16.636 -0.4015  0.0198  0.4566
  596MPD2     H 8836   3.533   2.562  16.597  0.7328 -0.2163  1.2501
  596MPD2    H1 8837   3.572   2.947  16.427  2.4082  0.8758  1.3750
  596MPD2    H2 8838   3.606   2.903  16.844 -0.7470 -0.3224  1.0948
  596MPD2    H3 8839   3.613   3.049  16.639  1.6365 -0.6901  1.8247
  596MPD2     N 8840   3.530   2.706  16.370 -0.4258  0.6197 -0.0306
  596MPD2    H5 8841   3.501   2.774  16.300 -1.5833 -1.4707 -1.5717
  596MPD2    N1 8842   3.496   2.641  16.847 -0.0286  0.0404 -0.5239
  596MPD2    H7 8843   3.467   2.547  16.822  1.8739 -1.5882  3.3826
  597TMC3    C1 8844   3.381   2.613  17.054  0.2991 -0.5790  0.4654
  597TMC3    C2 8845   3.365   2.476  17.036  0.3256  0.2245 -0.2485
  597TMC3    C3 8846   3.261   2.420  17.103  0.0288 -0.3636 -0.1849
  597TMC3    C4 8847   3.300   2.685  17.138 -0.2122 -0.1698 -0.1548
  597TMC3    C5 8848   3.197   2.619  17.201  0.4874  0.1859 -0.3149
  597TMC3    C6 8849   3.173   2.489  17.176 -0.6696 -0.8237  0.4631
  597TMC3     C 8850   3.477   2.686  16.976  0.3272 -0.4047 -0.0719
  597TMC3     O 8851   3.492   2.799  17.012 -0.3919 -0.0685 -0.2677
  597TMC3     H 8852   3.436   2.413  16.984 -1.8466 -1.6288 -0.9398
  597TMC3    H1 8853   3.315   2.792  17.146  1.2123 -0.2642 -1.6546
  597TMC3    H2 8854   3.082   2.448  17.219 -1.0794 -0.9109 -0.4972
  597TMC3    C7 8855   3.095   2.695  17.270 -0.6033 -0.2400 -0.4754
  597TMC3    C8 8856   3.213   2.293  17.058 -0.3448 -0.1879 -0.5190
  597TMC3    O1 8857   3.028   2.635  17.354  0.5244 -0.4981  0.1461
  597TMC3    O2 8858   3.236   2.265  16.939  0.0270  0.2834  0.0699
  598TMC3    C1 8859   0.945   3.847  15.366  0.1480  0.6182 -0.2973
  598TMC3    C2 8860   0.839   3.774  15.316  0.1865  0.4235 -0.4268
  598TMC3    C3 8861   0.795   3.827  15.199 -0.3730 -0.5033  0.8466
  598TMC3    C4 8862   1.003   3.954  15.303  0.0981 -0.1056  0.1829
  598TMC3    C5 8863   0.955   3.990  15.181  0.6309  0.0599 -0.5988
  598TMC3    C6 8864   0.849   3.928  15.133 -0.2634  0.0728 -0.6146
  598TMC3     C 8865   1.034   3.775  15.445 -0.0034 -0.2268 -0.5422
  598TMC3     O 8866   1.100   3.842  15.520 -0.2928 -0.3522  0.7199
  598TMC3     H 8867   0.787   3.692  15.365 -0.3251  1.2026  0.3550
  598TMC3    H1 8868   1.097   3.996  15.336  0.0754 -0.0198  0.1370
  598TMC3    H2 8869   0.810   3.960  15.037  0.1267  3.6718  0.4256
  598TMC3    C7 8870   1.028   4.072  15.091  0.0998  0.2253  0.7142
  598TMC3    C8 8871   0.713   3.734  15.119  0.4898 -0.2194  0.1736
  598TMC3    O1 8872   1.008   4.058  14.969  0.1282 -0.3629  0.2435
  598TMC3    O2 8873   0.721   3.756  14.997 -0.7340  0.0611 -0.3725
  599MPD2     C 8874   1.556   1.968  16.090 -0.5445 -0.2978 -0.1482
  599MPD2    C1 8875   1.509   1.842  16.067 -0.0880  0.0346 -0.3769
  599MPD2    C2 8876   1.370   1.822  16.066  0.3247 -0.0806 -0.7451
  599MPD2    C3 8877   1.285   1.923  16.100 -0.5043 -0.2014 -0.0073
  599MPD2    C4 8878   1.336   2.050  16.123 -0.0047 -0.2498  0.2326
  599MPD2    C5 8879   1.472   2.074  16.118  0.7936  0.4373 -0.3260
  599MPD2     H 8880   1.326   1.723  16.055 -0.5832  0.4398 -1.7762
  599MPD2    H1 8881   1.272   2.136  16.136 -1.3477 -1.1519 -0.3738
  599MPD2    H2 8882   1.663   1.980  16.083 -0.4536 -1.0929 -0.1308
  599MPD2    H3 8883   1.515   2.174  16.121  0.7408  0.4194  1.0712
  599MPD2     N 8884   1.148   1.912  16.139  0.0535  0.7632  0.7537
  599MPD2    H5 8885   1.104   1.998  16.170  0.0463  0.7510  0.7769
  599MPD2    N1 8886   1.596   1.742  16.046 -0.2615  0.0130  0.6813
  599MPD2    H7 8887   1.694   1.764  16.060 -0.4362  0.5997  0.9469
  600TMC3    C1 8888   0.968   1.814  16.248 -0.2868  0.0920  0.7616
  600TMC3    C2 8889   0.904   1.699  16.280  0.0525  0.2526  0.2026
  600TMC3    C3 8890   0.809   1.694  16.377 -0.4736 -0.4043  0.5470
  600TMC3    C4 8891   0.948   1.925  16.319  0.1851 -0.1498  0.3829
  600TMC3    C5 8892   0.854   1.922  16.423 -0.0817  0.4687  0.1071
  600TMC3    C6 8893   0.786   1.808  16.456  0.8244  0.0146  0.2825
  600TMC3     C 8894   1.081   1.795  16.163  0.9126  0.7520  0.2320
  600TMC3     O 8895   1.117   1.687  16.127 -0.4736 -0.2372 -0.3212
  600TMC3     H 8896   0.937   1.611  16.227 -1.6567 -0.1813 -0.1480
  600TMC3    H1 8897   0.982   2.021  16.284  0.6222 -1.5487 -2.9852
  600TMC3    H2 8898   0.728   1.796  16.547  0.2087  3.4678  0.3492
  600TMC3    C7 8899   0.836   2.034  16.516  0.0731 -0.2420 -0.1018
  600TMC3    C8 8900   0.782   1.566  16.440  0.4585  0.0651  0.1553
  600TMC3    O1 8901   0.747   2.020  16.598 -0.0393  0.3380  0.5579
  600TMC3    O2 8902   0.791   1.571  16.562  0.5043 -0.3018 -0.5112
  601MPD2     C 8903   2.761   4.351   0.475  0.4621  0.1790 -0.7310
  601MPD2    C1 8904   2.731   4.282   0.359  0.1211 -0.0100  0.3646
  601MPD2    C2 8905   2.832   4.208   0.298 -0.2865 -1.1508 -0.0767
  601MPD2    C3 8906   2.960   4.197   0.354  0.0974  0.2295  0.0620
  601MPD2    C4 8907   2.990   4.266   0.469  0.8772  0.0125  0.1350
  601MPD2    C5 8908   2.888   4.344   0.522  0.1977 -0.2835  0.1611
  601MPD2     H 8909   2.815   4.157   0.204  0.0801 -0.6701 -0.4038
  601MPD2    H1 8910   3.079   4.254   0.529 -0.0709 -1.7142  1.1921
  601MPD2    H2 8911   2.693   4.419   0.524  3.7499  1.7163  1.7532
  601MPD2    H3 8912   2.892   4.397   0.617 -0.8606  0.0079  0.0442
  601MPD2     N 8913   3.065   4.118   0.300  0.3564 -0.0945  0.6629
  601MPD2    H5 8914   3.158   4.129   0.341  0.2414  1.2167  0.5693
  601MPD2    N1 8915   2.602   4.294   0.295  0.0201 -0.8033 -0.2221
  601MPD2    H7 8916   2.588   4.258   0.201 -1.5215  1.4916 -0.8880
  602TMC3    C1 8917   2.409   4.422   0.232  0.9857  0.0156  0.2498
  602TMC3    C2 8918   2.458   4.400   0.107 -0.0591  0.2692 -0.7286
  602TMC3    C3 8919   2.424   4.486   0.005  0.2498  0.3802  0.4078
  602TMC3    C4 8920   2.331   4.535   0.258  0.7924  0.4874 -0.1782
  602TMC3    C5 8921   2.312   4.623   0.153 -0.3122 -0.1858 -0.0504
  602TMC3    C6 8922   2.354   4.600   0.024 -0.5670 -0.2537  0.2329
  602TMC3     C 8923   2.500   4.384   0.336  0.2888 -0.5132  0.8583
  602TMC3     O 8924   2.488   4.453   0.435 -0.4519 -0.0459 -0.3160
  602TMC3     H 8925   2.509   4.310   0.075 -1.6355 -0.8145 -0.2211
  602TMC3    H1 8926   2.298   4.554   0.359  0.1916  1.7689 -0.6249
  602TMC3    H2 8927   2.332   4.670  17.642  0.2176 -1.3864 -0.9826
  602TMC3    C7 8928   2.260   0.030   0.178 -0.4155  0.2297  0.6091
  602TMC3    C8 8929   2.524   4.497  17.596 -0.7602  0.1419 -0.2120
  602TMC3    O1 8930   2.161   0.035   0.252  0.1314  0.2766  0.4386
  602TMC3    O2 8931   2.552   4.394  17.536  0.2101 -0.2135  0.2149
  603TMC3    C1 8932   1.516   0.129  10.834  0.2376 -0.2067  0.9575
  603TMC3    C2 8933   1.520   0.116  10.973  0.4874 -0.4774  0.6912
  603TMC3    C3 8934   1.475   0.228  11.044 -0.1745 -0.8893  0.0207
  603TMC3    C4 8935   1.466   0.239  10.774  0.4271  0.3816 -0.4583
  603TMC3    C5 8936   1.448   0.352  10.854 -0.3976 -0.6640 -0.3781
  603TMC3    C6 8937   1.457   0.349  10.990  0.0911 -0.8956 -0.3069
  603TMC3     C 8938   1.542   0.006  10.754  0.0865  0.0554  0.1230
  603TMC3     O 8939   1.487   4.722  10.646 -0.3196 -0.3440 -0.1938
  603TMC3     H 8940   1.539   0.025  11.030  1.6167  0.3618  1.6521
  603TMC3    H1 8941   1.465   0.248  10.666  0.7753 -1.0960 -0.5856
  603TMC3    H2 8942   1.415   0.431  11.048 -1.3332 -2.1712  0.4665
  603TMC3    C7 8943   1.442   0.483  10.789 -0.6670 -0.4700  0.0777
  603TMC3    C8 8944   1.456   0.197  11.184  0.2414  0.5574  0.9421
  603TMC3    O1 8945   1.503   0.573  10.834 -0.1853  0.1104  0.0896
  603TMC3    O2 8946   1.487   0.087  11.232 -0.3837  0.2317  0.2047
  604MPD2     C 8947   2.152   3.492  16.417 -0.2783 -0.9003 -0.0479
  604MPD2    C1 8948   2.118   3.621  16.380  0.2502 -0.0489 -0.2496
  604MPD2    C2 8949   2.206   3.694  16.297  0.5350  0.5763 -0.0635
  604MPD2    C3 8950   2.315   3.624  16.251 -0.6470  0.3979  0.2508
  604MPD2    C4 8951   2.356   3.509  16.308  0.0140 -0.0692 -0.6528
  604MPD2    C5 8952   2.275   3.441  16.397 -0.1812 -0.1379 -0.1260
  604MPD2     H 8953   2.176   3.793  16.263 -0.6829 -0.0928 -0.9455
  604MPD2    H1 8954   2.455   3.467  16.293 -0.0670 -0.5273  0.1175
  604MPD2    H2 8955   2.089   3.426  16.476 -0.2042 -0.1521  0.8800
  604MPD2    H3 8956   2.296   3.344  16.441 -1.3948 -0.8796 -1.1826
  604MPD2     N 8957   2.399   3.688  16.155  0.0349 -0.0063  0.3747
  604MPD2    H5 8958   2.362   3.775  16.118 -0.1775 -0.4965 -0.5543
  604MPD2    N1 8959   2.001   3.673  16.429 -0.2031  0.2348 -0.3037
  604MPD2    H7 8960   1.945   3.616  16.492 -0.8003  1.1029 -0.0414
  605TMC3    C1 8961   1.861   3.837  16.518 -0.1756 -0.1987  0.6448
  605TMC3    C2 8962   1.946   3.884  16.618  0.1678 -0.5891 -1.5753
  605TMC3    C3 8963   1.909   3.984  16.693  0.0912 -0.5723 -0.0997
  605TMC3    C4 8964   1.747   3.901  16.487  0.4771  0.3268 -0.4167
  605TMC3    C5 8965   1.710   4.008  16.557 -0.2595  0.1295  0.2878
  605TMC3    C6 8966   1.787   4.044  16.668  0.1219  1.1469  0.1073
  605TMC3     C 8967   1.947   3.794  16.408 -0.4431  0.3883 -0.2309
  605TMC3     O 8968   1.979   3.891  16.340 -0.0182 -0.2724  0.3662
  605TMC3     H 8969   2.030   3.824  16.649 -1.6874 -1.8067  1.0645
  605TMC3    H1 8970   1.684   3.874  16.403  4.4305 -2.5350 -2.4419
  605TMC3    H2 8971   1.747   4.130  16.720  1.0826  1.1213  0.8754
  605TMC3    C7 8972   1.570   4.009  16.583 -0.2317 -0.0083  0.0239
  605TMC3    C8 8973   2.033   4.061  16.729 -0.0538  0.4428 -0.1645
  605TMC3    O1 8974   1.544   4.016  16.701 -0.9433 -0.0660  0.4383
  605TMC3    O2 8975   2.137   4.043  16.666  0.2731 -0.1107  0.0655
  606TMC3    C1 8976   3.670   1.417  16.683 -0.3854 -0.1576 -0.5593
  606TMC3    C2 8977   3.790   1.364  16.725 -0.9253 -0.2984  0.2448
  606TMC3    C3 8978   3.805   1.326  16.855 -0.0596 -0.4227  0.0380
  606TMC3    C4 8979   3.561   1.434  16.760 -0.3233  0.2372 -0.1458
  606TMC3    C5 8980   3.581   1.392  16.889 -0.0038  0.5824 -0.4244
  606TMC3    C6 8981   3.695   1.328  16.934  0.3011 -0.3985 -0.1628
  606TMC3     C 8982   3.661   1.467  16.549  0.3967  0.0693 -0.0155
  606TMC3     O 8983   3.722   1.408  16.466  0.1559 -0.1866 -0.2322
  606TMC3     H 8984   3.873   1.363  16.656  0.2478  1.0880  1.6509
  606TMC3    H1 8985   3.468   1.466  16.714  0.0809 -0.2488 -1.2940
  606TMC3    H2 8986   3.713   1.298  17.036  2.8559 -1.4845 -0.9287
  606TMC3    C7 8987   3.470   1.400  16.981  0.9214 -0.3130 -0.3187
  606TMC3    C8 8988   3.932   1.357  16.925  0.4127  0.0562 -0.5829
  606TMC3    O1 8989   3.363   1.375  16.931  0.5899  0.6093 -0.8348
  606TMC3    O2 8990   3.948   1.327  17.044  0.4266  0.2864  0.3726
  607MPD2     C 8991   0.289   0.074  11.684 -0.0219 -0.2981  0.7604
  607MPD2    C1 8992   0.318   0.064  11.821 -0.0257 -0.5541 -0.2400
  607MPD2    C2 8993   0.288   4.669  11.882  0.2368  0.3995 -0.1607
  607MPD2    C3 8994   0.240   4.561  11.815  0.6274  0.8166  0.7738
  607MPD2    C4 8995   0.204   4.572  11.686  0.4152  0.1477  0.6050
  607MPD2    C5 8996   0.229   4.686  11.623 -0.6176  0.2461  0.1317
  607MPD2     H 8997   0.309   4.652  11.987  1.1294 -2.9118 -0.8796
  607MPD2    H1 8998   0.160   4.490  11.629  0.6778  0.4575 -0.0410
  607MPD2    H2 8999   0.293   0.167  11.629  0.4566 -0.8037 -0.0662
  607MPD2    H3 9000   0.199   4.711  11.522 -0.5978 -1.7303 -0.3699
  607MPD2     N 9001   0.235   4.444  11.895 -0.6176 -0.9643  0.4771
  607MPD2    H5 9002   0.245   4.452  11.996  1.4405 -0.2898  0.2146
  607MPD2    N1 9003   0.363   0.170  11.900  0.3403  0.1085 -0.3143
  607MPD2    H7 9004   0.350   0.165  12.000  0.8052  0.3095 -0.2407
  608TMC3    C1 9005   0.468   0.375  11.948  0.2502  0.4418 -0.0514
  608TMC3    C2 9006   0.456   0.331  12.074 -0.1660  0.4702 -0.8717
  608TMC3    C3 9007   0.554   0.373  12.164 -0.7051 -0.7124 -0.3750
  608TMC3    C4 9008   0.566   0.455  11.902  0.3627  0.1083  0.2198
  608TMC3    C5 9009   0.655   0.497  11.994 -0.2243 -0.7498  0.5554
  608TMC3    C6 9010   0.654   0.459  12.124 -1.1294  0.5871 -0.4476
  608TMC3     C 9011   0.413   0.283  11.849 -0.7037 -0.0473  0.8004
  608TMC3     O 9012   0.445   0.313  11.736 -0.1313 -0.5984  0.1245
  608TMC3     H 9013   0.360   0.297  12.111  0.8374  0.2945  1.5868
  608TMC3    H1 9014   0.577   0.480  11.797 -0.4525 -1.4086 -0.2333
  608TMC3    H2 9015   0.748   0.468  12.178 -0.2256 -1.4840 -1.6977
  608TMC3    C7 9016   0.765   0.569  11.940  0.4590 -0.5381  0.2965
  608TMC3    C8 9017   0.604   0.276  12.262  0.3453  0.6463  0.9160
  608TMC3    O1 9018   0.774   0.559  11.818  0.1598 -0.4528 -0.2008
  608TMC3    O2 9019   0.695   0.310  12.336  0.7705 -0.1992  0.5633
  609TMC3    C1 9020   3.716   3.956   9.212  0.6174  0.2403 -0.0974
  609TMC3    C2 9021   3.772   4.086   9.214 -0.1214  0.5205 -0.0869
  609TMC3    C3 9022   3.903   4.099   9.251 -0.1771 -0.0955 -0.5698
  609TMC3    C4 9023   3.793   3.850   9.248 -0.1361 -0.0778  0.4970
  609TMC3    C5 9024   3.929   3.868   9.261  0.1278  0.7096 -0.1820
  609TMC3    C6 9025   3.990   3.993   9.267  0.4058 -0.5615  0.2646
  609TMC3     C 9026   3.584   3.958   9.270  0.1440 -0.0830  0.2603
  609TMC3     O 9027   3.516   4.060   9.247  0.9064 -0.0101 -0.3235
  609TMC3     H 9028   3.720   4.179   9.197  1.1243  0.9184 -1.6871
  609TMC3    H1 9029   3.753   3.750   9.256 -0.0522 -0.3281 -2.1172
  609TMC3    H2 9030   4.092   4.009   9.298  0.5172 -0.2634 -0.2609
  609TMC3    C7 9031   4.017   3.760   9.297  0.2617 -0.1866  0.4959
  609TMC3    C8 9032   3.953   4.233   9.250  0.3321 -0.4970 -0.0664
  609TMC3    O1 9033   4.115   3.781   9.363 -0.3694 -0.0591 -0.3042
  609TMC3    O2 9034   3.894   4.315   9.182  0.0809 -0.3654  0.4908
  610TMC3    C1 9035   1.093   4.519  12.364  0.0438 -0.8577 -0.1949
  610TMC3    C2 9036   1.030   4.549  12.247  0.0377 -0.0584  1.0254
  610TMC3    C3 9037   0.994   4.682  12.234 -0.3065  0.7949  0.2404
  610TMC3    C4 9038   1.109   4.606  12.469  0.0671 -0.5348 -0.4153
  610TMC3    C5 9039   1.069   0.011  12.446  0.8272  0.4461  0.2146
  610TMC3    C6 9040   1.025   0.054  12.332 -0.3158  0.6493  0.1313
  610TMC3     C 9041   1.145   4.390  12.389  0.4697 -0.8156 -0.0630
  610TMC3     O 9042   1.226   4.367  12.478  0.2021 -0.1516 -0.1782
  610TMC3     H 9043   1.035   4.490  12.156  1.4237  2.6653 -0.6701
  610TMC3    H1 9044   1.159   4.576  12.560 -1.2019  0.1119  0.4967
  610TMC3    H2 9045   0.991   0.155  12.311  0.9470  1.4500  1.9689
  610TMC3    C7 9046   1.041   0.083  12.560 -0.1118  0.0556  0.1184
  610TMC3    C8 9047   0.901   0.001  12.138 -0.7043  0.4811 -0.5170
  610TMC3    O1 9048   1.029   0.204  12.550 -1.1213 -0.4532  0.6487
  610TMC3    O2 9049   0.907   0.119  12.108 -0.0179 -0.7505 -0.0116
  611MPD2     C 9050   0.598   4.652  10.378  0.0089 -0.4007 -0.0737
  611MPD2    C1 9051   0.514   0.019  10.324  0.0908  0.5085  0.1030
  611MPD2    C2 9052   0.571   0.133  10.260 -0.0384 -0.1337  0.0374
  611MPD2    C3 9053   0.708   0.160  10.262  0.2164  0.0551  0.1972
  611MPD2    C4 9054   0.789   0.071  10.327 -0.6238  0.2303  0.2785
  611MPD2    C5 9055   0.729   4.682  10.379  0.3065 -0.0788  0.4672
  611MPD2     H 9056   0.501   0.202  10.213  0.1168  1.0672  1.5523
  611MPD2    H1 9057   0.896   0.088  10.335 -0.3009 -2.2821  1.2160
  611MPD2    H2 9058   0.558   4.571  10.438 -0.1344 -1.6695 -1.9065
  611MPD2    H3 9059   0.793   4.604  10.419  0.1035 -0.2420  0.4717
  611MPD2     N 9060   0.773   0.277  10.202 -0.4676  0.5635  0.0365
  611MPD2    H5 9061   0.872   0.285  10.220 -0.5038  2.0287 -0.4236
  611MPD2    N1 9062   0.372   4.721  10.321 -0.5310 -0.3789 -0.1380
  611MPD2    H7 9063   0.333   4.637  10.361 -0.9277 -0.2540 -0.2652
  612TMC3    C1 9064   0.801   0.467  10.067 -0.1798 -0.1980  0.8946
  612TMC3    C2 9065   0.888   0.522  10.157  0.3088 -0.0068 -0.7736
  612TMC3    C3 9066   0.934   0.645  10.127 -0.5361 -0.2398  0.2367
  612TMC3    C4 9067   0.762   0.529   9.958  0.3689  0.4504 -0.2170
  612TMC3    C5 9068   0.816   0.653   9.927 -0.1235 -0.2184 -0.4416
  612TMC3    C6 9069   0.914   0.710  10.009 -0.0991 -0.6089  0.0236
  612TMC3     C 9070   0.708   0.372  10.125 -0.1413  0.6181 -0.4341
  612TMC3     O 9071   0.590   0.390  10.094 -0.1469 -0.1037  0.0126
  612TMC3     H 9072   0.894   0.477  10.256  0.1478  0.4416 -0.5595
  612TMC3    H1 9073   0.683   0.488   9.897  0.7981  0.5217 -0.8253
  612TMC3    H2 9074   0.974   0.797   9.984  0.2842 -0.8682  0.0384
  612TMC3    C7 9075   0.787   0.712   9.801 -0.8185  0.5718 -0.7794
  612TMC3    C8 9076   1.018   0.715  10.221  0.1463 -0.0677  0.0907
  612TMC3    O1 9077   0.727   0.642   9.723 -0.1244 -0.3712 -0.0989
  612TMC3    O2 9078   1.033   0.835  10.215  0.0938  0.9069  0.4750
  613MPD2     C 9079   4.490   2.516  16.524  0.0735  0.2079  0.4138
  613MPD2    C1 9080   4.551   2.453  16.409  0.1135  0.4153 -0.1557
  613MPD2    C2 9081   4.492   2.349  16.354  0.8447 -0.7828 -0.6240
  613MPD2    C3 9082   4.378   2.295  16.412  0.8609 -0.2480 -0.5557
  613MPD2    C4 9083   4.317   2.356  16.521 -0.9033 -0.9336 -0.9411
  613MPD2    C5 9084   4.379   2.462  16.585 -0.1995  0.2593 -0.0097
  613MPD2     H 9085   4.536   2.305  16.266  0.8849 -0.9334 -0.5286
  613MPD2    H1 9086   4.228   2.315  16.567 -0.9032  0.9006  0.7055
  613MPD2    H2 9087   4.527   2.613  16.555 -2.7131  0.9173  1.4616
  613MPD2    H3 9088   4.339   2.521  16.667 -1.2777 -1.1530  0.4670
  613MPD2     N 9089   4.319   2.174  16.362 -0.7058 -0.1389 -0.7410
  613MPD2    H5 9090   4.237   2.137  16.408 -2.2487 -1.1884 -4.2971
  613MPD2    N1 9091   4.666   2.506  16.342 -0.6901 -0.1377  0.6936
  613MPD2    H7 9092   4.693   2.454  16.259  1.0150  1.4868  0.2132
  614TMC3    C1 9093   0.083   2.647  16.245  0.2197  0.7440  0.3172
  614TMC3    C2 9094   0.123   2.530  16.195 -0.0634  0.7933  0.3690
  614TMC3    C3 9095   0.138   2.494  16.066 -0.6844 -0.7049  0.2408
  614TMC3    C4 9096   0.040   2.743  16.157  0.7509  0.2286  0.4308
  614TMC3    C5 9097   0.065   2.716  16.024  0.2731  0.2409  0.4232
  614TMC3    C6 9098   0.107   2.593  15.975 -0.6364 -0.7571  0.5094
  614TMC3     C 9099   4.721   2.627  16.361 -0.2908  0.2307 -0.2988
  614TMC3     O 9100   4.676   2.722  16.424  0.4686  0.1595  0.2402
  614TMC3     H 9101   0.152   2.448  16.260  1.4758  0.3867 -0.8057
  614TMC3    H1 9102   4.702   2.823  16.194 -1.2470 -1.0012 -0.2249
  614TMC3    H2 9103   0.134   2.587  15.870  0.8525 -0.4202  0.8734
  614TMC3    C7 9104   4.707   2.795  15.937  0.0779 -0.7896 -0.4533
  614TMC3    C8 9105   0.107   2.360  16.031 -0.0434 -0.2767  0.1965
  614TMC3    O1 9106   4.689   2.910  15.975 -0.7308 -0.3360 -0.2672
  614TMC3    O2 9107   0.062   2.288  16.121  0.6766  0.5343 -0.3835
  615MPD2     C 9108   3.785   4.057  16.370 -0.5917  0.2017  0.6371
  615MPD2    C1 9109   3.838   3.939  16.326 -1.1296 -0.3213 -0.6293
  615MPD2    C2 9110   3.778   3.869  16.217 -0.5586  0.4237 -0.0153
  615MPD2    C3 9111   3.666   3.929  16.152  0.2584 -0.0793  0.5613
  615MPD2    C4 9112   3.615   4.043  16.206  0.1868  0.3211  0.2399
  615MPD2    C5 9113   3.680   4.110  16.311 -0.6499  0.3629 -0.3678
  615MPD2     H 9114   3.831   3.783  16.179 -1.3907  0.0550 -0.3455
  615MPD2    H1 9115   3.529   4.090  16.161  0.6260  0.9866  0.0892
  615MPD2    H2 9116   3.824   4.113  16.454  0.4688  0.6707 -0.1758
  615MPD2    H3 9117   3.638   4.202  16.350  2.1100  0.7803  1.6281
  615MPD2     N 9118   3.593   3.874  16.042 -0.3738  0.0025 -0.1572
  615MPD2    H5 9119   3.521   3.929  15.997 -1.6442 -0.0722  1.7931
  615MPD2    N1 9120   3.958   3.896  16.383  0.6664  0.0992  1.0049
  615MPD2    H7 9121   4.018   3.836  16.327 -0.7015 -2.1663  1.9588
  616TMC3    C1 9122   4.130   3.892  16.550  0.3297  0.1775  0.3106
  616TMC3    C2 9123   4.212   3.948  16.459 -0.0375  0.6479 -0.6086
  616TMC3    C3 9124   4.330   3.977  16.509 -0.2749  0.0149  0.7016
  616TMC3    C4 9125   4.150   3.873  16.681  0.0987 -0.1593 -0.0526
  616TMC3    C5 9126   4.271   3.913  16.730  1.4567  0.3970  0.6041
  616TMC3    C6 9127   4.365   3.954  16.641 -0.9040 -0.4415  0.6054
  616TMC3     C 9128   3.993   3.915  16.516 -0.1508 -0.4231  0.0605
  616TMC3     O 9129   3.923   3.952  16.611  0.6341 -0.0634  0.1585
  616TMC3     H 9130   4.191   3.971  16.356 -0.3058  0.3224 -0.6274
  616TMC3    H1 9131   4.080   3.842  16.758  2.7484 -4.3900  0.6754
  616TMC3    H2 9132   4.471   3.955  16.662 -1.6010 -0.5987  4.1779
  616TMC3    C7 9133   4.305   3.894  16.871 -0.5417 -0.9418  0.0794
  616TMC3    C8 9134   4.422   4.022  16.411  0.4713  0.2800 -0.2165
  616TMC3    O1 9135   4.247   3.813  16.940 -0.8096  0.2776 -0.0747
  616TMC3    O2 9136   4.412   3.970  16.301  0.4931  0.0283  0.4657
  617MPD2     C 9137   1.874   2.398  14.044  0.0411  0.4881  0.5725
  617MPD2    C1 9138   1.814   2.344  14.155 -0.4947 -0.2862  0.0735
  617MPD2    C2 9139   1.679   2.310  14.151  0.1320  0.2122 -0.1016
  617MPD2    C3 9140   1.606   2.326  14.037 -0.3883  0.1933  0.0746
  617MPD2    C4 9141   1.670   2.379  13.927  0.6225 -0.3148  0.6576
  617MPD2    C5 9142   1.801   2.414  13.928 -0.0344 -0.3308  0.9815
  617MPD2     H 9143   1.648   2.256  14.239 -1.4987  1.3418  0.0154
  617MPD2    H1 9144   1.618   2.380  13.832 -1.5176  1.4470  1.8538
  617MPD2    H2 9145   1.979   2.421  14.038  0.0233  0.4795  0.2276
  617MPD2    H3 9146   1.843   2.455  13.837  2.0881 -1.6067  1.3730
  617MPD2     N 9147   1.481   2.276  14.016  0.0380 -0.0976  0.0163
  617MPD2    H5 9148   1.445   2.274  13.921  0.7125  0.7856 -0.2664
  617MPD2    N1 9149   1.901   2.314  14.273  0.5584  0.1898  0.0768
  617MPD2    H7 9150   1.994   2.357  14.277  0.5889  0.2378 -1.2472
  618TMC3    C1 9151   1.981   2.208  14.462 -0.2512 -0.7734 -0.0139
  618TMC3    C2 9152   2.019   2.078  14.472 -0.6083 -0.2192  0.4026
  618TMC3    C3 9153   2.156   2.056  14.468  0.6009 -0.9945  0.2843
  618TMC3    C4 9154   2.065   2.313  14.472  0.2245  0.9128 -0.3015
  618TMC3    C5 9155   2.200   2.293  14.467  0.2414  0.5987 -0.2437
  618TMC3    C6 9156   2.239   2.160  14.481 -0.3314 -0.0995  0.0815
  618TMC3     C 9157   1.873   2.222  14.372 -0.1022  0.1325 -0.1688
  618TMC3     O 9158   1.799   2.125  14.355  0.6204 -0.2055  0.1889
  618TMC3     H 9159   1.959   1.989  14.454 -1.8247  0.3289  1.7370
  618TMC3    H1 9160   2.035   2.415  14.449  1.8109  1.1342 -1.3879
  618TMC3    H2 9161   2.344   2.145  14.504 -0.3072  1.4182  0.9408
  618TMC3    C7 9162   2.249   2.362  14.348 -0.2416 -0.0362  0.5683
  618TMC3    C8 9163   2.187   1.960  14.363 -0.7196  0.0646 -0.3379
  618TMC3    O1 9164   2.169   2.418  14.272 -0.3895  0.2311  0.3079
  618TMC3    O2 9165   2.101   1.883  14.321 -0.0444 -0.3892 -0.3977
  619MPD2     C 9166   3.380   3.535  13.274  0.4606 -0.7719 -0.3630
  619MPD2    C1 9167   3.284   3.596  13.191  0.0659 -0.1699 -0.3728
  619MPD2    C2 9168   3.152   3.554  13.189 -0.5687 -0.2039  0.4603
  619MPD2    C3 9169   3.111   3.453  13.278  0.2556 -0.0329  0.1363
  619MPD2    C4 9170   3.206   3.403  13.365 -0.2110 -0.5796  0.4173
  619MPD2    C5 9171   3.338   3.434  13.353 -0.5256  0.1078  0.0613
  619MPD2     H 9172   3.080   3.613  13.134 -2.0513 -0.3671  2.1941
  619MPD2    H1 9173   3.180   3.315  13.422 -0.1913 -2.3298 -2.2581
  619MPD2    H2 9174   3.478   3.580  13.288  0.8584 -1.8505  0.3190
  619MPD2    H3 9175   3.415   3.369  13.394 -0.6094  0.7788  1.2686
  619MPD2     N 9176   2.979   3.401  13.288  0.8338 -0.2841 -0.4023
  619MPD2    H5 9177   2.955   3.346  13.370 -0.9954  0.9510 -0.1036
  619MPD2    N1 9178   3.303   3.717  13.124  0.3852  0.0681 -0.1794
  619MPD2    H7 9179   3.222   3.764  13.086 -0.9176 -2.2328 -0.2588
  620TMC3    C1 9180   3.390   3.903  13.020 -0.1277  0.0281 -0.1287
  620TMC3    C2 9181   3.272   3.884  12.958 -0.0276 -0.2634  0.2659
  620TMC3    C3 9182   3.177   3.985  12.939  0.0833 -0.2096  0.2508
  620TMC3    C4 9183   3.405   4.026  13.084 -0.9158 -0.5648 -0.1367
  620TMC3    C5 9184   3.311   4.121  13.086  0.3482 -0.0791 -0.4256
  620TMC3    C6 9185   3.203   4.104  13.002 -0.8068  0.0579 -0.7588
  620TMC3     C 9186   3.419   3.789  13.105  0.0282 -0.1461  0.2611
  620TMC3     O 9187   3.530   3.771  13.153 -0.2889 -0.4645 -0.1376
  620TMC3     H 9188   3.259   3.791  12.904 -0.5366  0.6004 -1.0988
  620TMC3    H1 9189   3.497   4.038  13.141 -1.7714 -1.6553  1.4573
  620TMC3    H2 9190   3.134   4.188  12.996  1.0157  1.8208  3.0096
  620TMC3    C7 9191   3.298   4.189  13.214 -0.2778 -0.4510  0.0734
  620TMC3    C8 9192   3.049   3.931  12.981 -0.6384 -0.2818 -0.4606
  620TMC3    O1 9193   3.400   4.213  13.280  0.6531  0.3654 -0.5224
  620TMC3    O2 9194   3.050   3.839  13.060 -0.2228 -0.6750  0.4337
  621MPD2     C 9195   3.115   3.589  10.665  0.5934 -0.6767  0.2635
  621MPD2    C1 9196   3.161   3.474  10.606  0.2888 -0.7155  0.3728
  621MPD2    C2 9197   3.201   3.483  10.478 -0.8085 -0.2501 -0.3709
  621MPD2    C3 9198   3.205   3.605  10.420  0.3768 -0.7439  0.1783
  621MPD2    C4 9199   3.151   3.720  10.476  0.2869 -0.5632 -0.0868
  621MPD2    C5 9200   3.106   3.711  10.603 -0.0224 -0.1501 -0.1759
  621MPD2     H 9201   3.235   3.400  10.417  0.3980  1.3388 -1.8622
  621MPD2    H1 9202   3.161   3.819  10.431  2.5864 -1.2247 -0.9999
  621MPD2    H2 9203   3.081   3.591  10.768 -2.8983 -0.7383 -0.8866
  621MPD2    H3 9204   3.053   3.792  10.651  1.0731  0.7344 -0.4503
  621MPD2     N 9205   3.261   3.609  10.292  0.0713 -0.1575 -0.1471
  621MPD2    H5 9206   3.302   3.521  10.260 -0.4293 -0.6238  0.4816
  621MPD2    N1 9207   3.161   3.349  10.667  0.5352 -0.2006  0.0342
  621MPD2    H7 9208   3.205   3.275  10.613  0.7184  0.9542 -1.4373
  622TMC3    C1 9209   3.059   3.187  10.790  0.5878  0.0825 -0.4207
  622TMC3    C2 9210   2.921   3.184  10.794 -0.1703  0.0297 -0.7223
  622TMC3    C3 9211   2.855   3.091  10.719 -1.0252  0.6480  0.3499
  622TMC3    C4 9212   3.134   3.091  10.720  0.2593 -0.3773  0.0934
  622TMC3    C5 9213   3.061   2.989  10.669  0.1740  0.4951 -0.4744
  622TMC3    C6 9214   2.921   2.980  10.667  0.0028  0.7061  0.2380
  622TMC3     C 9215   3.105   3.325  10.792 -0.6325 -0.2899 -0.3422
  622TMC3     O 9216   3.043   3.402  10.862 -0.3236  0.5406 -0.0801
  622TMC3     H 9217   2.862   3.237  10.869 -0.2048  0.4751 -1.0649
  622TMC3    H1 9218   3.242   3.092  10.729  0.3243  0.6020 -0.7667
  622TMC3    H2 9219   2.867   2.900  10.618  1.0362  0.6778 -0.8488
  622TMC3    C7 9220   3.127   2.890  10.591  0.4334  0.8076  0.4139
  622TMC3    C8 9221   2.707   3.084  10.725 -0.4968  0.3764 -0.2229
  622TMC3    O1 9222   3.068   2.786  10.565 -0.3694  0.4378 -0.7694
  622TMC3    O2 9223   2.663   2.973  10.747 -0.2654  0.0108 -0.4270
  623MPD2     C 9224   2.434   4.441  15.885 -0.1183 -0.8546 -0.7250
  623MPD2    C1 9225   2.338   4.471  15.981  0.3029  0.2750  0.0737
  623MPD2    C2 9226   2.375   4.480  16.115 -0.4243 -0.4617  0.1072
  623MPD2    C3 9227   2.508   4.467  16.154 -0.5530  0.0951  0.0819
  623MPD2    C4 9228   2.600   4.431  16.058  0.1692  0.7507  0.1780
  623MPD2    C5 9229   2.560   4.417  15.925  0.3378  0.3109  0.8100
  623MPD2     H 9230   2.308   4.500  16.197 -1.6253 -0.5114 -0.8646
  623MPD2    H1 9231   2.704   4.409  16.076 -0.2418 -2.0297 -0.9397
  623MPD2    H2 9232   2.411   4.437  15.779 -1.5260 -2.3444 -0.3670
  623MPD2    H3 9233   2.634   4.398  15.848 -0.9463  1.1739 -0.6335
  623MPD2     N 9234   2.546   4.456  16.291 -0.6316  0.2985 -0.0651
  623MPD2    H5 9235   2.469   4.436  16.354 -0.6791  0.7521  0.0173
  623MPD2    N1 9236   2.203   4.486  15.946  0.3098  0.0359 -0.0367
  623MPD2    H7 9237   2.140   4.465  16.022 -0.1357  3.8466  0.6369
  624TMC3    C1 9238   2.825   4.431  16.663  0.3295  0.7372 -0.2893
  624TMC3    C2 9239   2.723   4.485  16.740  0.1299 -0.1982 -0.5741
  624TMC3    C3 9240   2.605   4.504  16.682 -0.0680  0.0489  0.0247
  624TMC3    C4 9241   2.801   4.412  16.528  0.2626 -0.2995  0.2801
  624TMC3    C5 9242   2.679   4.441  16.480  0.4258  0.1577  0.3681
  624TMC3    C6 9243   2.569   4.479  16.555  0.6022 -0.5312 -0.2232
  624TMC3     C 9244   2.951   4.382  16.724 -0.2161 -0.1525 -0.2171
  624TMC3     O 9245   2.940   4.382  16.845  0.4207 -0.0124 -0.1719
  624TMC3     H 9246   2.739   4.514  16.844  2.0314 -4.5368  0.3490
  624TMC3    H1 9247   2.885   4.399  16.461  0.7287 -2.2184  1.2442
  624TMC3    H2 9248   2.475   4.516  16.516  0.4791 -0.7219 -0.1085
  624TMC3    C7 9249   2.678   4.451  16.334 -0.7217  0.2432 -0.5684
  624TMC3    C8 9250   2.496   4.506  16.773 -0.9548 -0.1813 -0.2939
  624TMC3    O1 9251   2.781   4.482  16.274  0.2164 -0.2070 -0.4106
  624TMC3    O2 9252   2.509   4.569  16.877 -0.7636 -0.1983 -0.2469
  625MPD2     C 9253   2.995   0.797   1.090 -0.2791  0.4606 -0.3415
  625MPD2    C1 9254   2.988   0.839   0.959  0.5983  0.2559 -0.0156
  625MPD2    C2 9255   3.100   0.799   0.882 -0.1165  0.0482  0.6538
  625MPD2    C3 9256   3.201   0.721   0.928  0.2154  0.5399 -0.5033
  625MPD2    C4 9257   3.199   0.689   1.060  0.2115  0.0600 -0.4897
  625MPD2    C5 9258   3.096   0.720   1.142  0.9409 -0.5902  0.5560
  625MPD2     H 9259   3.101   0.816   0.775  3.1586 -5.0219 -0.0926
  625MPD2    H1 9260   3.272   0.621   1.103 -0.0215 -0.3469 -0.7369
  625MPD2    H2 9261   2.909   0.808   1.155 -0.1607  2.6654 -0.5556
  625MPD2    H3 9262   3.079   0.669   1.236  0.6915  0.6716  1.2045
  625MPD2     N 9263   3.304   0.681   0.839  0.2323 -0.0775 -0.4028
  625MPD2    H5 9264   3.304   0.725   0.747 -2.7698 -0.1673 -0.4454
  625MPD2    N1 9265   2.882   0.909   0.900  0.4284 -1.0512  0.4900
  625MPD2    H7 9266   2.901   0.943   0.806 -1.5643  1.0340  0.8393
  626TMC3    C1 9267   2.679   1.015   0.855 -0.0441 -0.4152  0.1115
  626TMC3    C2 9268   2.697   1.001   0.719  0.5249  0.2808 -1.1990
  626TMC3    C3 9269   2.594   1.071   0.647  0.0809  0.4172 -0.3572
  626TMC3    C4 9270   2.591   1.099   0.913  0.7672  0.1396 -0.4576
  626TMC3    C5 9271   2.496   1.166   0.840 -0.1833 -0.1059  0.4091
  626TMC3    C6 9272   2.506   1.158   0.705  0.2248  0.1603 -0.1866
  626TMC3     C 9273   2.756   0.927   0.948 -0.2844 -0.5322  0.1701
  626TMC3     O 9274   2.709   0.904   1.060  0.5683  0.2931 -0.3225
  626TMC3     H 9275   2.762   0.926   0.674 -0.1917 -0.2318 -1.3704
  626TMC3    H1 9276   2.580   1.100   1.021  1.2433 -0.2408 -0.4043
  626TMC3    H2 9277   2.456   1.222   0.632  4.4366  1.4930 -1.9066
  626TMC3    C7 9278   2.440   1.285   0.898 -0.1632 -0.5791  0.2488
  626TMC3    C8 9279   2.582   1.025   0.510  0.3581  0.6049  0.8444
  626TMC3    O1 9280   2.500   1.326   0.993  1.0969 -0.5568 -0.3969
  626TMC3    O2 9281   2.682   1.001   0.443 -0.3522 -0.5059  0.1060
  627MPD2     C 9282   0.776   1.247  14.804  0.1478 -0.1792  0.0405
  627MPD2    C1 9283   0.868   1.171  14.874 -0.3157 -0.1009  0.0488
  627MPD2    C2 9284   0.829   1.048  14.920  0.1332 -0.2724 -0.1599
  627MPD2    C3 9285   0.701   1.002  14.891  0.2562  0.0989  0.2368
  627MPD2    C4 9286   0.615   1.073  14.811  0.3628  0.1703 -0.6715
  627MPD2    C5 9287   0.652   1.195  14.765  0.2813  0.2828 -0.0936
  627MPD2     H 9288   0.904   0.989  14.971  1.3345  0.9888 -0.4513
  627MPD2    H1 9289   0.523   1.035  14.769 -1.2581  1.0932  2.0633
  627MPD2    H2 9290   0.792   1.348  14.769  0.4456  0.2379  1.3711
  627MPD2    H3 9291   0.579   1.256  14.714  0.1333  1.8785  2.0181
  627MPD2     N 9292   0.684   0.866  14.919  0.0909  0.0501  0.0285
  627MPD2    H5 9293   0.764   0.828  14.968  0.8621  0.6307 -0.7947
  627MPD2    N1 9294   1.001   1.198  14.896  0.2066  0.1361  0.7047
  627MPD2    H7 9295   1.056   1.126  14.941  0.7369 -0.2973 -0.6699
  628TMC3    C1 9296   1.201   1.326  14.872  0.6200  0.4684  0.5653
  628TMC3    C2 9297   1.280   1.214  14.871  0.3876 -0.1805 -0.5589
  628TMC3    C3 9298   1.417   1.233  14.855  0.2804  0.1489  0.1506
  628TMC3    C4 9299   1.258   1.447  14.856 -0.7924  0.6084  0.1916
  628TMC3    C5 9300   1.387   1.461  14.829 -0.3886  0.0092 -0.6004
  628TMC3    C6 9301   1.466   1.353  14.816  0.0588 -0.4899  0.1165
  628TMC3     C 9302   1.057   1.324  14.861 -0.5037  0.2895 -0.3222
  628TMC3     O 9303   1.001   1.428  14.831  0.0043  0.0762  0.4377
  628TMC3     H 9304   1.240   1.114  14.884 -1.6517  0.7919  0.6248
  628TMC3    H1 9305   1.204   1.539  14.876 -1.0848 -0.2622  3.3977
  628TMC3    H2 9306   1.572   1.374  14.816  0.0228 -0.2906 -2.5193
  628TMC3    C7 9307   1.441   1.585  14.790  0.4610 -0.5886  0.4144
  628TMC3    C8 9308   1.510   1.120  14.854  0.0954  0.0789  0.1520
  628TMC3    O1 9309   1.566   1.586  14.787  0.1205  0.3025 -0.6219
  628TMC3    O2 9310   1.458   1.011  14.822  0.4912 -0.1021  0.5107
  629MPD2     C 9311   0.155   4.239  16.309  0.0364  0.8861  0.1492
  629MPD2    C1 9312   0.132   4.245  16.440  0.6328 -0.1172  0.1158
  629MPD2    C2 9313   0.015   4.193  16.484  0.1852  0.0436  0.0662
  629MPD2    C3 9314   4.642   4.133  16.404  0.4641  0.3034  0.0289
  629MPD2    C4 9315   4.672   4.119  16.265  0.3875  0.5256  0.0730
  629MPD2    C5 9316   0.065   4.175  16.222  0.8147  0.4842 -0.0636
  629MPD2     H 9317   4.709   4.216  16.585  2.4477 -3.1292  1.4444
  629MPD2    H1 9318   4.601   4.077  16.194  0.6885  1.1983 -0.6239
  629MPD2    H2 9319   0.244   4.288  16.271 -0.2321 -0.1396 -1.8064
  629MPD2    H3 9320   0.085   4.171  16.115 -0.7483 -0.2217 -0.3302
  629MPD2     N 9321   4.521   4.093  16.468  0.4201  0.0373  0.7789
  629MPD2    H5 9322   4.517   4.105  16.569  0.7199  0.6054  0.7233
  629MPD2    N1 9323   0.239   4.298  16.515 -0.2838  0.3103 -0.5002
  629MPD2    H7 9324   0.317   4.335  16.463  1.1561 -0.8963  0.7976
  630TMC3    C1 9325   0.372   4.360  16.703  0.0377  0.3521 -0.2657
  630TMC3    C2 9326   0.447   4.442  16.616  0.8606 -0.1572 -0.0444
  630TMC3    C3 9327   0.562   4.495  16.670  0.3645 -0.3481 -0.5293
  630TMC3    C4 9328   0.398   4.354  16.834  0.4753  0.0957 -0.0328
  630TMC3    C5 9329   0.514   4.402  16.882  0.0118  0.6740 -0.6418
  630TMC3    C6 9330   0.602   4.466  16.796 -0.1808 -0.5085  0.0790
  630TMC3     C 9331   0.246   4.301  16.651 -0.6793  0.1076 -0.2544
  630TMC3     O 9332   0.173   4.253  16.733  0.0932  0.0373 -0.0835
  630TMC3     H 9333   0.421   4.462  16.512  2.0656 -0.4977 -0.4135
  630TMC3    H1 9334   0.340   4.292  16.902 -0.1088  1.8601  1.0800
  630TMC3    H2 9335   0.686   4.520  16.840  0.4153 -1.7932  0.5136
  630TMC3    C7 9336   0.542   4.361  17.019  0.3019  0.3748  0.5087
  630TMC3    C8 9337   0.658   4.573  16.585  0.0486 -0.9084 -0.3895
  630TMC3    O1 9338   0.449   4.331  17.090 -0.1007 -0.3373  0.3516
  630TMC3    O2 9339   0.741   4.643  16.642 -0.3334  0.1497  0.2186
  631MPD2     C 9340   2.939   4.320  15.701 -0.8154  0.6352 -0.3669
  631MPD2    C1 9341   3.004   4.288  15.591 -0.9839  0.5342 -0.4979
  631MPD2    C2 9342   3.083   4.172  15.600  0.0674  0.8687  0.0213
  631MPD2    C3 9343   3.099   4.098  15.716 -0.1735  0.4799  0.9454
  631MPD2    C4 9344   3.029   4.142  15.827 -0.2212  0.5332  0.1595
  631MPD2    C5 9345   2.953   4.253  15.817 -0.3921  0.9208 -0.2161
  631MPD2     H 9346   3.141   4.147  15.513 -0.1304  2.2523 -0.4989
  631MPD2    H1 9347   3.034   4.089  15.922  0.3158 -0.6258 -0.5147
  631MPD2    H2 9348   2.876   4.408  15.708 -1.5384  0.2554 -1.9988
  631MPD2    H3 9349   2.904   4.289  15.907  1.0139  0.3138  0.8015
  631MPD2     N 9350   3.190   3.991  15.714 -0.1874  0.2533  0.1339
  631MPD2    H5 9351   3.240   3.978  15.627 -0.2692 -1.4679  0.3559
  631MPD2    N1 9352   2.987   4.361  15.473  0.1853 -0.0121 -0.0569
  631MPD2    H7 9353   2.921   4.438  15.477  2.3911  1.9648 -1.1490
  632TMC3    C1 9354   3.042   4.456  15.267 -0.3333 -0.0370  0.2354
  632TMC3    C2 9355   2.906   4.473  15.231 -0.0819 -0.4057  0.1952
  632TMC3    C3 9356   2.870   4.521  15.111  0.1150 -0.6621  0.0839
  632TMC3    C4 9357   3.141   4.479  15.170  0.1152 -0.7176  0.1290
  632TMC3    C5 9358   3.099   4.535  15.049 -0.2433 -0.4463  0.4966
  632TMC3    C6 9359   2.968   4.557  15.022  1.0637 -0.2365 -0.3365
  632TMC3     C 9360   3.056   4.343  15.354 -0.3971 -0.1820  0.4982
  632TMC3     O 9361   3.142   4.260  15.318 -0.4207 -0.3764 -0.7533
  632TMC3     H 9362   2.835   4.415  15.289  0.0144 -0.9445 -0.2230
  632TMC3    H1 9363   3.240   4.436  15.180  0.5534 -0.4957 -3.3279
  632TMC3    H2 9364   2.940   4.602  14.928  0.1404  1.5374  0.7803
  632TMC3    C7 9365   3.191   4.589  14.946 -0.0222 -0.5516  0.4636
  632TMC3    C8 9366   2.730   4.537  15.072  0.3224  0.6618  0.0310
  632TMC3    O1 9367   3.145   4.685  14.888 -0.9462 -0.4496 -0.1259
  632TMC3    O2 9368   2.709   4.529  14.953  0.2641  0.5483  0.1090
  633MPD2     C 9369   2.655   2.278  17.412  0.0162  0.6186  0.1862
  633MPD2    C1 9370   2.688   2.232  17.283 -0.0553  0.1438  0.2392
  633MPD2    C2 9371   2.689   2.093  17.254 -0.1993  0.6941 -0.4447
  633MPD2    C3 9372   2.665   2.006  17.359  0.5061 -0.0408  0.0101
  633MPD2    C4 9373   2.643   2.051  17.491 -0.2379  0.5179 -0.0874
  633MPD2    C5 9374   2.649   2.187  17.513 -0.6359 -0.1680 -0.8943
  633MPD2     H 9375   2.704   2.058  17.152  2.0779 -0.8634  0.4161
  633MPD2    H1 9376   2.638   1.992  17.581  0.8752  2.2316  1.1029
  633MPD2    H2 9377   2.658   2.381  17.443 -0.7969  1.2921 -2.0071
  633MPD2    H3 9378   2.638   2.235  17.609 -0.1667  0.6620 -1.2520
  633MPD2     N 9379   2.660   1.866  17.328 -0.9150  0.5924 -0.3967
  633MPD2    H5 9380   2.666   1.856  17.227 -1.4013 -0.5423 -0.3097
  633MPD2    N1 9381   2.726   2.321  17.180  0.8865 -0.2768  0.4976
  633MPD2    H7 9382   2.753   2.273  17.095  0.9146 -2.7967  1.9073
  634TMC3    C1 9383   2.812   2.510  17.082 -0.4201 -0.2908 -0.3128
  634TMC3    C2 9384   2.877   2.433  16.989  0.1213 -0.1849  0.4555
  634TMC3    C3 9385   2.936   2.501  16.888 -0.3664 -0.4686 -0.6495
  634TMC3    C4 9386   2.795   2.643  17.060  0.3611  0.1843  0.2237
  634TMC3    C5 9387   2.843   2.700  16.945 -0.1414 -0.2888 -0.7697
  634TMC3    C6 9388   2.918   2.628  16.857 -0.3927  1.2227 -0.7572
  634TMC3     C 9389   2.745   2.456  17.196 -0.5134  0.7213 -0.2974
  634TMC3     O 9390   2.728   2.527  17.297 -0.0668  0.2953  0.3498
  634TMC3     H 9391   2.893   2.326  16.998 -0.4260 -0.2211  1.0050
  634TMC3    H1 9392   2.751   2.698  17.143  0.0971  3.3009 -2.0054
  634TMC3    H2 9393   2.959   2.668  16.766  0.0615  0.9312 -0.6806
  634TMC3    C7 9394   2.805   2.835  16.891 -0.3237  0.7019 -0.9340
  634TMC3    C8 9395   2.962   2.414  16.771 -0.0743  0.2746  0.0671
  634TMC3    O1 9396   2.860   2.862  16.788  0.1526 -0.0175  0.1458
  634TMC3    O2 9397   2.900   2.310  16.763 -0.4363 -0.7043 -0.1357
  635TMC3    C1 9398   3.390   3.659  16.930 -0.2800 -0.2652 -0.2992
  635TMC3    C2 9399   3.477   3.585  16.859  0.3465  0.1491 -0.4651
  635TMC3    C3 9400   3.455   3.577  16.721 -1.0350  0.6558 -0.0453
  635TMC3    C4 9401   3.302   3.744  16.873 -0.6180 -0.3564  0.1347
  635TMC3    C5 9402   3.290   3.739  16.738 -1.1559 -0.1456 -0.1282
  635TMC3    C6 9403   3.367   3.663  16.660 -0.2318  0.3162  1.1318
  635TMC3     C 9404   3.383   3.644  17.078  0.1673 -0.2402 -0.3342
  635TMC3     O 9405   3.317   3.729  17.135 -0.9281 -0.0342 -0.7944
  635TMC3     H 9406   3.569   3.541  16.895  0.6021  0.9145 -0.1840
  635TMC3    H1 9407   3.241   3.811  16.933 -1.7839 -0.5208 -0.8773
  635TMC3    H2 9408   3.356   3.658  16.552  2.5070 -0.3377  0.8812
  635TMC3    C7 9409   3.160   3.787  16.680 -0.2321 -0.4493 -1.2208
  635TMC3    C8 9410   3.515   3.485  16.629 -0.1937 -0.2489 -0.0939
  635TMC3    O1 9411   3.148   3.785  16.560  0.0913  0.9079  0.6882
  635TMC3    O2 9412   3.483   3.481  16.510 -0.2766  0.2033 -0.0530
  636MPD2     C 9413   3.899   2.229  15.507  0.3256 -0.9831 -0.3705
  636MPD2    C1 9414   3.968   2.324  15.572  0.2292 -0.6536  0.6663
  636MPD2    C2 9415   4.029   2.283  15.688 -0.5070  0.7269 -0.2670
  636MPD2    C3 9416   4.006   2.157  15.744 -0.0651 -0.1643  0.4210
  636MPD2    C4 9417   3.918   2.074  15.683  0.3187 -0.0803 -0.5031
  636MPD2    C5 9418   3.874   2.106  15.561  0.7262 -0.6922 -0.6368
  636MPD2     H 9419   4.087   2.360  15.738  1.0933 -2.0973  2.2162
  636MPD2    H1 9420   3.887   1.979  15.725  0.1576 -0.1033 -0.6763
  636MPD2    H2 9421   3.845   2.254  15.417  2.1366  1.4022 -0.8193
  636MPD2    H3 9422   3.810   2.040  15.504  1.2103 -0.5561 -1.3293
  636MPD2     N 9423   4.068   2.124  15.872  0.3677 -0.0334 -0.3190
  636MPD2    H5 9424   4.147   2.186  15.886 -1.9764  2.7490  0.4812
  636MPD2    N1 9425   3.969   2.461  15.524  0.1097 -0.2966  0.3884
  636MPD2    H7 9426   4.008   2.534  15.582 -0.0456  0.1059 -0.0113
  637TMC3    C1 9427   4.143   1.985  16.030  0.2172 -0.8370  0.3392
  637TMC3    C2 9428   4.171   2.048  16.147 -0.0763  0.0214  0.3146
  637TMC3    C3 9429   4.279   1.991  16.216  0.2004 -0.1849  0.0536
  637TMC3    C4 9430   4.209   1.878  15.976 -0.7594 -0.3416  0.3121
  637TMC3    C5 9431   4.331   1.854  16.029 -0.0109 -0.1309  0.0640
  637TMC3    C6 9432   4.358   1.897  16.155 -0.4367  0.0605 -0.6847
  637TMC3     C 9433   4.031   2.027  15.951 -0.8989 -0.3783 -0.1278
  637TMC3     O 9434   3.937   1.950  15.946  0.0375 -0.0486  0.1477
  637TMC3     H 9435   4.123   2.142  16.170  2.1764  0.5341  2.8633
  637TMC3    H1 9436   4.182   1.842  15.878  0.9843 -0.2420 -0.2050
  637TMC3    H2 9437   4.452   1.866  16.200  0.3318  0.5688 -1.9542
  637TMC3    C7 9438   4.437   1.854  15.935 -0.5100  0.0522  0.0132
  637TMC3    C8 9439   4.372   2.087  16.270 -0.8832 -0.6869 -0.0283
  637TMC3    O1 9440   4.429   1.782  15.834 -0.2945 -0.4063  0.0657
  637TMC3    O2 9441   4.484   2.086  16.217  0.1849  0.3758  0.9394
  638MPD2     C 9442   3.740   1.672  15.284 -0.0948  0.2884 -0.4097
  638MPD2    C1 9443   3.672   1.607  15.181  0.1267  0.6816  0.0439
  638MPD2    C2 9444   3.647   1.469  15.193  0.2466 -0.3116 -0.3265
  638MPD2    C3 9445   3.682   1.395  15.298  0.2828 -0.2127 -0.1179
  638MPD2    C4 9446   3.746   1.459  15.405  0.3267 -0.0342 -0.5526
  638MPD2    C5 9447   3.773   1.596  15.397 -0.7905 -0.2220 -0.3863
  638MPD2     H 9448   3.599   1.414  15.113 -0.0416 -0.5984  0.0439
  638MPD2    H1 9449   3.783   1.415  15.497 -0.3672 -1.3270 -0.8935
  638MPD2    H2 9450   3.772   1.775  15.280  1.7418 -0.1873  2.2434
  638MPD2    H3 9451   3.818   1.652  15.479 -0.3877  0.2307 -0.9202
  638MPD2     N 9452   3.678   1.252  15.283  0.0815 -0.1858 -0.3517
  638MPD2    H5 9453   3.639   1.219  15.195  0.0004  1.6659 -1.0041
  638MPD2    N1 9454   3.632   1.678  15.067  1.0954  0.0161 -0.3922
  638MPD2    H7 9455   3.662   1.772  15.040  1.5112  0.0659  0.2570
  639TMC3    C1 9456   3.708   1.021  15.357  0.6438  0.6251 -0.6484
  639TMC3    C2 9457   3.588   0.984  15.300 -0.1814 -0.1447 -0.1184
  639TMC3    C3 9458   3.540   0.859  15.324  0.9880  1.0973  1.2873
  639TMC3    C4 9459   3.770   0.942  15.451 -0.2600 -0.2607  0.0162
  639TMC3    C5 9460   3.720   0.814  15.466  0.4098 -0.3022 -0.1210
  639TMC3    C6 9461   3.605   0.768  15.405 -0.3794  0.3876 -0.3305
  639TMC3     C 9462   3.738   1.166  15.376 -0.5491  0.2191  0.5265
  639TMC3     O 9463   3.823   1.188  15.464  0.6043 -0.1996  0.4147
  639TMC3     H 9464   3.526   1.045  15.235  0.0495 -0.1346 -0.3300
  639TMC3    H1 9465   3.868   0.968  15.488 -0.5610 -0.1484  0.7306
  639TMC3    H2 9466   3.573   0.665  15.409 -1.7750  0.8307 -0.2725
  639TMC3    C7 9467   3.804   0.701  15.498 -0.3694  0.5289  0.2837
  639TMC3    C8 9468   3.428   0.822  15.246 -0.1897  0.6192 -0.3868
  639TMC3    O1 9469   3.763   0.590  15.526 -0.3742  0.3754 -0.0572
  639TMC3    O2 9470   3.420   0.875  15.133 -0.5454 -0.0360  0.0313
  640MPD2     C 9471   3.868   4.001   9.789 -0.3620  0.6776  0.5967
  640MPD2    C1 9472   3.950   4.113   9.813  0.3090  0.6337 -0.3075
  640MPD2    C2 9473   3.929   4.223   9.734 -0.0983 -0.2119 -0.4693
  640MPD2    C3 9474   3.832   4.234   9.636  0.4161 -0.3457  0.6195
  640MPD2    C4 9475   3.767   4.115   9.603 -0.1317  0.2099  0.2531
  640MPD2    C5 9476   3.782   4.000   9.680 -0.4331 -0.4280  0.1620
  640MPD2     H 9477   3.983   4.316   9.748 -2.6667  1.5126 -1.9085
  640MPD2    H1 9478   3.690   4.110   9.527 -0.6812 -0.2415  0.8365
  640MPD2    H2 9479   3.863   3.910   9.848 -0.6859  1.3710  1.6472
  640MPD2    H3 9480   3.727   3.907   9.670 -0.7620 -0.4459  2.1462
  640MPD2     N 9481   3.807   4.355   9.569 -0.0893  0.1185 -0.1221
  640MPD2    H5 9482   3.739   4.352   9.493  1.4644 -0.4207 -1.5006
  640MPD2    N1 9483   4.039   4.113   9.925 -0.1517 -0.7191  0.1815
  640MPD2    H7 9484   4.034   4.030   9.983  0.6269 -0.3912  0.7327
  641TMC3    C1 9485   4.203   4.185  10.074 -0.2581 -0.3312 -0.5277
  641TMC3    C2 9486   4.253   4.059  10.080  0.2580  0.5115  0.9499
  641TMC3    C3 9487   4.382   4.044  10.127  0.1072 -0.2286  0.1081
  641TMC3    C4 9488   4.276   4.291  10.105 -0.1163 -1.0785 -0.9255
  641TMC3    C5 9489   4.405   4.278  10.153  0.4971 -0.6195 -0.5434
  641TMC3    C6 9490   4.466   4.152  10.159 -0.2783 -0.2594  0.7214
  641TMC3     C 9491   4.101   4.219   9.979  0.0315  0.3433  0.4566
  641TMC3     O 9492   4.095   4.338   9.950  0.5860  0.2689  0.0016
  641TMC3     H 9493   4.199   3.971  10.046  2.3893  0.0234 -1.2177
  641TMC3    H1 9494   4.234   4.390  10.096 -1.1516 -1.5445 -1.1406
  641TMC3    H2 9495   4.573   4.141  10.172 -0.4610 -0.2484  2.2019
  641TMC3    C7 9496   4.489   4.397  10.168 -0.3604 -0.3715  0.1656
  641TMC3    C8 9497   4.436   3.914  10.091  0.0509 -0.6697  1.0124
  641TMC3    O1 9498   4.608   4.383  10.191  0.1060 -0.6068  0.7112
  641TMC3    O2 9499   4.372   3.855  10.005  0.2992  0.2796 -0.5875
  642TMC3    C1 9500   0.224   1.179  12.503 -0.3661 -0.0554  0.7597
  642TMC3    C2 9501   0.360   1.154  12.531 -0.4089 -0.0304 -0.8556
  642TMC3    C3 9502   0.428   1.054  12.466 -0.0802 -0.0196 -0.5929
  642TMC3    C4 9503   0.161   1.097  12.413  0.1316 -0.4032 -0.9852
  642TMC3    C5 9504   0.232   0.992  12.357  0.2117  0.2020  0.3378
  642TMC3    C6 9505   0.365   0.971  12.376 -0.2690 -0.2069  0.2626
  642TMC3     C 9506   0.154   1.290  12.569  0.0509  0.5491 -0.0375
  642TMC3     O 9507   0.227   1.361  12.642 -0.4410  0.5028  0.1943
  642TMC3     H 9508   0.411   1.228  12.592 -2.0694  1.4871 -1.2984
  642TMC3    H1 9509   0.057   1.113  12.386  0.2779  1.4773 -0.4341
  642TMC3    H2 9510   0.415   0.889  12.327 -0.4494  0.4920 -1.0768
  642TMC3    C7 9511   0.168   0.880  12.297 -0.3643 -0.2612  0.0502
  642TMC3    C8 9512   0.575   1.047  12.457 -0.1229 -0.0858 -0.4951
  642TMC3    O1 9513   0.232   0.800  12.227 -1.1509  0.0141  0.0223
  642TMC3    O2 9514   0.622   0.953  12.391  0.4742 -0.0349 -0.4060
  643TMC3    C1 9515   4.166   0.649   0.424  0.3783  0.1753 -0.4339
  643TMC3    C2 9516   4.034   0.674   0.377  0.1281 -0.1346  0.1335
  643TMC3    C3 9517   3.999   0.630   0.252  1.1446 -0.4664 -0.2680
  643TMC3    C4 9518   4.251   0.582   0.345  0.3753  0.0239  0.0697
  643TMC3    C5 9519   4.216   0.535   0.218 -0.6353  0.0014  0.2220
  643TMC3    C6 9520   4.092   0.560   0.171 -0.0576  0.1796  0.1933
  643TMC3     C 9521   4.190   0.690   0.560  0.3585 -0.4644 -0.0855
  643TMC3     O 9522   4.109   0.764   0.616 -0.5919  0.1931  0.0368
  643TMC3     H 9523   3.964   0.719   0.446  1.2923  0.8631  0.6553
  643TMC3    H1 9524   4.353   0.565   0.377 -0.0775 -0.7017  1.1003
  643TMC3    H2 9525   4.062   0.518   0.076  0.6103 -1.7971  0.8535
  643TMC3    C7 9526   4.325   0.541   0.121 -0.0267  0.6524 -0.3392
  643TMC3    C8 9527   3.921   0.730   0.180 -0.6506  0.6034 -0.1139
  643TMC3    O1 9528   4.433   0.589   0.158  0.1764 -0.5125 -0.0294
  643TMC3    O2 9529   3.796   0.728   0.182  0.1126 -0.1156 -0.0263
  644MPD2     C 9530   0.248   0.302   9.606 -0.0929  0.3612 -1.1811
  644MPD2    C1 9531   0.366   0.324   9.681  0.5192  0.3330 -0.3355
  644MPD2    C2 9532   0.428   0.452   9.674  0.2628  0.6848 -0.5588
  644MPD2    C3 9533   0.380   0.552   9.588  0.1412  0.5881  0.6922
  644MPD2    C4 9534   0.267   0.524   9.516 -0.7331  0.1432 -0.2372
  644MPD2    C5 9535   0.201   0.402   9.528  0.1928 -0.2791 -0.0651
  644MPD2     H 9536   0.509   0.488   9.737 -1.9697  2.7075  1.1795
  644MPD2    H1 9537   0.216   0.592   9.449 -0.2623 -0.0024 -0.7523
  644MPD2    H2 9538   0.196   0.207   9.604  0.2541  0.1441  0.0961
  644MPD2    H3 9539   0.106   0.389   9.478  0.3086 -0.1457 -0.3201
  644MPD2     N 9540   0.440   0.683   9.588  0.5917  0.4031 -0.4516
  644MPD2    H5 9541   0.518   0.691   9.653  0.6409  0.0256 -0.4663
  644MPD2    N1 9542   0.412   0.213   9.753 -0.3770 -0.2948  0.2204
  644MPD2    H7 9543   0.357   0.127   9.761  1.0381 -1.3635 -1.6307
  645TMC3    C1 9544   0.460   0.916   9.545  0.5533 -0.2737  0.6440
  645TMC3    C2 9545   0.430   1.015   9.454 -0.5210  0.1872 -0.2916
  645TMC3    C3 9546   0.444   1.145   9.491  0.5648 -0.5322 -0.1720
  645TMC3    C4 9547   0.475   0.944   9.674 -0.1666 -0.0373  0.1380
  645TMC3    C5 9548   0.486   1.075   9.709  0.2559  0.3479 -0.4516
  645TMC3    C6 9549   0.480   1.180   9.618  0.2249 -0.2257 -0.1043
  645TMC3     C 9550   0.416   0.787   9.505  0.5458 -0.5294 -0.5111
  645TMC3     O 9551   0.361   0.786   9.394  0.4780  0.2139  0.3456
  645TMC3     H 9552   0.404   0.986   9.352  0.5788 -1.4542 -0.1057
  645TMC3    H1 9553   0.489   0.869   9.751 -0.3940 -0.6779 -0.4446
  645TMC3    H2 9554   0.459   1.282   9.647  1.2511 -1.0361  3.4068
  645TMC3    C7 9555   0.492   1.112   9.850  0.3082 -0.0666  0.0249
  645TMC3    C8 9556   0.409   1.253   9.397 -0.0796  0.6602  0.3126
  645TMC3    O1 9557   0.443   1.022   9.922 -0.0636 -0.1669  0.1365
  645TMC3    O2 9558   0.449   1.362   9.435 -0.3331 -0.5764  0.1336
  646MPD2     C 9559   3.868   0.320  14.565 -0.5443 -0.7201 -0.3218
  646MPD2    C1 9560   3.794   0.284  14.671  0.0748  0.0990  0.1177
  646MPD2    C2 9561   3.654   0.317  14.674 -0.1917  0.6647  0.0440
  646MPD2    C3 9562   3.603   0.397  14.575 -0.8733 -0.0021 -0.5535
  646MPD2    C4 9563   3.686   0.427  14.472  0.0590 -0.2985 -0.2206
  646MPD2    C5 9564   3.818   0.392  14.462 -0.3553 -0.2100  0.1480
  646MPD2     H 9565   3.600   0.288  14.763  1.8868 -1.5605  0.5884
  646MPD2    H1 9566   3.644   0.478  14.385  0.9001 -1.1307 -1.1191
  646MPD2    H2 9567   3.971   0.288  14.562 -0.3312 -0.1184  0.6033
  646MPD2    H3 9568   3.888   0.419  14.384  0.7471  0.4968  1.3802
  646MPD2     N 9569   3.465   0.432  14.574  0.0130  0.5533  0.7135
  646MPD2    H5 9570   3.422   0.404  14.662  0.4942  0.6132  0.9651
  646MPD2    N1 9571   3.854   0.202  14.771 -0.5663 -1.1479  0.0778
  646MPD2    H7 9572   3.946   0.170  14.740 -0.6157 -3.4443  2.3145
  647TMC3    C1 9573   3.889   0.060  14.957  0.3661  0.0783  0.6096
  647TMC3    C2 9574   3.822   0.003  15.059  0.3667 -0.8424  0.1395
  647TMC3    C3 9575   3.898   4.653  15.143  0.2620  0.0740  0.0175
  647TMC3    C4 9576   4.020   0.057  14.939  0.1139 -0.1325 -0.3764
  647TMC3    C5 9577   4.095   4.706  15.022 -0.6037  0.1227  0.2695
  647TMC3    C6 9578   4.038   4.652  15.139 -0.0404  0.7944  0.1339
  647TMC3     C 9579   3.795   0.148  14.885  0.0499  0.3410  0.3443
  647TMC3     O 9580   3.684   0.168  14.932 -0.2514  0.0611 -0.4266
  647TMC3     H 9581   3.716   4.708  15.055  0.6042 -1.5624 -3.4960
  647TMC3    H1 9582   4.068   0.106  14.856 -1.6034  2.0153 -0.0916
  647TMC3    H2 9583   4.098   4.592  15.208 -1.4103 -2.1129 -1.2019
  647TMC3    C7 9584   4.213   4.634  14.975 -0.0182  0.0457 -0.0295
  647TMC3    C8 9585   3.842   4.540  15.221 -0.8586 -0.1017  0.2926
  647TMC3    O1 9586   4.264   4.555  15.052 -0.5360  0.3157 -0.3863
  647TMC3    O2 9587   3.759   4.465  15.171 -0.6243 -0.1201 -0.2581
  648TMC3    C1 9588   3.525   2.566  16.191 -1.6681 -0.3333  1.3068
  648TMC3    C2 9589   3.588   2.458  16.136  0.0988  0.0898  0.4296
  648TMC3    C3 9590   3.532   2.414  16.015 -0.6094 -0.6949  0.4001
  648TMC3    C4 9591   3.418   2.625  16.140  0.4705  0.2577  0.5186
  648TMC3    C5 9592   3.371   2.589  16.015  0.8782 -0.0889 -0.0094
  648TMC3    C6 9593   3.431   2.482  15.947  0.2058  0.4579  0.5988
  648TMC3     C 9594   3.547   2.576  16.332  0.0236  0.6020  0.2988
  648TMC3     O 9595   3.606   2.487  16.386  0.2305 -0.3069 -0.0953
  648TMC3     H 9596   3.661   2.398  16.188  0.4310 -0.3606 -0.5481
  648TMC3    H1 9597   3.363   2.698  16.198 -1.3623 -1.7544  1.3314
  648TMC3    H2 9598   3.403   2.455  15.847  0.2674 -1.1280  1.0150
  648TMC3    C7 9599   3.283   2.670  15.930 -0.4125 -0.4710  0.2311
  648TMC3    C8 9600   3.581   2.278  15.971  0.5781  0.6009 -0.0104
  648TMC3    O1 9601   3.242   2.640  15.821  0.2756 -0.8627 -0.0908
  648TMC3    O2 9602   3.699   2.245  16.002  0.0905  0.4481 -0.1140
  649TMC3    C1 9603   1.979   3.935  12.573 -0.8425 -0.1071  0.1923
  649TMC3    C2 9604   2.116   3.919  12.556 -1.0513 -0.6450 -0.3170
  649TMC3    C3 9605   2.171   3.836  12.646 -0.3620 -0.0913 -0.3719
  649TMC3    C4 9606   1.905   3.859  12.654  0.5142  0.0905  0.0254
  649TMC3    C5 9607   1.963   3.784  12.743  0.0259  0.1613  0.8800
  649TMC3    C6 9608   2.099   3.763  12.735  0.3450  0.8357 -0.0172
  649TMC3     C 9609   1.903   4.018  12.489 -0.2525 -0.1003  0.1904
  649TMC3     O 9610   1.795   4.062  12.533 -0.3817 -0.6178 -0.3025
  649TMC3     H 9611   2.173   3.973  12.481  0.1798  1.0288  1.8674
  649TMC3    H1 9612   1.797   3.862  12.663  0.3782  0.1448 -1.5357
  649TMC3    H2 9613   2.143   3.694  12.807 -3.4100 -2.0160 -0.4553
  649TMC3    C7 9614   1.885   3.704  12.831  0.1613 -0.6035  0.0808
  649TMC3    C8 9615   2.319   3.822  12.646  0.4685  0.4883 -0.2618
  649TMC3    O1 9616   1.803   3.770  12.902 -0.1921 -0.4802  0.0119
  649TMC3    O2 9617   2.373   3.737  12.715 -0.1425 -0.0926  0.1070
  650TMC3    C1 9618   4.074   0.425  12.580  0.7499 -0.3968 -0.5624
  650TMC3    C2 9619   3.973   0.501  12.647  0.2862  0.2997  0.4755
  650TMC3    C3 9620   3.862   0.529  12.583  0.0247  0.1327  0.7936
  650TMC3    C4 9621   4.066   0.391  12.450  1.0951 -0.3062  0.4271
  650TMC3    C5 9622   3.945   0.425  12.390 -0.3381  0.3463  0.1793
  650TMC3    C6 9623   3.842   0.480  12.466 -0.2023  0.3919 -0.1409
  650TMC3     C 9624   4.200   0.446  12.649  0.3176  0.0474  0.3877
  650TMC3     O 9625   4.203   0.507  12.755  0.5295 -0.1550 -0.7387
  650TMC3     H 9626   3.984   0.535  12.749  1.3062  0.6866  0.2433
  650TMC3    H1 9627   4.156   0.373  12.391 -0.8953  0.2016 -2.7682
  650TMC3    H2 9628   3.753   0.507  12.411 -0.3715  0.8054  0.3399
  650TMC3    C7 9629   3.957   0.470  12.259  0.0622 -0.3003  0.8097
  650TMC3    C8 9630   3.813   0.669  12.585 -0.9187 -0.2638 -0.4433
  650TMC3    O1 9631   4.032   0.408  12.186  0.4696  0.6715  0.4494
  650TMC3    O2 9632   3.840   0.744  12.493 -0.8396  0.0449  0.3685
  651MPD2     C 9633   3.676   1.451  11.155  0.3131 -0.0141  0.6919
  651MPD2    C1 9634   3.637   1.555  11.080 -0.1103 -0.1453 -0.4290
  651MPD2    C2 9635   3.729   1.638  11.021 -0.0217 -0.3799  0.1513
  651MPD2    C3 9636   3.855   1.599  11.016  0.4811  0.1815 -0.6546
  651MPD2    C4 9637   3.896   1.494  11.094  0.6005  0.2576  0.3446
  651MPD2    C5 9638   3.810   1.412  11.160 -0.4703  0.1690 -0.0436
  651MPD2     H 9639   3.686   1.721  10.966 -3.0904 -2.3136 -0.4223
  651MPD2    H1 9640   3.999   1.464  11.110  0.5132 -0.5969 -0.6955
  651MPD2    H2 9641   3.619   1.394  11.228 -0.6604 -2.5877 -2.0430
  651MPD2    H3 9642   3.850   1.336  11.225  2.3474  1.5701 -0.1589
  651MPD2     N 9643   3.947   1.687  10.946 -0.0975 -0.0942  0.3348
  651MPD2    H5 9644   3.903   1.760  10.891  0.2208 -0.4961 -0.4621
  651MPD2    N1 9645   3.503   1.602  11.077 -0.7011 -0.0070 -0.1119
  651MPD2    H7 9646   3.490   1.691  11.031 -0.7407 -0.1018 -0.2872
  652TMC3    C1 9647   4.316   1.923  10.825  0.2397  0.8624 -0.0059
  652TMC3    C2 9648   4.272   1.807  10.889  0.1032  0.5927 -0.8201
  652TMC3    C3 9649   4.149   1.765  10.852 -0.2838  0.0767  0.1971
  652TMC3    C4 9650   4.249   1.980  10.720  0.4081 -0.3388 -0.2113
  652TMC3    C5 9651   4.129   1.929  10.681 -0.2900  0.1847  0.1410
  652TMC3    C6 9652   4.070   1.828  10.754 -0.3868 -0.7200  0.0811
  652TMC3     C 9653   4.437   1.984  10.883  0.3658  0.5140 -0.0146
  652TMC3     O 9654   4.499   1.913  10.964  0.1847 -0.0416 -0.2412
  652TMC3     H 9655   4.324   1.766  10.975 -2.5008  0.2807  0.6098
  652TMC3    H1 9656   4.303   2.056  10.664 -2.0390  0.9311 -0.8300
  652TMC3    H2 9657   3.971   1.795  10.724 -0.3967  0.1847 -0.8447
  652TMC3    C7 9658   4.035   2.018  10.603 -0.5283 -0.0886 -0.6984
  652TMC3    C8 9659   4.083   1.670  10.938 -0.1713 -0.3805 -0.0173
  652TMC3    O1 9660   3.942   1.962  10.553  0.1781 -0.3081 -0.0137
  652TMC3    O2 9661   4.156   1.589  10.996  0.1393  0.3716 -0.4360
  653MPD2     C 9662   2.533   2.425   0.170 -0.2480  0.3892  0.1664
  653MPD2    C1 9663   2.464   2.462   0.059 -0.5042 -0.3041 -0.1725
  653MPD2    C2 9664   2.382   2.363   0.004  0.5125 -0.1441  0.0776
  653MPD2    C3 9665   2.390   2.230   0.045 -0.3012  0.3113 -0.6135
  653MPD2    C4 9666   2.470   2.193   0.144 -0.3565  0.3530  0.5943
  653MPD2    C5 9667   2.534   2.294   0.215  0.0140  0.1740  0.2686
  653MPD2     H 9668   2.322   2.394  17.617  2.2902  1.2104 -0.6794
  653MPD2    H1 9669   2.475   2.092   0.181  1.3602 -0.5725 -2.1271
  653MPD2    H2 9670   2.603   2.495   0.213 -1.4731 -0.4193  3.4789
  653MPD2    H3 9671   2.602   2.268   0.295 -0.3371 -0.2209  0.4385
  653MPD2     N 9672   2.308   2.137  17.679 -0.3457  0.4792 -0.2811
  653MPD2    H5 9673   2.260   2.171  17.596 -2.1915  2.3528  1.5503
  653MPD2    N1 9674   2.458   2.589   0.010  0.3797  0.1359  0.2177
  653MPD2    H7 9675   2.415   2.605  17.617 -2.8367 -3.2703  1.1373
  654TMC3    C1 9676   2.234   1.956  17.578 -0.7876 -0.1817 -0.2373
  654TMC3    C2 9677   2.129   2.041  17.555  0.1252  0.0061 -0.1520
  654TMC3    C3 9678   2.071   2.041  17.435  0.3808  0.3782 -0.3706
  654TMC3    C4 9679   2.275   1.862  17.487 -0.1030  0.1929  0.5234
  654TMC3    C5 9680   2.212   1.865  17.364 -0.0871 -0.1701 -0.2217
  654TMC3    C6 9681   2.121   1.957  17.334  0.4070  0.2970  0.7006
  654TMC3     C 9682   2.328   1.998  17.684 -0.2113 -0.4522  0.0731
  654TMC3     O 9683   2.418   1.920   0.001 -0.2119  1.0666 -0.3401
  654TMC3     H 9684   2.097   2.105  17.637  0.9331 -1.0273  0.9675
  654TMC3    H1 9685   2.368   1.810  17.507 -0.5065 -1.4952 -1.9903
  654TMC3    H2 9686   2.074   1.964  17.237 -1.2296 -0.0659  1.4603
  654TMC3    C7 9687   2.274   1.788  17.260 -0.2226 -0.1849  0.4380
  654TMC3    C8 9688   1.977   2.146  17.403  0.6686  0.3134  0.2247
  654TMC3    O1 9689   2.273   1.845  17.150  0.6458  0.6661  0.7341
  654TMC3    O2 9690   1.929   2.138  17.295 -0.0607  0.4037  0.0085
  655MPD2     C 9691   3.673   2.555  15.748 -0.1554  0.0019  0.3008
  655MPD2    C1 9692   3.582   2.656  15.708 -0.0140  0.1310 -0.3633
  655MPD2    C2 9693   3.502   2.619  15.598  0.3217 -0.1533 -0.2913
  655MPD2    C3 9694   3.504   2.490  15.538  0.3658  0.0621  0.3076
  655MPD2    C4 9695   3.586   2.395  15.592  0.9240  0.7083 -0.9589
  655MPD2    C5 9696   3.674   2.431  15.690 -0.2834 -0.1433 -0.6449
  655MPD2     H 9697   3.431   2.695  15.569  0.4599  1.0886  2.5855
  655MPD2    H1 9698   3.594   2.296  15.547 -1.3687  0.0802  0.0457
  655MPD2    H2 9699   3.750   2.577  15.822 -0.1237  2.1030 -0.3544
  655MPD2    H3 9700   3.749   2.361  15.725 -0.1143  0.7743  0.8385
  655MPD2     N 9701   3.428   2.453  15.426 -0.2358  0.1697  0.2813
  655MPD2    H5 9702   3.429   2.358  15.389  0.2468  0.4260 -0.3605
  655MPD2    N1 9703   3.563   2.787  15.752 -0.2871 -1.2012 -0.9015
  655MPD2    H7 9704   3.491   2.845  15.709  0.2288 -0.1166 -0.3187
  656TMC3    C1 9705   3.595   2.979  15.896  0.6261  1.1251  0.7279
  656TMC3    C2 9706   3.602   3.006  16.033  0.1962  0.6560 -0.1217
  656TMC3    C3 9707   3.524   3.112  16.073  0.4142 -0.2555 -0.0541
  656TMC3    C4 9708   3.530   3.057  15.806 -0.0790 -0.8655  0.3888
  656TMC3    C5 9709   3.466   3.167  15.853 -0.2997 -0.2648  0.6209
  656TMC3    C6 9710   3.447   3.191  15.986 -0.3162  0.8857  0.4830
  656TMC3     C 9711   3.635   2.844  15.851 -0.1728  0.4304 -0.1052
  656TMC3     O 9712   3.708   2.781  15.929  0.4809  0.2504  0.2475
  656TMC3     H 9713   3.641   2.928  16.098  0.1725  0.8309  0.0989
  656TMC3    H1 9714   3.535   3.041  15.699  0.5176 -2.3526  0.6356
  656TMC3    H2 9715   3.372   3.262  16.020 -1.1406  0.4803 -0.5208
  656TMC3    C7 9716   3.400   3.250  15.757  0.5372  0.7076 -0.2750
  656TMC3    C8 9717   3.453   3.058  16.189  0.2465 -0.1530  0.6299
  656TMC3    O1 9718   3.405   3.208  15.644 -0.3613  0.0975 -0.1408
  656TMC3    O2 9719   3.452   2.933  16.202 -0.9545  0.2530 -0.2041
  657TMC3    C1 9720   2.323   2.428  15.278 -0.3620 -0.5293 -0.5457
  657TMC3    C2 9721   2.370   2.377  15.388 -0.5134  0.1459 -0.2065
  657TMC3    C3 9722   2.351   2.452  15.499  0.9625  0.1914 -1.1260
  657TMC3    C4 9723   2.238   2.533  15.286 -0.2115  0.5565  0.3059
  657TMC3    C5 9724   2.206   2.591  15.401 -0.0276  0.5655 -0.4481
  657TMC3    C6 9725   2.265   2.554  15.517  0.1617 -0.4870  0.4842
  657TMC3     C 9726   2.329   2.357  15.157  0.3084  0.4325 -0.5776
  657TMC3     O 9727   2.227   2.361  15.091 -0.2040 -0.9904 -0.4197
  657TMC3     H 9728   2.437   2.292  15.387 -0.7368 -0.0179 -0.9642
  657TMC3    H1 9729   2.208   2.576  15.191 -1.3743  0.8121  0.7943
  657TMC3    H2 9730   2.241   2.599  15.612  1.6740  0.3608  0.4637
  657TMC3    C7 9731   2.108   2.699  15.398  0.1959  0.3951 -0.5334
  657TMC3    C8 9732   2.459   2.439  15.595 -1.0311  0.8378  0.0254
  657TMC3    O1 9733   2.101   2.769  15.297 -0.4855  0.2425  0.1107
  657TMC3    O2 9734   2.506   2.329  15.606  0.1038  0.1242  0.0520
  658MPD2     C 9735   3.710   2.385  14.843 -0.1441 -0.3156 -0.1773
  658MPD2    C1 9736   3.579   2.420  14.837 -0.0398 -0.5075  0.0453
  658MPD2    C2 9737   3.544   2.508  14.734 -0.2958 -0.2472  0.2931
  658MPD2    C3 9738   3.638   2.566  14.647 -0.7905  0.2775  0.2031
  658MPD2    C4 9739   3.771   2.526  14.660  0.1709 -0.0284  0.4250
  658MPD2    C5 9740   3.803   2.430  14.750 -0.6843  0.6505  0.6001
  658MPD2     H 9741   3.443   2.547  14.728 -1.0110 -2.1736  0.0728
  658MPD2    H1 9742   3.858   2.562  14.606 -0.8035 -1.7152 -2.2802
  658MPD2    H2 9743   3.752   2.322  14.921  2.1215  0.8170 -0.4939
  658MPD2    H3 9744   3.902   2.387  14.754 -0.2542  1.4800 -1.5695
  658MPD2     N 9745   3.590   2.659  14.554 -0.1728  0.3511 -0.6836
  658MPD2    H5 9746   3.493   2.686  14.571  0.0329 -0.5388  1.8728
  658MPD2    N1 9747   3.488   2.373  14.931  0.5291  0.2243  0.1266
  658MPD2    H7 9748   3.539   2.336  15.010  0.9395 -0.7422 -0.5989
  659TMC3    C1 9749   3.273   2.388  15.036 -0.7706 -0.1164 -0.4401
  659TMC3    C2 9750   3.331   2.410  15.160 -1.0820  0.1633 -0.4268
  659TMC3    C3 9751   3.269   2.491  15.251  0.3120 -0.2575 -0.7775
  659TMC3    C4 9752   3.140   2.417  15.015  0.2052  0.1426  0.3138
  659TMC3    C5 9753   3.087   2.501  15.108 -0.1193 -0.0875  0.2097
  659TMC3    C6 9754   3.149   2.544  15.219  0.1797 -0.7194  0.5847
  659TMC3     C 9755   3.352   2.376  14.919  0.0841  0.0898  0.2721
  659TMC3     O 9756   3.286   2.375  14.817  0.0672  0.2960  0.1036
  659TMC3     H 9757   3.435   2.383  15.175 -1.3056 -1.5023 -1.9796
  659TMC3    H1 9758   3.102   2.420  14.914  0.6191  0.0342  0.1550
  659TMC3    H2 9759   3.096   2.606  15.290 -0.7114  0.6535 -1.2677
  659TMC3    C7 9760   2.963   2.554  15.068 -0.1466 -0.1618 -0.3858
  659TMC3    C8 9761   3.341   2.543  15.367  0.1238 -0.0949  0.1837
  659TMC3    O1 9762   2.941   2.659  15.132 -0.3382  0.4065  0.2320
  659TMC3    O2 9763   3.298   2.651  15.405  0.0123 -0.0231  0.3372
  660MPD2     C 9764   1.469   1.278  12.850  0.3057  0.1594 -1.0795
  660MPD2    C1 9765   1.348   1.337  12.876  0.0201 -0.6313 -0.3833
  660MPD2    C2 9766   1.271   1.277  12.971 -0.1818  0.6494  0.0258
  660MPD2    C3 9767   1.310   1.161  13.033  0.3534 -0.3460 -0.1411
  660MPD2    C4 9768   1.432   1.112  13.012  0.3535 -0.1237 -0.1459
  660MPD2    C5 9769   1.515   1.167  12.923 -0.0460  0.1777 -0.4990
  660MPD2     H 9770   1.176   1.321  12.997  1.1545  2.9955  0.9686
  660MPD2    H1 9771   1.462   1.016  13.054 -1.3299 -0.5167  0.1563
  660MPD2    H2 9772   1.538   1.320  12.778  1.2876  0.2769 -0.0654
  660MPD2    H3 9773   1.612   1.127  12.897  0.8279  1.6006  0.6051
  660MPD2     N 9774   1.214   1.095  13.121 -0.2857 -0.0111  0.1220
  660MPD2    H5 9775   1.257   1.012  13.162  1.1899  1.0271  0.6752
  660MPD2    N1 9776   1.301   1.453  12.806  0.6486 -0.2870 -0.1112
  660MPD2    H7 9777   1.376   1.500  12.757  0.9346  0.0905  0.6763
  661TMC3    C1 9778   1.159   1.613  12.708  0.2710 -1.0714 -0.6110
  661TMC3    C2 9779   1.245   1.621  12.602  0.6882  0.1914 -0.5149
  661TMC3    C3 9780   1.203   1.664  12.480 -0.5248 -0.2371 -0.2721
  661TMC3    C4 9781   1.028   1.654  12.700 -0.5648 -0.2241  0.0271
  661TMC3    C5 9782   0.990   1.695  12.578  0.2431  0.2959  0.5095
  661TMC3    C6 9783   1.073   1.704  12.468 -0.4777 -0.6465 -0.2584
  661TMC3     C 9784   1.180   1.509  12.807  0.3739  0.9559  0.1469
  661TMC3     O 9785   1.079   1.474  12.859 -0.5897 -0.3452 -0.6574
  661TMC3     H 9786   1.345   1.578  12.613  0.8281  1.1705  2.2327
  661TMC3    H1 9787   0.957   1.636  12.779  0.7188 -0.9103  1.0307
  661TMC3    H2 9788   1.030   1.728  12.372 -0.4584  1.9675  0.3885
  661TMC3    C7 9789   0.858   1.653  12.547  0.4297  0.4056  0.4315
  661TMC3    C8 9790   1.286   1.635  12.363  0.0191  0.2816  0.7686
  661TMC3    O1 9791   0.770   1.685  12.623  0.5294 -0.5158  0.3562
  661TMC3    O2 9792   1.382   1.565  12.389 -0.1796 -0.0042  0.5328
  662MPD2     C 9793   2.094   1.180  17.123 -0.8524 -0.4623 -0.1792
  662MPD2    C1 9794   2.096   1.180  17.261 -0.2786 -0.1274  0.8099
  662MPD2    C2 9795   2.065   1.299  17.323 -0.3459 -0.0301 -0.4081
  662MPD2    C3 9796   2.047   1.416  17.253 -0.5935 -0.3775  0.8095
  662MPD2    C4 9797   2.055   1.417  17.113  0.2864 -0.2408  0.5178
  662MPD2    C5 9798   2.077   1.296  17.052  0.3053  1.1122 -0.2172
  662MPD2     H 9799   2.038   1.299  17.428  2.1150 -1.8201  0.2242
  662MPD2    H1 9800   2.034   1.502  17.050 -2.0421 -0.4990  0.9220
  662MPD2    H2 9801   2.111   1.094  17.059 -2.6401 -0.6568 -0.3781
  662MPD2    H3 9802   2.083   1.286  16.944  0.6363  0.7650 -0.1645
  662MPD2     N 9803   2.001   1.537  17.317  0.9451 -0.0710 -0.7048
  662MPD2    H5 9804   1.971   1.609  17.252  4.4568  0.8735 -1.2491
  662MPD2    N1 9805   2.114   1.059  17.337 -0.1033  0.9703 -0.3978
  662MPD2    H7 9806   2.111   1.060  17.439 -1.0019  1.0706 -0.4194
  663TMC3    C1 9807   2.104   0.830  17.397  0.3654  0.1909  0.0721
  663TMC3    C2 9808   1.999   0.853  17.484  0.9132 -0.7053  0.6110
  663TMC3    C3 9809   1.908   0.751  17.505  0.5093 -0.2597 -0.5214
  663TMC3    C4 9810   2.120   0.707  17.341 -0.1606 -0.0344  0.5114
  663TMC3    C5 9811   2.038   0.602  17.370  0.1119  0.0531 -1.0378
  663TMC3    C6 9812   1.931   0.633  17.448  0.7032 -0.2860  0.6478
  663TMC3     C 9813   2.132   0.932  17.299  0.3941  1.2557  0.9061
  663TMC3     O 9814   2.153   0.884  17.191 -0.1814 -0.2429 -0.2845
  663TMC3     H 9815   1.963   0.953  17.506  1.2953 -0.5812  0.6809
  663TMC3    H1 9816   2.213   0.685  17.289 -0.3727  1.2361 -0.4049
  663TMC3    H2 9817   1.852   0.559  17.451  1.2565 -0.9499 -1.0822
  663TMC3    C7 9818   2.054   0.480  17.298  0.5313 -0.1992 -0.0767
  663TMC3    C8 9819   1.776   0.799  17.465  0.0771  0.1073  0.0492
  663TMC3    O1 9820   2.154   0.478  17.218 -0.2641 -0.2019  0.2602
  663TMC3    O2 9821   1.731   0.752  17.361  0.0792  0.6496 -0.3717
  664MPD2     C 9822   0.162   3.944   0.534 -0.4333  0.6945 -0.2858
  664MPD2    C1 9823   0.194   4.080   0.528  0.2912  0.4743  0.5242
  664MPD2    C2 9824   0.120   4.173   0.602 -0.6363  0.2544 -0.8263
  664MPD2    C3 9825   0.015   4.137   0.681 -0.1097 -0.1407  0.2495
  664MPD2    C4 9826   4.717   4.003   0.693  0.0323  0.3625 -0.5734
  664MPD2    C5 9827   0.068   3.908   0.625  0.6795  0.1820 -0.0765
  664MPD2     H 9828   0.160   4.273   0.598  3.4802 -1.2765  1.4773
  664MPD2    H1 9829   4.642   3.964   0.760  1.8921 -0.2358  1.1468
  664MPD2    H2 9830   0.194   3.872   0.459  3.0213  1.6127  0.2788
  664MPD2    H3 9831   0.045   3.805   0.646 -0.0840 -0.3651 -3.6444
  664MPD2     N 9832   4.672   4.232   0.754  0.3746  0.2185  0.8037
  664MPD2    H5 9833   4.716   4.323   0.763 -0.1772  0.5087  0.6291
  664MPD2    N1 9834   0.280   4.138   0.435 -0.3979 -0.7024 -0.9325
  664MPD2    H7 9835   0.275   4.239   0.426 -0.2039 -0.3650  2.8246
  665TMC3    C1 9836   4.536   4.325   0.923  0.0829  0.3738  0.2808
  665TMC3    C2 9837   4.407   4.343   0.964 -0.1953  0.1590 -0.3641
  665TMC3    C3 9838   4.374   4.462   1.024 -0.2328  0.0687  0.1712
  665TMC3    C4 9839   4.636   4.409   0.958 -0.0734  0.0991 -0.6476
  665TMC3    C5 9840   4.597   4.515   1.034 -0.3286  0.0323 -1.1866
  665TMC3    C6 9841   4.470   4.545   1.070  0.8538  0.0815  0.9237
  665TMC3     C 9842   4.558   4.214   0.832  0.4695  0.0920 -0.5155
  665TMC3     O 9843   4.473   4.127   0.829  0.4367 -0.0366  0.3590
  665TMC3     H 9844   4.333   4.280   0.915  0.8782 -0.8215 -0.7269
  665TMC3    H1 9845   0.012   4.378   0.933  0.1994  0.6189 -0.1944
  665TMC3    H2 9846   4.453   4.642   1.116 -1.9633  0.3839 -0.7523
  665TMC3    C7 9847   4.711   4.605   1.069  0.5029  0.1636 -0.1370
  665TMC3    C8 9848   4.230   4.496   1.053 -0.0924  0.2289  0.1717
  665TMC3    O1 9849   0.078   4.617   0.987  0.4138  0.9539 -0.2086
  665TMC3    O2 9850   4.216   4.603   1.112 -0.1242  0.0199 -0.8684
  666TMC3    C1 9851   3.368   3.712  10.110  0.5078 -0.3978 -0.2299
  666TMC3    C2 9852   3.470   3.625  10.143 -0.7513 -0.1477  0.7913
  666TMC3    C3 9853   3.597   3.670  10.115  0.1735 -0.3163  0.1153
  666TMC3    C4 9854   3.398   3.828  10.049 -0.5656 -0.4737  0.3080
  666TMC3    C5 9855   3.521   3.862  10.009 -0.2137  0.3020 -0.0598
  666TMC3    C6 9856   3.624   3.789  10.052 -0.2916  0.3409  0.4068
  666TMC3     C 9857   3.266   3.719  10.212  0.0200  0.1125  0.0341
  666TMC3     O 9858   3.196   3.822  10.212 -0.6159 -0.0663 -0.1216
  666TMC3     H 9859   3.450   3.525  10.180  0.0579 -0.6818 -0.2077
  666TMC3    H1 9860   3.318   3.900  10.031 -0.7916 -0.2690  2.1142
  666TMC3    H2 9861   3.723   3.833  10.056 -0.6464  1.2320 -0.8444
  666TMC3    C7 9862   3.553   4.004   9.988  0.0672  0.0143 -0.1975
  666TMC3    C8 9863   3.699   3.582  10.163 -0.0665  0.0534 -0.7904
  666TMC3    O1 9864   3.620   4.055  10.079  0.0721  0.1702  0.7206
  666TMC3    O2 9865   3.672   3.513  10.261  0.1167  0.5096  0.1298
  667MPD2     C 9866   0.890   4.172  14.445  0.2378  0.4240 -0.2055
  667MPD2    C1 9867   0.793   4.205  14.542  0.5368 -0.3067 -0.4691
  667MPD2    C2 9868   0.661   4.150  14.529  0.1833  0.5259 -0.3331
  667MPD2    C3 9869   0.625   4.076  14.415  0.5480  0.6962  0.6983
  667MPD2    C4 9870   0.717   4.051  14.316  0.3245  0.3742 -0.3865
  667MPD2    C5 9871   0.852   4.091  14.340 -0.8655 -0.3484 -0.1958
  667MPD2     H 9872   0.591   4.173  14.609  0.8061  0.2979  0.2722
  667MPD2    H1 9873   0.706   4.002  14.220 -0.9777  2.1487 -1.1480
  667MPD2    H2 9874   0.993   4.207  14.440  0.1948  1.0259  2.5393
  667MPD2    H3 9875   0.927   4.085  14.261 -0.5995 -1.0741  0.1072
  667MPD2     N 9876   0.494   4.019  14.389 -0.4341  0.6414  0.4025
  667MPD2    H5 9877   0.491   3.978  14.297 -1.0011 -1.5170  1.3759
  667MPD2    N1 9878   0.825   4.287  14.655  0.4274 -0.3433 -0.2156
  667MPD2    H7 9879   0.766   4.302  14.736 -0.5006  0.2696 -1.0031
  668TMC3    C1 9880   0.965   4.437  14.780 -0.8115  0.3305 -0.1037
  668TMC3    C2 9881   1.030   4.560  14.771  0.0891 -0.2510 -0.0170
  668TMC3    C3 9882   1.020   4.645  14.872 -0.8334  0.2429  0.0812
  668TMC3    C4 9883   0.900   4.389  14.895  0.8747 -0.2196 -0.4611
  668TMC3    C5 9884   0.891   4.485  14.997 -0.4703  0.2790 -0.0064
  668TMC3    C6 9885   0.953   4.607  14.984  0.3805 -0.3548 -0.2677
  668TMC3     C 9886   0.949   4.357  14.659  0.2531 -0.4758  0.2568
  668TMC3     O 9887   1.040   4.363  14.576 -0.6522 -0.4668 -0.1912
  668TMC3     H 9888   1.065   4.605  14.679  0.5046  0.8403  0.6644
  668TMC3    H1 9889   0.858   4.290  14.906 -0.7405  0.5745  0.6462
  668TMC3    H2 9890   0.966   4.678  15.066 -1.3463 -1.8900  1.3433
  668TMC3    C7 9891   0.835   4.451  15.125  0.1178  0.1840 -0.2046
  668TMC3    C8 9892   1.076   0.053  14.862  0.0106 -0.4666 -0.3317
  668TMC3    O1 9893   0.878   4.526  15.211  0.7113  0.1763 -0.4668
  668TMC3    O2 9894   1.027   0.141  14.931  0.6090  0.2105  0.2232
  669TMC3    C1 9895   3.599   4.450  14.342  0.1022  0.2429  0.5815
  669TMC3    C2 9896   3.472   4.429  14.287  0.1184 -0.1230  0.4251
  669TMC3    C3 9897   3.455   4.476  14.158  0.1507  1.1325 -0.6016
  669TMC3    C4 9898   3.693   4.531  14.280  0.0811  0.2309 -0.2498
  669TMC3    C5 9899   3.662   4.586  14.158 -0.5286 -0.7233 -0.5043
  669TMC3    C6 9900   3.546   4.559  14.097 -0.5143  0.0858  0.2630
  669TMC3     C 9901   3.635   4.373  14.460 -0.0584 -0.3057 -0.2316
  669TMC3     O 9902   3.545   4.295  14.493 -0.0200  0.6711 -0.0607
  669TMC3     H 9903   3.399   4.363  14.333  0.8394 -2.2394 -1.4473
  669TMC3    H1 9904   3.787   4.564  14.322  1.0743 -2.7676 -0.0981
  669TMC3    H2 9905   3.531   4.605  14.000  0.5997 -0.5765 -0.2254
  669TMC3    C7 9906   3.764   4.673  14.099 -0.1562 -0.5723  0.1777
  669TMC3    C8 9907   3.316   4.512  14.125  0.8502 -0.0173  0.2700
  669TMC3    O1 9908   3.844   0.000  14.169 -0.3823  0.5205  0.4358
  669TMC3    O2 9909   3.296   4.629  14.120  0.3044  0.5409  0.1190
  670MPD2     C 9910   1.630   1.824  13.665  0.2565  0.2672 -0.3275
  670MPD2    C1 9911   1.689   1.894  13.769 -0.5623 -0.2877 -0.9414
  670MPD2    C2 9912   1.657   1.870  13.903 -0.0589  0.4960  0.2322
  670MPD2    C3 9913   1.553   1.787  13.938 -0.3880 -0.9732  0.1510
  670MPD2    C4 9914   1.501   1.718  13.840  0.4455 -0.1220 -0.1074
  670MPD2    C5 9915   1.532   1.738  13.710 -0.1602 -0.5193  1.0432
  670MPD2     H 9916   1.709   1.923  13.982 -0.0846  0.7966  0.0486
  670MPD2    H1 9917   1.420   1.649  13.863  0.7738 -0.8333 -1.0950
  670MPD2    H2 9918   1.657   1.817  13.560 -0.3430  0.0708 -0.4646
  670MPD2    H3 9919   1.476   1.671  13.646 -0.1847  1.1047 -0.6156
  670MPD2     N 9920   1.505   1.783  14.067 -0.1938 -0.1512 -0.1250
  670MPD2    H5 9921   1.551   1.853  14.124 -0.0825 -0.9565  0.7758
  670MPD2    N1 9922   1.795   1.975  13.737 -0.6633  0.0286 -0.2782
  670MPD2    H7 9923   1.842   2.017  13.817  2.2359 -1.3012 -1.2670
  671TMC3    C1 9924   1.413   1.688  14.268  0.3724 -0.1228 -0.2232
  671TMC3    C2 9925   1.526   1.710  14.341 -0.2144 -0.2944 -0.3309
  671TMC3    C3 9926   1.553   1.617  14.429  0.3539  0.0959  1.1716
  671TMC3    C4 9927   1.313   1.602  14.298 -0.7141  0.0732 -0.8440
  671TMC3    C5 9928   1.345   1.508  14.395  0.3581  0.1023 -0.4489
  671TMC3    C6 9929   1.464   1.513  14.457  0.3723 -0.3609  0.2669
  671TMC3     C 9930   1.433   1.680  14.122  0.0726 -0.7637 -0.0850
  671TMC3     O 9931   1.373   1.584  14.078 -0.1492 -0.9121  0.7184
  671TMC3     H 9932   1.606   1.770  14.299 -1.7211  2.7734  1.1913
  671TMC3    H1 9933   1.219   1.594  14.245 -1.8147 -0.4027  1.1525
  671TMC3    H2 9934   1.498   1.439  14.528 -1.3816 -1.0074  0.4326
  671TMC3    C7 9935   1.309   1.377  14.356 -0.0230 -0.9298 -0.2238
  671TMC3    C8 9936   1.692   1.589  14.451  0.2315 -0.5318  0.1672
  671TMC3    O1 9937   1.320   1.290  14.443 -0.4385  0.2158 -0.1563
  671TMC3    O2 9938   1.763   1.617  14.354  0.0565 -0.0919 -0.4718
  672MPD2     C 9939   2.465   3.393   1.559 -0.4490  0.2694 -0.4925
  672MPD2    C1 9940   2.412   3.282   1.501 -0.4156  0.2508  0.3927
  672MPD2    C2 9941   2.490   3.202   1.412  0.7465  0.1715 -0.3106
  672MPD2    C3 9942   2.618   3.241   1.381  0.0477 -0.0476 -0.5324
  672MPD2    C4 9943   2.651   3.363   1.426 -0.1772  0.1110  0.7677
  672MPD2    C5 9944   2.582   3.441   1.515  0.3894 -0.0785 -0.2759
  672MPD2     H 9945   2.442   3.122   1.357 -1.0690  1.2759 -0.3556
  672MPD2    H1 9946   2.746   3.406   1.396 -1.4512  0.8317 -2.3064
  672MPD2    H2 9947   2.410   3.444   1.638 -1.0858 -0.2917 -0.5728
  672MPD2    H3 9948   2.631   3.526   1.561  2.2875 -0.8726 -0.8006
  672MPD2     N 9949   2.703   3.175   1.296  0.1197  0.0595 -0.6440
  672MPD2    H5 9950   2.789   3.218   1.263  1.2257 -1.6034  0.0698
  672MPD2    N1 9951   2.283   3.251   1.544  0.2013 -0.7127  0.8478
  672MPD2    H7 9952   2.252   3.302   1.626 -1.1143  0.2352 -0.2560
  673TMC3    C1 9953   2.075   3.130   1.541 -0.6683 -0.7074 -0.0526
  673TMC3    C2 9954   2.097   3.053   1.650 -0.0410 -0.9683  0.2245
  673TMC3    C3 9955   2.001   2.960   1.688 -0.4877 -0.0380 -0.7604
  673TMC3    C4 9956   1.969   3.094   1.458  1.0262  0.4829  0.5329
  673TMC3    C5 9957   1.876   3.000   1.501  0.1873  0.0170 -0.6397
  673TMC3    C6 9958   1.888   2.927   1.621  0.2754  0.9094 -0.5735
  673TMC3     C 9959   2.192   3.177   1.473 -0.4369 -0.0413 -0.4585
  673TMC3     O 9960   2.203   3.148   1.354  0.2940  0.4964  0.1102
  673TMC3     H 9961   2.188   3.057   1.709 -0.3756 -1.5366  0.7726
  673TMC3    H1 9962   1.961   3.138   1.359  2.1993 -1.4108 -0.3835
  673TMC3    H2 9963   1.817   2.856   1.661  2.1348 -1.0584 -0.7649
  673TMC3    C7 9964   1.759   2.970   1.423 -0.1563 -0.1046  0.2570
  673TMC3    C8 9965   2.045   2.848   1.767 -0.2652  0.1866  0.4146
  673TMC3    O1 9966   1.674   2.903   1.482 -0.4044 -0.0338  0.6210
  673TMC3    O2 9967   2.081   2.865   1.883  0.8135 -0.1907  0.4263
  674MPD2     C 9968   2.643   1.402   0.599 -0.6148  0.2394 -0.1437
  674MPD2    C1 9969   2.534   1.439   0.523 -0.0877 -0.2715 -0.5346
  674MPD2    C2 9970   2.441   1.531   0.570 -0.6022  0.0980  0.2210
  674MPD2    C3 9971   2.461   1.599   0.684  0.5146  0.2894 -0.6093
  674MPD2    C4 9972   2.571   1.570   0.763 -0.2651  0.5728 -0.3788
  674MPD2    C5 9973   2.658   1.474   0.714 -0.3232 -0.3729  0.4000
  674MPD2     H 9974   2.356   1.563   0.511 -0.7977 -1.7610 -0.5153
  674MPD2    H1 9975   2.591   1.613   0.861 -0.6025 -1.4270  0.5653
  674MPD2    H2 9976   2.712   1.328   0.561 -1.3076 -1.1948  1.4009
  674MPD2    H3 9977   2.743   1.447   0.775  2.0438  0.4904 -2.5660
  674MPD2     N 9978   2.354   1.683   0.719 -0.1952  0.6835  0.2811
  674MPD2    H5 9979   2.296   1.705   0.639 -0.5462 -1.9595 -0.1683
  674MPD2    N1 9980   2.506   1.356   0.411  0.5467 -0.0865  0.4705
  674MPD2    H7 9981   2.580   1.301   0.367  1.5758  0.9757  0.8875
  675TMC3    C1 9982   2.378   1.286   0.225 -0.4802 -0.4426 -0.2818
  675TMC3    C2 9983   2.262   1.249   0.179 -0.0647  0.1401 -0.2608
  675TMC3    C3 9984   2.252   1.223   0.041 -0.0381 -0.1955 -0.2353
  675TMC3    C4 9985   2.487   1.311   0.137  0.5043  0.4814  0.2197
  675TMC3    C5 9986   2.467   1.276   0.006  0.1901 -0.0967  0.2438
  675TMC3    C6 9987   2.351   1.237  17.648 -0.5552 -0.4765  0.2608
  675TMC3     C 9988   2.378   1.348   0.354  0.7987 -0.0917 -0.2823
  675TMC3     O 9989   2.266   1.387   0.391  0.4921 -0.3695 -0.1932
  675TMC3     H 9990   2.192   1.220   0.256  0.7197 -1.0805 -0.0164
  675TMC3    H1 9991   2.574   1.369   0.166  0.6014  0.2671  0.3588
  675TMC3    H2 9992   2.336   1.214  17.543  1.6230 -1.5550  0.1940
  675TMC3    C7 9993   2.587   1.264  17.614 -0.2364 -0.0415 -0.2360
  675TMC3    C8 9994   2.122   1.209  17.687 -0.5461 -0.0142  0.3482
  675TMC3    O1 9995   2.567   1.260  17.490  0.0299  0.3827 -0.9151
  675TMC3    O2 9996   2.089   1.122  17.607 -0.3599  0.0483 -1.0473
  676MPD2     C 9997   4.659   4.680  11.283  0.4131 -1.1516 -0.1399
  676MPD2    C1 9998   4.522   4.647  11.268 -0.1879  0.2640 -0.7509
  676MPD2    C2 9999   4.500   4.515  11.242 -0.0525  0.1084  0.2495
  676MPD2    C310000   4.599   4.425  11.214 -0.0374 -0.5833 -0.2946
  676MPD2    C410001   0.004   4.461  11.239 -0.4313 -0.0968  0.5244
  676MPD2    C510002   0.032   4.585  11.280  0.0521  1.0392  0.3466
  676MPD2     H10003   4.396   4.487  11.227 -0.1707  1.6651 -1.8888
  676MPD2    H110004   0.084   4.390  11.220  0.2049  0.1593  2.2332
  676MPD2    H210005   4.687   0.054  11.319 -0.6110 -1.5667  1.8123
  676MPD2    H310006   0.136   4.609  11.302 -0.4001  2.2751  1.1470
  676MPD2     N10007   4.573   4.290  11.173 -0.7608 -0.2270 -0.1845
  676MPD2    H510008   4.651   4.231  11.144 -2.1974  0.1221 -4.6505
  676MPD2    N110009   4.416   0.015  11.285  0.0451 -0.2750 -0.2676
  676MPD2    H710010   4.322   4.701  11.283  0.0810 -0.4367  1.0170
  677TMC3    C110011   4.305   0.211  11.367 -0.7136  0.4028  0.4733
  677TMC3    C210012   4.186   0.144  11.342 -0.8525 -0.0336  0.4937
  677TMC3    C310013   4.079   0.161  11.431  0.8394 -0.0247 -0.3127
  677TMC3    C410014   4.316   0.289  11.476 -0.1884 -0.0316  0.7215
  677TMC3    C510015   4.210   0.316  11.555  0.1760  0.6654 -0.6492
  677TMC3    C610016   4.089   0.252  11.530 -0.3526  0.3874  0.6080
  677TMC3     C10017   4.428   0.148  11.319  0.0989  0.0970  0.1854
  677TMC3     O10018   4.523   0.222  11.299 -0.0734 -0.0381 -0.0842
  677TMC3     H10019   4.186   0.077  11.258 -0.5419 -1.0670  1.3222
  677TMC3    H110020   4.415   0.316  11.510 -1.0548  0.5409  2.7795
  677TMC3    H210021   4.009   0.261  11.602  1.0966  1.6970  2.0529
  677TMC3    C710022   4.216   0.383  11.686 -0.2852  0.7354  0.0267
  677TMC3    C810023   3.967   0.066  11.420  0.7895 -0.4584 -0.5704
  677TMC3    O110024   4.128   0.343  11.762 -0.4814 -0.5521  0.2906
  677TMC3    O210025   3.885   0.081  11.329 -0.2304 -0.6859 -0.4065
  678MPD2     C10026   0.920   1.304   1.661 -0.1276  0.1932  0.5685
  678MPD2    C110027   0.957   1.170   1.646  0.2200 -0.2824  0.4440
  678MPD2    C210028   0.878   1.076   1.713  0.3240  0.3398 -1.0174
  678MPD2    C310029   0.770   1.117   1.785  0.2797  0.0011 -0.6715
  678MPD2    C410030   0.741   1.257   1.799  0.2818  0.8694 -0.2385
  678MPD2    C510031   0.813   1.344   1.733 -0.0071 -0.1256  0.4615
  678MPD2     H10032   0.903   0.971   1.708 -1.2400 -0.0906  0.4475
  678MPD2    H110033   0.662   1.288   1.866 -0.2846  0.8684 -0.9032
  678MPD2    H210034   0.979   1.378   1.609  0.2792  0.9536  2.1132
  678MPD2    H310035   0.784   1.448   1.748  1.1067 -0.0034  1.7888
  678MPD2     N10036   0.690   1.017   1.855  0.0227 -0.1410  0.0688
  678MPD2    H510037   0.719   0.920   1.845 -1.4978 -0.5076 -0.6391
  678MPD2    N110038   1.074   1.136   1.570  0.4138 -0.4522 -0.5217
  678MPD2    H710039   1.121   1.212   1.523  0.1022  1.5797  2.4878
  679TMC3    C110040   1.506   1.015   1.524  0.7060  0.4363 -0.1802
  679TMC3    C210041   1.380   0.991   1.579 -0.1631 -0.0434 -0.0461
  679TMC3    C310042   1.268   1.037   1.515  0.0080 -0.2582 -0.2546
  679TMC3    C410043   1.514   1.085   1.408  0.0520 -0.1088 -0.0517
  679TMC3    C510044   1.400   1.120   1.343 -0.2128 -0.7518 -0.2559
  679TMC3    C610045   1.271   1.106   1.399  0.0792  0.2476 -0.0942
  679TMC3     C10046   1.618   0.981   1.610  0.4245 -0.0858  1.1138
  679TMC3     O10047   1.594   0.896   1.700  0.0508 -0.0444  0.3508
  679TMC3     H10048   1.369   0.943   1.676  0.9306 -1.7556 -0.7603
  679TMC3    H110049   1.604   1.074   1.350 -0.0899  0.6009 -0.4056
  679TMC3    H210050   1.179   1.131   1.347 -0.2112  0.7647  0.6640
  679TMC3    C710051   1.407   1.134   1.195 -0.1148 -0.2779  0.2503
  679TMC3    C810052   1.142   1.014   1.579  0.1961 -0.2061  0.3257
  679TMC3    O110053   1.309   1.102   1.129  0.2807 -0.1686  0.0675
  679TMC3    O210054   1.113   0.912   1.644 -0.0961 -0.2263 -0.6242
  680MPD2     C10055   1.389   4.030  13.508  0.3918  0.4312 -0.0007
  680MPD2    C110056   1.509   3.973  13.545  0.0687  0.0857  0.1058
  680MPD2    C210057   1.626   4.057  13.557 -0.4947 -0.3542 -0.0463
  680MPD2    C310058   1.620   4.191  13.542  0.0734 -0.8511 -0.2525
  680MPD2    C410059   1.497   4.238  13.495  0.0543 -0.3899 -0.3992
  680MPD2    C510060   1.386   4.161  13.481 -0.0134 -0.5397 -0.1253
  680MPD2     H10061   1.718   4.013  13.593 -1.6159 -0.2888  2.9320
  680MPD2    H110062   1.487   4.343  13.473 -3.6842 -0.8808 -1.0223
  680MPD2    H210063   1.299   3.972  13.496  0.5961 -0.0890  1.0340
  680MPD2    H310064   1.296   4.212  13.450  1.4909  0.2276 -3.2385
  680MPD2     N10065   1.725   4.283  13.570  0.8948 -0.2125 -0.3133
  680MPD2    H510066   1.700   4.377  13.542  0.5977  0.5113  2.4464
  680MPD2    N110067   1.523   3.837  13.558 -0.3020  0.0420  1.0240
  680MPD2    H710068   1.615   3.804  13.586 -0.0710  1.6366  2.1088
  681TMC3    C110069   1.483   3.603  13.556 -0.2719  0.1619 -0.5069
  681TMC3    C210070   1.400   3.534  13.627  0.6154 -0.2296 -0.0248
  681TMC3    C310071   1.395   3.404  13.598  0.0877  0.5543 -0.3831
  681TMC3    C410072   1.553   3.556  13.453  0.1549  0.2538 -0.7642
  681TMC3    C510073   1.538   3.423  13.420  0.2935  0.0573 -0.3809
  681TMC3    C610074   1.459   3.338  13.494 -0.0033  0.0924  0.8428
  681TMC3     C10075   1.427   3.738  13.549  0.0505  0.1572  0.5620
  681TMC3     O10076   1.303   3.743  13.549 -0.0118 -0.3990 -0.6374
  681TMC3     H10077   1.335   3.576  13.702  0.1770  2.5460 -1.9804
  681TMC3    H110078   1.617   3.627  13.401 -1.3276 -0.2694 -3.2993
  681TMC3    H210079   1.460   3.230  13.486  0.0269  0.0946  0.8198
  681TMC3    C710080   1.604   3.363  13.298 -0.1003 -0.0331  0.0562
  681TMC3    C810081   1.341   3.321  13.710  0.5321  0.1096  0.2789
  681TMC3    O110082   1.566   3.246  13.276  0.2295  0.0931  0.3086
  681TMC3    O210083   1.257   3.231  13.697  0.6476 -0.1271 -0.1210
  682MPD2     C10084   3.509   0.383  10.646  0.2473 -0.0935 -0.0149
  682MPD2    C110085   3.468   0.255  10.661  0.2273  0.3538 -0.1637
  682MPD2    C210086   3.459   0.208  10.792  0.4516 -0.2283  0.5736
  682MPD2    C310087   3.519   0.273  10.898 -0.2971 -0.5916 -0.7137
  682MPD2    C410088   3.534   0.408  10.882 -0.3644 -0.0243 -0.0443
  682MPD2    C510089   3.529   0.459  10.757  0.0539  0.4168 -0.5189
  682MPD2     H10090   3.414   0.111  10.812 -0.1981  0.0380  0.3962
  682MPD2    H110091   3.556   0.479  10.961  1.3770 -2.3540  1.5708
  682MPD2    H210092   3.504   0.438  10.553  1.0985 -0.7166 -0.4224
  682MPD2    H310093   3.552   0.564  10.748  1.4829  0.1301 -0.3404
  682MPD2     N10094   3.532   0.216  11.029 -0.5385  0.0056 -0.1175
  682MPD2    H510095   3.572   0.282  11.094  2.4202 -0.7536 -1.1718
  682MPD2    N110096   3.411   0.173  10.555  0.4836  0.3359  0.0320
  682MPD2    H710097   3.390   0.077  10.580  0.2739  0.0021 -1.4410
  683TMC3    C110098   3.568   0.112  11.426  0.1404  0.1321  0.5780
  683TMC3    C210099   3.607   4.707  11.451  0.9320  0.4589 -0.1714
  683TMC3    C310100   3.608   4.624  11.344  0.3867 -0.3909 -0.0845
  683TMC3    C410101   3.542   0.154  11.297  0.1308 -0.3742  0.1522
  683TMC3    C510102   3.539   0.065  11.196 -0.4428  0.1496  0.4462
  683TMC3    C610103   3.574   4.663  11.220 -0.2360 -0.4803  0.0588
  683TMC3     C10104   3.597   0.220  11.522 -0.5367  0.0978 -0.4765
  683TMC3     O10105   3.556   0.329  11.491  0.2148 -0.5429  0.0600
  683TMC3     H10106   3.624   4.667  11.550 -0.2698 -1.4526 -0.7287
  683TMC3    H110107   3.505   0.256  11.284 -0.8021 -0.8329 -0.8073
  683TMC3    H210108   3.585   4.589  11.141  0.9893  1.5816 -1.6850
  683TMC3    C710109   3.494   0.096  11.070  0.1541  0.6037 -0.1510
  683TMC3    C810110   3.637   4.485  11.376 -0.1372 -0.3463  0.3142
  683TMC3    O110111   3.459   4.722  11.008 -0.0316 -0.0681  0.5020
  683TMC3    O210112   3.706   4.479  11.477 -0.0600  0.4508 -0.2196
  684MPD2     C10113   1.665   4.624  16.279 -0.5694  0.3425 -0.1739
  684MPD2    C110114   1.743   4.713  16.208 -0.4728  0.1524 -0.5379
  684MPD2    C210115   1.766   0.116  16.261  0.5047  0.3937  0.0529
  684MPD2    C310116   1.699   0.158  16.375  0.0320  0.1927  0.5452
  684MPD2    C410117   1.613   0.066  16.436  0.0308  0.7304  0.1720
  684MPD2    C510118   1.589   4.663  16.388 -0.4060  0.2768 -0.3109
  684MPD2     H10119   1.836   0.186  16.217 -1.4270 -0.7694 -4.9046
  684MPD2    H110120   1.579   0.088  16.537  1.1254  0.4578  0.6035
  684MPD2    H210121   1.649   4.523  16.241 -0.4242  0.0778  0.4537
  684MPD2    H310122   1.526   4.596  16.445  0.9345 -0.0183  0.8474
  684MPD2     N10123   1.742   0.285  16.425 -0.4615 -0.0086  0.2955
  684MPD2    H510124   1.809   0.336  16.368 -0.3312  1.1083  1.4344
  684MPD2    N110125   1.792   4.674  16.083  0.2325  0.1119 -0.3070
  684MPD2    H710126   1.855   0.015  16.037 -1.0992  1.8040  0.2779
  685TMC3    C110127   1.803   4.559  15.887 -0.3739 -0.2088  0.2519
  685TMC3    C210128   1.740   4.479  15.790  0.2011  0.1313  1.1062
  685TMC3    C310129   1.818   4.415  15.693 -0.1948 -0.2451 -0.4492
  685TMC3    C410130   1.943   4.558  15.901 -0.2223 -0.8969 -0.0693
  685TMC3    C510131   2.007   4.485  15.809  0.3946 -0.3965 -0.1569
  685TMC3    C610132   1.955   4.424  15.696 -0.4409 -0.1306  0.0244
  685TMC3     C10133   1.727   4.578  16.003  0.0280  0.0780  0.2678
  685TMC3     O10134   1.630   4.506  16.026 -0.9945  0.4695  0.1438
  685TMC3     H10135   1.632   4.482  15.801 -0.1115 -0.2425 -1.8718
  685TMC3    H110136   1.983   4.613  15.985  2.1352 -0.5759 -1.4015
  685TMC3    H210137   2.019   4.365  15.631 -2.7438 -2.4360 -0.1614
  685TMC3    C710138   2.151   4.478  15.820 -0.0864 -0.5955 -0.5532
  685TMC3    C810139   1.764   4.321  15.603  0.0325 -0.4871  0.1887
  685TMC3    O110140   2.209   4.475  15.715  0.0182 -0.6037  0.0905
  685TMC3    O210141   1.825   4.287  15.503 -0.3986  0.4967 -0.1333
  686MPD2     C10142   3.431   4.243  15.490  0.4677 -0.2798 -0.4815
  686MPD2    C110143   3.470   4.175  15.608  0.2053 -0.7025  0.6637
  686MPD2    C210144   3.509   4.049  15.598 -0.2298 -0.2945  0.9191
  686MPD2    C310145   3.516   3.986  15.470 -0.1714 -0.0113  0.1268
  686MPD2    C410146   3.487   4.051  15.353 -0.2430 -0.6273 -0.1755
  686MPD2    C510147   3.440   4.177  15.368  0.0096  0.7921  0.6115
  686MPD2     H10148   3.554   3.994  15.680  1.8046 -0.1198 -0.0658
  686MPD2    H110149   3.490   3.999  15.258  1.7335 -2.3867  0.8409
  686MPD2    H210150   3.392   4.343  15.504  0.9833  0.0330 -1.3370
  686MPD2    H310151   3.408   4.232  15.280  0.6001 -0.9007 -0.6556
  686MPD2     N10152   3.550   3.852  15.438 -0.2335  0.4656  0.2898
  686MPD2    H510153   3.560   3.826  15.340 -1.3903 -1.2998  0.6415
  686MPD2    N110154   3.471   4.252  15.725  0.1897 -0.2964 -0.4636
  686MPD2    H710155   3.433   4.345  15.711 -1.4389 -0.8840 -0.0517
  687TMC3    C110156   3.501   3.748  15.655 -0.5478  0.5882 -0.1816
  687TMC3    C210157   3.370   3.795  15.668 -0.6776  0.3385  0.2595
  687TMC3    C310158   3.320   3.813  15.793  0.4197  0.4881  0.4695
  687TMC3    C410159   3.580   3.706  15.756  0.0231  0.3079  0.9725
  687TMC3    C510160   3.531   3.729  15.872 -0.0824 -0.0167 -0.1360
  687TMC3    C610161   3.399   3.772  15.896  0.2531  0.0268 -0.0799
  687TMC3     C10162   3.569   3.747  15.530  0.4462 -0.0245  1.2490
  687TMC3     O10163   3.648   3.652  15.510  0.4122  0.2044 -0.6097
  687TMC3     H10164   3.314   3.817  15.578 -1.9226 -1.6056  0.5434
  687TMC3    H110165   3.686   3.684  15.747  0.0132  1.1650 -1.2724
  687TMC3    H210166   3.357   3.781  15.996 -2.1773 -1.9482 -0.9204
  687TMC3    C710167   3.624   3.758  15.978 -0.3300 -0.1110 -0.2208
  687TMC3    C810168   3.206   3.905  15.819  0.2671 -0.3535  0.1888
  687TMC3    O110169   3.706   3.674  16.009  0.0614  0.1911 -0.3827
  687TMC3    O210170   3.151   3.901  15.932  0.0828  0.2884 -0.5859
  688MPD2     C10171   2.763   3.098  17.271 -0.6344 -0.3324  0.6120
  688MPD2    C110172   2.759   2.976  17.335  0.5485  0.5651 -0.1925
  688MPD2    C210173   2.871   2.891  17.324 -0.4981 -0.8743  0.3996
  688MPD2    C310174   2.978   2.918  17.241 -1.2610 -0.5372 -0.6822
  688MPD2    C410175   2.978   3.033  17.170 -0.2958  0.0563 -0.3183
  688MPD2    C510176   2.868   3.121  17.184  0.5667  0.3686  0.0224
  688MPD2     H10177   2.856   2.789  17.360  0.2917 -0.7607  1.0723
  688MPD2    H110178   3.050   3.056  17.092  0.1032 -0.2321 -0.0383
  688MPD2    H210179   2.682   3.171  17.266  0.8833  1.3601  0.8645
  688MPD2    H310180   2.860   3.215  17.131 -1.7289  0.8970  1.3450
  688MPD2     N10181   3.079   2.818  17.208  0.2589 -0.1773 -0.4972
  688MPD2    H510182   3.148   2.838  17.136  1.1980 -0.6496  0.2718
  688MPD2    N110183   2.648   2.934  17.420 -0.5122  0.2770 -1.1151
  688MPD2    H710184   2.670   2.848  17.470 -1.4846 -0.1171 -1.3588
  689TMC3    C110185   2.442   2.955  17.534 -0.2288  0.2542  0.0598
  689TMC3    C210186   2.412   3.059  17.617 -0.0764 -0.2271 -0.1900
  689TMC3    C310187   2.413   3.045   0.052  0.6022 -0.4253  0.0589
  689TMC3    C410188   2.473   2.831  17.588  0.7048 -0.3028  0.5820
  689TMC3    C510189   2.466   2.819   0.025  0.6891  0.2514 -0.1047
  689TMC3    C610190   2.439   2.922   0.109 -0.3021  0.5118  0.6440
  689TMC3     C10191   2.521   3.001  17.425  0.7077  0.2969  0.7581
  689TMC3     O10192   2.483   3.089  17.347 -0.2270 -0.1600  0.4240
  689TMC3     H10193   2.414   3.161  17.582 -0.1461  0.7941  2.7370
  689TMC3    H110194   2.498   2.748  17.523 -1.5916 -1.3925  1.0948
  689TMC3    H210195   2.439   2.910   0.217 -0.2328  2.1686  0.8285
  689TMC3    C710196   2.499   2.694   0.087  0.2101 -0.3636  0.6180
  689TMC3    C810197   2.446   3.162   0.134 -0.7696 -0.2853 -0.3435
  689TMC3    O110198   2.547   2.699   0.200 -0.4242  0.1899  0.1199
  689TMC3    O210199   2.476   3.265   0.074 -0.3122  0.2800  0.7849
  690MPD2     C10200   0.232   4.448  15.911 -0.4850  0.4960  0.1929
  690MPD2    C110201   0.162   4.506  15.807  0.2679  0.4456 -0.1848
  690MPD2    C210202   0.232   4.606  15.737  0.1079 -0.6852  0.4338
  690MPD2    C310203   0.357   4.650  15.779  0.9956  0.1172 -0.2495
  690MPD2    C410204   0.420   4.594  15.891  0.0957  0.1157 -0.3028
  690MPD2    C510205   0.350   4.490  15.957 -0.3970  0.2465 -0.1435
  690MPD2     H10206   0.188   4.663  15.655  0.3629 -1.2318 -0.0840
  690MPD2    H110207   0.513   4.622  15.940  0.9273 -3.0503 -0.0403
  690MPD2    H210208   0.181   4.379  15.976 -0.2809 -0.7335 -0.9555
  690MPD2    H310209   0.397   4.447  16.044  0.2432  0.3939 -0.4158
  690MPD2     N10210   0.402   0.044  15.711 -0.5011  0.2410  0.4597
  690MPD2    H510211   0.337   0.100  15.656 -0.5030 -0.0839  0.1358
  690MPD2    N110212   0.029   4.476  15.770 -0.4976  0.2048 -0.3819
  690MPD2    H710213   4.709   4.525  15.693  3.2778  1.3151 -1.8536
  691TMC3    C110214   4.531   4.395  15.757  0.0579  0.6043 -0.0550
  691TMC3    C210215   4.433   4.435  15.843  0.5507 -0.3319 -0.1812
  691TMC3    C310216   4.331   4.498  15.781 -0.3393 -0.5230  0.1835
  691TMC3    C410217   4.532   4.397  15.623 -0.5985 -1.1879 -0.1510
  691TMC3    C510218   4.411   4.427  15.564 -0.2042 -0.1570 -0.1966
  691TMC3    C610219   4.311   4.486  15.639 -0.2885 -0.0334  0.1034
  691TMC3     C10220   4.665   4.388  15.824  0.0150  0.0995  0.0776
  691TMC3     O10221   4.676   4.328  15.930 -0.3633 -0.3213  0.5843
  691TMC3     H10222   4.461   4.445  15.947 -3.6700 -0.1179  0.9450
  691TMC3    H110223   4.622   4.375  15.567  0.6484  1.5293  0.7674
  691TMC3    H210224   4.217   4.508  15.591 -0.7511  0.6292  1.3119
  691TMC3    C710225   4.365   4.345  15.459  0.1194 -0.1253 -0.3702
  691TMC3    C810226   4.221   4.539  15.867 -0.2706 -0.1282  0.4466
  691TMC3    O110227   4.251   4.373  15.423 -0.3681  0.2003 -0.6493
  691TMC3    O210228   4.239   4.503  15.985  0.2098 -0.1042  0.3377
  692TMC3    C110229   1.679   1.534  16.020 -0.3106 -0.3256  0.6683
  692TMC3    C210230   1.769   1.567  16.117 -0.1069  0.6227 -0.8262
  692TMC3    C310231   1.873   1.480  16.140 -0.4292 -0.3691 -0.1657
  692TMC3    C410232   1.692   1.424  15.943 -0.2894  0.3782  0.0725
  692TMC3    C510233   1.801   1.338  15.978 -0.1431 -0.2015 -0.1793
  692TMC3    C610234   1.885   1.354  16.077  0.7144  0.3157  0.5019
  692TMC3     C10235   1.565   1.615  16.015  0.6350  0.2389 -0.0234
  692TMC3     O10236   1.470   1.564  15.960  0.2197  0.4012  0.2614
  692TMC3     H10237   1.737   1.635  16.196  3.5821 -0.5859  1.6959
  692TMC3    H110238   1.621   1.411  15.861  0.1404  0.9017 -0.3798
  692TMC3    H210239   1.975   1.297  16.093  0.4742 -0.5872 -1.3401
  692TMC3    C710240   1.789   1.210  15.925 -0.2070  0.2626  0.5411
  692TMC3    C810241   1.907   1.477  16.280  0.7052 -0.6684  0.3960
  692TMC3    O110242   1.734   1.189  15.819  0.3630 -0.1501 -0.2496
  692TMC3    O210243   1.926   1.375  16.342 -0.5884 -0.2689 -0.1150
  693MPD2     C10244   0.907   3.300  10.834 -0.2242 -0.8176  0.6060
  693MPD2    C110245   0.866   3.399  10.916  0.0262  0.2848 -0.8219
  693MPD2    C210246   0.947   3.448  11.010  0.4230  0.4364  0.1828
  693MPD2    C310247   1.076   3.405  11.031 -0.4100  0.1139  0.0744
  693MPD2    C410248   1.128   3.316  10.939 -0.2956 -0.0176 -0.1105
  693MPD2    C510249   1.041   3.265  10.840 -0.5026  0.9410 -0.1246
  693MPD2     H10250   0.903   3.531  11.065  0.3656 -0.3696  1.3498
  693MPD2    H110251   1.230   3.280  10.940 -0.1870  0.3097  1.0457
  693MPD2    H210252   0.843   3.257  10.758  1.5932  0.9445 -1.9028
  693MPD2    H310253   1.073   3.177  10.786 -0.7049  1.5922 -1.3015
  693MPD2     N10254   1.161   3.461  11.128 -0.5886 -0.0015 -0.3170
  693MPD2    H510255   1.262   3.447  11.121 -0.6126 -1.6251  2.4109
  693MPD2    N110256   0.734   3.455  10.898  0.4667 -0.4318 -0.1965
  693MPD2    H710257   0.677   3.391  10.845 -0.5291 -0.3830  0.8173
  694TMC3    C110258   0.536   3.584  10.938  0.4419  0.5107 -0.5995
  694TMC3    C210259   0.473   3.509  10.841  0.1952  0.1405  0.4198
  694TMC3    C310260   0.351   3.459  10.881 -0.3055  0.7168  0.4757
  694TMC3    C410261   0.483   3.610  11.066 -0.4265 -0.0375 -0.3667
  694TMC3    C510262   0.364   3.556  11.098 -0.8459 -0.0298 -0.4011
  694TMC3    C610263   0.302   3.475  11.007  0.0020  0.4750 -0.3669
  694TMC3     C10264   0.686   3.574  10.948 -1.0613 -0.2011 -0.0902
  694TMC3     O10265   0.742   3.664  11.010 -0.2709  0.2962 -0.5015
  694TMC3     H10266   0.511   3.474  10.745  0.2593 -2.5905  1.4628
  694TMC3    H110267   0.539   3.670  11.138  1.3371 -2.2042  0.0622
  694TMC3    H210268   0.208   3.431  11.038 -0.5032  2.4789  0.9720
  694TMC3    C710269   0.341   3.547  11.238  0.0285 -0.2680  0.7302
  694TMC3    C810270   0.274   3.361  10.799 -0.4872  0.7053 -0.6971
  694TMC3    O110271   0.395   3.629  11.313  0.1133  0.3357  0.0438
  694TMC3    O210272   0.208   3.272  10.853  0.1953  0.4496  0.1288
  695MPD2     C10273   1.995   0.983  13.579 -0.3656 -0.3655 -0.6302
  695MPD2    C110274   1.920   1.017  13.690 -0.2154 -0.0054 -0.1002
  695MPD2    C210275   1.791   1.051  13.676  0.7978 -0.2379 -0.0441
  695MPD2    C310276   1.749   1.078  13.544 -0.0250  0.5565 -0.3778
  695MPD2    C410277   1.830   1.055  13.433 -0.2360  0.1254 -0.4388
  695MPD2    C510278   1.958   1.011  13.452  0.0555  0.0149 -0.1621
  695MPD2     H10279   1.743   1.069  13.771  1.4376  0.2710  0.1865
  695MPD2    H110280   1.796   1.075  13.333  2.0202 -1.2262 -1.4978
  695MPD2    H210281   2.096   0.943  13.589  0.0556  0.7930 -0.2117
  695MPD2    H310282   2.018   0.993  13.364 -1.6674 -1.6722 -0.9941
  695MPD2     N10283   1.619   1.133  13.534 -0.1651 -0.5847 -0.4714
  695MPD2    H510284   1.569   1.146  13.622  0.4692  0.0779 -0.2050
  695MPD2    N110285   1.968   1.007  13.822 -0.1332  1.7203 -0.3871
  695MPD2    H710286   1.895   1.009  13.893 -0.3133 -1.1898 -0.5020
  696TMC3    C110287   1.407   1.181  13.433 -0.5693  0.3668 -0.0391
  696TMC3    C210288   1.344   1.158  13.548 -0.2856  0.3295 -0.1396
  696TMC3    C310289   1.222   1.212  13.573  0.0037 -0.1887  0.1399
  696TMC3    C410290   1.350   1.269  13.339  0.5996  0.6623 -0.4357
  696TMC3    C510291   1.231   1.334  13.373 -0.1741  0.6379 -0.5071
  696TMC3    C610292   1.169   1.302  13.489 -0.2927 -0.7755  0.1354
  696TMC3     C10293   1.552   1.143  13.418  0.5652 -0.0423 -0.0090
  696TMC3     O10294   1.588   1.154  13.302 -0.1446 -0.3327 -0.0684
  696TMC3     H10295   1.384   1.087  13.620  1.0269  0.4456 -0.7576
  696TMC3    H110296   1.402   1.306  13.251  2.1444  0.7531  0.5290
  696TMC3    H210297   1.069   1.340  13.505  0.9943  2.4247  0.6176
  696TMC3    C710298   1.238   1.470  13.339  0.5422  0.2926  0.4036
  696TMC3    C810299   1.198   1.248  13.706 -0.4142  0.0450  0.4040
  696TMC3    O110300   1.272   1.502  13.227  0.6619  0.2070  0.0128
  696TMC3    O210301   1.193   1.367  13.726 -0.2017 -0.3305  0.0556
  697MPD2     C10302   0.810   3.081  15.335 -0.5078 -0.1844  0.0183
  697MPD2    C110303   0.923   3.031  15.266  0.4411 -0.3483  0.7942
  697MPD2    C210304   0.988   3.119  15.183  0.3306  0.3396  0.4909
  697MPD2    C310305   0.947   3.250  15.173 -1.0711  0.2420  0.0268
  697MPD2    C410306   0.823   3.285  15.228 -0.3272  0.6900  1.0130
  697MPD2    C510307   0.748   3.201  15.307  0.5853 -0.6323  0.3898
  697MPD2     H10308   1.079   3.096  15.128 -1.2132 -0.6886 -1.6252
  697MPD2    H110309   0.779   3.383  15.217  0.8249  1.0567 -0.4051
  697MPD2    H210310   0.753   3.010  15.394  0.7553  0.6414  2.2215
  697MPD2    H310311   0.653   3.234  15.347  1.3859  0.4242  1.4378
  697MPD2     N10312   1.023   3.336  15.085  0.7085 -0.0519  0.6534
  697MPD2    H510313   1.090   3.291  15.024 -0.1537  2.1909 -1.9857
  697MPD2    N110314   0.979   2.899  15.279  0.1705 -0.4219 -0.0238
  697MPD2    H710315   1.048   2.873  15.210 -0.0610 -1.2930  0.0720
  698TMC3    C110316   1.098   3.543  15.004  0.2477  0.1583  0.7802
  698TMC3    C210317   1.161   3.650  15.054 -0.5694 -0.3972  0.3413
  698TMC3    C310318   1.254   3.711  14.979  0.4094  0.2755 -1.0595
  698TMC3    C410319   1.132   3.489  14.883  0.0658  0.9557 -0.3342
  698TMC3    C510320   1.226   3.548  14.810  0.2771 -0.2257 -0.6783
  698TMC3    C610321   1.291   3.660  14.855 -1.2021  0.1701 -0.3821
  698TMC3     C10322   1.016   3.474  15.092 -0.0388 -0.7651 -0.1778
  698TMC3     O10323   0.941   3.535  15.171 -0.2291 -0.4462 -0.2983
  698TMC3     H10324   1.139   3.669  15.158  2.1924  1.1179  0.6345
  698TMC3    H110325   1.068   3.419  14.831 -2.1683  1.8194  1.2302
  698TMC3    H210326   1.370   3.710  14.801 -0.8468 -1.0122 -0.9697
  698TMC3    C710327   1.239   3.531  14.670 -0.6616  0.5168 -0.4759
  698TMC3    C810328   1.328   3.829  15.043  0.5438  0.8380 -0.0642
  698TMC3    O110329   1.135   3.493  14.615 -0.2048  0.3338 -0.1363
  698TMC3    O210330   1.313   3.849  15.162 -0.7890 -0.0035  0.2922
  699TMC3    C110331   1.031   1.025  13.239  0.5989 -0.4089 -0.3645
  699TMC3    C210332   1.118   0.960  13.321 -0.3175 -0.6441  0.6997
  699TMC3    C310333   1.059   0.907  13.431 -0.2671  0.1049  0.7020
  699TMC3    C410334   0.899   1.030  13.265  0.3610  0.5591  0.6025
  699TMC3    C510335   0.848   0.974  13.377  0.5818  0.0969  0.2789
  699TMC3    C610336   0.928   0.913  13.461 -0.0376 -0.3009 -0.6767
  699TMC3     C10337   1.078   1.123  13.140 -0.1703 -0.9307 -0.3999
  699TMC3     O10338   1.004   1.214  13.106 -0.1553 -0.0628 -0.3168
  699TMC3     H10339   1.225   0.955  13.308 -0.2729  1.9713  0.0835
  699TMC3    H110340   0.832   1.064  13.187 -1.5606 -2.6036  0.8936
  699TMC3    H210341   0.889   0.867  13.552  1.1491  0.8239  0.4084
  699TMC3    C710342   0.720   1.029  13.412  0.1987 -0.1336  0.0434
  699TMC3    C810343   1.144   0.861  13.534 -0.0651 -0.4494 -0.4552
  699TMC3    O110344   0.721   1.059  13.530  0.3013 -0.1091 -0.1683
  699TMC3    O210345   1.107   0.880  13.648  0.1292 -0.1706  0.2934
  700TMC3    C110346   0.400   3.215  17.303  0.1469  0.2330  0.1187
  700TMC3    C210347   0.417   3.083  17.274  0.4334 -0.6491  0.4513
  700TMC3    C310348   0.476   3.016  17.378 -0.5919 -0.3274  0.1664
  700TMC3    C410349   0.422   3.276  17.424  0.4360  0.4194  0.3653
  700TMC3    C510350   0.475   3.201  17.523  0.2894 -0.2781  0.8772
  700TMC3    C610351   0.516   3.070  17.503  0.3555  0.0466  0.2919
  700TMC3     C10352   0.355   3.305  17.200 -0.8544  0.6890  0.3707
  700TMC3     O10353   0.284   3.258  17.111  0.4385  0.5667 -0.4592
  700TMC3     H10354   0.384   3.040  17.180 -1.2805 -2.6172  1.9414
  700TMC3    H110355   0.382   3.375  17.442  0.9966  0.9579 -1.3151
  700TMC3    H210356   0.566   3.015  17.583 -1.7105 -2.9201 -0.4443
  700TMC3    C710357   0.496   3.258  17.655  0.5925 -0.2671  0.0895
  700TMC3    C810358   0.496   2.867  17.369  0.1437 -0.1812  0.0694
  700TMC3    O110359   0.588   3.220   0.026 -0.6790 -0.1359  0.1492
  700TMC3    O210360   0.400   2.796  17.379  0.5428  0.2419 -0.1513
  701TMC3    C110361   0.629   2.127  15.542  0.3726 -0.6263  0.2649
  701TMC3    C210362   0.630   2.104  15.411  0.3016  0.2662  0.0461
  701TMC3    C310363   0.682   2.204  15.329  0.4466  0.0408  0.5655
  701TMC3    C410364   0.672   2.248  15.597 -0.0310  0.3850 -0.2894
  701TMC3    C510365   0.698   2.351  15.510 -0.3439 -0.1409  0.8758
  701TMC3    C610366   0.711   2.329  15.379  0.0772  0.2401 -0.2964
  701TMC3     C10367   0.561   2.038  15.637 -0.2497 -0.3904 -0.6006
  701TMC3     O10368   0.548   2.077  15.753 -0.5629  0.4366  0.1644
  701TMC3     H10369   0.614   2.003  15.376 -1.5762  0.6434 -0.2188
  701TMC3    H110370   0.651   2.267  15.701 -1.1433  0.6353 -0.5553
  701TMC3    H210371   0.731   2.414  15.315 -0.7053  1.2241  0.7733
  701TMC3    C710372   0.636   2.477  15.546 -0.6641 -0.1775  0.5801
  701TMC3    C810373   0.696   2.181  15.191 -0.4334  0.7618 -0.1968
  701TMC3    O110374   0.587   2.546  15.457 -0.1013  0.2072  0.3386
  701TMC3    O210375   0.775   2.250  15.125  0.7504  0.1120  0.1403
  702MPD2     C10376   0.052   4.008  10.537 -0.1221  0.6218  0.0666
  702MPD2    C110377   4.721   4.103  10.623 -0.7534  0.4366 -0.3511
  702MPD2    C210378   4.712   4.233  10.587 -1.0819 -0.0355 -0.0704
  702MPD2    C310379   0.022   4.276  10.467  0.0688  0.3282  0.3086
  702MPD2    C410380   0.056   4.182  10.372 -0.0316  0.1171 -0.1939
  702MPD2    C510381   0.076   4.052  10.408 -0.2780 -0.0449 -1.0773
  702MPD2     H10382   4.673   4.302  10.661 -1.4228 -0.3094  0.0083
  702MPD2    H110383   0.070   4.198  10.265 -1.2704 -1.0374 -0.5263
  702MPD2    H210384   0.059   3.900  10.551  1.0700  0.7012  0.0768
  702MPD2    H310385   0.128   3.989  10.337  4.5871  2.6821  0.1056
  702MPD2     N10386   0.028   4.410  10.425  0.3285  0.8860  0.0273
  702MPD2    H510387   0.045   4.438  10.329  1.9783  1.8013  0.6011
  702MPD2    N110388   4.677   4.070  10.755  0.4328 -0.8150  0.8186
  702MPD2    H710389   4.631   4.143  10.808  1.8572  0.6777 -0.0248
  703TMC3    C110390   4.719   4.633  10.418 -0.6033  0.0781  0.6875
  703TMC3    C210391   4.619   4.722  10.407 -0.5180  0.1644  0.0583
  703TMC3    C310392   4.651   0.117  10.343 -0.3051 -0.6195 -0.6794
  703TMC3    C410393   0.123   4.648  10.361  0.0792  1.1960 -0.4727
  703TMC3    C510394   0.146   0.040  10.299 -0.6462  0.9706 -0.8532
  703TMC3    C610395   0.053   0.141  10.291  0.2129  0.3969  0.5150
  703TMC3     C10396   4.693   4.514  10.490  0.0575 -0.1771 -0.0189
  703TMC3     O10397   4.615   4.512  10.584 -0.4786  0.0881  0.0535
  703TMC3     H10398   4.520   4.680  10.424 -0.6267 -0.2341 -1.5143
  703TMC3    H110399   0.198   4.570  10.363  0.9053  2.0263  0.5168
  703TMC3    H210400   0.085   0.242  10.267 -2.3815  0.6628 -1.8766
  703TMC3    C710401   0.282   0.078  10.261  0.1691  0.6997  1.2805
  703TMC3    C810402   4.588   0.234  10.396  0.1062 -0.0854 -0.7866
  703TMC3    O110403   0.301   0.189  10.208  0.1527 -0.6508  0.0980
  703TMC3    O210404   4.626   0.345  10.361 -0.4233 -0.1192 -0.0598
  704TMC3    C110405   2.250   2.960  12.338 -0.2065 -0.4720 -1.0344
  704TMC3    C210406   2.363   2.907  12.292  0.1612  0.0812 -0.1045
  704TMC3    C310407   2.459   2.864  12.371  0.4594 -0.1898 -1.2635
  704TMC3    C410408   2.241   2.973  12.474  0.2736  0.1903 -0.3760
  704TMC3    C510409   2.326   2.909  12.556 -0.6999  0.0685  0.7603
  704TMC3    C610410   2.440   2.854  12.507  0.0500  0.3357 -0.2494
  704TMC3     C10411   2.127   2.949  12.264 -0.1018  0.0142  0.1347
  704TMC3     O10412   2.026   2.966  12.331  0.2294 -0.0227 -0.1828
  704TMC3     H10413   2.373   2.891  12.185  1.1363  3.2618 -0.4810
  704TMC3    H110414   2.161   3.033  12.516 -0.5144  0.0332 -1.6523
  704TMC3    H210415   2.511   2.801  12.569  0.7102  0.2844 -1.0558
  704TMC3    C710416   2.268   2.811  12.642 -0.6956 -0.2036 -0.0157
  704TMC3    C810417   2.549   2.764  12.306  0.0945  0.0991 -0.2706
  704TMC3    O110418   2.338   2.741  12.716 -0.3027  0.2306 -0.8990
  704TMC3    O210419   2.507   2.706  12.207  0.7207  0.0796 -0.0384
  705MPD2     C10420   1.924   1.081  16.719  1.1287  0.4359 -0.7482
  705MPD2    C110421   1.894   1.154  16.609  0.4072  0.1220 -0.3897
  705MPD2    C210422   1.790   1.233  16.606  0.1236  0.1688  0.2202
  705MPD2    C310423   1.704   1.252  16.713  0.5281  0.4266 -0.0839
  705MPD2    C410424   1.723   1.167  16.812 -0.2158  0.0312 -0.4508
  705MPD2    C510425   1.835   1.090  16.824  0.4425  0.5841 -0.2086
  705MPD2     H10426   1.783   1.291  16.515 -0.7041  3.2190  2.2078
  705MPD2    H110427   1.654   1.156  16.894  1.7476 -2.5133  0.8669
  705MPD2    H210428   2.012   1.021  16.735 -0.3579 -1.4735  0.3383
  705MPD2    H310429   1.839   1.024  16.910 -1.0957  0.7798  0.0123
  705MPD2     N10430   1.589   1.331  16.707  0.4845  0.8629 -0.0897
  705MPD2    H510431   1.563   1.368  16.617  0.5641  0.6556 -0.1971
  705MPD2    N110432   1.977   1.148  16.494 -0.0685  0.0055  0.5664
  705MPD2    H710433   1.959   1.219  16.423 -1.0441 -0.0515  0.7531
  706TMC3    C110434   2.231   1.042  16.144  0.2875 -0.1355  1.4157
  706TMC3    C210435   2.266   1.171  16.128  0.7052 -0.0474  0.0119
  706TMC3    C310436   2.235   1.264  16.222  0.1539  0.7152 -0.0075
  706TMC3    C410437   2.172   0.997  16.259 -0.1117  0.2049  0.0078
  706TMC3    C510438   2.148   1.091  16.352  0.0448 -0.3957  0.7293
  706TMC3    C610439   2.170   1.227  16.340 -0.4988 -0.5887  0.0195
  706TMC3     C10440   2.283   0.944  16.044  0.5290 -0.7926 -0.6938
  706TMC3     O10441   2.312   0.833  16.084 -0.0388 -0.5043 -0.6756
  706TMC3     H10442   2.315   1.207  16.037  2.0974 -0.2257  0.6843
  706TMC3    H110443   2.163   0.891  16.282 -0.4402  0.0310 -0.9478
  706TMC3    H210444   2.139   1.302  16.411 -3.7447 -0.3209 -1.7085
  706TMC3    C710445   2.060   1.047  16.458  0.2443  0.7115 -0.1126
  706TMC3    C810446   2.239   1.404  16.187  0.3883  0.5225  0.1730
  706TMC3    O110447   2.076   0.939  16.511 -0.0727  0.0194 -0.4692
  706TMC3    O210448   2.208   1.436  16.075  0.3818 -0.0973 -0.6479
  707TMC3    C110449   2.958   0.476   0.751 -0.0660 -0.2818 -0.7095
  707TMC3    C210450   2.965   0.464   0.887  0.5229  0.1324  0.1091
  707TMC3    C310451   2.859   0.497   0.970  0.0129  0.5593  0.3035
  707TMC3    C410452   2.845   0.538   0.693 -0.3464  0.0291  0.1294
  707TMC3    C510453   2.740   0.550   0.776 -0.1669  0.0094 -0.0076
  707TMC3    C610454   2.737   0.530   0.914  0.3972 -0.4000  0.5259
  707TMC3     C10455   3.062   0.425   0.656 -0.3423  0.0845 -0.3026
  707TMC3     O10456   3.062   0.463   0.540 -0.1823 -0.3404  0.0714
  707TMC3     H10457   3.064   0.460   0.930 -0.6090 -1.2196  2.6482
  707TMC3    H110458   2.859   0.572   0.591  2.3552 -0.1703  0.4401
  707TMC3    H210459   2.652   0.535   0.981  0.1038 -0.6004  0.1663
  707TMC3    C710460   2.612   0.541   0.717  0.0061 -0.2670 -0.1656
  707TMC3    C810461   2.858   0.460   1.111 -0.2576 -0.5576 -0.7016
  707TMC3    O110462   2.522   0.519   0.789 -0.5472 -0.2712  0.1495
  707TMC3    O210463   2.768   0.505   1.180 -0.0039  0.0837  0.8307
  708MPD2     C10464   0.464   0.265  13.720 -0.5484 -0.3086 -0.4908
  708MPD2    C110465   0.448   0.221  13.595  0.2427  0.2497  0.2780
  708MPD2    C210466   0.488   0.088  13.564  0.3146 -0.8510  0.5051
  708MPD2    C310467   0.542   0.005  13.662 -0.3505 -0.3562  0.2863
  708MPD2    C410468   0.577   0.060  13.780  0.1935 -0.2837 -0.3127
  708MPD2    C510469   0.534   0.188  13.812 -0.2498 -0.1841  0.0873
  708MPD2     H10470   0.466   0.053  13.464  0.3461 -0.8963  0.5137
  708MPD2    H110471   0.614   4.720  13.859  2.4897  2.5921  0.8997
  708MPD2    H210472   0.442   0.369  13.740  3.3001  0.6929 -1.5505
  708MPD2    H310473   0.561   0.225  13.910  1.2095  0.3382 -0.5048
  708MPD2     N10474   0.548   4.590  13.640  0.9670  0.2570 -0.3661
  708MPD2    H510475   0.596   4.536  13.712 -0.7140 -1.9613 -0.9203
  708MPD2    N110476   0.385   0.295  13.491  0.4528  0.1797 -0.1309
  708MPD2    H710477   0.386   0.248  13.401  0.4719 -1.7293  0.8679
  709TMC3    C110478   0.245   0.458  13.394  0.0414 -0.2406 -0.0025
  709TMC3    C210479   0.308   0.470  13.276  0.1011  0.2804 -0.1713
  709TMC3    C310480   0.246   0.445  13.161  0.3571  0.2309 -0.5160
  709TMC3    C410481   0.116   0.423  13.398 -0.6544  0.0568  0.0639
  709TMC3    C510482   0.051   0.402  13.282 -0.1980  0.5007  0.8749
  709TMC3    C610483   0.115   0.414  13.163 -0.6145 -0.1975 -1.1010
  709TMC3     C10484   0.319   0.414  13.511  0.3076 -0.0586  0.2843
  709TMC3     O10485   0.271   0.457  13.613  0.2623 -0.2253 -0.1862
  709TMC3     H10486   0.410   0.508  13.281  0.7644 -1.3417 -1.2083
  709TMC3    H110487   0.078   0.380  13.490 -0.5250 -1.4902 -0.6052
  709TMC3    H210488   0.054   0.383  13.078 -1.4243 -1.7784  0.0542
  709TMC3    C710489   4.681   0.298  13.297 -0.1410 -0.8914 -0.1085
  709TMC3    C810490   0.302   0.446  13.031 -0.3882  0.3736 -0.1764
  709TMC3    O110491   4.575   0.336  13.347 -0.4668  0.3278 -0.0162
  709TMC3    O210492   0.237   0.440  12.931 -0.1427  0.2639 -0.3789
  710TMC3    C110493   1.137   1.311   0.353  0.5486 -0.6725  0.5732
  710TMC3    C210494   1.200   1.241   0.258 -0.0913 -0.2134  0.7263
  710TMC3    C310495   1.295   1.156   0.300  0.0747  0.2558  0.2974
  710TMC3    C410496   1.157   1.290   0.486  0.1972 -0.8917  0.1027
  710TMC3    C510497   1.260   1.208   0.524 -0.5874 -0.9201 -0.3071
  710TMC3    C610498   1.330   1.137   0.432 -0.0242  0.1707 -0.0948
  710TMC3     C10499   1.095   1.441   0.305 -0.0358  0.2471  0.1680
  710TMC3     O10500   1.035   1.451   0.197  0.1673  0.1620  0.6815
  710TMC3     H10501   1.188   1.287   0.160  0.9413 -0.3649  0.5277
  710TMC3    H110502   1.102   1.338   0.565  1.0910 -1.5957  1.1489
  710TMC3    H210503   1.419   1.078   0.450 -0.7381 -1.5272 -2.1157
  710TMC3    C710504   1.305   1.218   0.658 -0.2239 -0.1364 -0.1467
  710TMC3    C810505   1.393   1.109   0.195  0.4442  0.2203 -0.4520
  710TMC3    O110506   1.231   1.211   0.754  0.1161 -0.2034 -0.1338
  710TMC3    O210507   1.502   1.074   0.238 -0.4156 -0.0253 -0.4373
  711TMC3    C110508   1.104   2.064  15.056 -0.2703  0.0582  1.0448
  711TMC3    C210509   1.166   2.120  15.165 -0.3296  0.1089 -0.5489
  711TMC3    C310510   1.305   2.112  15.173 -0.5349 -0.1854  0.3246
  711TMC3    C410511   1.175   1.986  14.967  0.3452 -0.2291 -0.1871
  711TMC3    C510512   1.306   1.962  14.996  0.1781  1.2117  1.2331
  711TMC3    C610513   1.375   2.043  15.083 -0.1268  0.6869 -0.7240
  711TMC3     C10514   0.984   1.997  15.095  0.2482 -0.5887 -0.8297
  711TMC3     O10515   0.923   1.944  15.007  0.3403 -0.6468  0.1857
  711TMC3     H10516   1.112   2.189  15.230  1.0693 -0.6709  1.4437
  711TMC3    H110517   1.135   1.950  14.874  0.0549 -1.5085  0.4298
  711TMC3    H210518   1.479   2.020  15.100 -0.3546  0.4834  0.3626
  711TMC3    C710519   1.329   1.825  15.029  0.4243  0.4047 -0.6886
  711TMC3    C810520   1.333   2.076  15.304  0.2612 -0.6594 -0.1302
  711TMC3    O110521   1.441   1.799  15.080  0.3751  0.7951 -0.5346
  711TMC3    O210522   1.227   2.053  15.368  0.2925  0.7309  0.7264
  712MPD2     C10523   2.749   2.963  13.934 -0.2343 -0.8738  0.0141
  712MPD2    C110524   2.630   2.952  13.866  0.2300  1.3371 -0.5614
  712MPD2    C210525   2.612   3.032  13.748  0.1099  0.3382  0.1917
  712MPD2    C310526   2.714   3.106  13.694 -0.0155 -0.7277  0.3706
  712MPD2    C410527   2.839   3.094  13.757  0.5917  0.6209  0.0448
  712MPD2    C510528   2.850   3.025  13.871 -0.9448  0.0794  0.2872
  712MPD2     H10529   2.518   3.028  13.694  0.4783 -1.2254 -0.3447
  712MPD2    H110530   2.919   3.155  13.717  2.0983 -0.8190  0.8824
  712MPD2    H210531   2.772   2.893  14.014 -0.4118 -2.2716 -1.1469
  712MPD2    H310532   2.950   3.016  13.911 -0.2925  2.1237 -0.8735
  712MPD2     N10533   2.699   3.196  13.586  0.0742  0.0453  0.5349
  712MPD2    H510534   2.782   3.245  13.553 -0.7825 -0.7547 -2.7837
  712MPD2    N110535   2.530   2.857  13.900 -0.6311  0.9200  0.1365
  712MPD2    H710536   2.452   2.865  13.835 -2.3053 -0.2759  1.9936
  713TMC3    C110537   2.606   3.335  13.431  0.3269 -0.0253  0.0240
  713TMC3    C210538   2.728   3.332  13.361 -0.5117  0.3308 -0.1863
  713TMC3    C310539   2.742   3.429  13.262  0.1757 -0.7327 -0.1443
  713TMC3    C410540   2.513   3.439  13.416  0.7302  0.0085 -0.1526
  713TMC3    C510541   2.526   3.514  13.303 -0.0755  0.0383 -0.6231
  713TMC3    C610542   2.646   3.519  13.230  0.2009 -0.8342  0.4398
  713TMC3     C10543   2.582   3.243  13.534  0.0374  0.2363 -0.1602
  713TMC3     O10544   2.468   3.231  13.577  1.0482  0.2382 -0.3640
  713TMC3     H10545   2.802   3.254  13.375 -1.9358 -1.2308 -1.3572
  713TMC3    H110546   2.417   3.420  13.461  0.9386 -0.7915 -0.0386
  713TMC3    H210547   2.671   3.594  13.155 -2.7276  1.8556  2.1104
  713TMC3    C710548   2.444   3.631  13.296  0.3452 -0.2339  0.5088
  713TMC3    C810549   2.877   3.453  13.208  0.0115  0.1805 -0.8371
  713TMC3    O110550   2.354   3.646  13.376 -0.1546  0.4239  0.3630
  713TMC3    O210551   2.881   3.505  13.096 -0.5137 -0.1380  0.3902
  714MPD2     C10552   4.193   1.169   1.473 -0.2188 -0.0666  0.3580
  714MPD2    C110553   4.260   1.269   1.413  0.7482  0.0567 -0.6676
  714MPD2    C210554   4.201   1.336   1.308  0.5068  0.9184  0.1861
  714MPD2    C310555   4.076   1.298   1.259 -0.8783 -0.0730  0.1394
  714MPD2    C410556   4.001   1.211   1.328 -0.1736  0.4634  0.4117
  714MPD2    C510557   4.065   1.147   1.435  0.3256  0.3239 -0.1094
  714MPD2     H10558   4.254   1.412   1.251  2.2163  0.7584  1.5621
  714MPD2    H110559   3.898   1.180   1.312 -0.3302  1.4738 -0.5402
  714MPD2    H210560   4.236   1.107   1.550  1.4917 -0.3329 -0.8247
  714MPD2    H310561   4.007   1.073   1.488  0.9182  0.1338  0.2645
  714MPD2     N10562   4.030   1.369   1.142  0.7167 -0.0238 -0.1678
  714MPD2    H510563   4.091   1.444   1.109  1.6270 -0.0780  1.3817
  714MPD2    N110564   4.398   1.288   1.455 -0.3328 -0.0371  0.0464
  714MPD2    H710565   4.429   1.215   1.519  0.5038  0.5649  0.3242
  715TMC3    C110566   4.612   1.375   1.464  0.1179  0.9171 -0.4087
  715TMC3    C210567   4.657   1.247   1.481  0.3696 -0.2288  0.1971
  715TMC3    C310568   0.070   1.231   1.488 -0.8545 -0.0754  0.3148
  715TMC3    C410569   4.693   1.489   1.482  0.0360  0.4252 -0.0310
  715TMC3    C510570   0.102   1.467   1.480  0.0406  0.0772 -0.2299
  715TMC3    C610571   0.156   1.338   1.486 -0.7495  0.0408 -0.1249
  715TMC3     C10572   4.477   1.396   1.428 -0.7161  0.5146  0.2721
  715TMC3     O10573   4.449   1.503   1.367 -0.3700 -0.1693 -0.1007
  715TMC3     H10574   4.600   1.156   1.467 -0.3683 -0.0446  2.0638
  715TMC3    H110575   4.639   1.583   1.481 -1.1473 -0.2852 -2.5470
  715TMC3    H210576   0.260   1.311   1.498 -1.1088 -1.3853 -0.2087
  715TMC3    C710577   0.197   1.574   1.497 -0.2831  0.3099 -0.1959
  715TMC3    C810578   0.118   1.103   1.444 -0.6821 -0.2242 -0.0843
  715TMC3    O110579   0.307   1.555   1.545 -0.1230 -0.4526 -0.2690
  715TMC3    O210580   0.038   1.029   1.391 -0.4785  0.5625 -0.2674
  716MPD2     C10581   0.007   3.752  10.222  0.2583  0.3751  0.2579
  716MPD2    C110582   4.637   3.782  10.129  0.5648 -0.0658 -0.8090
  716MPD2    C210583   4.626   3.714  10.008 -0.4412  0.1134  0.5235
  716MPD2    C310584   4.709   3.609   9.989  1.3649 -0.0608 -0.0543
  716MPD2    C410585   0.078   3.572  10.079 -0.8676 -0.1256 -0.5996
  716MPD2    C510586   0.086   3.641  10.197  0.0186  0.4910  0.6811
  716MPD2     H10587   4.542   3.729   9.941  1.1417  1.1043 -1.2455
  716MPD2    H110588   0.141   3.484  10.075  0.7916  1.0598 -0.7208
  716MPD2    H210589   0.023   3.797  10.319  0.8404  1.7181 -0.4682
  716MPD2    H310590   0.158   3.600  10.268 -1.1937 -1.6072  0.6948
  716MPD2     N10591   4.682   3.534   9.873  0.0904  0.0007  0.2961
  716MPD2    H510592   4.626   3.586   9.805 -0.6636 -2.0630 -0.6509
  716MPD2    N110593   4.552   3.889  10.155  0.0846  0.3267  0.0824
  716MPD2    H710594   4.588   3.942  10.234  1.4224  1.1833 -1.0780
  717TMC3    C110595   4.696   3.378   9.693  0.5141 -0.8424 -0.0911
  717TMC3    C210596   4.596   3.438   9.624  1.0528 -0.5655 -0.4122
  717TMC3    C310597   4.553   3.389   9.503  0.1878  0.4434  0.0457
  717TMC3    C410598   0.039   3.275   9.639  0.3093  0.0717 -0.1779
  717TMC3    C510599   0.004   3.230   9.515  0.3094  0.5721 -0.1074
  717TMC3    C610600   4.620   3.285   9.457 -1.0359  0.0986 -0.6262
  717TMC3     C10601   0.002   3.415   9.833  0.0145  0.6310  0.2581
  717TMC3     O10602   0.083   3.343   9.896  0.5675  0.0218  0.0193
  717TMC3     H10603   4.520   3.498   9.672 -0.4918 -1.2117 -2.0404
  717TMC3    H110604   0.112   3.223   9.701 -0.3618 -0.7822 -0.0945
  717TMC3    H210605   4.576   3.234   9.371  0.4326 -0.2613 -1.1612
  717TMC3    C710606   0.043   3.089   9.477 -0.6864 -0.0920  0.3224
  717TMC3    C810607   4.436   3.449   9.441 -0.3332  0.1135  0.1383
  717TMC3    O110608   0.004   3.048   9.366  0.1824  0.3231 -0.2466
  717TMC3    O210609   4.434   3.571   9.457  0.1018 -0.5861  0.4131
  718MPD2     C10610   3.954   3.435  13.050 -0.4337 -1.4497 -0.2464
  718MPD2    C110611   3.860   3.389  12.969  0.5503  0.1671 -0.1444
  718MPD2    C210612   3.838   3.256  12.944  0.0482 -0.1677 -0.0989
  718MPD2    C310613   3.908   3.161  13.010  0.1472 -0.2347 -0.0795
  718MPD2    C410614   4.003   3.195  13.102 -1.0042 -0.1102 -0.8781
  718MPD2    C510615   4.020   3.336  13.116 -0.0505  0.2981 -0.9105
  718MPD2     H10616   3.758   3.228  12.876  0.1716 -1.0719  0.1229
  718MPD2    H110617   4.061   3.117  13.150 -3.2905 -0.8401  0.7061
  718MPD2    H210618   3.976   3.539  13.075 -1.6157 -1.0161 -1.0369
  718MPD2    H310619   4.099   3.374  13.179 -0.7442  0.7355 -0.2954
  718MPD2     N10620   3.874   3.030  12.969 -0.3573 -0.1045  0.5687
  718MPD2    H510621   3.825   3.025  12.880  1.5032 -0.2138 -0.4384
  718MPD2    N110622   3.768   3.473  12.909 -0.3791  0.0801 -0.3000
  718MPD2    H710623   3.700   3.438  12.841 -2.6098  0.8748  1.5073
  719TMC3    C110624   3.652   3.658  12.832 -0.3864 -0.3155 -0.6609
  719TMC3    C210625   3.545   3.577  12.820 -0.7065  0.0077 -0.2943
  719TMC3    C310626   3.473   3.569  12.703 -0.1057  0.1431  0.3605
  719TMC3    C410627   3.688   3.731  12.724 -0.2127  0.5973 -0.0308
  719TMC3    C510628   3.618   3.725  12.606  0.8604 -0.7389 -0.3424
  719TMC3    C610629   3.508   3.648  12.596  0.5296 -0.3857 -0.5347
  719TMC3     C10630   3.769   3.610  12.908 -0.2022 -0.0597  0.0975
  719TMC3     O10631   3.854   3.689  12.950 -0.3573 -1.1460 -0.2450
  719TMC3     H10632   3.509   3.515  12.902 -1.1878 -1.7119 -1.8251
  719TMC3    H110633   3.785   3.779  12.725  0.2133 -0.2619 -0.3294
  719TMC3    H210634   3.446   3.668  12.509 -0.2146 -0.4207 -0.0114
  719TMC3    C710635   3.701   3.691  12.490  0.8736  0.0828 -0.1127
  719TMC3    C810636   3.490   3.430  12.673  0.0058  0.5063  0.3484
  719TMC3    O110637   3.806   3.633  12.505 -0.1415 -0.2751 -0.3709
  719TMC3    O210638   3.574   3.381  12.746  0.7533 -0.2432  0.5600
  720MPD2     C10639   2.595   0.104  14.175 -0.2247  0.6272 -0.7872
  720MPD2    C110640   2.660   0.092  14.053 -1.0538 -0.1504 -0.3046
  720MPD2    C210641   2.797   0.098  14.052  0.3820 -0.7946 -0.1871
  720MPD2    C310642   2.870   0.102  14.168  0.2663  0.0838 -0.1237
  720MPD2    C410643   2.799   0.102  14.287  0.5185 -0.2665  0.3471
  720MPD2    C510644   2.668   0.106  14.292 -0.7219 -0.1026  0.0154
  720MPD2     H10645   2.848   0.098  13.956  0.2479  0.8446 -0.2651
  720MPD2    H110646   2.845   0.095  14.385 -0.1514  2.9052  0.9049
  720MPD2    H210647   2.487   0.109  14.183 -0.1535 -1.2176  1.2096
  720MPD2    H310648   2.624   0.094  14.391 -0.5360 -1.0489 -0.0186
  720MPD2     N10649   3.011   0.121  14.163  0.5801 -0.0324  0.3894
  720MPD2    H510650   3.048   0.144  14.071  0.4415  0.2675  0.4081
  720MPD2    N110651   2.587   0.088  13.930  0.2440 -0.1993 -0.5969
  720MPD2    H710652   2.637   0.086  13.842 -1.0741 -0.9099 -1.3177
  721TMC3    C110653   3.223   0.152  14.247 -0.4032 -0.0690  0.7322
  721TMC3    C210654   3.307   0.103  14.342 -0.6508  0.3397  0.2017
  721TMC3    C310655   3.439   0.140  14.334 -0.3137 -1.3666  0.5456
  721TMC3    C410656   3.267   0.244  14.155 -0.6972  0.0906  0.3978
  721TMC3    C510657   3.401   0.272  14.145  0.0812 -1.1843  0.8343
  721TMC3    C610658   3.491   0.214  14.232  0.2595  0.1753 -0.0107
  721TMC3     C10659   3.089   0.133  14.273 -0.1444  0.0811  0.3146
  721TMC3     O10660   3.060   0.100  14.381  0.1413 -0.4644  0.0939
  721TMC3     H10661   3.264   0.036  14.415 -0.0910 -0.2196  0.0237
  721TMC3    H110662   3.197   0.292  14.088  0.6550 -0.5592 -1.4558
  721TMC3    H210663   3.598   0.233  14.237  0.5007 -1.1510  0.0102
  721TMC3    C710664   3.444   0.331  14.016  0.0001  0.3096  0.2778
  721TMC3    C810665   3.525   0.088  14.440 -0.7096 -0.3853  0.1179
  721TMC3    O110666   3.363   0.341  13.922  0.6375  0.1543 -0.3488
  721TMC3    O210667   3.644   0.098  14.425  0.3885 -0.2449 -0.3048
  722MPD2     C10668   1.383   3.639  13.121 -0.5177 -0.3498  0.1229
  722MPD2    C110669   1.343   3.765  13.171  0.4823 -0.5873 -0.1156
  722MPD2    C210670   1.202   3.781  13.184 -0.4295  0.1624 -0.1907
  722MPD2    C310671   1.111   3.678  13.153  0.2503 -0.4395  0.1941
  722MPD2    C410672   1.157   3.561  13.107 -0.5066  0.6505 -0.1635
  722MPD2    C510673   1.288   3.541  13.102 -0.0646 -0.1467 -0.5295
  722MPD2     H10674   1.163   3.870  13.232  0.6401 -1.1751  3.1747
  722MPD2    H110675   1.091   3.476  13.089  0.1216 -0.0019  0.6339
  722MPD2    H210676   1.485   3.618  13.094 -0.0828 -1.3749  2.5709
  722MPD2    H310677   1.319   3.447  13.056 -0.7734 -0.6011 -0.0794
  722MPD2     N10678   0.979   3.702  13.189  0.4574 -0.6412 -0.1086
  722MPD2    H510679   0.959   3.794  13.226  3.1110  0.2822 -0.9624
  722MPD2    N110680   1.439   3.868  13.183 -0.0262 -0.6330 -0.1308
  722MPD2    H710681   1.395   3.958  13.199 -0.2720 -1.1223  1.9235
  723TMC3    C110682   0.751   3.649  13.251  0.3595 -0.2567  0.6671
  723TMC3    C210683   0.667   3.568  13.321 -1.0536  0.3857 -0.0277
  723TMC3    C310684   0.545   3.614  13.371  0.3221  0.6024 -0.8780
  723TMC3    C410685   0.714   3.775  13.219 -0.9862  0.8259 -0.4598
  723TMC3    C510686   0.592   3.821  13.265  0.1143 -0.1533  0.5428
  723TMC3    C610687   0.511   3.748  13.352 -0.8510  0.2263  0.5926
  723TMC3     C10688   0.883   3.603  13.200 -0.0694 -0.5836  0.4259
  723TMC3     O10689   0.905   3.481  13.209  0.2820 -0.4195  0.3997
  723TMC3     H10690   0.709   3.474  13.353  0.3213  0.5707 -1.2778
  723TMC3    H110691   0.773   3.837  13.152 -1.4497  0.7891 -0.9048
  723TMC3    H210692   0.422   3.797  13.390 -1.6474 -0.4671 -0.3703
  723TMC3    C710693   0.535   3.949  13.215  0.4830  0.0077  0.6926
  723TMC3    C810694   0.444   3.521  13.428  0.5617 -0.0961  0.0632
  723TMC3    O110695   0.413   3.947  13.204  0.3318 -0.2961 -0.1639
  723TMC3    O210696   0.358   3.565  13.505 -0.0337 -0.4075 -0.1172
  724TMC3    C110697   1.955   2.933   9.520  0.2201 -0.5716  0.1884
  724TMC3    C210698   1.904   2.804   9.527  0.6218  0.4151 -0.4069
  724TMC3    C310699   1.997   2.707   9.563  0.5685  0.3511  0.1285
  724TMC3    C410700   2.090   2.963   9.550  0.4374  0.3666  1.6483
  724TMC3    C510701   2.175   2.859   9.578 -0.0552 -0.5109 -0.1200
  724TMC3    C610702   2.133   2.734   9.591  0.2872 -0.4385 -0.1007
  724TMC3     C10703   1.873   3.046   9.472 -0.0225  0.2289 -0.2727
  724TMC3     O10704   1.915   3.159   9.482  0.0469 -0.2501  0.8282
  724TMC3     H10705   1.797   2.788   9.537  1.2318 -3.2844 -0.0512
  724TMC3    H110706   2.118   3.066   9.570  4.7989 -0.4110 -0.4613
  724TMC3    H210707   2.208   2.657   9.605  1.8225  1.3563  1.3604
  724TMC3    C710708   2.319   2.879   9.594  0.1074  0.2030 -0.7256
  724TMC3    C810709   1.948   2.570   9.587 -0.0195 -0.6316 -0.1741
  724TMC3    O110710   2.380   2.814   9.683  0.2438  0.1041  0.0240
  724TMC3    O210711   1.849   2.525   9.528 -0.4471  0.0224 -0.3216
  725TMC3    C110712   3.615   0.559  13.378 -0.1510 -0.0785  0.0742
  725TMC3    C210713   3.483   0.569  13.397 -0.0672  0.6121  0.8733
  725TMC3    C310714   3.394   0.485  13.335  0.0861  0.1576 -0.8841
  725TMC3    C410715   3.658   0.447  13.311  0.2904 -0.8503  0.5851
  725TMC3    C510716   3.573   0.349  13.268 -0.3286 -0.2611 -0.2302
  725TMC3    C610717   3.438   0.377  13.263 -0.2504 -0.6834 -0.0345
  725TMC3     C10718   3.690   0.683  13.386  1.1344 -0.2685 -0.2190
  725TMC3     O10719   3.637   0.772  13.452  0.2573  0.2080  0.3647
  725TMC3     H10720   3.444   0.648  13.460  2.2960  1.0513  1.7660
  725TMC3    H110721   3.765   0.430  13.300  0.7747  1.8874  1.0192
  725TMC3    H210722   3.369   0.315  13.207 -0.5435 -3.3643  3.3005
  725TMC3    C710723   3.612   0.241  13.188  0.3007 -0.3582 -0.4523
  725TMC3    C810724   3.258   0.530  13.308 -0.0934 -0.0232  0.3364
  725TMC3    O110725   3.547   0.214  13.086  0.2180 -0.2982  0.4309
  725TMC3    O210726   3.195   0.566  13.401 -0.2722 -0.1897  0.6579
  726MPD2     C10727   1.418   1.467  10.907  0.0758  0.2223 -0.2261
  726MPD2    C110728   1.321   1.570  10.890  0.0460 -0.2521  0.9076
  726MPD2    C210729   1.186   1.537  10.908  0.2718  0.6465 -0.1066
  726MPD2    C310730   1.153   1.409  10.954  0.3783  0.7052 -0.1253
  726MPD2    C410731   1.253   1.311  10.966  0.0032 -0.5525  0.2538
  726MPD2    C510732   1.379   1.342  10.939  0.0287  0.1324  0.2292
  726MPD2     H10733   1.118   1.622  10.897  0.3778  0.9088  1.2715
  726MPD2    H110734   1.233   1.207  10.986  1.3654 -0.8123  0.1999
  726MPD2    H210735   1.521   1.492  10.887 -0.2469 -0.7152 -3.0506
  726MPD2    H310736   1.442   1.254  10.931 -0.9485 -0.6266  0.8287
  726MPD2     N10737   1.021   1.361  10.975  0.9012 -0.1754  0.3726
  726MPD2    H510738   1.009   1.264  11.005 -0.0566 -0.0211  0.4787
  726MPD2    N110739   1.350   1.704  10.852 -0.1190 -0.4765  0.5682
  726MPD2    H710740   1.271   1.760  10.821  1.3677  1.3766  0.1027
  727TMC3    C110741   1.489   1.890  10.792  0.6154 -0.2836  0.4562
  727TMC3    C210742   1.599   1.960  10.832  0.6067 -0.4772 -0.8751
  727TMC3    C310743   1.628   2.067  10.751  0.1705 -0.3769 -0.2546
  727TMC3    C410744   1.399   1.931  10.700 -0.7315  0.2339 -0.1269
  727TMC3    C510745   1.425   2.049  10.639 -0.6543 -0.0308 -0.4088
  727TMC3    C610746   1.541   2.118  10.655  0.6293  0.5367  0.4257
  727TMC3     C10747   1.477   1.760  10.855 -0.8802  0.3275  0.5363
  727TMC3     O10748   1.584   1.727  10.903 -0.2167 -0.0073 -0.1591
  727TMC3     H10749   1.671   1.933  10.909 -1.2398  0.7037  1.2618
  727TMC3    H110750   1.306   1.877  10.686 -0.4094 -0.7117  1.3804
  727TMC3    H210751   1.558   2.217  10.613  0.0606  0.7612  0.7300
  727TMC3    C710752   1.345   2.089  10.524 -0.3795 -0.0630 -0.1292
  727TMC3    C810753   1.757   2.126  10.773 -0.2831 -0.0456 -0.1718
  727TMC3    O110754   1.341   2.199  10.479 -0.1566  0.4622  0.8543
  727TMC3    O210755   1.848   2.050  10.805  0.9586  0.0184 -0.0828
  728TMC3    C110756   0.545   0.220  15.659 -0.7078  0.3434  0.4110
  728TMC3    C210757   0.654   0.280  15.696  0.0280 -0.2381  0.0242
  728TMC3    C310758   0.692   0.390  15.628  0.3523 -0.3938 -0.9005
  728TMC3    C410759   0.481   0.245  15.546 -0.0287 -0.0624 -0.1480
  728TMC3    C510760   0.520   0.359  15.478 -0.1989 -0.1381  0.2361
  728TMC3    C610761   0.621   0.439  15.522  0.2761 -0.1492 -1.0124
  728TMC3     C10762   0.521   0.096  15.731 -0.0774 -0.2526 -0.0310
  728TMC3     O10763   0.620   0.049  15.795 -0.4897  0.3237  0.7187
  728TMC3     H10764   0.699   0.260  15.793 -0.2311 -1.8320 -0.1742
  728TMC3    H110765   0.387   0.197  15.519 -1.4407  0.7466  3.2898
  728TMC3    H210766   0.666   0.505  15.449  1.5860 -2.9870 -2.7603
  728TMC3    C710767   0.428   0.424  15.382  0.8112  0.5872 -1.2120
  728TMC3    C810768   0.804   0.462  15.687  0.1629 -0.3917 -0.1433
  728TMC3    O110769   0.336   0.350  15.340 -0.0405 -0.5944  0.1491
  728TMC3    O210770   0.872   0.402  15.767  0.7269 -0.0286  0.1689
  729MPD2     C10771   2.721   1.331  16.545 -0.6744  0.3985 -0.7320
  729MPD2    C110772   2.749   1.461  16.576  0.6414  0.0718 -0.0993
  729MPD2    C210773   2.748   1.502  16.714 -0.2172 -0.0873 -0.6763
  729MPD2    C310774   2.718   1.405  16.813 -0.5321 -0.3260 -0.2312
  729MPD2    C410775   2.682   1.279  16.781 -0.0718 -0.4714  0.1155
  729MPD2    C510776   2.682   1.246  16.643  0.3318 -0.3235  0.0032
  729MPD2     H10777   2.786   1.598  16.745 -0.2788 -0.0878 -0.5973
  729MPD2    H110778   2.655   1.195  16.844 -1.1109 -0.3540 -0.1634
  729MPD2    H210779   2.714   1.290  16.445 -0.9671  2.4176 -1.5356
  729MPD2    H310780   2.667   1.144  16.609  2.2156 -0.4402 -0.4422
  729MPD2     N10781   2.735   1.426  16.951  0.0625 -0.0672 -0.3075
  729MPD2    H510782   2.713   1.353  17.018 -1.8162 -0.2413 -1.1141
  729MPD2    N110783   2.798   1.538  16.467  0.3314  0.0502  0.2681
  729MPD2    H710784   2.807   1.488  16.379  2.7002 -0.7984  0.9893
  730TMC3    C110785   2.733   1.539  17.142  0.9818  0.2104  0.3919
  730TMC3    C210786   2.834   1.475  17.200  0.0276 -0.0244 -0.3663
  730TMC3    C310787   2.845   1.482  17.336  0.1530  0.2332 -0.2186
  730TMC3    C410788   2.666   1.634  17.214 -0.4094  0.5992  0.0089
  730TMC3    C510789   2.670   1.637  17.349  0.5283 -0.9880 -0.6200
  730TMC3    C610790   2.759   1.562  17.412 -0.9981 -0.0305 -0.2507
  730TMC3     C10791   2.742   1.551  17.007 -0.1970  0.1034  0.0965
  730TMC3     O10792   2.768   1.660  16.959  0.1009 -0.2421  0.0649
  730TMC3     H10793   2.901   1.410  17.145  2.3840  2.3604 -0.3256
  730TMC3    H110794   2.592   1.694  17.164 -0.5229 -0.9982 -1.7587
  730TMC3    H210795   2.774   1.574  17.519  0.7021  0.0347 -0.4920
  730TMC3    C710796   2.657   1.762  17.415 -0.1944 -0.0964 -0.2917
  730TMC3    C810797   2.979   1.492  17.394 -0.0340 -0.0427 -0.6995
  730TMC3    O110798   2.658   1.761  17.537  0.0034 -0.3202  0.1163
  730TMC3    O210799   2.988   1.539  17.506 -0.3850  0.4776 -0.8738
  731MPD2     C10800   2.428   0.220  12.371  0.4755  0.6030  0.0815
  731MPD2    C110801   2.568   0.203  12.378 -0.6934 -0.1874 -0.5101
  731MPD2    C210802   2.630   0.194  12.495 -0.2735 -0.4109 -0.6109
  731MPD2    C310803   2.557   0.209  12.619 -0.3456  0.7751  0.1657
  731MPD2    C410804   2.418   0.217  12.620 -0.8790  0.0029 -0.2457
  731MPD2    C510805   2.364   0.233  12.489  0.5049 -0.6221 -0.1398
  731MPD2     H10806   2.737   0.191  12.506 -0.2397 -0.0258 -0.8297
  731MPD2    H110807   2.356   0.226  12.709  0.1405  0.1230  0.4553
  731MPD2    H210808   2.376   0.227  12.276 -1.3179 -0.5881  0.9849
  731MPD2    H310809   2.256   0.248  12.492  0.4643 -1.2773  1.4674
  731MPD2     N10810   2.633   0.187  12.737 -0.0465 -0.7377  1.0265
  731MPD2    H510811   2.726   0.152  12.720  1.0610  1.6248  2.2877
  731MPD2    N110812   2.636   0.191  12.260 -0.6247 -0.2577  0.3836
  731MPD2    H710813   2.585   0.201  12.173  0.4309  0.6914 -0.1131
  732TMC3    C110814   2.803   0.142  12.103 -0.0810 -0.3834 -0.4458
  732TMC3    C210815   2.706   0.140  12.004 -0.1194 -0.3413  0.5575
  732TMC3    C310816   2.756   0.135  11.876 -0.3621  0.3997  0.1242
  732TMC3    C410817   2.935   0.141  12.076  0.4620 -0.4273 -0.4705
  732TMC3    C510818   2.978   0.132  11.946 -0.0708  0.3309  0.2484
  732TMC3    C610819   2.883   0.133  11.845  0.4753 -0.1243 -0.5147
  732TMC3     C10820   2.768   0.153  12.242  0.6392 -0.2582 -0.2844
  732TMC3     O10821   2.844   0.112  12.327 -0.3150  0.0750  0.0821
  732TMC3     H10822   2.603   0.130  12.033  0.1417 -1.0422  1.2499
  732TMC3    H110823   3.001   0.144  12.162 -0.3065 -2.6965  0.1841
  732TMC3    H210824   2.920   0.128  11.743  1.7913 -2.5594  0.0748
  732TMC3    C710825   3.113   0.091  11.910  0.4193  0.0928 -0.0478
  732TMC3    C810826   2.662   0.118  11.771  0.2542 -0.2502  1.1351
  732TMC3    O110827   3.157   0.107  11.797  0.1112  0.5466 -0.5340
  732TMC3    O210828   2.703   0.076  11.666  0.2546 -0.5570  0.2183
  733TMC3    C110829   3.621   2.748  12.949 -0.3448  0.4840  0.3964
  733TMC3    C210830   3.732   2.757  13.025  0.0689  0.5876  0.8173
  733TMC3    C310831   3.842   2.809  12.960 -0.1146  0.6351  0.0238
  733TMC3    C410832   3.618   2.763  12.809 -0.4023 -0.0472 -0.1635
  733TMC3    C510833   3.727   2.811  12.746 -0.1410 -0.8724 -0.4948
  733TMC3    C610834   3.836   2.837  12.827 -0.3208  0.7691  0.2049
  733TMC3     C10835   3.489   2.745  13.008 -0.3702 -0.3677 -0.4676
  733TMC3     O10836   3.396   2.737  12.931 -0.1994  0.0591  0.6492
  733TMC3     H10837   3.743   2.747  13.132  2.3583  0.2075  0.5573
  733TMC3    H110838   3.528   2.760  12.749  1.0106  0.0439 -2.2628
  733TMC3    H210839   3.916   2.893  12.781  0.0900 -0.6921 -0.8569
  733TMC3    C710840   3.691   2.936  12.675 -0.1111  0.6546 -0.2259
  733TMC3    C810841   3.898   2.915  13.037  0.3461 -0.0120 -0.3221
  733TMC3    O110842   3.735   3.036  12.732 -0.3936  0.1191  0.5983
  733TMC3    O210843   3.936   2.901  13.152 -0.3323 -0.1237 -0.0984
  734MPD2     C10844   0.614   4.520  12.431 -0.0497  0.6961  0.3654
  734MPD2    C110845   0.521   4.521  12.336 -0.1869 -0.2530 -0.4083
  734MPD2    C210846   0.510   4.639  12.266  0.1015  0.1603  0.1021
  734MPD2    C310847   0.560   0.033  12.318  0.7956 -0.3664 -0.0660
  734MPD2    C410848   0.646   0.029  12.425 -0.6350  0.2184 -0.5972
  734MPD2    C510849   0.684   4.627  12.474 -0.1725  0.7647 -0.1062
  734MPD2     H10850   0.445   4.649  12.180 -0.0224  0.7941  0.2698
  734MPD2    H110851   0.675   0.124  12.468 -3.5185  0.5124  0.6789
  734MPD2    H210852   0.639   4.425  12.478 -1.9704 -0.5384 -1.1184
  734MPD2    H310853   0.758   4.629  12.553 -0.8712  3.0892  0.4793
  734MPD2     N10854   0.532   0.155  12.248  0.0016  0.3087 -0.2845
  734MPD2    H510855   0.455   0.150  12.183 -0.4800 -0.7685  0.3725
  734MPD2    N110856   0.460   4.403  12.295  0.8833 -0.0368 -0.3940
  734MPD2    H710857   0.491   4.317  12.337  1.9726  0.9552  0.8318
  735TMC3    C110858   0.310   4.265  12.171  0.0530 -0.1338  0.4633
  735TMC3    C210859   0.216   4.278  12.074  0.2883  0.5064 -0.6561
  735TMC3    C310860   0.243   4.223  11.948 -0.0579  0.1425  0.9528
  735TMC3    C410861   0.425   4.188  12.144  0.2771 -0.0884  0.3283
  735TMC3    C510862   0.448   4.136  12.016 -1.1057  0.9676 -0.0537
  735TMC3    C610863   0.350   4.140  11.920  0.3103  0.1956  0.4242
  735TMC3     C10864   0.345   4.399  12.216  0.2315  0.1194 -0.2343
  735TMC3     O10865   0.275   4.484  12.166 -0.3719 -0.4970  0.3240
  735TMC3     H10866   0.127   4.340  12.081  1.0260  1.6810 -1.5839
  735TMC3    H110867   0.497   4.183  12.225 -0.2042 -2.4930  0.6009
  735TMC3    H210868   0.376   4.102  11.822  1.1835  2.5021 -0.2318
  735TMC3    C710869   0.588   4.131  11.996  0.3449 -0.1308 -0.3176
  735TMC3    C810870   0.212   4.319  11.846  0.7003 -0.1903 -0.0156
  735TMC3    O110871   0.661   4.186  12.077 -0.1381  0.1698  0.7666
  735TMC3    O210872   0.205   4.285  11.731 -0.6185 -0.1808  0.0119
  736MPD2     C10873   0.783   3.914  11.791 -0.5547 -0.7574  0.3662
  736MPD2    C110874   0.758   4.034  11.856  0.6144  0.0240  0.4739
  736MPD2    C210875   0.857   4.124  11.875  0.2089  0.6360 -1.0996
  736MPD2    C310876   0.977   4.105  11.817  0.1134 -0.4076 -0.5904
  736MPD2    C410877   1.002   3.987  11.748  0.2135 -0.7802 -0.2510
  736MPD2    C510878   0.909   3.887  11.749  0.7411  0.2523  0.1415
  736MPD2     H10879   0.843   4.214  11.934 -2.3321  0.5743 -1.6130
  736MPD2    H110880   1.090   3.984  11.685 -0.6218 -4.4798 -1.2261
  736MPD2    H210881   0.718   3.827  11.782 -0.5486 -0.9134  1.7089
  736MPD2    H310882   0.933   3.806  11.681  0.6241  0.5224 -0.2221
  736MPD2     N10883   1.083   4.193  11.820  0.0914  0.2124  0.1457
  736MPD2    H510884   1.161   4.177  11.758 -0.5648 -0.8278 -0.4171
  736MPD2    N110885   0.627   4.048  11.899 -0.1392  0.5304  0.4836
  736MPD2    H710886   0.552   3.992  11.859 -0.5093  0.2208  1.6216
  737TMC3    C110887   1.190   4.404  11.863  0.2050  1.0543 -0.1787
  737TMC3    C210888   1.152   4.537  11.854 -0.3158 -0.2815  0.6332
  737TMC3    C310889   1.233   4.610  11.767 -0.0562  0.3180  0.2483
  737TMC3    C410890   1.301   4.353  11.799  0.2626  0.3816  0.5690
  737TMC3    C510891   1.377   4.430  11.722  0.0736  0.1233 -0.1437
  737TMC3    C610892   1.348   4.561  11.704  0.1102 -0.3407 -0.1189
  737TMC3     C10893   1.075   4.321  11.888  0.3582 -0.0515 -0.4416
  737TMC3     O10894   1.003   4.347  11.982 -0.2111 -0.1673  0.2179
  737TMC3     H10895   1.060   4.579  11.893 -0.0821  1.1991 -0.3660
  737TMC3    H110896   1.335   4.254  11.826  0.2565 -0.0228 -0.8964
  737TMC3    H210897   1.415   4.633  11.658  1.1793 -0.3355  1.4662
  737TMC3    C710898   1.512   4.389  11.673  0.8440  0.7706  0.7758
  737TMC3    C810899   1.185   0.019  11.740 -0.4785 -0.3498  0.3139
  737TMC3    O110900   1.580   4.474  11.613 -0.0884 -0.0452 -0.4737
  737TMC3    O210901   1.106   0.074  11.810  0.2097  0.9822 -0.3428
  738MPD2     C10902   1.482   4.069  15.124 -0.2800 -0.0224 -0.5945
  738MPD2    C110903   1.493   4.010  15.000  0.3823  0.2110 -0.0563
  738MPD2    C210904   1.603   4.037  14.908  0.0775  0.4338  0.4819
  738MPD2    C310905   1.701   4.120  14.965 -0.2985 -0.5604 -0.6024
  738MPD2    C410906   1.672   4.190  15.084 -0.1480  0.3112 -0.3237
  738MPD2    C510907   1.561   4.173  15.159 -0.7662  0.5332  0.2523
  738MPD2     H10908   1.610   3.997  14.807 -0.9738 -0.3331  0.7128
  738MPD2    H110909   1.749   4.259  15.118  0.3661  0.0787 -1.0093
  738MPD2    H210910   1.396   4.040  15.182 -1.9735 -0.2192 -3.1705
  738MPD2    H310911   1.544   4.227  15.251  4.1225  2.7830 -0.1986
  738MPD2     N10912   1.829   4.158  14.908 -0.0364 -0.1556  0.3778
  738MPD2    H510913   1.887   4.221  14.964  0.3015  0.4633 -0.6690
  738MPD2    N110914   1.406   3.904  14.954  0.1344  0.4058 -0.9942
  738MPD2    H710915   1.418   3.878  14.856  0.0891 -1.4722 -0.4938
  739TMC3    C110916   2.015   4.172  14.764 -0.0493 -0.1538  0.5319
  739TMC3    C210917   2.049   4.190  14.634 -0.1165  0.3804 -0.2978
  739TMC3    C310918   2.172   4.234  14.603  1.2354  0.1425 -0.4366
  739TMC3    C410919   2.107   4.166  14.855 -0.4136  0.1630 -0.5728
  739TMC3    C510920   2.237   4.192  14.821 -0.0150 -0.2403 -0.8956
  739TMC3    C610921   2.269   4.242  14.696  0.4700  0.1625  0.3604
  739TMC3     C10922   1.881   4.120  14.789 -0.0071  0.3620 -0.5935
  739TMC3     O10923   1.823   4.067  14.697  0.3845  0.3760  0.2109
  739TMC3     H10924   1.975   4.195  14.555 -0.0167  1.5619 -0.3225
  739TMC3    H110925   2.080   4.121  14.950 -0.0646 -1.1611 -1.1144
  739TMC3    H210926   2.374   4.253  14.668  0.4470 -0.5670  0.0104
  739TMC3    C710927   2.337   4.153  14.916 -0.0615  0.4258  0.1449
  739TMC3    C810928   2.191   4.256  14.455 -0.6780  0.2346  0.1181
  739TMC3    O110929   2.300   4.089  15.017  0.0185 -0.2669  0.0431
  739TMC3    O210930   2.090   4.280  14.389  0.3266  0.3151  0.1155
  740TMC3    C110931   2.334   0.499  14.722  0.0466 -0.3195  0.0411
  740TMC3    C210932   2.371   0.497  14.850 -0.3019 -0.7658 -0.2148
  740TMC3    C310933   2.503   0.451  14.877 -0.6567  0.0408  0.1912
  740TMC3    C410934   2.424   0.475  14.624  0.6826 -0.8730 -0.2592
  740TMC3    C510935   2.551   0.445  14.653  0.6032  0.1901 -0.7327
  740TMC3    C610936   2.600   0.431  14.780 -0.9647 -0.1938  0.1814
  740TMC3     C10937   2.194   0.524  14.687 -0.4528 -0.2559 -0.4910
  740TMC3     O10938   2.178   0.560  14.569 -0.1380  0.3996 -0.1592
  740TMC3     H10939   2.309   0.534  14.931  2.9494  0.2836  1.7843
  740TMC3    H110940   2.392   0.478  14.520 -0.7588 -1.2042  0.1782
  740TMC3    H210941   2.707   0.422  14.797 -1.3145 -3.0344  0.8917
  740TMC3    C710942   2.652   0.429  14.549 -0.7840 -0.7727 -0.5367
  740TMC3    C810943   2.540   0.418  15.011 -0.0368 -0.9892 -0.3041
  740TMC3    O110944   2.751   0.371  14.579 -0.4246 -0.4633  0.4259
  740TMC3    O210945   2.458   0.441  15.099 -0.8538 -0.2710  0.0539
  741TMC3    C110946   2.082   0.166  14.107 -0.2102  0.3514 -0.3077
  741TMC3    C210947   1.946   0.147  14.123 -0.0934 -0.2063 -0.5044
  741TMC3    C310948   1.907   0.046  14.199  0.3273 -0.3975 -0.4738
  741TMC3    C410949   2.177   0.096  14.169  0.2070 -0.7717  0.2606
  741TMC3    C510950   2.126   4.720  14.244 -1.0170 -0.4699 -0.4186
  741TMC3    C610951   1.999   4.690  14.260  0.0474 -0.1261  0.7881
  741TMC3     C10952   2.125   0.283  14.035 -0.4413  0.6103  0.0032
  741TMC3     O10953   2.231   0.338  14.061 -0.4315 -0.1618 -0.2912
  741TMC3     H10954   1.869   0.217  14.093  1.6356  1.2524 -1.5798
  741TMC3    H110955   2.281   0.119  14.149 -0.1946  2.3357  1.6509
  741TMC3    H210956   1.977   4.597  14.312  0.0826 -1.5548 -1.7173
  741TMC3    C710957   2.210   4.652  14.343 -0.5252 -0.0612  0.4643
  741TMC3    C810958   1.787   4.701  14.139  0.5380  0.4573 -0.3410
  741TMC3    O110959   2.152   4.609  14.439 -0.1807  0.0450  0.0850
  741TMC3    O210960   1.696   0.051  14.106 -0.3955 -0.3727 -0.4816
  742TMC3    C110961   1.970   3.638  15.522 -0.4157  0.2478 -0.3208
  742TMC3    C210962   1.893   3.575  15.423  0.0129 -0.3133 -0.7070
  742TMC3    C310963   1.955   3.489  15.334 -0.1394  0.0152  0.3016
  742TMC3    C410964   2.094   3.595  15.550  0.3980 -0.2686 -0.0770
  742TMC3    C510965   2.151   3.502  15.468  0.0522  0.8119 -0.7276
  742TMC3    C610966   2.083   3.450  15.362  0.3915 -0.3582 -0.3859
  742TMC3     C10967   1.906   3.746  15.595  0.2249  0.7915  0.8585
  742TMC3     O10968   1.787   3.759  15.587  0.1506 -0.5878 -0.4491
  742TMC3     H10969   1.797   3.624  15.414  0.1730  0.2970  0.8488
  742TMC3    H110970   2.161   3.647  15.617  0.3668 -0.8743  0.4269
  742TMC3    H210971   2.120   3.358  15.319  2.1506  0.6891 -1.1134
  742TMC3    C710972   2.286   3.457  15.462 -0.2776  0.5368 -0.0283
  742TMC3    C810973   1.880   3.417  15.235  0.8324  0.1395 -0.1418
  742TMC3    O110974   2.335   3.414  15.356  0.1798  0.2464  0.4417
  742TMC3    O210975   1.941   3.354  15.146  0.2807  0.4715  0.6824
  743MPD2     C10976   3.491   0.240   2.013  0.0520 -0.7642  0.2103
  743MPD2    C110977   3.589   0.158   1.956  0.0259 -0.1770  0.6026
  743MPD2    C210978   3.713   0.148   2.015  0.1529 -0.3736  0.0337
  743MPD2    C310979   3.741   0.218   2.128 -0.4740 -0.6039 -0.0640
  743MPD2    C410980   3.636   0.297   2.185  0.1624  0.3743  0.3023
  743MPD2    C510981   3.518   0.320   2.124  0.5446 -0.1802  0.3715
  743MPD2     H10982   3.780   0.068   1.986 -1.1602 -1.4111 -0.1518
  743MPD2    H110983   3.653   0.358   2.273  0.1417 -0.3507  0.8143
  743MPD2    H210984   3.403   0.252   1.952 -2.5138 -2.3270  3.5960
  743MPD2    H310985   3.444   0.387   2.166 -0.9050 -0.2759 -2.0447
  743MPD2     N10986   3.871   0.211   2.184  0.4338 -0.6967  0.3411
  743MPD2    H510987   3.937   0.152   2.135 -0.1051 -1.3653  0.4120
  743MPD2    N110988   3.563   0.097   1.833  0.1718  0.7223  0.4277
  743MPD2    H710989   3.472   0.117   1.791  0.8198 -1.1325 -1.9047
  744TMC3    C110990   3.590   4.721   1.630 -0.2858  0.3549  0.1084
  744TMC3    C210991   3.474   0.056   1.590  0.4104  0.3083 -0.7394
  744TMC3    C310992   3.440   0.046   1.457  0.0390 -0.2477  0.5163
  744TMC3    C410993   3.671   4.665   1.543 -0.1395 -0.0001 -0.4323
  744TMC3    C510994   3.646   4.664   1.409 -0.6733  0.2890  0.1722
  744TMC3    C610995   3.528   4.714   1.366 -0.2036 -0.1969 -0.6928
  744TMC3     C10996   3.647   0.023   1.756  0.1930  0.7099  0.0434
  744TMC3     O10997   3.771   0.007   1.777 -0.5497 -0.6109  0.4234
  744TMC3     H10998   3.411   0.116   1.654 -1.8928 -4.4860  1.4529
  744TMC3    H110999   3.767   4.623   1.572  0.0946  0.9375  0.1471
  744TMC3    H211000   3.493   4.703   1.264  2.1379 -1.3681 -1.3659
  744TMC3    C711001   3.752   4.630   1.319  0.1490  0.4451 -0.0882
  744TMC3    C811002   3.353   0.147   1.406 -0.3997 -0.4158 -0.1937
  744TMC3    O111003   3.861   4.622   1.367 -0.1775  0.0499  0.0002
  744TMC3    O211004   3.380   0.208   1.300  0.0384  0.2023 -0.0714
  745TMC3    C111005   2.431   2.677  14.017  0.8555 -0.4590 -0.1447
  745TMC3    C211006   2.372   2.676  14.142 -0.2175 -0.3771  0.5198
  745TMC3    C311007   2.233   2.681  14.143  0.0909  0.6965  0.3377
  745TMC3    C411008   2.364   2.650  13.902  0.1649 -0.7260 -0.1926
  745TMC3    C511009   2.230   2.640  13.906 -0.3692  0.8433 -0.2821
  745TMC3    C611010   2.161   2.660  14.025 -0.3989 -0.3954 -0.0190
  745TMC3     C11011   2.529   2.775  14.008  0.9412  0.1204  0.1358
  745TMC3     O11012   2.596   2.780  14.112 -0.4101  0.6037 -0.3296
  745TMC3     H11013   2.432   2.693  14.230 -0.4208  0.8451  0.4365
  745TMC3    H111014   2.423   2.645  13.811  0.5616 -0.8415  0.0688
  745TMC3    H211015   2.053   2.660  14.037 -0.3027  0.0772  0.8176
  745TMC3    C711016   2.158   2.621  13.789 -0.5600 -0.5580  0.1570
  745TMC3    C811017   2.187   2.794  14.217  0.8754  0.4040  0.0473
  745TMC3    O111018   2.036   2.636  13.794  0.5869  0.1030  0.2448
  745TMC3    O211019   2.069   2.801  14.251  0.5470  0.2067  0.2352
  746TMC3    C111020   4.466   4.106  11.072  0.2616 -0.0573 -0.0013
  746TMC3    C211021   4.567   4.081  10.987  0.0423 -0.0405  0.1744
  746TMC3    C311022   4.558   3.964  10.919 -0.6112 -0.3166  0.6367
  746TMC3    C411023   4.355   4.025  11.080  0.2144 -0.2612  0.4349
  746TMC3    C511024   4.353   3.905  11.012 -0.3719 -0.7181 -0.7137
  746TMC3    C611025   4.455   3.874  10.927  0.2773 -0.0781  0.1804
  746TMC3     C11026   4.453   4.232  11.141  0.1182  0.0498 -0.3294
  746TMC3     O11027   4.344   4.293  11.141  0.1479  0.2410 -0.2234
  746TMC3     H11028   4.655   4.145  10.987  0.1546 -0.1932  1.0151
  746TMC3    H111029   4.268   4.064  11.131  1.8896 -0.6792  3.6274
  746TMC3    H211030   4.444   3.789  10.860 -0.9834  1.7377 -1.9024
  746TMC3    C711031   4.239   3.821  11.022  0.1406 -0.4853 -0.1537
  746TMC3    C811032   4.646   3.944  10.809  0.1863 -0.3200 -0.2542
  746TMC3    O111033   4.223   3.740  10.933 -0.2310 -0.4824  0.7371
  746TMC3    O211034   4.658   3.839  10.751 -0.4526 -1.3603 -0.2164
  747TMC3    C111035   2.071   4.293  10.901 -0.1164  0.4211 -0.5155
  747TMC3    C211036   2.010   4.210  10.993 -0.2485 -0.3833 -0.1610
  747TMC3    C311037   2.017   4.245  11.127  0.1099 -0.3018  0.3196
  747TMC3    C411038   2.126   4.414  10.937 -0.5073  0.3650  0.0036
  747TMC3    C511039   2.125   4.446  11.071 -0.2691  0.4230 -0.6856
  747TMC3    C611040   2.075   4.360  11.167 -0.0281  0.0782 -0.3120
  747TMC3     C11041   2.052   4.271  10.755  0.0551 -0.5926 -0.0041
  747TMC3     O11042   2.053   4.371  10.684  0.1676 -0.2923  0.3706
  747TMC3     H11043   1.929   4.145  10.963  1.0006 -1.7890 -0.4834
  747TMC3    H111044   2.173   4.483  10.868  0.9538  1.1487  1.7794
  747TMC3    H211045   2.079   4.385  11.272 -2.7892  1.1465 -0.4724
  747TMC3    C711046   2.211   4.553  11.116  0.4827  1.3603 -0.0572
  747TMC3    C811047   1.948   4.152  11.219 -0.2091  0.1419 -0.0868
  747TMC3    O111048   2.265   4.543  11.226 -0.8917 -0.0681 -0.0615
  747TMC3    O211049   1.919   4.042  11.176 -0.4229 -0.3390 -0.1750
  748MPD2     C11050   2.872   0.561   1.733  0.1184 -0.7392 -0.0495
  748MPD2    C111051   2.933   0.603   1.851 -0.7091  0.5250  0.1594
  748MPD2    C211052   3.068   0.635   1.843  0.0703 -0.4241  0.2792
  748MPD2    C311053   3.140   0.619   1.729 -0.6884  0.3816 -0.4509
  748MPD2    C411054   3.077   0.589   1.609  0.1662  0.6043  0.3059
  748MPD2    C511055   2.941   0.562   1.610 -0.2086 -0.0588  0.1272
  748MPD2     H11056   3.110   0.678   1.933  0.5571 -0.3964  0.0390
  748MPD2    H111057   3.121   0.603   1.510  0.7102 -1.6658  0.2234
  748MPD2    H211058   2.765   0.543   1.722  0.1358 -0.5623 -0.5159
  748MPD2    H311059   2.893   0.544   1.514 -0.5985 -1.9533  0.6861
  748MPD2     N11060   3.286   0.648   1.737 -0.4153  0.0775 -0.2954
  748MPD2    H511061   3.310   0.699   1.822 -1.0325  0.8644 -0.5916
  748MPD2    N111062   2.871   0.616   1.975  0.2688 -0.5720  0.1194
  748MPD2    H711063   2.934   0.633   2.053  1.0299  1.7836 -1.0240
  749TMC3    C111064   3.510   0.655   1.677  0.0035  0.4578 -0.9617
  749TMC3    C211065   3.562   0.620   1.794 -0.0399 -0.2392 -0.2735
  749TMC3    C311066   3.698   0.616   1.818  0.2802 -0.3901 -0.1370
  749TMC3    C411067   3.601   0.672   1.575 -0.7381 -0.2464  0.3060
  749TMC3    C511068   3.739   0.670   1.597  0.5156 -0.4799 -0.2780
  749TMC3    C611069   3.787   0.650   1.724 -0.5395 -0.3619 -1.0395
  749TMC3     C11070   3.378   0.623   1.638  0.3786  0.7994  0.4246
  749TMC3     O11071   3.362   0.551   1.536 -0.2682 -0.1937  0.3083
  749TMC3     H11072   3.501   0.589   1.878  0.2313 -0.2816 -0.0898
  749TMC3    H111073   3.572   0.685   1.471 -0.0150 -3.0039 -0.2408
  749TMC3    H211074   3.892   0.675   1.737 -0.9992  0.4448  1.1121
  749TMC3    C711075   3.838   0.699   1.494 -0.1407 -0.4711 -0.0969
  749TMC3    C811076   3.746   0.604   1.947  0.4994  0.0686  0.0997
  749TMC3    O111077   3.792   0.779   1.415  0.5125 -0.1033  0.2471
  749TMC3    O211078   3.697   0.669   2.042 -0.2180 -0.1769  0.1970
  750MPD2     C11079   0.116   1.450  11.427 -0.4224 -0.4117 -0.1501
  750MPD2    C111080   0.014   1.437  11.340  0.1370  0.0625  0.0139
  750MPD2    C211081   4.723   1.311  11.283  0.1329 -0.5039 -0.0989
  750MPD2    C311082   0.093   1.205  11.291 -0.4658 -0.6600  0.3630
  750MPD2    C411083   0.198   1.228  11.377 -0.2114  0.2219 -0.6668
  750MPD2    C511084   0.206   1.351  11.444  0.3457  0.2254  1.0127
  750MPD2     H11085   4.636   1.304  11.218 -0.9807  1.7905  1.1396
  750MPD2    H111086   0.266   1.146  11.398  1.5962  2.1544  1.0118
  750MPD2    H211087   0.126   1.541  11.486  1.8893 -0.4173 -0.5387
  750MPD2    H311088   0.287   1.356  11.516  1.2160 -0.0736  0.0572
  750MPD2     N11089   0.067   1.071  11.240 -0.6259  0.8805 -0.8092
  750MPD2    H511090   0.140   1.003  11.258  0.6849  1.8369 -2.5045
  750MPD2    N111091   4.648   1.546  11.335 -0.8067 -0.0241 -0.8711
  750MPD2    H711092   4.667   1.626  11.395  2.3061 -0.3037 -1.5178
  751TMC3    C111093   4.666   0.876  11.200 -0.0135 -0.1759  0.3057
  751TMC3    C211094   4.543   0.811  11.218  0.0567  0.5830 -0.4804
  751TMC3    C311095   4.534   0.685  11.163 -0.1016  0.0699  0.4060
  751TMC3    C411096   0.042   0.824  11.124  0.4948 -0.2102 -0.5078
  751TMC3    C511097   0.017   0.704  11.056  0.1819  0.1565  0.5349
  751TMC3    C611098   4.626   0.637  11.070 -0.7066 -0.7716  0.1386
  751TMC3     C11099   4.665   1.021  11.210  0.2287 -0.1061 -0.1895
  751TMC3     O11100   4.554   1.074  11.196 -0.3573 -0.4753 -0.0930
  751TMC3     H11101   4.452   0.851  11.260  1.2468  1.5935  1.1102
  751TMC3    H111102   0.135   0.874  11.102  0.2411  0.6431  0.3394
  751TMC3    H211103   4.601   0.547  11.014  1.6375 -0.5102 -1.3395
  751TMC3    C711104   0.114   0.661  10.953 -0.4064  0.2904 -1.2455
  751TMC3    C811105   4.401   0.615  11.153 -0.1686 -0.3998 -0.1930
  751TMC3    O111106   0.222   0.714  10.935  0.3657  0.2083 -0.3086
  751TMC3    O211107   4.384   0.532  11.063 -0.6350 -0.1562  0.5358
  752TMC3    C111108   3.633   1.001  16.524 -0.3145 -0.1362 -0.4083
  752TMC3    C211109   3.547   0.999  16.630  0.4938 -0.2599 -0.2220
  752TMC3    C311110   3.597   0.985  16.759  0.1077 -0.1388 -0.0483
  752TMC3    C411111   3.768   0.983  16.543 -0.1409  0.7540  0.0670
  752TMC3    C511112   3.819   0.974  16.670 -0.3461 -0.9292 -0.3416
  752TMC3    C611113   3.734   0.981  16.777  0.1523 -0.4598 -0.9965
  752TMC3     C11114   3.592   1.044  16.389  0.1215  0.3397 -0.1867
  752TMC3     O11115   3.668   1.006  16.302 -0.8395 -0.2058 -0.2900
  752TMC3     H11116   3.440   1.000  16.611  0.5189  1.7472 -0.2653
  752TMC3    H111117   3.834   0.986  16.457 -1.1668  2.6699 -0.6480
  752TMC3    H211118   3.778   0.978  16.876  1.1229  2.3305 -1.3308
  752TMC3    C711119   3.953   1.009  16.687 -0.2852 -0.4903 -0.2499
  752TMC3    C811120   3.507   1.016  16.870  0.2473 -0.2298 -0.5516
  752TMC3    O111121   4.006   1.064  16.592 -0.2273  0.5159  0.5489
  752TMC3    O211122   3.399   1.069  16.862  0.1254 -0.0792 -0.0401
  753TMC3    C111123   0.384   2.643  13.774  0.2818 -0.7213 -0.7871
  753TMC3    C211124   0.382   2.694  13.900  0.2770 -0.1882 -0.6310
  753TMC3    C311125   0.501   2.696  13.963  0.1175  1.2413 -0.6161
  753TMC3    C411126   0.487   2.585  13.710 -0.3847  0.3626  0.7634
  753TMC3    C511127   0.601   2.586  13.781  1.3582  0.3165  0.3694
  753TMC3    C611128   0.611   2.647  13.902 -0.0746  0.0773 -0.4168
  753TMC3     C11129   0.290   2.700  13.682 -0.0210 -0.1835  0.0597
  753TMC3     O11130   0.327   2.710  13.566 -0.5768 -0.8528 -0.1401
  753TMC3     H11131   0.321   2.777  13.934 -1.4112 -1.0863 -1.5079
  753TMC3    H111132   0.489   2.554  13.606 -0.4704 -0.2644  0.9493
  753TMC3    H211133   0.707   2.659  13.951 -1.3058  0.4095  1.9000
  753TMC3    C711134   0.729   2.572  13.714 -0.5338  0.5596  1.0392
  753TMC3    C811135   0.522   2.782  14.079 -0.2945 -0.5519 -0.0198
  753TMC3    O111136   0.814   2.655  13.747  0.4272 -0.0093 -0.1258
  753TMC3    O211137   0.498   2.744  14.190 -0.1115 -0.2827 -0.2668
  754MPD2     C11138   4.181   1.971  12.883 -0.2967  0.1707  0.3683
  754MPD2    C111139   4.207   1.833  12.885  0.3358  0.5172 -0.0849
  754MPD2    C211140   4.108   1.744  12.902  1.0241  0.4233  0.0118
  754MPD2    C311141   3.974   1.787  12.911  0.0922 -0.3409 -0.7836
  754MPD2    C411142   3.953   1.925  12.905 -0.4416  0.2033  0.0757
  754MPD2    C511143   4.051   2.014  12.905  0.4481 -0.5349  0.2743
  754MPD2     H11144   4.132   1.639  12.912 -1.7849  0.0021  2.3587
  754MPD2    H111145   3.853   1.966  12.917 -0.4830 -0.2929  1.3536
  754MPD2    H211146   4.263   2.040  12.866 -0.0107  0.0037  1.0720
  754MPD2    H311147   4.027   2.119  12.913 -1.7179 -0.9780 -0.4981
  754MPD2     N11148   3.869   1.701  12.955  0.0804  0.9068 -0.5206
  754MPD2    H511149   3.781   1.746  12.979  0.4504  1.1714  0.3721
  754MPD2    N111150   4.341   1.801  12.890  0.4665  0.7667 -0.4167
  754MPD2    H711151   4.412   1.873  12.895  0.7262  0.6566 -2.8420
  755MPD2     C11152   3.139   1.964  13.390 -0.0920 -0.5258 -0.4778
  755MPD2    C111153   3.202   1.883  13.481 -1.0322 -0.2566 -0.7846
  755MPD2    C211154   3.302   1.792  13.435  0.0327 -0.7935 -0.9915
  755MPD2    C311155   3.334   1.790  13.298 -0.1716 -0.8077 -0.0464
  755MPD2    C411156   3.262   1.868  13.212 -0.7697  0.0972  0.3385
  755MPD2    C511157   3.170   1.958  13.255 -0.2669 -0.4041  0.1560
  755MPD2     H11158   3.349   1.723  13.503 -1.5438 -1.5069 -0.6413
  755MPD2    H111159   3.296   1.873  13.109 -2.0478  1.4208 -0.0158
  755MPD2    H211160   3.060   2.033  13.417 -0.9924 -1.9114  0.3705
  755MPD2    H311161   3.133   2.036  13.189 -2.7259 -1.0653  0.7248
  755MPD2     N11162   3.436   1.707  13.244  0.4184  0.6246  0.3346
  755MPD2    H511163   3.454   1.700  13.145  0.5960  1.0497  0.3370
  755MPD2    N111164   3.166   1.876  13.622  0.3092 -0.0849  0.5766
  755MPD2    H711165   3.212   1.809  13.683 -0.6304  0.3863  1.7948
  756MPD2     C11166   4.680   2.259   9.658 -0.0871 -0.0576  0.0794
  756MPD2    C111167   4.674   2.144   9.723  0.4710  0.0352 -0.1505
  756MPD2    C211168   4.682   2.024   9.661 -0.1893 -0.6320  0.0870
  756MPD2    C311169   4.711   2.022   9.527 -0.0839  0.6209  0.1495
  756MPD2    C411170   0.014   2.138   9.454  0.0418 -0.3168 -0.1614
  756MPD2    C511171   4.724   2.252   9.523 -0.3918 -0.3632  0.0299
  756MPD2     H11172   4.681   1.931   9.717 -1.6537  0.0162  1.1177
  756MPD2    H111173   0.040   2.142   9.349  1.4649 -1.6717  0.1322
  756MPD2    H211174   4.668   2.356   9.703  1.0117  0.2555 -0.3131
  756MPD2    H311175   0.000   2.343   9.465 -0.8988 -1.0153 -1.0004
  756MPD2     N11176   4.712   1.890   9.472  0.2724  0.0032 -0.5012
  756MPD2    H511177   4.706   1.804   9.525  2.4580 -2.1807 -3.7632
  756MPD2    N111178   4.651   2.135   9.859 -0.2345  0.0962  0.1872
  756MPD2    H711179   4.654   2.047   9.910  1.2998  1.3867  2.3343
  757MPD2     C11180   0.038   1.074   9.879  0.1267 -0.1358 -0.1230
  757MPD2    C111181   4.656   1.068   9.790  0.0341 -0.3656  0.0622
  757MPD2    C211182   4.663   1.155   9.681  0.3815  0.1907 -0.3417
  757MPD2    C311183   0.043   1.237   9.666  0.3116  0.7827 -0.1384
  757MPD2    C411184   0.150   1.245   9.748  0.0530 -0.1478 -0.6754
  757MPD2    C511185   0.144   1.154   9.856  0.0007  0.1021 -0.4558
  757MPD2     H11186   4.579   1.157   9.612 -0.2572 -2.6628  0.3565
  757MPD2    H111187   0.236   1.307   9.726  1.2344 -1.4982  0.1695
  757MPD2    H211188   0.040   1.005   9.963  0.5486  0.5511  0.4305
  757MPD2    H311189   0.225   1.143   9.927  0.9815  1.1105 -1.4037
  757MPD2     N11190   0.026   1.335   9.564  0.1539  0.5695  0.0772
  757MPD2    H511191   4.671   1.325   9.501 -1.6099 -2.5747  2.8285
  757MPD2    N111192   4.560   0.962   9.812 -0.1406  0.1176  0.1834
  757MPD2    H711193   4.555   0.902   9.894  1.0660  1.0155  0.9000
  758MPD2     C11194   4.643   4.653  16.076 -0.4216 -0.2897  0.8393
  758MPD2    C111195   0.018   4.688  16.163 -0.2085  0.1255 -0.3152
  758MPD2    C211196   0.024   0.097  16.210 -0.3748 -0.2899 -1.0500
  758MPD2    C311197   4.651   0.191  16.165 -0.7956  0.3671  0.4881
  758MPD2    C411198   4.551   0.141  16.082 -0.1455  0.2930 -0.1150
  758MPD2    C511199   4.550   0.017  16.031 -0.7181  0.2044  0.0712
  758MPD2     H11200   0.093   0.109  16.292 -0.1385  0.3608 -1.3432
  758MPD2    H111201   4.467   0.202  16.052 -0.5525 -0.0379  0.3586
  758MPD2    H211202   4.639   4.550  16.044  0.3894  0.5056 -1.8653
  758MPD2    H311203   4.473   0.007  15.955  1.6941  1.1606 -2.5189
  758MPD2     N11204   4.630   0.320  16.211  0.1698  0.0899  0.5522
  758MPD2    H511205   4.541   0.363  16.187  0.6846  0.2397 -1.0660
  758MPD2    N111206   0.107   4.589  16.211  0.7420 -0.6117 -0.8822
  758MPD2    H711207   0.079   4.491  16.202 -0.5661 -0.5038  1.8489
  759MPD2     C11208   2.271   4.152  10.036 -0.1066  0.5270 -0.3770
  759MPD2    C111209   2.379   4.093  10.099 -0.3351 -0.3286 -0.0939
  759MPD2    C211210   2.504   4.117  10.048 -0.7939 -0.0293 -0.0706
  759MPD2    C311211   2.524   4.193   9.936 -0.0102 -0.6649  0.0430
  759MPD2    C411212   2.420   4.253   9.874  0.3329 -0.0657  0.7738
  759MPD2    C511213   2.295   4.232   9.928 -0.4853  0.2789  0.4769
  759MPD2     H11214   2.590   4.069  10.093 -0.4983  0.2505 -0.3333
  759MPD2    H111215   2.440   4.310   9.784  0.3664 -1.5128 -0.1400
  759MPD2    H211216   2.170   4.154  10.075 -0.3051 -0.8239 -0.8279
  759MPD2    H311217   2.211   4.273   9.872  0.0688  1.4345  0.4925
  759MPD2     N11218   2.655   4.204   9.882 -0.5125 -0.4715 -0.0498
  759MPD2    H511219   2.731   4.144   9.913 -0.7246 -0.4844  0.4336
  759MPD2    N111220   2.375   4.024  10.223  0.2787 -0.3473 -0.1684
  759MPD2    H711221   2.462   3.989  10.263  0.7878  0.0020 -0.9640
  760MPD2     C11222   2.613   1.142  12.106  0.7932 -0.1192  0.0048
  760MPD2    C111223   2.745   1.142  12.067 -0.2598 -0.9359  0.0599
  760MPD2    C211224   2.831   1.053  12.134  0.5060  0.6592  0.4471
  760MPD2    C311225   2.789   0.977  12.237  0.4081 -1.1503 -0.7415
  760MPD2    C411226   2.661   0.987  12.273  0.9999 -1.0128 -0.1547
  760MPD2    C511227   2.569   1.058  12.200  0.1118  0.9728  0.2433
  760MPD2     H11228   2.934   1.062  12.102  0.0787  1.6549 -0.6322
  760MPD2    H111229   2.630   0.928  12.358  0.8667 -1.7359 -0.7063
  760MPD2    H211230   2.544   1.208  12.054  0.5575  0.8340  1.5211
  760MPD2    H311231   2.465   1.068  12.230 -0.4477  1.9820 -2.0078
  760MPD2     N11232   2.886   0.920  12.330  0.0988 -0.0807  0.6090
  760MPD2    H511233   2.860   0.839  12.385  0.1237 -1.8337 -1.9435
  760MPD2    N111234   2.794   1.211  11.958 -0.3643 -0.3745 -0.0938
  760MPD2    H711235   2.889   1.195  11.925  0.0686 -3.2003  2.5182
  761MPD2     C11236   3.943   0.483  11.360 -0.1382  0.4925 -0.2373
  761MPD2    C111237   4.003   0.462  11.236  0.6590  0.2104 -0.6644
  761MPD2    C211238   4.134   0.499  11.214  0.1844 -0.5520  0.2869
  761MPD2    C311239   4.198   0.577  11.308 -0.5930 -0.4822 -0.5377
  761MPD2    C411240   4.132   0.603  11.424 -0.4619  0.1285  0.8510
  761MPD2    C511241   4.010   0.561  11.452 -0.1058 -0.2177  1.0745
  761MPD2     H11242   4.176   0.486  11.115 -1.7487  0.1119 -0.6187
  761MPD2    H111243   4.184   0.670  11.492  0.5963 -0.4725  0.6533
  761MPD2    H211244   3.838   0.461  11.377 -0.5844  1.3726 -1.7669
  761MPD2    H311245   3.953   0.591  11.539 -2.7079  0.7221 -0.9619
  761MPD2     N11246   4.325   0.642  11.274  1.0619 -0.4665  0.1032
  761MPD2    H511247   4.370   0.700  11.345 -3.4569  0.9793  1.7956
  761MPD2    N111248   3.926   0.395  11.139  0.1550 -0.2115 -0.2563
  761MPD2    H711249   3.835   0.360  11.167 -0.1120 -1.0184 -2.0946
  762MPD2     C11250   4.282   0.462  10.731 -0.2180 -0.5180  0.7053
  762MPD2    C111251   4.215   0.368  10.658 -0.5174 -0.8242 -0.0165
  762MPD2    C211252   4.266   0.295  10.560  0.3719  0.7429  0.1112
  762MPD2    C311253   4.403   0.306  10.536 -0.2877 -0.5912 -0.5541
  762MPD2    C411254   4.473   0.404  10.602 -0.3685  0.8655 -0.3236
  762MPD2    C511255   4.416   0.477  10.707 -0.4228  0.7218  0.1418
  762MPD2     H11256   4.206   0.211  10.527  1.9642  0.0717 -1.0661
  762MPD2    H111257   4.579   0.410  10.581  0.4349  1.3401  3.9178
  762MPD2    H211258   4.235   0.510  10.816  1.5449  2.5030 -0.0232
  762MPD2    H311259   4.461   0.558  10.763  0.9186  0.0793 -0.0133
  762MPD2     N11260   4.468   0.212  10.452 -0.2240  0.0902 -0.4965
  762MPD2    H511261   4.430   0.120  10.433  1.5905 -1.1728  2.0567
  762MPD2    N111262   4.076   0.354  10.685  0.1389  0.1954 -0.2038
  762MPD2    H711263   4.046   0.400  10.770 -1.6532  0.9710 -1.2634
  763MPD2     C11264   1.591   1.448  16.388 -0.4514 -0.9478 -0.0399
  763MPD2    C111265   1.483   1.457  16.298 -0.2470  0.4480 -0.0815
  763MPD2    C211266   1.407   1.572  16.303 -0.3007  0.4553  0.1113
  763MPD2    C311267   1.435   1.681  16.392 -0.0284  1.1833 -0.2782
  763MPD2    C411268   1.531   1.658  16.492  0.1660 -0.3363  0.0904
  763MPD2    C511269   1.595   1.537  16.491 -0.6564  0.3948 -0.1992
  763MPD2     H11270   1.330   1.592  16.229 -1.3537  2.2921  1.6875
  763MPD2    H111271   1.548   1.723  16.577  1.6675 -0.7379  0.0969
  763MPD2    H211272   1.657   1.362  16.400  1.2390  0.1805 -1.2672
  763MPD2    H311273   1.679   1.524  16.559  0.0452  0.0652 -1.1247
  763MPD2     N11274   1.343   1.792  16.393  0.2290 -0.4301  0.1477
  763MPD2    H511275   1.271   1.775  16.322  2.5429 -2.5717 -1.6867
  763MPD2    N111276   1.457   1.354  16.204  0.3041  0.0175  0.4185
  763MPD2    H711277   1.373   1.364  16.148 -1.5411 -2.7664  2.6850
  764MPD2     C11278   4.005   2.486  17.053 -0.4011 -0.1785  0.3578
  764MPD2    C111279   3.970   2.357  17.006  0.3771  0.0405 -0.0983
  764MPD2    C211280   3.971   2.251  17.090  0.1950 -0.6084 -0.1597
  764MPD2    C311281   4.006   2.270  17.220 -0.6054 -0.9234 -0.2231
  764MPD2    C411282   4.043   2.395  17.266  0.5856  0.2550 -0.2343
  764MPD2    C511283   4.048   2.497  17.177 -0.3657  0.0146 -0.6766
  764MPD2     H11284   3.940   2.154  17.054  2.3305 -1.3361 -0.0722
  764MPD2    H111285   4.075   2.404  17.369  0.0062  2.7522 -0.2725
  764MPD2    H211286   3.997   2.576  16.993  0.8921 -0.7110 -0.6275
  764MPD2    H311287   4.077   2.594  17.217  0.2745 -0.7392  0.6848
  764MPD2     N11288   4.020   2.157  17.304 -0.5152 -0.1275  1.2543
  764MPD2    H511289   3.989   2.065  17.274  0.9142 -0.3567  0.4756
  764MPD2    N111290   3.941   2.342  16.863  0.0696  0.2310 -0.0241
  764MPD2    H711291   3.909   2.248  16.841  1.7390 -0.0684 -1.1026
  765MPD2     C11292   3.738   4.658  16.001  0.5384 -0.2365  0.4038
  765MPD2    C111293   3.787   0.038  15.921 -0.5172 -0.0549 -0.6379
  765MPD2    C211294   3.910   0.019  15.853  0.6250 -1.1101  0.2621
  765MPD2    C311295   3.985   4.628  15.878  0.0671 -0.2955 -0.3348
  765MPD2    C411296   3.935   4.534  15.973  0.0450 -0.7312  0.0099
  765MPD2    C511297   3.813   4.548  16.036  0.1302 -0.2416 -0.4471
  765MPD2     H11298   3.941   0.084  15.772  0.1436 -0.7155  0.3938
  765MPD2    H111299   3.991   4.443  15.994  1.1564 -0.6825 -2.7260
  765MPD2    H211300   3.639   4.657  16.046  0.0492 -1.3273 -0.6820
  765MPD2    H311301   3.761   4.468  16.086  0.1962  0.0432  0.0821
  765MPD2     N11302   4.110   4.611  15.813 -0.6739  0.9430  0.3389
  765MPD2    H511303   4.133   4.674  15.736  0.9104 -0.0014  0.0437
  765MPD2    N111304   3.713   0.158  15.901  0.3203  0.2823 -0.7802
  765MPD2    H711305   3.613   0.157  15.922  0.5473 -0.8634  0.2598
  766MPD2     C11306   3.327   0.150  15.415  0.6661 -0.1209  0.4134
  766MPD2    C111307   3.381   0.278  15.436 -0.4002 -0.1925 -0.3690
  766MPD2    C211308   3.426   0.343  15.320 -0.3042  0.1084 -0.0013
  766MPD2    C311309   3.413   0.286  15.194  0.4573  0.2281 -0.9318
  766MPD2    C411310   3.356   0.164  15.179  0.3810  0.1653 -0.3632
  766MPD2    C511311   3.314   0.095  15.289 -0.0041  0.2055 -0.1850
  766MPD2     H11312   3.473   0.439  15.337 -0.5791  0.0345  1.2082
  766MPD2    H111313   3.346   0.120  15.081  1.8818  2.2435 -1.4441
  766MPD2    H211314   3.301   0.081  15.495 -1.7841 -1.2884 -1.4013
  766MPD2    H311315   3.288   4.714  15.284  2.5877 -0.3077 -2.8537
  766MPD2     N11316   3.471   0.353  15.085 -0.9698 -0.1559 -0.0766
  766MPD2    H511317   3.440   0.311  14.998  1.2058 -1.0847 -0.4211
  766MPD2    N111318   3.389   0.321  15.570  0.0231  0.2861 -0.5125
  766MPD2    H711319   3.370   0.257  15.647 -1.0007  0.4994 -0.5898
  767MPD2     C11320   3.185   0.558  15.305 -0.8114  0.2564  0.6901
  767MPD2    C111321   3.253   0.649  15.228 -0.3324  0.0621 -0.6618
  767MPD2    C211322   3.229   0.653  15.091 -0.3081  0.3186 -0.4612
  767MPD2    C311323   3.142   0.567  15.030 -0.4044 -0.7914 -0.6779
  767MPD2    C411324   3.086   0.465  15.098  0.5912 -0.0843 -0.3933
  767MPD2    C511325   3.110   0.460  15.238 -0.3159 -0.1680  0.2588
  767MPD2     H11326   3.295   0.712  15.028 -0.5939  1.2436  0.1031
  767MPD2    H111327   3.026   0.387  15.053  2.8246 -1.6855 -0.6042
  767MPD2    H211328   3.201   0.547  15.411  0.5648  1.8772  0.6653
  767MPD2    H311329   3.075   0.375  15.296 -2.7240  0.9277  0.4150
  767MPD2     N11330   3.134   0.578  14.887  0.0611 -0.5078 -0.2562
  767MPD2    H511331   3.195   0.647  14.843 -1.9709  0.1148 -2.1009
  767MPD2    N111332   3.355   0.715  15.290 -0.1952  0.0153 -0.1072
  767MPD2    H711333   3.380   0.676  15.380 -3.0777  2.0866  1.5724
  768MPD2     C11334   4.150   3.699  10.376 -0.1484  0.5021  0.1112
  768MPD2    C111335   4.104   3.641  10.493  0.4649 -0.3882 -0.0934
  768MPD2    C211336   4.190   3.588  10.589 -0.0742  0.1411 -0.0480
  768MPD2    C311337   4.327   3.591  10.567 -0.3823  0.5606  0.1470
  768MPD2    C411338   4.366   3.627  10.443  0.1613  0.0258  0.5605
  768MPD2    C511339   4.283   3.694  10.352  0.4978 -0.3611 -0.5959
  768MPD2     H11340   4.147   3.558  10.684 -1.0065 -0.6071 -0.7133
  768MPD2    H111341   4.471   3.634  10.416  0.8053 -2.3360  2.5207
  768MPD2    H211342   4.090   3.739  10.295 -0.4998 -2.7989 -1.2346
  768MPD2    H311343   4.316   3.726  10.253  1.0359  0.4872 -0.1364
  768MPD2     N11344   4.420   3.548  10.659 -0.4527  0.5174 -0.4626
  768MPD2    H511345   4.515   3.583  10.653 -0.2605  0.1730  0.5870
  768MPD2    N111346   3.965   3.639  10.523  0.0373  0.8482  0.1252
  768MPD2    H711347   3.946   3.607  10.617 -0.0499 -0.0640 -0.2106
  769MPD2     C11348   0.529   1.999  14.738  0.6909  0.4148 -0.0805
  769MPD2    C111349   0.444   1.963  14.834 -0.3148  0.2787 -0.3900
  769MPD2    C211350   0.468   2.004  14.970  0.0421  0.3452 -0.4332
  769MPD2    C311351   0.578   2.083  14.999  0.2070 -0.8211 -0.2681
  769MPD2    C411352   0.671   2.111  14.898 -0.6949  0.9081 -0.1488
  769MPD2    C511353   0.639   2.079  14.767 -0.1940  0.1080 -0.1215
  769MPD2     H11354   0.393   1.987  15.047  0.7768  0.9946  0.4339
  769MPD2    H111355   0.766   2.163  14.909 -0.8715  1.3634 -0.8332
  769MPD2    H211356   0.516   1.968  14.635  2.8598 -0.7244  0.0029
  769MPD2    H311357   0.713   2.100  14.691  1.5543 -0.1881  1.4844
  769MPD2     N11358   0.590   2.108  15.134  1.2043 -0.1231  0.1649
  769MPD2    H511359   0.517   2.087  15.201  1.2102 -1.4718 -0.2572
  769MPD2    N111360   0.335   1.881  14.795  0.5773  0.8921 -0.2524
  769MPD2    H711361   0.309   1.892  14.697 -0.3094  1.8514  0.0869
  770MPD2     C11362   4.432   1.380  15.425 -0.2412  0.6787  0.0166
  770MPD2    C111363   4.543   1.308  15.374 -0.2058  0.6648  0.3942
  770MPD2    C211364   4.618   1.360  15.273  0.6849 -0.7869 -0.1728
  770MPD2    C311365   4.577   1.484  15.210 -0.2957  0.2608  0.5154
  770MPD2    C411366   4.471   1.560  15.262 -0.8398 -0.0901 -0.2305
  770MPD2    C511367   4.404   1.495  15.367 -0.4064 -0.9892  0.4992
  770MPD2     H11368   4.702   1.305  15.232  1.4803  1.3481 -1.4175
  770MPD2    H111369   4.429   1.651  15.221  0.6919  1.9532  2.7720
  770MPD2    H211370   4.376   1.349  15.513 -1.0341  1.8180 -0.0886
  770MPD2    H311371   4.323   1.550  15.413  0.4849  0.2615  0.5732
  770MPD2     N11372   4.643   1.525  15.095 -0.3105  0.3322  0.1150
  770MPD2    H511373   4.712   1.464  15.054  0.7786  0.1179  2.2899
  770MPD2    N111374   4.576   1.187  15.442 -0.0681  0.3885  0.2512
  770MPD2    H711375   4.508   1.169  15.516  2.5355  0.7095  2.7400
  771MPD2     C11376   1.378   0.055  13.837 -0.7787  0.0508 -0.4655
  771MPD2    C111377   1.286   0.155  13.861 -1.2433  0.0772  0.1393
  771MPD2    C211378   1.181   0.161  13.779 -0.4683  0.0182 -0.0207
  771MPD2    C311379   1.167   0.076  13.673 -0.0989  0.5475 -0.3901
  771MPD2    C411380   1.261   4.695  13.653  0.3009 -0.2727  0.5183
  771MPD2    C511381   1.367   4.687  13.739 -0.1684 -0.2330  0.1827
  771MPD2     H11382   1.103   0.233  13.797 -2.1220 -1.6107 -0.7163
  771MPD2    H111383   1.261   4.641  13.559 -2.4463 -1.5322  1.2370
  771MPD2    H211384   1.458   0.034  13.907 -1.4375 -1.6354 -0.2187
  771MPD2    H311385   1.431   4.601  13.724  2.0387  1.7729 -1.8462
  771MPD2     N11386   1.053   0.099  13.587 -0.0710  0.0793  0.0258
  771MPD2    H511387   0.990   0.173  13.616 -1.4793 -1.3501  0.5506
  771MPD2    N111388   1.301   0.237  13.973  0.9574 -0.4505  0.1698
  771MPD2    H711389   1.388   0.228  14.024  1.0358  0.2197  0.1508
  772MPD2     C11390   0.986   0.779  14.530 -0.9229 -0.4333 -0.0835
  772MPD2    C111391   0.955   0.764  14.393 -0.2563 -0.4527 -0.1412
  772MPD2    C211392   0.829   0.789  14.347  0.2428 -0.6778 -0.0162
  772MPD2    C311393   0.728   0.822  14.436  0.2496  0.1145 -0.6269
  772MPD2    C411394   0.765   0.833  14.574 -0.2407  0.8060  0.4982
  772MPD2    C511395   0.889   0.804  14.618  0.2107 -0.1265  0.3767
  772MPD2     H11396   0.803   0.780  14.242 -0.4451 -1.1251  0.1894
  772MPD2    H111397   0.689   0.864  14.645  0.0257 -1.6449  1.8813
  772MPD2    H211398   1.086   0.769  14.572 -1.2212 -0.9139  0.5033
  772MPD2    H311399   0.916   0.832  14.719  1.7869 -3.7381  0.9639
  772MPD2     N11400   0.589   0.839  14.404 -0.5144 -0.8634  0.0059
  772MPD2    H511401   0.530   0.850  14.486 -0.5759 -2.7944  0.2277
  772MPD2    N111402   1.052   0.706  14.310  0.0979  0.2511 -0.5055
  772MPD2    H711403   1.013   0.664  14.227  1.0409 -0.6340 -0.4956
  773MPD2     C11404   4.446   1.600   0.365  0.6040 -0.2818 -0.1262
  773MPD2    C111405   4.532   1.616   0.258  0.1759  0.0265  0.8388
  773MPD2    C211406   4.650   1.677   0.278  0.2830  0.3166  0.0511
  773MPD2    C311407   4.690   1.733   0.395 -0.2726 -0.0601 -0.2417
  773MPD2    C411408   4.610   1.708   0.508  1.2998  0.3849 -0.4117
  773MPD2    C511409   4.490   1.645   0.490 -0.7451 -0.5779  0.2358
  773MPD2     H11410   4.716   1.685   0.192 -0.1216 -2.2183 -0.4893
  773MPD2    H111411   4.631   1.758   0.601  0.7052  3.1832 -1.7812
  773MPD2    H211412   4.346   1.564   0.342  0.1080  0.2785  1.1959
  773MPD2    H311413   4.421   1.649   0.573 -0.3450 -2.0751  0.6375
  773MPD2     N11414   0.089   1.803   0.406 -0.2360  0.0992  0.1627
  773MPD2    H511415   0.141   1.819   0.321  1.5094 -3.0321  0.6307
  773MPD2    N111416   4.499   1.585   0.123 -0.7583 -0.2293 -0.5166
  773MPD2    H711417   4.567   1.590   0.049 -0.0659 -0.4572  0.1020
  774MPD2     C11418   4.415   0.933  13.331  0.6045 -0.1249  0.5983
  774MPD2    C111419   4.344   1.043  13.370  0.2005 -0.2800 -0.2271
  774MPD2    C211420   4.383   1.171  13.328  0.3170 -0.5676  0.8061
  774MPD2    C311421   4.503   1.190  13.269 -0.5022 -0.2864 -0.1646
  774MPD2    C411422   4.573   1.085  13.225  0.0010  0.2431  0.2641
  774MPD2    C511423   4.521   0.959  13.245  0.0830  0.2205 -0.2382
  774MPD2     H11424   4.328   1.261  13.354  1.5137 -0.5331  3.1326
  774MPD2    H111425   4.661   1.089  13.161 -1.9467 -0.0329 -2.4515
  774MPD2    H211426   4.384   0.832  13.354 -1.4097 -0.0154 -1.6293
  774MPD2    H311427   4.568   0.869  13.206 -0.8348 -0.7371  0.8823
  774MPD2     N11428   4.538   1.322  13.231 -0.0409  0.0539 -0.1753
  774MPD2    H511429   4.477   1.402  13.248  0.7032  0.6681 -0.4094
  774MPD2    N111430   4.226   1.018  13.442  0.0912  0.1873  0.0598
  774MPD2    H711431   4.203   0.920  13.455 -2.0721  0.3727 -2.4181
  775MPD2     C11432   0.982   1.937  15.873  0.4350 -0.3654 -0.3101
  775MPD2    C111433   0.911   2.056  15.893 -0.7888 -0.1624 -0.7782
  775MPD2    C211434   0.939   2.177  15.826  0.1492  0.6681  1.0233
  775MPD2    C311435   1.038   2.165  15.726 -0.7686 -0.1109 -1.2119
  775MPD2    C411436   1.109   2.048  15.697 -0.3982  0.0663  0.3489
  775MPD2    C511437   1.080   1.932  15.773  0.2157  0.4539 -0.1358
  775MPD2     H11438   0.896   2.272  15.856 -0.7370  0.9050 -0.9576
  775MPD2    H111439   1.172   2.042  15.609 -2.3615  0.0765 -1.0613
  775MPD2    H211440   0.958   1.844  15.923  0.4219 -0.5226 -0.6123
  775MPD2    H311441   1.135   1.839  15.763 -2.8382 -1.5452  1.3208
  775MPD2     N11442   1.071   2.270  15.630 -0.2364  0.0650  0.2159
  775MPD2    H511443   1.135   2.250  15.554 -1.7488 -4.0302  0.0254
  775MPD2    N111444   0.810   2.048  15.994  0.2284  0.1320  0.0348
  775MPD2    H711445   0.780   1.953  16.014 -1.0310  0.8548  1.5260
  776MPD2     C11446   4.691   2.015  11.703 -0.0053  0.3954 -0.2220
  776MPD2    C111447   4.638   2.071  11.582 -0.2507  1.3378  0.4002
  776MPD2    C211448   4.651   2.206  11.553 -0.5342  0.8703 -0.3064
  776MPD2    C311449   0.009   2.280  11.643  0.3866  0.9630  0.0760
  776MPD2    C411450   0.046   2.223  11.763  0.1580 -0.1726  0.3168
  776MPD2    C511451   0.025   2.094  11.792  0.5171 -0.8608  0.5928
  776MPD2     H11452   4.610   2.242  11.460 -0.9999  0.1974 -0.3644
  776MPD2    H111453   0.087   2.280  11.846  0.2978  0.8195 -0.4355
  776MPD2    H211454   4.674   1.915  11.740 -0.2973 -0.3599 -2.4482
  776MPD2    H311455   0.072   2.059  11.884 -1.3940 -1.4225  1.3453
  776MPD2     N11456   0.050   2.415  11.616  0.5000  0.2174 -1.0787
  776MPD2    H511457   0.118   2.445  11.684  0.0954  1.5529 -1.2662
  776MPD2    N111458   4.578   1.982  11.494  0.2059 -0.0869  0.1148
  776MPD2    H711459   4.573   1.885  11.522  3.8079 -0.5489 -0.9375
  777MPD2     C11460   0.208   0.234   1.363  0.2358 -0.2356 -0.7144
  777MPD2    C111461   0.077   0.213   1.403  0.1826  0.2641  0.1903
  777MPD2    C211462   4.723   0.127   1.326  0.0146  0.4498 -0.5844
  777MPD2    C311463   0.051   0.051   1.231 -0.3939 -0.2977  0.0987
  777MPD2    C411464   0.187   0.057   1.198 -0.4884 -0.2326 -0.0876
  777MPD2    C511465   0.259   0.159   1.257 -0.3184 -0.0595  0.2687
  777MPD2     H11466   4.624   0.099   1.361  0.0261  0.7022 -0.3525
  777MPD2    H111467   0.237   4.714   1.129  1.8807  1.8014 -0.4018
  777MPD2    H211468   0.269   0.300   1.423  0.9981 -0.0386 -1.7059
  777MPD2    H311469   0.362   0.179   1.232  0.1418 -3.3442 -0.4571
  777MPD2     N11470   4.683   4.686   1.175 -0.0426  0.3793  0.0862
  777MPD2    H511471   4.591   4.674   1.215  0.2266 -0.5425  0.4256
  777MPD2    N111472   0.034   0.277   1.521  0.4097 -1.5781 -0.2045
  777MPD2    H711473   0.100   0.329   1.579 -1.2637  0.3032  0.0031
  778MPD2     C11474   1.145   0.297  14.703  0.0259 -0.6735  0.1285
  778MPD2    C111475   1.226   0.177  14.709 -0.3528  0.0330 -1.1009
  778MPD2    C211476   1.353   0.181  14.648  0.2793 -0.0358 -0.6227
  778MPD2    C311477   1.402   0.287  14.580 -0.6578 -0.5234  0.0091
  778MPD2    C411478   1.324   0.406  14.576  0.1667  0.3368 -0.6435
  778MPD2    C511479   1.199   0.404  14.638  0.1648  0.9747  0.1334
  778MPD2     H11480   1.417   0.094  14.656  0.3176  0.1072  0.5966
  778MPD2    H111481   1.347   0.496  14.520 -0.7848  0.6620 -0.5196
  778MPD2    H211482   1.047   0.303  14.747 -0.2163 -0.8716 -0.3859
  778MPD2    H311483   1.148   0.499  14.644 -2.3955 -0.4097 -0.0110
  778MPD2     N11484   1.523   0.265  14.509 -0.4465  0.1498 -0.0485
  778MPD2    H511485   1.562   0.173  14.525  1.6318  0.6738 -2.0107
  778MPD2    N111486   1.188   0.062  14.777 -0.1599 -0.0997  0.3399
  778MPD2    H711487   1.227   4.700  14.739  2.1358  0.6682  0.9323
  779MPD2     C11488   0.785   4.017  13.568 -0.7107 -0.1112 -0.5232
  779MPD2    C111489   0.877   3.999  13.674 -0.1711  0.2146 -0.6059
  779MPD2    C211490   0.932   4.108  13.736 -0.6030 -0.1421 -0.0994
  779MPD2    C311491   0.899   4.243  13.699  0.2550  0.1545  0.0857
  779MPD2    C411492   0.805   4.255  13.593  0.8962  0.5649 -0.5863
  779MPD2    C511493   0.752   4.148  13.536 -0.2489 -0.5859  1.1752
  779MPD2     H11494   1.003   4.094  13.816 -0.0309 -1.0755 -0.7733
  779MPD2    H111495   0.770   4.345  13.544  1.3591  0.6281 -0.7954
  779MPD2    H211496   0.740   3.933  13.517  3.0444 -1.8796 -0.9368
  779MPD2    H311497   0.681   4.170  13.457  0.6685 -1.9386 -0.0106
  779MPD2     N11498   0.951   4.350  13.772 -0.1967  0.5500 -0.0620
  779MPD2    H511499   1.017   4.328  13.845 -0.9260 -2.7919 -0.4142
  779MPD2    N111500   0.919   3.876  13.731 -0.6480  0.1808 -0.2193
  779MPD2    H711501   0.984   3.877  13.808 -2.7611  0.2865  1.5539
  780MPD2     C11502   0.280   3.795   1.299 -0.1953 -0.1945  0.2287
  780MPD2    C111503   0.333   3.672   1.278 -0.2098 -0.6819  0.1346
  780MPD2    C211504   0.459   3.652   1.220 -0.2963  0.5645  0.2905
  780MPD2    C311505   0.532   3.760   1.179 -0.0927 -0.5150  0.0750
  780MPD2    C411506   0.481   3.888   1.200 -0.3654  0.5098 -1.6547
  780MPD2    C511507   0.353   3.900   1.248  0.3105 -0.3733  0.7826
  780MPD2     H11508   0.493   3.553   1.190  1.3944  1.2008  0.0765
  780MPD2    H111509   0.533   3.976   1.164 -0.1496  1.6282  1.3287
  780MPD2    H211510   0.186   3.808   1.351  0.4422 -1.9895  1.8374
  780MPD2    H311511   0.312   4.000   1.252  0.7676 -0.1573  0.1058
  780MPD2     N11512   0.661   3.743   1.124 -0.2996 -0.1092  0.2046
  780MPD2    H511513   0.689   3.646   1.115  0.8859  0.0998  1.5364
  780MPD2    N111514   0.255   3.552   1.306 -0.1762 -0.2172 -0.1418
  780MPD2    H711515   0.155   3.572   1.306 -0.1057  0.1375 -1.3499
  781MPD2     C11516   2.856   0.512  12.276  0.3975  0.2299 -0.7268
  781MPD2    C111517   2.737   0.568  12.237  0.1929  0.4355  0.0846
  781MPD2    C211518   2.703   0.573  12.105  0.0465 -0.2052  0.5970
  781MPD2    C311519   2.783   0.508  12.007 -0.9988  0.2922  0.5602
  781MPD2    C411520   2.898   0.451  12.049  0.1320  0.6149  0.1860
  781MPD2    C511521   2.938   0.454  12.181  0.5967  0.1793 -0.0270
  781MPD2     H11522   2.614   0.629  12.077  0.6317  0.1878 -0.4684
  781MPD2    H111523   2.947   0.402  11.965  4.5155  0.4186  2.8610
  781MPD2    H211524   2.881   0.507  12.381 -0.8385  0.2089 -0.4420
  781MPD2    H311525   3.028   0.400  12.208  1.7206  2.4461  0.7240
  781MPD2     N11526   2.760   0.502  11.869  0.2916 -0.3385 -0.3250
  781MPD2    H511527   2.836   0.474  11.808  0.6431 -2.2088  0.9825
  781MPD2    N111528   2.638   0.600  12.334  0.4701  0.4411 -0.1141
  781MPD2    H711529   2.547   0.627  12.299  1.0796 -0.8143 -2.6295
  782MPD2     C11530   0.315   1.009  10.460 -0.2263  0.3090 -0.2639
  782MPD2    C111531   0.454   0.995  10.478 -0.3144 -0.2619 -0.4970
  782MPD2    C211532   0.525   1.089  10.548 -0.4506 -0.5682 -0.2678
  782MPD2    C311533   0.453   1.183  10.622  0.5788  0.5736  0.3225
  782MPD2    C411534   0.315   1.202  10.602 -0.1218  0.6768 -0.0980
  782MPD2    C511535   0.253   1.114  10.519  0.8264 -0.3482 -0.1065
  782MPD2     H11536   0.632   1.087  10.565 -0.5280  0.9824  0.4412
  782MPD2    H111537   0.251   1.272  10.653  1.0001 -1.0856  3.7592
  782MPD2    H211538   0.248   0.938  10.413  1.5606 -1.0930 -0.7086
  782MPD2    H311539   0.146   1.125  10.503  0.9714 -1.1226 -1.6254
  782MPD2     N11540   0.526   1.262  10.715  0.1244 -0.6866 -0.1288
  782MPD2    H511541   0.620   1.229  10.737  0.4714 -1.0654 -2.2488
  782MPD2    N111542   0.518   0.881  10.422 -0.1064 -0.9160  0.1260
  782MPD2    H711543   0.459   0.808  10.382 -1.2185  0.2807 -0.4032
  783MPD2     C11544   0.087   0.356  10.742 -0.5485 -1.2745 -0.5402
  783MPD2    C111545   0.138   0.481  10.774 -0.5231  0.3795  0.4224
  783MPD2    C211546   0.261   0.521  10.727 -0.3978 -0.0537 -0.5419
  783MPD2    C311547   0.320   0.451  10.626  0.1377 -0.6305 -0.1166
  783MPD2    C411548   0.266   0.326  10.586  0.3187 -0.4369 -0.4218
  783MPD2    C511549   0.154   0.276  10.647 -0.4653  0.1973  0.1171
  783MPD2     H11550   0.312   0.608  10.768 -1.8018  1.2977 -1.6806
  783MPD2    H111551   0.319   0.274  10.506 -2.0218 -2.4014 -0.7099
  783MPD2    H211552   4.717   0.325  10.786 -1.2885  1.8899  0.0887
  783MPD2    H311553   0.106   0.187  10.608 -2.1679  0.8315  0.7552
  783MPD2     N11554   0.439   0.502  10.573  0.4685 -0.4634 -0.2513
  783MPD2    H511555   0.465   0.598  10.593 -1.4284 -0.2397  1.1162
  783MPD2    N111556   0.072   0.548  10.880  0.1180  0.5434 -0.0754
  783MPD2    H711557   4.701   0.517  10.897  0.3824  0.1870  0.7466
  784MPD2     C11558   2.095   2.344   1.824  0.1143  0.0021  0.9125
  784MPD2    C111559   2.077   2.371   1.693  0.5082  0.2416  0.1512
  784MPD2    C211560   2.070   2.498   1.647 -0.3490  0.2803  0.5266
  784MPD2    C311561   2.055   2.603   1.732 -0.0585  0.4136  0.8929
  784MPD2    C411562   2.062   2.572   1.870 -0.1568 -0.1029  0.3200
  784MPD2    C511563   2.077   2.443   1.914 -0.1527 -0.2956  0.0179
  784MPD2     H11564   2.073   2.520   1.541  2.3983  1.1657  0.7920
  784MPD2    H111565   2.066   2.645   1.950  0.6300 -1.9392  1.9434
  784MPD2    H211566   2.099   2.242   1.862 -0.1457  0.2568  1.6246
  784MPD2    H311567   2.080   2.433   2.021 -0.6644 -0.6898 -0.0017
  784MPD2     N11568   2.038   2.733   1.687  0.3764 -0.1826  0.0461
  784MPD2    H511569   2.026   2.754   1.588  0.9377  3.8301  0.8257
  784MPD2    N111570   2.122   2.275   1.594 -0.3262  0.1649 -0.3155
  784MPD2    H711571   2.127   2.317   1.502 -0.1416  0.2527 -0.2669
  785MPD2     C11572   2.562   4.709  10.995  0.4187 -0.2362 -0.6622
  785MPD2    C111573   2.514   0.037  10.877  0.2211  0.3328  0.1340
  785MPD2    C211574   2.463   4.680  10.777  0.5260  0.2688 -0.5104
  785MPD2    C311575   2.459   4.546  10.790 -0.7906 -0.1097  0.7112
  785MPD2    C411576   2.507   4.489  10.905  0.1708  0.1823 -0.3393
  785MPD2    C511577   2.561   4.568  11.002 -0.5328  0.0210 -0.1112
  785MPD2     H11578   2.411   4.721  10.691  0.9595 -0.4060 -1.0971
  785MPD2    H111579   2.511   4.382  10.921  1.9397  0.1761 -0.8478
  785MPD2    H211580   2.603   0.043  11.076 -2.4508  0.1654  0.5022
  785MPD2    H311581   2.592   4.529  11.098 -0.4829 -2.2722 -1.0399
  785MPD2     N11582   2.416   4.480  10.680 -0.2910  0.2607 -0.3020
  785MPD2    H511583   2.382   4.544  10.609  1.8173  0.1710 -1.4038
  785MPD2    N111584   2.521   0.174  10.842 -0.1214 -0.0737  0.6016
  785MPD2    H711585   2.459   0.204  10.767 -0.0527 -1.0226  0.1571
  786MPD2     C11586   1.433   3.299  15.009 -0.1244  0.2614 -0.1756
  786MPD2    C111587   1.559   3.245  15.003 -0.0518  0.2159  0.0013
  786MPD2    C211588   1.664   3.289  15.077  0.5945 -0.4835  0.2880
  786MPD2    C311589   1.647   3.390  15.167  0.1950  0.3179 -0.4034
  786MPD2    C411590   1.514   3.431  15.186 -0.6791 -0.1137 -0.7927
  786MPD2    C511591   1.409   3.394  15.101 -0.3024  0.1042  0.1677
  786MPD2     H11592   1.761   3.241  15.067  0.7991 -0.2489  1.1587
  786MPD2    H111593   1.483   3.504  15.259  0.1206  0.5495 -1.1089
  786MPD2    H211594   1.351   3.270  14.944 -0.5091  0.7969  0.0760
  786MPD2    H311595   1.313   3.441  15.119 -1.9328 -3.8037  1.6882
  786MPD2     N11596   1.748   3.433  15.255  0.5772 -0.3342  0.1613
  786MPD2    H511597   1.708   3.490  15.329 -0.3814  0.3874 -0.8984
  786MPD2    N111598   1.587   3.127  14.926  0.1338  0.4736 -0.0957
  786MPD2    H711599   1.681   3.091  14.940 -0.9356 -1.8463  1.1854
  787MPD2     C11600   1.631   2.651  15.266 -0.4908 -0.0515 -0.7510
  787MPD2    C111601   1.668   2.606  15.141  0.1077  0.3664 -0.8773
  787MPD2    C211602   1.761   2.504  15.141  0.3353 -0.3060  0.0343
  787MPD2    C311603   1.823   2.457  15.256  0.2260  0.2521 -0.7432
  787MPD2    C411604   1.794   2.524  15.378  0.1184  0.6159  0.3071
  787MPD2    C511605   1.705   2.629  15.371  0.7094 -0.0023  0.7476
  787MPD2     H11606   1.779   2.449  15.049  1.4268 -2.7761  1.7343
  787MPD2    H111607   1.855   2.504  15.466 -0.7621  2.1694  1.2736
  787MPD2    H211608   1.548   2.719  15.280 -1.2658 -0.8307 -1.6038
  787MPD2    H311609   1.679   2.681  15.463 -2.5818 -1.0494  0.4202
  787MPD2     N11610   1.916   2.349  15.241 -0.3720 -0.3123  0.0274
  787MPD2    H511611   1.935   2.314  15.148 -1.3736 -2.1448  0.5174
  787MPD2    N111612   1.604   2.648  15.031 -0.5737 -0.6891  0.0608
  787MPD2    H711613   1.543   2.724  15.061 -1.6032 -1.0218 -1.2263
  788MPD2     C11614   3.387   0.695   0.113 -0.0552  0.2243  0.6615
  788MPD2    C111615   3.450   0.578   0.152 -0.6092  0.0333  1.0665
  788MPD2    C211616   3.466   0.474   0.061  0.8692 -0.0791  0.1472
  788MPD2    C311617   3.396   0.478  17.636 -0.4507  0.1353  0.2572
  788MPD2    C411618   3.332   0.599  17.599  0.3256  1.0500 -0.0821
  788MPD2    C511619   3.331   0.702  17.684  0.0845 -1.2881 -0.1463
  788MPD2     H11620   3.512   0.380   0.089 -0.3657 -0.8833 -0.5074
  788MPD2    H111621   3.269   0.603  17.511 -1.5729 -1.1488  1.1865
  788MPD2    H211622   3.375   0.783   0.175  0.0283 -0.4375  1.6072
  788MPD2    H311623   3.278   0.793  17.658  1.8899 -0.7162 -1.8111
  788MPD2     N11624   3.396   0.375  17.547  0.0782  0.0697 -0.1855
  788MPD2    H511625   3.322   0.382  17.477 -0.7537  1.9180  0.8810
  788MPD2    N111626   3.510   0.564   0.284 -0.0805  0.0496 -0.1911
  788MPD2    H711627   3.552   0.474   0.308  1.1839  0.4640 -0.8320
  789MPD2     C11628   4.003   0.555  16.138 -0.7718  0.4243 -0.5864
  789MPD2    C111629   3.907   0.471  16.186  0.3520  0.5428  0.2335
  789MPD2    C211630   3.783   0.512  16.233 -0.2364 -0.0071  0.3707
  789MPD2    C311631   3.759   0.648  16.222  0.5853  0.3628  0.0367
  789MPD2    C411632   3.846   0.733  16.155 -0.2139 -0.0773 -0.1508
  789MPD2    C511633   3.971   0.687  16.121 -0.2013  0.6136  0.0503
  789MPD2     H11634   3.724   0.439  16.288 -0.7604  0.3046  0.2237
  789MPD2    H111635   3.821   0.838  16.151 -0.1071  0.0840  3.1811
  789MPD2    H211636   4.105   0.529  16.111 -0.2402 -0.6922  2.4569
  789MPD2    H311637   4.040   0.762  16.087 -1.8022  2.9762  1.9957
  789MPD2     N11638   3.636   0.708  16.269 -0.1987 -0.3563 -0.3332
  789MPD2    H511639   3.625   0.807  16.253  0.6562 -0.8570 -4.0372
  789MPD2    N111640   3.936   0.333  16.209  0.0570  0.9614  0.6114
  789MPD2    H711641   3.857   0.280  16.243 -0.7208  0.1112 -2.4819
  790MPD2     C11642   4.224   2.544  13.986  0.3510  0.5674 -0.0602
  790MPD2    C111643   4.307   2.445  13.948  0.5766  0.1649  0.1875
  790MPD2    C211644   4.289   2.393  13.820 -0.0681  0.2775 -0.6676
  790MPD2    C311645   4.189   2.444  13.731  0.2147  0.3449 -0.4434
  790MPD2    C411646   4.093   2.531  13.783  0.4408  0.7686  0.0182
  790MPD2    C511647   4.115   2.577  13.913 -0.0690  0.1459  0.1031
  790MPD2     H11648   4.358   2.313  13.796  1.6901  1.1883  1.4293
  790MPD2    H111649   4.004   2.558  13.728  0.5919  1.5510  0.1519
  790MPD2    H211650   4.235   2.592  14.083  0.2380 -3.0072  1.6905
  790MPD2    H311651   4.039   2.644  13.952 -0.7470 -0.2633 -0.5123
  790MPD2     N11652   4.180   2.411  13.596  0.4624  0.1958 -0.2073
  790MPD2    H511653   4.118   2.463  13.535  0.1336  0.6143  0.4824
  790MPD2    N111654   4.412   2.414  14.035  0.1585 -0.6816  0.1326
  790MPD2    H711655   4.411   2.464  14.123  2.0030 -0.8429  0.2441
  791MPD2     C11656   3.913   2.488  12.813  0.0644 -0.0674 -0.0199
  791MPD2    C111657   3.899   2.392  12.911  0.4300  0.1610  0.5186
  791MPD2    C211658   3.811   2.284  12.894 -0.4821  0.3519  0.2602
  791MPD2    C311659   3.718   2.288  12.785  0.9608 -0.0142  0.6341
  791MPD2    C411660   3.732   2.385  12.691 -0.3099 -0.4626  0.4057
  791MPD2    C511661   3.830   2.484  12.702 -1.1891  0.2420 -0.1856
  791MPD2     H11662   3.812   2.204  12.967 -0.0283 -0.3403 -0.5004
  791MPD2    H111663   3.668   2.404  12.606  0.7078  2.9240  0.3617
  791MPD2    H211664   3.995   2.560  12.812  0.9631 -1.1302 -1.5905
  791MPD2    H311665   3.829   2.554  12.619  0.2404 -1.2238 -1.4386
  791MPD2     N11666   3.623   2.188  12.773  0.2007 -0.9364 -0.1178
  791MPD2    H511667   3.617   2.111  12.839  1.1419 -1.1862 -0.3228
  791MPD2    N111668   3.975   2.415  13.026 -0.0750  0.2335  0.5245
  791MPD2    H711669   4.047   2.486  13.023  0.9421 -0.7626  1.5915
  792MPD2     C11670   0.594   1.759  11.226  0.2485  0.0829 -0.4062
  792MPD2    C111671   0.464   1.769  11.277  0.4479 -0.4999 -0.3936
  792MPD2    C211672   0.365   1.697  11.215  0.2199 -0.1341  0.6281
  792MPD2    C311673   0.382   1.630  11.095 -0.1172  0.2978  0.0084
  792MPD2    C411674   0.510   1.615  11.052 -0.8482  0.3133 -0.1894
  792MPD2    C511675   0.613   1.672  11.120 -0.3824  0.3641 -0.2839
  792MPD2     H11676   0.264   1.694  11.255  0.1537  1.2403  0.5583
  792MPD2    H111677   0.533   1.554  10.965 -3.0706 -2.3090  1.0471
  792MPD2    H211678   0.679   1.814  11.266  1.0759 -0.8153 -0.9519
  792MPD2    H311679   0.714   1.667  11.081 -1.2513  0.4367 -2.4906
  792MPD2     N11680   0.279   1.552  11.033  0.0958 -0.1919 -0.3598
  792MPD2    H511681   0.301   1.477  10.968 -1.6092  0.9574 -2.2820
  792MPD2    N111682   0.442   1.851  11.388  0.0153  0.4837  0.2990
  792MPD2    H711683   0.515   1.915  11.418  0.0785  1.6567 -2.3517
  793MPD2     C11684   4.280   1.749  10.425  0.1424 -0.1984  0.0795
  793MPD2    C111685   4.408   1.793  10.451 -0.0464 -1.2936  0.5001
  793MPD2    C211686   4.473   1.729  10.556 -0.5203 -0.5850 -0.2606
  793MPD2    C311687   4.413   1.641  10.633  0.5097 -0.0667 -0.2205
  793MPD2    C411688   4.287   1.593  10.600  0.1245  0.1388 -0.0419
  793MPD2    C511689   4.228   1.642  10.487  0.4493  0.0810 -0.0382
  793MPD2     H11690   4.578   1.754  10.571 -1.0178 -0.6888  3.3137
  793MPD2    H111691   4.244   1.513  10.660  0.5987 -1.4771 -1.8568
  793MPD2    H211692   4.230   1.787  10.336 -1.0317  0.0433  0.8439
  793MPD2    H311693   4.129   1.604  10.465  0.6464  0.4953 -1.6324
  793MPD2     N11694   4.496   1.579  10.729 -0.5931  0.7748 -0.7871
  793MPD2    H511695   4.591   1.614  10.738 -0.7107  1.7200 -3.1431
  793MPD2    N111696   4.486   1.877  10.375 -0.6643  0.2714 -0.4144
  793MPD2    H711697   4.579   1.893  10.410 -1.4790 -0.3037  2.0194
  794MPD2     C11698   4.682   1.689  17.101  0.2674  0.5892  0.5167
  794MPD2    C111699   4.602   1.578  17.102 -0.5467 -0.0947  0.4711
  794MPD2    C211700   4.593   1.499  16.989 -0.3452  0.1550 -0.4850
  794MPD2    C311701   4.660   1.538  16.873  0.1353  0.6814 -0.0789
  794MPD2    C411702   0.016   1.651  16.871 -0.3811 -0.1149 -0.0501
  794MPD2    C511703   0.031   1.721  16.992  0.1419 -0.3153  0.6734
  794MPD2     H11704   4.505   1.437  16.982 -0.9813  0.7918  1.9623
  794MPD2    H111705   0.078   1.681  16.787  0.8112 -1.7062  0.2673
  794MPD2    H211706   4.680   1.756  17.186 -0.6716  1.0183  0.1518
  794MPD2    H311707   0.088   1.813  16.987  1.0529 -1.0318 -2.1623
  794MPD2     N11708   4.641   1.483  16.742 -0.3034 -0.3117 -0.6275
  794MPD2    H511709   4.671   1.538  16.662  0.5275 -0.7704 -0.6358
  794MPD2    N111710   4.517   1.546  17.212 -0.1512 -0.1243  0.0040
  794MPD2    H711711   4.441   1.482  17.192 -0.3470 -0.2805  1.2762
  795MPD2     C11712   2.266   3.994  12.957  0.1361 -0.3902 -0.6885
  795MPD2    C111713   2.195   3.933  13.062  0.0820  0.2305  0.2586
  795MPD2    C211714   2.256   3.830  13.133 -0.0104  0.5616  0.1455
  795MPD2    C311715   2.394   3.795  13.115  0.3539  0.0830  0.1433
  795MPD2    C411716   2.459   3.868  13.020 -0.3715  0.2237  0.0412
  795MPD2    C511717   2.396   3.966  12.944  0.1767  0.3492 -0.1700
  795MPD2     H11718   2.200   3.767  13.200 -1.0907  1.8394  0.4316
  795MPD2    H111719   2.567   3.856  13.015 -0.5950 -2.3518  1.5992
  795MPD2    H211720   2.221   4.076  12.903  1.6316  1.2416  0.5203
  795MPD2    H311721   2.455   4.032  12.881 -0.2446  2.0551  1.2104
  795MPD2     N11722   2.474   3.705  13.187 -0.6916  0.0377 -0.0932
  795MPD2    H511723   2.566   3.690  13.146 -1.2480 -0.4998 -1.1577
  795MPD2    N111724   2.056   3.959  13.088 -0.6202  1.1759 -0.3178
  795MPD2    H711725   2.015   3.896  13.156 -0.8807  1.2100 -0.4421
  796MPD2     C11726   1.821   0.712  16.030  0.0510 -0.1799 -0.2749
  796MPD2    C111727   1.822   0.786  16.150 -0.4022  0.9999  0.3659
  796MPD2    C211728   1.829   0.923  16.148  0.0373 -0.3166 -0.8004
  796MPD2    C311729   1.835   0.984  16.018 -0.7594  0.3826  0.4260
  796MPD2    C411730   1.836   0.909  15.902  1.0448  0.0084 -0.3453
  796MPD2    C511731   1.833   0.771  15.911  0.5420 -0.1418 -0.1114
  796MPD2     H11732   1.827   0.981  16.240 -0.8504 -1.4438 -0.1070
  796MPD2    H111733   1.837   0.966  15.809  1.1537  1.3696  0.4879
  796MPD2    H211734   1.802   0.605  16.032  1.2299 -0.4334 -2.7480
  796MPD2    H311735   1.842   0.718  15.817 -1.1882  0.8106 -0.8238
  796MPD2     N11736   1.837   1.121  16.021 -0.1987  0.0473  0.5197
  796MPD2    H511737   1.869   1.152  16.112  0.8867  1.8602 -0.4846
  796MPD2    N111738   1.814   0.709  16.267  0.9783  0.2751 -0.4568
  796MPD2    H711739   1.830   0.609  16.258 -0.5803  0.0859 -1.2113
  797MPD2     C11740   2.162   0.299   0.097  0.9215  0.1066 -0.5304
  797MPD2    C111741   2.296   0.259   0.095  0.2235 -0.0715  1.1980
  797MPD2    C211742   2.386   0.331   0.018 -0.2065  0.2364  0.2705
  797MPD2    C311743   2.347   0.446  17.645 -0.9355  0.5428 -0.4580
  797MPD2    C411744   2.211   0.487  17.659 -0.4920 -0.1890 -0.3135
  797MPD2    C511745   2.124   0.416   0.035 -0.4132 -0.3626  0.5349
  797MPD2     H11746   2.484   0.285   0.005 -0.8850 -1.4206  1.0714
  797MPD2    H111747   2.177   0.580  17.616  1.3798  1.2459  1.3430
  797MPD2    H211748   2.083   0.250   0.153  1.3794  1.8426  1.6505
  797MPD2    H311749   2.026   0.458   0.056  0.7288  3.2661 -1.3247
  797MPD2     N11750   2.436   0.531  17.576 -0.1777  0.0841  0.0868
  797MPD2    H511751   2.413   0.626  17.547  0.2897  0.4257  0.8492
  797MPD2    N111752   2.339   0.135   0.135 -0.6489 -0.3789  0.1123
  797MPD2    H711753   2.432   0.108   0.107 -0.8893 -1.4279  0.3129
  798MPD2     C11754   2.856   0.033  17.303 -0.4200  0.2011 -0.3368
  798MPD2    C111755   2.796   0.116  17.400 -0.1513  0.6699 -0.4118
  798MPD2    C211756   2.714   0.066  17.498  0.4504  0.0943 -0.1149
  798MPD2    C311757   2.678   4.660  17.487  1.0781  0.3015 -0.3222
  798MPD2    C411758   2.724   4.576  17.385  0.5976 -0.7281 -0.4295
  798MPD2    C511759   2.813   4.628  17.293 -0.7716  0.2657  0.0504
  798MPD2     H11760   2.674   0.132  17.574  0.2458 -1.2019  0.9075
  798MPD2    H111761   2.691   4.473  17.375 -0.5393 -0.1183 -2.9828
  798MPD2    H211762   2.910   0.067  17.216 -2.0366 -0.1270 -1.4690
  798MPD2    H311763   2.867   4.569  17.220 -1.8667  1.9221 -2.1034
  798MPD2     N11764   2.588   4.621  17.592 -1.4279 -0.2626 -0.0786
  798MPD2    H511765   2.561   4.693  17.657  0.8819  0.8916 -0.3882
  798MPD2    N111766   2.795   0.259  17.398  0.0757  0.2832 -0.2819
  798MPD2    H711767   2.751   0.305  17.477  2.9748  0.0161  1.4975
  799MPD2     C11768   1.501   1.854  14.707  0.1671  0.1700  0.0415
  799MPD2    C111769   1.384   1.787  14.673 -0.3908  1.0924  0.3120
  799MPD2    C211770   1.312   1.835  14.570 -0.4692 -0.5387 -0.2102
  799MPD2    C311771   1.350   1.955  14.503 -0.0860  0.1776  0.1066
  799MPD2    C411772   1.459   2.023  14.543  0.6230  0.0257 -0.4278
  799MPD2    C511773   1.535   1.966  14.640  0.1374 -0.0430 -0.1830
  799MPD2     H11774   1.223   1.785  14.534 -1.6080  0.6684  0.9095
  799MPD2    H111775   1.501   2.108  14.491  0.3241  0.1559 -0.4604
  799MPD2    H211776   1.570   1.813  14.780 -0.4638  1.1450  1.1664
  799MPD2    H311777   1.626   2.019  14.666 -0.6525  0.5396  1.4540
  799MPD2     N11778   1.278   2.010  14.390 -0.7052  0.1716  0.3134
  799MPD2    H511779   1.319   2.085  14.336 -0.5024  0.4175  0.8102
  799MPD2    N111780   1.347   1.666  14.734  0.0077 -0.1610  0.1572
  799MPD2    H711781   1.259   1.626  14.702 -0.7716  0.9990  0.8779
  800MPD2     C11782   2.266   3.231  14.463 -0.3944 -0.6820 -0.0167
  800MPD2    C111783   2.381   3.197  14.395  0.2838 -0.4281  0.5153
  800MPD2    C211784   2.381   3.092  14.312  0.0375 -0.2456  0.2132
  800MPD2    C311785   2.271   3.013  14.301 -0.0676  0.0739  0.4952
  800MPD2    C411786   2.155   3.047  14.370  0.2487  0.7097 -0.4024
  800MPD2    C511787   2.151   3.160  14.446 -0.1973  0.2007  0.1892
  800MPD2     H11788   2.471   3.049  14.269  0.0496  0.5365 -0.5337
  800MPD2    H111789   2.071   2.978  14.379  0.7368  0.3939  1.8960
  800MPD2    H211790   2.273   3.316  14.530 -1.5555  0.3585 -1.1985
  800MPD2    H311791   2.067   3.178  14.512  1.4494  0.1928  2.3087
  800MPD2     N11792   2.285   2.889  14.231 -1.1338 -0.0441  0.5867
  800MPD2    H511793   2.375   2.870  14.188 -1.6571  0.4947 -0.7446
  800MPD2    N111794   2.486   3.294  14.385  0.1355 -0.6293  0.3913
  800MPD2    H711795   2.489   3.376  14.446  0.5709 -0.1338 -0.2944
  801MPD2     C11796   2.274   3.828  14.309 -0.6060 -0.8376  0.2273
  801MPD2    C111797   2.301   3.694  14.315 -0.2260  0.0587  0.4535
  801MPD2    C211798   2.192   3.609  14.341  0.6239  0.0544  0.2532
  801MPD2    C311799   2.068   3.660  14.372 -0.0538 -0.4820 -0.1897
  801MPD2    C411800   2.043   3.793  14.365 -0.5997  0.1823  0.8751
  801MPD2    C511801   2.140   3.875  14.327  0.5573  0.5986 -0.2826
  801MPD2     H11802   2.212   3.502  14.338  0.7267  0.1195 -1.4063
  801MPD2    H111803   1.942   3.831  14.375 -0.8250 -0.0560 -0.5565
  801MPD2    H211804   2.351   3.903  14.297  0.7544 -1.8524  2.6481
  801MPD2    H311805   2.112   3.980  14.331 -0.7436  0.3355 -2.5137
  801MPD2     N11806   1.958   3.581  14.410 -0.2198  0.8390 -0.0642
  801MPD2    H511807   1.884   3.641  14.444 -1.4140 -0.1583 -0.8913
  801MPD2    N111808   2.429   3.633  14.283  0.5239  0.3966  0.2393
  801MPD2    H711809   2.438   3.532  14.288  0.0836  0.2593 -1.9592
  802MPD2     C11810   1.139   3.875  17.488  0.7373 -0.4222 -0.1595
  802MPD2    C111811   1.248   3.890  17.571 -0.2034  0.1346 -0.4087
  802MPD2    C211812   1.322   3.783  17.608  0.5058  0.8913 -0.6260
  802MPD2    C311813   1.294   3.655  17.559 -0.0063 -0.4434  0.0722
  802MPD2    C411814   1.204   3.647  17.458 -0.0739 -0.1122  0.3594
  802MPD2    C511815   1.124   3.753  17.426  1.0386 -0.2552 -0.9287
  802MPD2     H11816   1.394   3.795  17.689 -2.8211  0.2019  2.4276
  802MPD2    H111817   1.184   3.548  17.417 -1.0997 -0.2931  1.2823
  802MPD2    H211818   1.079   3.957  17.451  0.9135 -1.1006 -1.9371
  802MPD2    H311819   1.042   3.739  17.357 -0.5506 -1.2686  1.1807
  802MPD2     N11820   1.375   3.548  17.608  0.6402  0.7555 -0.1703
  802MPD2    H511821   1.442   3.567  17.682 -0.5314 -1.2909  1.4115
  802MPD2    N111822   1.287   4.014  17.632 -0.3029 -0.2746  0.4717
  802MPD2    H711823   1.358   3.998   0.005 -0.2641  0.0277  0.5012
  803MPD2     C11824   2.458   1.912  11.909  0.1887 -0.2749 -0.2643
  803MPD2    C111825   2.545   1.969  12.000 -0.9360 -0.2447 -0.8486
  803MPD2    C211826   2.516   1.965  12.133 -0.4772  0.0735  0.0195
  803MPD2    C311827   2.394   1.905  12.173  0.4738  0.3904 -0.5882
  803MPD2    C411828   2.308   1.848  12.083 -0.0027 -0.0963 -0.6226
  803MPD2    C511829   2.343   1.860  11.947  0.4431 -0.7130  0.5139
  803MPD2     H11830   2.583   2.013  12.203 -1.3067 -1.2113  1.6965
  803MPD2    H111831   2.218   1.796  12.114  0.4924  0.2894  1.4326
  803MPD2    H211832   2.486   1.911  11.804  0.0345 -2.2265 -0.2779
  803MPD2    H311833   2.275   1.828  11.869  1.5223  0.9159 -1.0904
  803MPD2     N11834   2.358   1.892  12.309 -0.4953  0.3871  0.3574
  803MPD2    H511835   2.267   1.851  12.325 -2.1940  2.8540 -3.0011
  803MPD2    N111836   2.653   2.046  11.959  0.2032 -0.1651 -0.4993
  803MPD2    H711837   2.704   2.096  12.031 -1.0452  2.0060 -1.1406
  804MPD2     C11838   2.080   3.489  16.934  0.0627  0.3478  0.0953
  804MPD2    C111839   2.141   3.467  17.051 -0.3734 -0.3312 -0.2715
  804MPD2    C211840   2.199   3.580  17.105 -0.0577 -0.6918 -0.0233
  804MPD2    C311841   2.179   3.708  17.061 -0.8674  0.3086 -0.1856
  804MPD2    C411842   2.111   3.727  16.938  0.0053 -0.0148  0.1089
  804MPD2    C511843   2.075   3.609  16.874 -0.1034  0.1590  0.2141
  804MPD2     H11844   2.250   3.568  17.200  0.4398  1.0266 -0.0747
  804MPD2    H111845   2.098   3.824  16.892 -0.5751 -0.9457 -1.6700
  804MPD2    H211846   2.030   3.408  16.883  1.4995 -0.5586  0.1112
  804MPD2    H311847   2.019   3.606  16.781 -0.6444 -1.5106  0.6030
  804MPD2     N11848   2.248   3.810  17.127 -0.5644 -0.2485 -0.3770
  804MPD2    H511849   2.314   3.772  17.194 -0.8784  0.9189  0.5975
  804MPD2    N111850   2.137   3.340  17.111  0.6818  0.7759  0.0679
  804MPD2    H711851   2.155   3.338  17.211 -0.0884  1.1056  0.2062
  805MPD2     C11852   1.434   1.976  15.569 -0.2182  0.6991 -0.4169
  805MPD2    C111853   1.511   2.034  15.475  0.2084 -0.4326  0.2491
  805MPD2    C211854   1.642   2.063  15.506 -1.1925 -0.1603  0.2201
  805MPD2    C311855   1.690   2.039  15.637  0.2942  0.5193  0.2435
  805MPD2    C411856   1.603   1.986  15.733  0.1548 -0.1148  0.6526
  805MPD2    C511857   1.479   1.949  15.696  0.1319 -0.3376 -0.8729
  805MPD2     H11858   1.708   2.103  15.430 -1.6890 -1.3447 -0.8430
  805MPD2    H111859   1.631   1.962  15.835 -1.0697 -0.5124  0.8867
  805MPD2    H211860   1.329   1.960  15.549 -0.1208 -0.4492  0.0521
  805MPD2    H311861   1.410   1.911  15.771 -1.5716  3.2709 -0.5818
  805MPD2     N11862   1.829   2.067  15.662  0.0752 -0.4029 -0.6579
  805MPD2    H511863   1.880   2.137  15.609  0.1913  0.3675  0.4590
  805MPD2    N111864   1.462   2.068  15.346  0.8360 -0.3820 -1.0266
  805MPD2    H711865   1.534   2.106  15.285  0.6692  2.0480  0.3006
  806MPD2     C11866   1.640   1.365   0.045 -0.4076  1.4397 -0.3796
  806MPD2    C111867   1.715   1.400   0.158 -0.0712  0.7494 -0.0861
  806MPD2    C211868   1.845   1.379   0.151  0.4201  0.0300  0.4334
  806MPD2    C311869   1.899   1.302   0.053  0.1176  0.8696  1.1190
  806MPD2    C411870   1.826   1.255  17.636  0.2802  0.5542 -0.2450
  806MPD2    C511871   1.694   1.303  17.631 -0.4606 -0.5260 -0.2867
  806MPD2     H11872   1.913   1.420   0.225  0.9294  0.8090 -0.4623
  806MPD2    H111873   1.858   1.190  17.555 -0.1567  0.1256 -0.0740
  806MPD2    H211874   1.532   1.368   0.053 -0.5252 -1.5254 -0.8447
  806MPD2    H311875   1.628   1.272  17.551 -2.1594 -1.2472  1.4214
  806MPD2     N11876   2.041   1.282   0.067  0.0718 -0.0210 -0.0442
  806MPD2    H511877   2.084   1.345   0.135 -0.3140  0.4933 -0.2712
  806MPD2    N111878   1.650   1.458   0.272  0.1688  0.4554 -0.3135
  806MPD2    H711879   1.555   1.494   0.262 -1.0121 -1.0935  5.2314
  807MPD2     C11880   1.187   1.437   0.925  0.0423 -0.4478 -0.0569
  807MPD2    C111881   1.291   1.518   0.950  0.1242  0.1739 -0.1939
  807MPD2    C211882   1.324   1.540   1.080 -0.2634  0.4097  0.1021
  807MPD2    C311883   1.266   1.476   1.186 -0.8659  0.7301 -0.3281
  807MPD2    C411884   1.176   1.377   1.161  1.2544  0.0239 -0.1206
  807MPD2    C511885   1.137   1.366   1.030  0.2063 -0.3560 -0.3437
  807MPD2     H11886   1.399   1.616   1.100 -0.3971  0.3992  0.6448
  807MPD2    H111887   1.128   1.317   1.237 -0.5665  0.0380 -1.2455
  807MPD2    H211888   1.151   1.408   0.827  0.4684 -1.3727  0.0620
  807MPD2    H311889   1.065   1.289   1.007  1.1013 -0.6622 -2.1390
  807MPD2     N11890   1.316   1.503   1.312  0.4391  0.5787  1.0002
  807MPD2    H511891   1.397   1.562   1.329 -2.5333  5.2373 -1.0105
  807MPD2    N111892   1.381   1.584   0.850  0.4800 -0.0470  0.0144
  807MPD2    H711893   1.465   1.627   0.887  0.8133 -0.6335 -0.0637
  808MPD2     C11894   2.898   2.297  10.395  0.6926  0.9905  0.2663
  808MPD2    C111895   2.779   2.355  10.355 -0.2820  0.7724 -0.4490
  808MPD2    C211896   2.765   2.494  10.352  0.2254  0.1339 -0.1104
  808MPD2    C311897   2.876   2.577  10.354  0.4103 -0.1892  0.0639
  808MPD2    C411898   2.993   2.519  10.392  0.1823 -0.4133 -0.0408
  808MPD2    C511899   3.004   2.381  10.409  0.2401  0.0812 -0.3691
  808MPD2     H11900   2.662   2.528  10.344  0.6151  1.1273 -0.9321
  808MPD2    H111901   3.077   2.581  10.420 -1.6154  2.4316 -0.8966
  808MPD2    H211902   2.915   2.190  10.399 -2.8407  0.3475 -1.8887
  808MPD2    H311903   3.099   2.336  10.438 -0.3781 -0.6046  0.5668
  808MPD2     N11904   2.879   2.719  10.345  0.2120 -0.9270  0.1496
  808MPD2    H511905   2.964   2.767  10.375 -0.0045  0.7705 -1.9778
  808MPD2    N111906   2.672   2.268  10.316  0.4709 -0.5924  1.1465
  808MPD2    H711907   2.585   2.320  10.301  1.3151  1.5557  3.7602
  809MPD2     C11908   3.339   3.424   9.915  0.3694  0.7248 -0.1896
  809MPD2    C111909   3.373   3.318   9.993  0.1115  0.1902  0.0753
  809MPD2    C211910   3.273   3.260  10.076  0.4184 -0.3057 -0.7451
  809MPD2    C311911   3.147   3.316  10.081 -0.4541 -0.8385  0.3610
  809MPD2    C411912   3.113   3.409   9.984 -0.1642  0.0494 -0.1281
  809MPD2    C511913   3.204   3.466   9.900 -0.3796 -0.1105 -0.2106
  809MPD2     H11914   3.305   3.171  10.129 -0.8777  0.9492  2.1402
  809MPD2    H111915   3.012   3.448   9.988 -0.5226 -0.9013  0.1891
  809MPD2    H211916   3.405   3.478   9.849  2.3451 -1.3659  0.0755
  809MPD2    H311917   3.181   3.545   9.830  0.2679 -1.1224 -1.5587
  809MPD2     N11918   3.039   3.275  10.175  0.4977  0.5049  0.1620
  809MPD2    H511919   2.942   3.298  10.154  0.8627  0.9612 -1.0442
  809MPD2    N111920   3.503   3.264   9.990  0.3251  0.2828 -0.2120
  809MPD2    H711921   3.523   3.185  10.050  0.5788  1.3249  1.0714
  810MPD2     C11922   2.347   1.517  10.924 -0.4131 -0.0680 -0.0485
  810MPD2    C111923   2.284   1.564  10.812 -0.3694  0.6359 -0.7980
  810MPD2    C211924   2.332   1.676  10.745  0.3029 -0.4734 -0.0343
  810MPD2    C311925   2.446   1.742  10.798  0.5628 -0.0070  0.3680
  810MPD2    C411926   2.507   1.696  10.911  0.0875 -0.6820  0.8428
  810MPD2    C511927   2.456   1.588  10.970 -0.1436 -0.6040  0.1352
  810MPD2     H11928   2.286   1.720  10.658 -0.3932 -0.0922  0.5274
  810MPD2    H111929   2.599   1.738  10.948 -2.2487  2.6712  2.8549
  810MPD2    H211930   2.308   1.442  10.993 -3.7870  0.0816 -1.8066
  810MPD2    H311931   2.510   1.546  11.054 -0.1104  1.7175  1.2707
  810MPD2     N11932   2.503   1.861  10.745  0.0293  0.0621  0.1039
  810MPD2    H511933   2.576   1.904  10.801  0.4121  1.5637 -1.5282
  810MPD2    N111934   2.163   1.506  10.774  0.2778  0.6196  0.3722
  810MPD2    H711935   2.117   1.450  10.845 -0.5820  0.7462 -0.0873
  811MPD2     C11936   1.511   1.481  10.193 -0.7929  0.3896 -0.4582
  811MPD2    C111937   1.611   1.557  10.252 -0.4218  0.2307 -0.5353
  811MPD2    C211938   1.615   1.695  10.232 -0.1193 -0.0131  0.5723
  811MPD2    C311939   1.519   1.757  10.154 -0.4335 -0.1659 -0.5388
  811MPD2    C411940   1.425   1.682  10.085 -0.2236 -0.0460  0.4876
  811MPD2    C511941   1.427   1.549  10.106 -0.2162  0.0338  0.4229
  811MPD2     H11942   1.681   1.759  10.289 -0.3598 -0.1700  1.0294
  811MPD2    H111943   1.359   1.730  10.013  0.5639  1.7379  0.9462
  811MPD2    H211944   1.487   1.377  10.208  0.0692  0.3125  0.3583
  811MPD2    H311945   1.351   1.495  10.051  0.3054 -0.6792  0.3950
  811MPD2     N11946   1.521   1.899  10.142 -0.7155  0.6940  0.7052
  811MPD2    H511947   1.595   1.952  10.187  0.2423 -1.3202  1.4864
  811MPD2    N111948   1.696   1.513  10.351 -0.2099 -0.1068 -0.5406
  811MPD2    H711949   1.762   1.583  10.385  0.2579 -1.1615  0.7371
  812MPD2     C11950   0.940   2.199  12.506  0.1915 -0.7885  0.4482
  812MPD2    C111951   0.813   2.166  12.541 -0.1197  0.2839 -1.3777
  812MPD2    C211952   0.794   2.069  12.644 -0.6328 -0.4302  0.0127
  812MPD2    C311953   0.898   2.026  12.720 -0.2163  0.3185  0.2189
  812MPD2    C411954   1.028   2.065  12.686  0.1132 -0.4818 -0.0341
  812MPD2    C511955   1.050   2.142  12.572 -0.3568 -0.6269 -0.3774
  812MPD2     H11956   0.694   2.039  12.672 -0.2369 -0.9116  0.9244
  812MPD2    H111957   1.116   2.024  12.733 -0.5441 -0.3981  1.2631
  812MPD2    H211958   0.956   2.265  12.421  0.7857  1.3950  2.2554
  812MPD2    H311959   1.153   2.169  12.548  0.0390 -0.9419  0.9988
  812MPD2     N11960   0.870   1.945  12.828  0.1093 -1.0253  0.0676
  812MPD2    H511961   0.775   1.914  12.844 -0.4022  0.7172  0.4502
  812MPD2    N111962   0.709   2.241  12.473  0.4862 -0.1813 -0.0797
  812MPD2    H711963   0.746   2.303  12.403  2.9533 -1.7059 -0.1058
  813MPD2     C11964   0.116   4.147  12.882 -0.0420 -0.5146 -0.0577
  813MPD2    C111965   0.031   4.253  12.866  0.6063  0.6419  0.3407
  813MPD2    C211966   4.646   4.266  12.945  0.0829 -0.5685  0.6370
  813MPD2    C311967   4.614   4.170  13.039 -0.1364  0.3979  0.7576
  813MPD2    C411968   4.691   4.060  13.057  1.2898 -0.3444 -0.0551
  813MPD2    C511969   0.077   4.046  12.974 -0.2558  0.4750 -0.0994
  813MPD2     H11970   4.585   4.355  12.938  1.7396  0.3790 -1.8758
  813MPD2    H111971   4.665   3.981  13.127 -1.5081  0.5276 -0.1241
  813MPD2    H211972   0.210   4.128  12.831 -0.4929 -1.4632 -0.5354
  813MPD2    H311973   0.129   3.952  12.985 -2.0480 -0.6478 -1.0624
  813MPD2     N11974   4.500   4.192  13.110 -0.0247  0.7441  0.4921
  813MPD2    H511975   4.454   4.281  13.093  0.5267  1.1118  0.9287
  813MPD2    N111976   0.063   4.365  12.781  0.1336  0.4930 -0.3836
  813MPD2    H711977   0.001   4.445  12.789  0.8788  1.2121 -1.7771
  814MPD2     C11978   4.525   0.518  12.310 -0.1332 -0.0769 -0.0444
  814MPD2    C111979   4.628   0.538  12.219 -0.6565 -0.3345 -0.5646
  814MPD2    C211980   4.706   0.647  12.224 -0.2606  0.0399 -0.0153
  814MPD2    C311981   4.691   0.744  12.323 -0.3641 -0.2916 -0.4603
  814MPD2    C411982   4.582   0.736  12.406 -0.1723  0.1663 -0.1599
  814MPD2    C511983   4.506   0.621  12.403  0.4804 -0.6146 -0.1671
  814MPD2     H11984   0.060   0.655  12.150 -1.4058  0.7146 -1.1476
  814MPD2    H111985   4.550   0.814  12.474 -0.9164  0.0886 -0.4155
  814MPD2    H211986   4.452   0.438  12.322 -0.4901 -0.0572 -2.1243
  814MPD2    H311987   4.415   0.621  12.463  0.5552 -2.1772 -0.0565
  814MPD2     N11988   0.044   0.857  12.348 -0.4782 -0.8479 -0.3001
  814MPD2    H511989   0.020   0.921  12.424 -0.7474  1.1487 -2.0486
  814MPD2    N111990   4.667   0.443  12.122  0.2525  0.2328  0.5061
  814MPD2    H711991   0.014   0.470  12.054 -0.1278 -2.5825 -0.9979
  815MPD2     C11992   0.165   3.380  12.333 -0.5603  0.2772 -0.3945
  815MPD2    C111993   0.186   3.407  12.201 -0.2525  0.3169  0.0550
  815MPD2    C211994   0.080   3.406  12.114  0.3788  0.3129  0.1216
  815MPD2    C311995   4.675   3.399  12.170  0.3254  0.4531 -0.5429
  815MPD2    C411996   4.655   3.382  12.307 -0.5033  0.4398 -0.6989
  815MPD2    C511997   0.040   3.364  12.384  0.1403 -0.6394  0.5315
  815MPD2     H11998   0.081   3.425  12.007 -3.0166  1.4468  0.3121
  815MPD2    H111999   4.558   3.370  12.354 -0.0916 -2.7348 -0.6754
  815MPD2    H212000   0.249   3.374  12.401  1.2271  0.6615 -2.5688
  815MPD2    H312001   0.027   3.354  12.491 -1.3305 -1.7511  0.2305
  815MPD2     N12002   4.563   3.393  12.082  0.5850 -0.3614  0.2555
  815MPD2    H512003   4.588   3.393  11.984  1.8710  1.9105  0.5670
  815MPD2    N112004   0.317   3.410  12.158  0.7269  0.0489  0.3171
  815MPD2    H712005   0.386   3.393  12.231 -0.6656  0.1135  1.6454
  816MPD2     C12006   0.620   2.601  17.362 -0.0565 -0.4394  0.1322
  816MPD2    C112007   0.683   2.719  17.326 -0.9904 -0.2230 -0.9888
  816MPD2    C212008   0.814   2.703  17.281  0.2516  0.0793 -0.0618
  816MPD2    C312009   0.872   2.574  17.278  0.9078  0.5206  0.1669
  816MPD2    C412010   0.807   2.457  17.312 -0.5965  0.3576 -0.4881
  816MPD2    C512011   0.675   2.476  17.334  0.0884  0.0809 -0.0736
  816MPD2     H12012   0.875   2.791  17.263 -0.3447  0.2339 -1.4004
  816MPD2    H112013   0.859   2.364  17.328 -0.4511  0.5294  0.0392
  816MPD2    H212014   0.520   2.599  17.403 -0.4417  3.2318 -0.6204
  816MPD2    H312015   0.607   2.394  17.354  1.0089 -1.2516 -2.3685
  816MPD2     N12016   1.008   2.578  17.239 -0.1399  0.2042 -0.1937
  816MPD2    H512017   1.051   2.659  17.196 -1.6360  0.5838 -0.9767
  816MPD2    N112018   0.627   2.845  17.333  0.3722 -0.6377 -0.3274
  816MPD2    H712019   0.695   2.917  17.309  0.6551 -0.1954  1.8106
  817MPD2     C12020   0.069   4.083   9.950  0.1765 -0.1698  0.1470
  817MPD2    C112021   0.205   4.055   9.942 -0.7052 -0.2264 -0.3507
  817MPD2    C212022   0.299   4.157   9.950 -0.0917 -0.3771 -0.2678
  817MPD2    C312023   0.262   4.289   9.968 -0.2712 -0.0135  0.2326
  817MPD2    C412024   0.132   4.314   9.995 -0.0858 -0.5578 -0.1039
  817MPD2    C512025   0.043   4.218   9.973  0.7447  0.2093  0.4301
  817MPD2     H12026   0.405   4.143   9.933 -0.1463 -2.3067  1.0227
  817MPD2    H112027   0.095   4.409  10.030  1.5255  0.3320 -0.7885
  817MPD2    H212028   4.712   4.013   9.944 -0.4769  0.4877  1.2260
  817MPD2    H312029   4.665   4.243  10.001  0.9696  1.3091  0.2277
  817MPD2     N12030   0.367   4.386   9.975  0.0357  0.6997 -0.2510
  817MPD2    H512031   0.458   4.351   9.950  1.0371  1.6291  2.1302
  817MPD2    N112032   0.239   3.929   9.904 -0.5382  0.1110 -0.4064
  817MPD2    H712033   0.166   3.876   9.858  0.0132  0.4408 -1.6740
  818MPD2     C12034   3.453   4.466   9.818 -0.4794 -0.2722  0.7294
  818MPD2    C112035   3.457   4.422   9.943 -0.1630 -0.5705 -0.1205
  818MPD2    C212036   3.468   4.289   9.962 -0.4325 -0.0586 -0.2446
  818MPD2    C312037   3.482   4.199   9.860 -0.1192 -0.4526  0.0363
  818MPD2    C412038   3.477   4.251   9.730 -0.0569  0.6313 -0.4621
  818MPD2    C512039   3.453   4.382   9.713 -0.7831  0.4196  0.3560
  818MPD2     H12040   3.483   4.253  10.063  1.2459 -0.5756 -0.6757
  818MPD2    H112041   3.498   4.184   9.647 -1.8592  0.4006 -0.7324
  818MPD2    H212042   3.442   4.569   9.788 -0.2782 -0.1621  1.0343
  818MPD2    H312043   3.442   4.430   9.617  2.5684 -1.0937 -0.8011
  818MPD2     N12044   3.499   4.059   9.874  0.1474 -0.4500 -0.1548
  818MPD2    H512045   3.457   3.996   9.807  0.8478 -0.0587 -0.9703
  818MPD2    N112046   3.422   4.506  10.050  0.1411 -0.2821 -0.1191
  818MPD2    H712047   3.416   4.463  10.142  1.3249 -0.6143 -0.1883
  819MPD2     C12048   2.058   1.635  15.476  0.5867 -0.0140 -0.9242
  819MPD2    C112049   2.042   1.514  15.542  0.0055 -0.2737 -0.1263
  819MPD2    C212050   2.153   1.452  15.593 -0.3492 -0.2747  0.8623
  819MPD2    C312051   2.276   1.501  15.565 -0.0081  0.0470 -0.0976
  819MPD2    C412052   2.291   1.606  15.477  0.2727  0.0212  0.1045
  819MPD2    C512053   2.182   1.673  15.429 -0.0349  0.3047  0.3671
  819MPD2     H12054   2.136   1.362  15.650 -1.9768 -0.2901  0.3728
  819MPD2    H112055   2.391   1.643  15.453 -0.1878  0.4613 -1.1152
  819MPD2    H212056   1.978   1.695  15.433  0.1583 -1.0233 -1.5303
  819MPD2    H312057   2.195   1.743  15.348  0.1824 -3.8770 -3.1828
  819MPD2     N12058   2.394   1.440  15.618 -0.1121 -0.2158 -0.1979
  819MPD2    H512059   2.483   1.474  15.583 -0.5212  1.6166  0.5659
  819MPD2    N112060   1.908   1.466  15.551 -0.7778 -0.1219  0.3453
  819MPD2    H712061   1.833   1.528  15.523 -0.8873 -0.2478  0.3608
  820MPD2     C12062   1.066   1.584  15.106 -0.4671  0.2139 -0.2315
  820MPD2    C112063   1.190   1.638  15.110  0.3442 -0.3979  0.2118
  820MPD2    C212064   1.288   1.571  15.183 -0.3391  0.5767  0.1425
  820MPD2    C312065   1.259   1.443  15.227 -0.3953 -0.4198  0.0474
  820MPD2    C412066   1.135   1.383  15.208 -0.6878  0.4456  0.2752
  820MPD2    C512067   1.036   1.456  15.147  0.1061  0.1246  0.4585
  820MPD2     H12068   1.390   1.606  15.188 -0.8451  1.9904  0.5189
  820MPD2    H112069   1.110   1.289  15.258  0.0765  0.2537  0.2996
  820MPD2    H212070   0.990   1.639  15.053 -0.4355  0.5853  0.1104
  820MPD2    H312071   0.937   1.414  15.131  0.8038  0.0542 -3.4573
  820MPD2     N12072   1.357   1.367  15.307  0.9073  0.1875 -0.3104
  820MPD2    H512073   1.321   1.282  15.351  2.9543 -0.5233 -0.0041
  820MPD2    N112074   1.211   1.758  15.038  0.0519 -0.3315  0.0257
  820MPD2    H712075   1.130   1.793  14.988  0.9510  1.1113 -0.3892
  821MPD2     C12076   2.062   2.575  13.506  0.4955  0.4988  0.0206
  821MPD2    C112077   2.193   2.565  13.557  0.6376  0.0953  0.4517
  821MPD2    C212078   2.294   2.560  13.466  0.0304  0.1845  0.9192
  821MPD2    C312079   2.274   2.576  13.328 -0.0068 -0.0408  0.0539
  821MPD2    C412080   2.146   2.579  13.280 -0.1235  0.4710  0.4138
  821MPD2    C512081   2.040   2.566  13.372 -0.1269  0.1985  0.1673
  821MPD2     H12082   2.394   2.557  13.508  0.8434 -0.7071 -1.0860
  821MPD2    H112083   2.136   2.575  13.172  1.2454  1.1747  0.2596
  821MPD2    H212084   1.975   2.577  13.571 -0.5341  0.8278 -1.3695
  821MPD2    H312085   1.938   2.570  13.337  0.1243 -1.6434 -0.7387
  821MPD2     N12086   2.375   2.586  13.229 -0.4693  0.2240  0.7798
  821MPD2    H512087   2.342   2.621  13.140 -0.3320  1.1652  1.0997
  821MPD2    N112088   2.232   2.562  13.693 -0.3398  0.3321 -0.7060
  821MPD2    H712089   2.331   2.551  13.711 -0.8190 -3.2024 -0.3358
  822MPD2     C12090   3.166   2.933  15.830  1.1212  0.6190 -0.1605
  822MPD2    C112091   3.157   2.889  15.961 -0.0438 -0.5168 -0.5107
  822MPD2    C212092   3.101   2.968  16.055  0.5249  0.5477  0.4933
  822MPD2    C312093   3.048   3.092  16.023  0.7067  0.2923 -0.5895
  822MPD2    C412094   3.043   3.127  15.888  0.3477 -0.7102 -0.8287
  822MPD2    C512095   3.094   3.044  15.796 -0.0382  0.2771 -0.0441
  822MPD2     H12096   3.104   2.924  16.154  0.6167  0.6928  0.5562
  822MPD2    H112097   2.985   3.211  15.852  1.3027  0.1609 -0.3298
  822MPD2    H212098   3.220   2.878  15.753 -0.0197 -0.6108 -0.0812
  822MPD2    H312099   3.101   3.080  15.694  0.0983 -2.7147 -1.1109
  822MPD2     N12100   2.987   3.167  16.131 -0.1281 -1.3486 -0.1563
  822MPD2    H512101   2.999   3.129  16.224  3.8396  2.0002  0.6826
  822MPD2    N112102   3.231   2.775  16.008 -0.0869  0.0571 -0.2338
  822MPD2    H712103   3.243   2.765  16.108 -1.8501  0.6951  0.0506
  823MPD2     C12104   2.506   3.244  16.847 -0.2267 -0.0725  0.3161
  823MPD2    C112105   2.607   3.200  16.763 -0.2494  0.3109 -0.4747
  823MPD2    C212106   2.675   3.092  16.806  0.0620 -0.7464  0.1508
  823MPD2    C312107   2.640   3.019  16.921 -0.1556 -0.0346  0.2321
  823MPD2    C412108   2.539   3.067  16.999  0.5816  0.7315 -0.6604
  823MPD2    C512109   2.484   3.184  16.967 -0.0643 -0.3975 -0.5315
  823MPD2     H12110   2.764   3.069  16.749  0.9851 -1.4276  1.8605
  823MPD2    H112111   2.524   3.021  17.096 -1.9118  1.3894 -0.7479
  823MPD2    H212112   2.444   3.332  16.835 -0.3418 -0.0787  0.9129
  823MPD2    H312113   2.421   3.229  17.043  0.9463 -1.4221  0.9228
  823MPD2     N12114   2.704   2.896  16.961 -0.5705 -0.2896  0.1470
  823MPD2    H512115   2.678   2.847  17.046  0.9527 -1.4640 -0.0606
  823MPD2    N112116   2.636   3.263  16.635 -0.7122  0.0197 -0.6112
  823MPD2    H712117   2.598   3.356  16.616 -2.8181 -0.4675  1.1771
  824MPD2     C12118   3.369   1.992  15.876 -1.0063  0.0784  0.1793
  824MPD2    C112119   3.482   2.062  15.901 -0.0854  0.4011 -0.7734
  824MPD2    C212120   3.603   1.988  15.905 -0.7410  0.0038 -0.4938
  824MPD2    C312121   3.603   1.855  15.874 -0.4876 -0.1145  0.3725
  824MPD2    C412122   3.489   1.788  15.838 -0.5256 -0.3408  0.0609
  824MPD2    C512123   3.371   1.857  15.844  0.0905 -0.9067  0.6420
  824MPD2     H12124   3.700   2.031  15.930 -0.7295  0.2688 -1.0013
  824MPD2    H112125   3.493   1.685  15.803  0.7484 -0.9012  1.8038
  824MPD2    H212126   3.277   2.049  15.874 -1.1333 -0.1602 -0.7822
  824MPD2    H312127   3.276   1.806  15.831  0.2653 -1.2202  0.6054
  824MPD2     N12128   3.730   1.786  15.877  0.0078  0.1506 -0.1317
  824MPD2    H512129   3.809   1.842  15.908 -0.8052  0.7994  0.8187
  824MPD2    N112130   3.474   2.203  15.923 -0.1912  0.0885 -0.2544
  824MPD2    H712131   3.383   2.246  15.911 -0.7197 -0.9371  0.0472
  825MPD2     C12132   4.157   1.678  15.191  0.7714  0.1034 -0.0249
  825MPD2    C112133   4.152   1.754  15.309  0.2158  0.3121  0.2069
  825MPD2    C212134   4.174   1.889  15.308 -0.4394 -0.0880 -0.0308
  825MPD2    C312135   4.206   1.953  15.183 -0.3970  0.2180 -0.1982
  825MPD2    C412136   4.217   1.878  15.068 -0.1165  0.6333  0.2735
  825MPD2    C512137   4.180   1.744  15.078 -0.2253  0.0697  0.8410
  825MPD2     H12138   4.180   1.952  15.396  2.3617 -0.6509  0.1884
  825MPD2    H112139   4.257   1.919  14.976 -0.0233  2.6698  1.2283
  825MPD2    H212140   4.131   1.573  15.185  2.2496 -0.3694  1.6649
  825MPD2    H312141   4.178   1.683  14.989 -2.0691 -1.0267  1.6356
  825MPD2     N12142   4.230   2.096  15.159  0.1717  0.1053  0.6938
  825MPD2    H512143   4.258   2.124  15.065  0.7250 -1.5858  0.3434
  825MPD2    N112144   4.118   1.684  15.432 -0.3242  0.4923 -0.1103
  825MPD2    H712145   4.099   1.585  15.428  3.4744 -0.1623 -1.9189
  826MPD2     C12146   3.625   2.095  13.962 -0.7172  0.6143 -0.3337
  826MPD2    C112147   3.543   2.111  13.852  0.1410 -0.7158 -0.6247
  826MPD2    C212148   3.418   2.169  13.875 -1.3083  0.7380 -0.1314
  826MPD2    C312149   3.370   2.201  14.003  1.1134 -0.6599  0.2940
  826MPD2    C412150   3.456   2.186  14.109 -0.6581  0.5679  0.4813
  826MPD2    C512151   3.578   2.134  14.084  0.4646  0.9895  0.4828
  826MPD2     H12152   3.352   2.193  13.792 -2.9441 -2.6213  0.2122
  826MPD2    H112153   3.420   2.210  14.208  1.4526  1.4465  1.0293
  826MPD2    H212154   3.727   2.060  13.954 -0.0457  2.6613 -0.8998
  826MPD2    H312155   3.653   2.130  14.162 -1.3682  0.2288  2.2035
  826MPD2     N12156   3.245   2.260  14.034 -0.0124  0.0420  0.4604
  826MPD2    H512157   3.233   2.293  14.129 -2.3048  0.2481  0.0951
  826MPD2    N112158   3.594   2.083  13.720 -0.4184  0.2263  0.1835
  826MPD2    H712159   3.693   2.062  13.711 -0.1869  1.8435 -1.1595
  827MPD2     C12160   4.202   3.073  10.056  0.4848 -0.0674  1.2131
  827MPD2    C112161   4.262   2.947  10.081 -0.7875  0.1522  0.1440
  827MPD2    C212162   4.258   2.857   9.976  0.6032 -0.0948  0.3847
  827MPD2    C312163   4.176   2.881   9.871 -0.2688  0.0438  0.6463
  827MPD2    C412164   4.102   2.993   9.865  0.2990 -0.2636  0.2319
  827MPD2    C512165   4.115   3.093   9.960 -0.3367 -0.1429 -0.4228
  827MPD2     H12166   4.306   2.760   9.978  0.8183 -0.0101 -0.5085
  827MPD2    H112167   4.033   3.000   9.782 -0.7357 -0.7596  1.0360
  827MPD2    H212168   4.219   3.153  10.128 -0.8626  0.9320  0.4307
  827MPD2    H312169   4.046   3.177   9.961 -0.6076 -0.3746  0.1368
  827MPD2     N12170   4.169   2.787   9.761  0.4873 -0.2534  0.1638
  827MPD2    H512171   4.201   2.695   9.790 -0.8177 -1.6218 -2.7308
  827MPD2    N112172   4.332   2.925  10.199 -0.2692  0.3815  0.1282
  827MPD2    H712173   4.370   3.001  10.255 -2.0080  0.1635  1.5954
  828MPD2     C12174   2.652   3.162  12.482  0.5576 -0.7375 -1.5007
  828MPD2    C112175   2.602   3.165  12.357  0.0776  0.2854  0.1904
  828MPD2    C212176   2.671   3.114  12.247 -0.5244 -0.4113  0.4643
  828MPD2    C312177   2.798   3.061  12.271 -0.4109 -0.5883  1.1288
  828MPD2    C412178   2.850   3.069  12.395  0.3453 -0.3826  0.4723
  828MPD2    C512179   2.784   3.115  12.496 -1.0643 -0.2566 -0.1661
  828MPD2     H12180   2.632   3.117  12.146 -2.2544  0.0993  1.1538
  828MPD2    H112181   2.951   3.031  12.405  0.5941 -0.3419 -1.8292
  828MPD2    H212182   2.599   3.207  12.565  1.2412 -1.4033 -0.6979
  828MPD2    H312183   2.826   3.135  12.594 -3.5683 -1.3615  1.1488
  828MPD2     N12184   2.885   3.004  12.170  0.5684  0.0760  0.1174
  828MPD2    H512185   2.973   2.967  12.204  0.4710  2.2523  2.8018
  828MPD2    N112186   2.482   3.227  12.321  0.4118 -0.4954  0.1690
  828MPD2    H712187   2.472   3.235  12.221 -0.7749  1.2401  0.4202
  829MPD2     C12188   1.745   3.118  11.746 -0.8738 -0.3784 -0.3254
  829MPD2    C112189   1.694   3.160  11.871  0.1728  0.4971 -0.1988
  829MPD2    C212190   1.776   3.228  11.957 -0.0396  1.1440  0.2512
  829MPD2    C312191   1.908   3.263  11.920 -0.3992  0.9300  0.1505
  829MPD2    C412192   1.953   3.216  11.796 -0.3703 -0.0178 -0.2326
  829MPD2    C512193   1.868   3.148  11.711 -0.4644  0.0548  0.1041
  829MPD2     H12194   1.741   3.276  12.047 -1.3417  1.3814 -0.3818
  829MPD2    H112195   2.055   3.222  11.761 -0.8925  0.9109 -1.6021
  829MPD2    H212196   1.688   3.058  11.676 -1.1791  0.4017 -0.7417
  829MPD2    H312197   1.910   3.112  11.617 -1.7903  0.8967 -0.8100
  829MPD2     N12198   1.988   3.336  12.015  0.0440 -0.5253  0.3265
  829MPD2    H512199   1.935   3.363  12.098  1.0532 -0.2344  0.8735
  829MPD2    N112200   1.571   3.112  11.920 -0.3380  0.1460  0.1593
  829MPD2    H712201   1.538   3.149  12.009  1.5018 -0.9893  1.3273
  830MPD2     C12202   3.195   1.221  15.399  0.0067  0.2662  0.3570
  830MPD2    C112203   3.078   1.296  15.424 -0.0169  0.3507  0.4273
  830MPD2    C212204   3.055   1.406  15.338  0.5003  0.0356 -0.3079
  830MPD2    C312205   3.161   1.441  15.250  0.4815 -0.2497  0.0371
  830MPD2    C412206   3.275   1.371  15.239  0.2269  0.0961  0.8077
  830MPD2    C512207   3.289   1.260  15.312  0.2946  0.1331  0.5323
  830MPD2     H12208   2.972   1.474  15.356  0.2334 -0.2493 -0.4585
  830MPD2    H112209   3.345   1.380  15.157 -0.4345 -2.4002 -0.0268
  830MPD2    H212210   3.215   1.135  15.462 -0.9639  2.0351  3.0997
  830MPD2    H312211   3.378   1.199  15.301  0.1201 -0.0848  0.3221
  830MPD2     N12212   3.150   1.549  15.158 -0.4774 -0.7786 -0.0684
  830MPD2    H512213   3.240   1.574  15.119 -0.6771 -0.8297 -0.5616
  830MPD2    N112214   2.980   1.251  15.522 -0.3081  0.3429 -0.7552
  830MPD2    H712215   3.011   1.194  15.600  1.3006  1.9299 -0.2183
  831MPD2     C12216   3.222   3.247  16.418 -0.2118 -1.1038  0.1494
  831MPD2    C112217   3.271   3.144  16.346 -0.1300  0.1566  0.1181
  831MPD2    C212218   3.219   3.014  16.359  0.4839  0.6899  0.7275
  831MPD2    C312219   3.106   2.998  16.430  0.4745 -0.8857  0.0134
  831MPD2    C412220   3.066   3.097  16.513  0.3641 -0.1518  0.2207
  831MPD2    C512221   3.122   3.223  16.505 -0.0629 -0.2201  1.4980
  831MPD2     H12222   3.267   2.927  16.313 -1.5725 -0.2951  0.4621
  831MPD2    H112223   2.983   3.079  16.581 -1.5468  1.1750 -1.7371
  831MPD2    H212224   3.263   3.347  16.411 -0.0137 -1.3974 -2.6430
  831MPD2    H312225   3.077   3.300  16.567 -1.9492 -0.2663  0.1605
  831MPD2     N12226   3.035   2.878  16.442 -0.9107 -0.3475 -0.8624
  831MPD2    H512227   2.957   2.889  16.505 -0.1678  0.0602 -0.0198
  831MPD2    N112228   3.382   3.160  16.258 -0.8572 -0.1019  0.0503
  831MPD2    H712229   3.423   3.253  16.253 -0.1665 -0.2489  2.8020
  832MPD2     C12230   1.588   3.961  17.391 -0.4429  0.6375  0.6076
  832MPD2    C112231   1.514   4.075  17.363 -1.0929  0.5493 -0.1504
  832MPD2    C212232   1.393   4.061  17.295  0.0443  0.2036  0.5145
  832MPD2    C312233   1.358   3.942  17.243  0.0042  0.3140  0.1158
  832MPD2    C412234   1.430   3.824  17.270 -0.8761  0.0241 -0.3571
  832MPD2    C512235   1.551   3.839  17.333  0.0102  0.0834  0.7989
  832MPD2     H12236   1.335   4.151  17.276 -0.7608 -0.2476  0.8630
  832MPD2    H112237   1.398   3.728  17.232 -0.9787  0.4974 -1.4661
  832MPD2    H212238   1.685   3.967  17.438 -0.2358 -0.8980  0.3810
  832MPD2    H312239   1.621   3.757  17.343  1.0888  1.1371  1.7778
  832MPD2     N12240   1.238   3.934  17.166 -0.1482  0.1560 -0.4233
  832MPD2    H512241   1.209   3.842  17.133  2.0350  0.6121 -3.6636
  832MPD2    N112242   1.556   4.202  17.413 -1.0884  0.5170  0.0275
  832MPD2    H712243   1.500   4.278  17.375 -1.4239  0.9975  1.4739
  833MPD2     C12244   3.250   0.960  12.784  0.7887 -0.4798  0.1913
  833MPD2    C112245   3.255   1.042  12.678  0.2710 -0.0828 -0.0841
  833MPD2    C212246   3.350   1.010  12.572  0.2398 -0.8213  0.7672
  833MPD2    C312247   3.433   0.896  12.576 -0.9176  0.6952 -0.2822
  833MPD2    C412248   3.422   0.817  12.685 -0.0387 -1.1557  0.0277
  833MPD2    C512249   3.332   0.848  12.782  0.8231 -0.2232 -0.5558
  833MPD2     H12250   3.366   1.070  12.483  1.8695 -2.0447  0.2303
  833MPD2    H112251   3.490   0.733  12.687  1.0218 -0.2394  2.6807
  833MPD2    H212252   3.182   0.973  12.868 -0.5459 -1.1405 -0.7966
  833MPD2    H312253   3.320   0.773  12.859  0.1084 -0.1201 -0.5657
  833MPD2     N12254   3.508   0.860  12.457 -0.4166 -0.0611  0.0607
  833MPD2    H512255   3.538   0.764  12.453 -0.3044 -0.1113  2.1582
  833MPD2    N112256   3.157   1.142  12.655  0.2042 -0.3413 -0.6490
  833MPD2    H712257   3.071   1.144  12.708  0.5266  1.8245 -0.2057
  834MPD2     C12258   3.766   0.172  11.844 -0.6475  0.2734 -0.8800
  834MPD2    C112259   3.689   0.240  11.752  0.9340 -0.0501  0.1551
  834MPD2    C212260   3.627   0.358  11.792 -0.4917  0.6425 -0.1933
  834MPD2    C312261   3.640   0.405  11.923 -0.4632 -0.7578  0.8029
  834MPD2    C412262   3.713   0.328  12.018 -0.0222  0.2620 -0.1602
  834MPD2    C512263   3.776   0.219  11.974  0.0097  0.6190  0.6956
  834MPD2     H12264   3.573   0.407  11.712 -0.2651  0.9153 -0.1795
  834MPD2    H112265   3.728   0.355  12.122  1.2105 -4.5547  0.9038
  834MPD2    H212266   3.811   0.077  11.820  1.0296  1.3723 -2.1113
  834MPD2    H312267   3.839   0.165  12.044  2.7367 -0.5196 -2.6548
  834MPD2     N12268   3.569   0.518  11.964 -0.1367  0.1937 -1.1570
  834MPD2    H512269   3.545   0.570  11.880  1.4921  1.4036 -0.8785
  834MPD2    N112270   3.676   0.177  11.627  0.2259  0.0171  0.8192
  834MPD2    H712271   3.729   0.093  11.606  0.1018  0.4205 -1.0966
  835MPD2     C12272   3.771   3.068  11.205  0.0552 -0.1690 -0.3271
  835MPD2    C112273   3.639   3.052  11.249  0.8175 -0.5710  0.7245
  835MPD2    C212274   3.596   3.092  11.372  0.6156  0.2514 -0.2540
  835MPD2    C312275   3.682   3.158  11.454 -0.3637 -0.7705 -0.1109
  835MPD2    C412276   3.815   3.181  11.412  0.6888 -0.1611 -0.3448
  835MPD2    C512277   3.855   3.138  11.288 -0.3870 -0.4301  0.7934
  835MPD2     H12278   3.493   3.072  11.399  0.3792  0.0090 -1.3456
  835MPD2    H112279   3.887   3.231  11.477  0.5451 -0.1685 -0.1815
  835MPD2    H212280   3.820   3.046  11.111  1.8810  0.1049  0.5415
  835MPD2    H312281   3.953   3.165  11.249 -0.4380 -1.1197  0.1801
  835MPD2     N12282   3.636   3.193  11.592  0.0065 -0.2051 -0.1186
  835MPD2    H512283   3.536   3.186  11.604 -0.1798  0.6959 -1.1869
  835MPD2    N112284   3.543   2.985  11.166 -1.0860  0.9035 -0.2843
  835MPD2    H712285   3.452   2.965  11.207 -0.8009  0.7090  0.2485
  836MPD2     C12286   3.074   3.241  11.799  0.5439  0.1034 -0.3619
  836MPD2    C112287   3.137   3.287  11.914 -0.2965  0.1897  0.5804
  836MPD2    C212288   3.067   3.338  12.024 -0.6247  0.0843  0.0736
  836MPD2    C312289   2.933   3.330  12.029 -0.5632  0.3264 -0.2031
  836MPD2    C412290   2.866   3.275  11.921 -0.4756  0.1770  0.2062
  836MPD2    C512291   2.938   3.239  11.808 -0.3656 -0.0986 -0.0250
  836MPD2     H12292   3.124   3.380  12.107  0.1970 -1.3696  0.2474
  836MPD2    H112293   2.759   3.258  11.923 -0.4724  0.2710  0.9213
  836MPD2    H212294   3.126   3.204  11.712 -0.8229 -2.0343 -0.2400
  836MPD2    H312295   2.889   3.179  11.732  1.8982 -1.8975 -0.0671
  836MPD2     N12296   2.850   3.377  12.137 -0.2889 -0.1833 -0.0384
  836MPD2    H512297   2.750   3.374  12.125 -0.2391 -0.2445 -0.4291
  836MPD2    N112298   3.279   3.289  11.904 -0.3958  0.1984  0.3257
  836MPD2    H712299   3.318   3.241  11.824 -1.4051 -2.0660  1.1806
  837MPD2     C12300   1.724   2.539  10.555  0.1034  0.5050  0.1449
  837MPD2    C112301   1.598   2.534  10.502  0.0201 -0.0608  0.1983
  837MPD2    C212302   1.514   2.639  10.519 -0.3981 -0.9543 -0.9751
  837MPD2    C312303   1.550   2.760  10.575 -0.1695 -0.2158  0.1789
  837MPD2    C412304   1.679   2.759  10.630 -0.4204 -0.4635 -0.2817
  837MPD2    C512305   1.761   2.658  10.612  0.1582  0.3989  0.6070
  837MPD2     H12306   1.410   2.631  10.490 -1.1262 -0.0019  1.4159
  837MPD2    H112307   1.712   2.856  10.665 -1.8631  0.2600 -0.9471
  837MPD2    H212308   1.796   2.459  10.541  0.2263  0.6157  0.1414
  837MPD2    H312309   1.860   2.674  10.655  0.0541  0.9472  0.6425
  837MPD2     N12310   1.462   2.865  10.558 -0.2877  0.0280 -0.5980
  837MPD2    H512311   1.372   2.844  10.515 -0.3663  3.0629 -1.8732
  837MPD2    N112312   1.547   2.422  10.425 -0.0727  0.1319 -0.1134
  837MPD2    H712313   1.447   2.423  10.409 -0.1363 -0.0880  0.2963
  838MPD2     C12314   4.605   1.430  12.194 -0.2513 -0.1442  0.0194
  838MPD2    C112315   4.560   1.314  12.136  0.3051 -0.0576  0.5272
  838MPD2    C212316   4.421   1.296  12.112 -0.0692 -0.7379 -0.2682
  838MPD2    C312317   4.331   1.399  12.138 -0.0180 -0.2384  0.0985
  838MPD2    C412318   4.379   1.513  12.202  0.2460 -0.4354  0.2306
  838MPD2    C512319   4.515   1.523  12.229  0.2043  0.2394 -0.3800
  838MPD2     H12320   4.384   1.208  12.060 -0.9773  0.6933 -2.0569
  838MPD2    H112321   4.307   1.585  12.238  1.8766 -0.4718  3.5674
  838MPD2    H212322   4.712   1.448  12.198 -0.2528 -0.0234 -0.5757
  838MPD2    H312323   4.547   1.618  12.271 -1.1462  1.0913 -1.2665
  838MPD2     N12324   4.195   1.371  12.120 -0.4146  0.4141 -0.2920
  838MPD2    H512325   4.172   1.275  12.099  2.2961 -0.0754 -0.9885
  838MPD2    N112326   4.648   1.214  12.083  0.4614 -0.0506 -0.3976
  838MPD2    H712327   4.598   1.140  12.034  0.0285 -1.2247  1.8249
  839MPD2     C12328   4.265   0.516  11.943  0.0524 -0.0427 -0.6068
  839MPD2    C112329   4.358   0.515  11.834 -0.0298 -0.1321 -0.5100
  839MPD2    C212330   4.465   0.609  11.836  0.2632 -0.4357  0.0062
  839MPD2    C312331   4.483   0.691  11.954  0.5854  0.1364  0.2100
  839MPD2    C412332   4.395   0.678  12.061 -0.5038 -0.0151  0.4629
  839MPD2    C512333   4.275   0.601  12.051  0.2542  0.2209 -0.1166
  839MPD2     H12334   4.525   0.615  11.746  1.2472  0.6977  0.7391
  839MPD2    H112335   4.419   0.732  12.152  1.0434  0.3176 -0.1516
  839MPD2    H212336   4.178   0.451  11.941 -1.3733  1.9406 -2.8080
  839MPD2    H312337   4.197   0.610  12.126 -0.1665  1.5861 -0.7198
  839MPD2     N12338   4.590   0.784  11.964 -0.0786  0.6436  0.5351
  839MPD2    H512339   4.583   0.855  12.035 -1.1384  0.7461  0.3282
  839MPD2    N112340   4.328   0.456  11.711  0.5304 -0.1054  0.4298
  839MPD2    H712341   4.400   0.470  11.640  1.5562  1.7906  1.8544
  840MPD2     C12342   0.153   3.217  10.316 -0.0142 -0.4804 -0.4000
  840MPD2    C112343   0.117   3.159  10.439 -0.1638  0.5398  0.0455
  840MPD2    C212344   0.162   3.216  10.557 -0.6261 -0.4433  0.0833
  840MPD2    C312345   0.239   3.332  10.554  0.2181 -0.1475 -0.5436
  840MPD2    C412346   0.283   3.382  10.433 -0.0264  0.4629  0.1526
  840MPD2    C512347   0.234   3.326  10.318  0.8095  0.4897 -0.3130
  840MPD2     H12348   0.138   3.178  10.656 -0.2484 -1.6242 -0.2803
  840MPD2    H112349   0.344   3.471  10.431  1.2811 -0.4850 -1.5160
  840MPD2    H212350   0.119   3.186  10.217  1.1880 -1.0876 -0.6158
  840MPD2    H312351   0.267   3.363  10.222 -0.1638 -0.0510 -0.8554
  840MPD2     N12352   0.294   3.397  10.665 -0.2865  0.6884 -0.1831
  840MPD2    H512353   0.332   3.488  10.641  1.1193 -0.4421 -2.2424
  840MPD2    N112354   0.015   3.060  10.434 -0.3419  0.1654  0.0202
  840MPD2    H712355   4.706   3.036  10.341  0.3158  0.2217 -0.2327
  841MPD2     C12356   4.542   3.508  14.920  0.0753 -0.4780  0.0084
  841MPD2    C112357   4.539   3.463  14.790 -0.0322 -0.2033 -0.9023
  841MPD2    C212358   4.553   3.552  14.686 -0.2305 -0.1294 -0.0473
  841MPD2    C312359   4.596   3.677  14.707  1.0293 -0.2914 -0.2666
  841MPD2    C412360   4.601   3.720  14.837 -0.0501 -0.7788 -0.3180
  841MPD2    C512361   4.574   3.639  14.941  0.1308 -0.5210  0.1694
  841MPD2     H12362   4.560   3.515  14.584 -1.8145  0.8998 -0.5396
  841MPD2    H112363   4.639   3.816  14.872  1.7136 -1.2713 -0.8484
  841MPD2    H212364   4.518   3.452  15.010  2.2268  0.7670  1.3422
  841MPD2    H312365   4.574   3.674  15.044 -1.2898  3.0919 -1.0567
  841MPD2     N12366   4.623   3.752  14.589  0.1208 -0.2589 -0.5007
  841MPD2    H512367   4.637   3.694  14.506 -2.0582 -0.2164 -0.8952
  841MPD2    N112368   4.492   3.336  14.757  0.2743  0.1932 -0.3206
  841MPD2    H712369   4.470   3.318  14.660 -0.3429  1.6053 -0.4461
  842MPD2     C12370   0.858   4.280  17.185  0.1006  0.2358 -0.0098
  842MPD2    C112371   0.727   4.313  17.180 -0.0916 -0.3564 -0.1015
  842MPD2    C212372   0.656   4.288  17.296  0.3227 -0.4554  0.9746
  842MPD2    C312373   0.714   4.230  17.411  0.3033 -0.1369 -0.5396
  842MPD2    C412374   0.845   4.196  17.417  0.1658 -0.5514  0.7084
  842MPD2    C512375   0.914   4.228  17.301 -0.0755 -0.2813 -0.5878
  842MPD2     H12376   0.548   4.290  17.291  0.3871 -0.1910 -0.3335
  842MPD2    H112377   0.889   4.161  17.509 -0.1333 -0.1195  1.0168
  842MPD2    H212378   0.923   4.300  17.101 -0.0141  1.0587  0.0973
  842MPD2    H312379   1.022   4.219  17.299 -0.1775 -1.7262  1.1012
  842MPD2     N12380   0.619   4.217  17.515 -0.2664 -0.1658 -0.2462
  842MPD2    H512381   0.525   4.253  17.501  0.1190 -0.1217 -2.6980
  842MPD2    N112382   0.672   4.363  17.058 -0.2145 -0.2517 -0.0930
  842MPD2    H712383   0.745   4.391  16.993 -2.8582  2.0139 -2.0693
  843MPD2     C12384   2.576   4.596   1.374  1.1286  0.1836 -0.1531
  843MPD2    C112385   2.540   4.524   1.258 -0.3070 -1.1214  0.5846
  843MPD2    C212386   2.622   4.538   1.143  0.2139  0.5923  0.2189
  843MPD2    C312387   2.734   4.612   1.141  0.3957  0.4435  0.1522
  843MPD2    C412388   2.772   4.681   1.254  0.2992  0.1807  0.6147
  843MPD2    C512389   2.694   4.676   1.370  1.0391  0.4948 -0.1741
  843MPD2     H12390   2.613   4.476   1.054 -0.6184  0.5174  0.3593
  843MPD2    H112391   2.855   0.027   1.251  0.3163  0.0800 -0.9295
  843MPD2    H212392   2.516   4.590   1.465 -0.1707  2.0830 -0.8958
  843MPD2    H312393   2.722   0.017   1.451 -0.1718  1.2333 -0.3506
  843MPD2     N12394   2.814   4.614   1.022 -1.5070 -0.1942 -0.8611
  843MPD2    H512395   2.766   4.580   0.939  0.2071 -0.7708 -1.6191
  843MPD2    N112396   2.423   4.439   1.262 -0.8575 -0.0843 -0.4201
  843MPD2    H712397   2.366   4.446   1.346  0.1675  1.4384  0.1407
  844MPD2     C12398   1.068   3.455  16.597  0.3774 -0.1674 -0.2929
  844MPD2    C112399   1.188   3.390  16.575 -0.1753  0.6670 -0.2399
  844MPD2    C212400   1.300   3.430  16.652 -0.0752 -0.2753  0.0468
  844MPD2    C312401   1.294   3.541  16.734 -0.0391 -0.3421 -0.6139
  844MPD2    C412402   1.176   3.607  16.737 -0.8540  0.4189 -0.4087
  844MPD2    C512403   1.067   3.563  16.669  0.3469 -1.2085 -0.7828
  844MPD2     H12404   1.401   3.391  16.644 -0.1281 -0.2129 -0.9229
  844MPD2    H112405   1.166   3.696  16.798  0.1205  0.4989 -0.3666
  844MPD2    H212406   0.975   3.433  16.546  1.0036  0.6682 -1.7986
  844MPD2    H312407   0.971   3.610  16.681  0.3931 -1.2268 -0.3406
  844MPD2     N12408   1.401   3.594  16.800 -0.2764 -0.1393 -0.4960
  844MPD2    H512409   1.477   3.527  16.807 -0.2003  0.1439  1.6488
  844MPD2    N112410   1.200   3.291  16.471  0.2384  0.2955 -0.2872
  844MPD2    H712411   1.114   3.259  16.428 -0.0370  1.0812 -0.3213
  845MPD2     C12412   1.595   4.552  17.050  0.2708 -0.1855  0.3752
  845MPD2    C112413   1.495   4.479  17.113 -0.0923 -0.5038 -0.6142
  845MPD2    C212414   1.500   4.340  17.100  0.4618  0.9430  0.1101
  845MPD2    C312415   1.606   4.271  17.038  0.3894 -0.0090  0.4638
  845MPD2    C412416   1.701   4.346  16.979  0.6910  0.3543  0.0021
  845MPD2    C512417   1.690   4.486  16.979  0.6764 -0.2345 -0.5436
  845MPD2     H12418   1.409   4.289  17.130  1.5096 -1.4727 -0.8308
  845MPD2    H112419   1.776   4.297  16.918 -0.2562 -2.0329  0.7350
  845MPD2    H212420   1.590   4.660  17.050  1.4477 -0.1311  1.1625
  845MPD2    H312421   1.763   4.546  16.925  1.0904  0.9324  1.3361
  845MPD2     N12422   1.599   4.132  17.025 -0.3649  0.2317 -0.5223
  845MPD2    H512423   1.512   4.085  17.046 -0.3515  0.0992 -0.7638
  845MPD2    N112424   1.388   4.551  17.177  0.1112  0.2852 -0.1864
  845MPD2    H712425   1.363   4.637  17.130  3.0897  1.3857  0.2236
  846MPD2     C12426   2.875   0.498  14.090  0.7205  0.3059  0.0568
  846MPD2    C112427   2.745   0.547  14.080  0.0811  0.8475  0.3164
  846MPD2    C212428   2.673   0.563  14.197 -0.4970  0.5416 -0.0769
  846MPD2    C312429   2.716   0.504  14.313 -0.2108  0.0136 -0.1457
  846MPD2    C412430   2.844   0.436  14.312 -0.4519 -0.1403 -0.5753
  846MPD2    C512431   2.924   0.440  14.203 -0.1197  0.7327 -0.0628
  846MPD2     H12432   2.580   0.618  14.200 -1.6746 -1.2942 -3.0080
  846MPD2    H112433   2.888   0.393  14.402 -0.9665  0.2621 -0.1299
  846MPD2    H212434   2.936   0.506  14.001  3.6259  1.4478  2.1572
  846MPD2    H312435   3.030   0.421  14.219 -0.4538 -0.4023  0.8451
  846MPD2     N12436   2.627   0.499  14.428 -0.3536  0.2853 -0.4682
  846MPD2    H512437   2.534   0.530  14.404 -1.3390  0.5520  3.7300
  846MPD2    N112438   2.693   0.609  13.963  0.2550 -0.1804 -0.0740
  846MPD2    H712439   2.600   0.648  13.967  1.3127  2.4230 -0.8464
  847MPD2     C12440   2.439   0.981  14.613  0.3393  0.7106 -0.8012
  847MPD2    C112441   2.519   1.077  14.678  0.7019 -0.0383  0.2039
  847MPD2    C212442   2.618   1.037  14.764 -0.2529 -0.3961 -0.2189
  847MPD2    C312443   2.641   0.900  14.784 -0.1202  0.3941  0.3199
  847MPD2    C412444   2.550   0.805  14.732 -0.1454  0.0949  0.5900
  847MPD2    C512445   2.445   0.851  14.646 -0.3310 -0.1555  0.8260
  847MPD2     H12446   2.691   1.112  14.793  0.1526 -0.5268 -0.9267
  847MPD2    H112447   2.559   0.701  14.759  2.0914 -0.1544 -1.1239
  847MPD2    H212448   2.347   1.012  14.564  0.2912  0.4423 -0.8789
  847MPD2    H312449   2.368   0.789  14.600 -0.7902 -0.6246  2.2435
  847MPD2     N12450   2.741   0.877  14.881 -0.2450 -0.2276 -0.0500
  847MPD2    H512451   2.791   0.959  14.913  1.4562 -1.9770  1.7510
  847MPD2    N112452   2.518   1.214  14.650  0.1290  0.2532  0.1397
  847MPD2    H712453   2.586   1.275  14.694 -0.7843  0.5455  1.1479
  848MPD2     C12454   0.897   4.267  16.462  0.3700  0.4237  0.1126
  848MPD2    C112455   0.997   4.292  16.552  0.0587 -0.2632 -0.4579
  848MPD2    C212456   1.084   4.391  16.532  0.1272 -0.2096  0.2557
  848MPD2    C312457   1.078   4.458  16.412 -0.3287  0.8792 -0.4394
  848MPD2    C412458   0.982   4.426  16.313 -0.5159  0.0687  0.2553
  848MPD2    C512459   0.893   4.323  16.338  0.6044  0.1747  0.1774
  848MPD2     H12460   1.168   4.415  16.596  0.3846 -0.3700 -0.0212
  848MPD2    H112461   0.975   4.488  16.224  0.7338  1.8457  1.3907
  848MPD2    H212462   0.829   4.185  16.477  0.6551  0.7323  3.0275
  848MPD2    H312463   0.811   4.302  16.271  0.6830  2.2665 -0.5855
  848MPD2     N12464   1.160   4.569  16.384  0.0684 -0.1624 -0.5130
  848MPD2    H512465   1.177   4.584  16.285 -0.1410 -1.9741 -0.8227
  848MPD2    N112466   1.010   4.221  16.673 -0.6474  0.3578  0.5443
  848MPD2    H712467   1.086   4.232  16.739 -0.2168  0.0883  0.0867
  849MPD2     C12468   4.573   0.084  13.468 -0.0361 -0.3874 -0.3129
  849MPD2    C112469   4.698   0.083  13.407  0.0277  0.3515  0.4546
  849MPD2    C212470   0.063   4.709  13.442 -0.5571 -0.0046  0.2544
  849MPD2    C312471   0.026   4.597  13.519 -0.1319  0.0845 -0.1377
  849MPD2    C412472   4.622   4.594  13.564  0.5423  0.3809 -0.8113
  849MPD2    C512473   4.543   4.699  13.550  0.1831 -0.0544 -0.2762
  849MPD2     H12474   0.164   4.721  13.406  0.1205 -1.0431  1.8125
  849MPD2    H112475   4.584   4.522  13.636  0.9228  1.3847  0.3964
  849MPD2    H212476   4.496   0.159  13.452 -0.6263 -0.9853 -0.2558
  849MPD2    H312477   4.449   4.701  13.604  0.2927 -3.4158  0.0007
  849MPD2     N12478   0.125   4.505  13.553  0.0028  0.1790  0.0892
  849MPD2    H512479   0.214   4.525  13.509  1.0251  0.8726  2.4905
  849MPD2    N112480   0.022   0.184  13.318 -0.1870  0.4378 -0.2856
  849MPD2    H712481   0.121   0.182  13.294  0.1155  1.4503  0.8633
  850MPD2     C12482   2.479   2.563  14.886 -0.0378  0.1983 -0.9750
  850MPD2    C112483   2.545   2.634  14.986 -0.0294  0.3464  0.7382
  850MPD2    C212484   2.679   2.625  15.011  0.4127 -0.3579 -0.1692
  850MPD2    C312485   2.745   2.518  14.955 -0.0446 -0.2883  0.9881
  850MPD2    C412486   2.685   2.438  14.863 -0.6759 -0.6990 -0.2667
  850MPD2    C512487   2.554   2.465  14.827  0.0719 -0.4483  0.7683
  850MPD2     H12488   2.731   2.696  15.075 -1.5517 -0.1307  1.1902
  850MPD2    H112489   2.742   2.359  14.814 -2.6398 -2.7343  0.7277
  850MPD2    H212490   2.372   2.561  14.873  0.0631 -1.7506 -1.6106
  850MPD2    H312491   2.497   2.403  14.759 -0.7461  0.5380  0.5624
  850MPD2     N12492   2.882   2.485  14.985  0.5691  0.1725  0.0650
  850MPD2    H512493   2.893   2.388  14.958 -0.2337  0.7359 -2.3151
  850MPD2    N112494   2.456   2.707  15.069 -0.2072  0.0380  0.1315
  850MPD2    H712495   2.362   2.713  15.030 -0.9000 -2.1591  1.4783
  851MPD2     C12496   3.079   2.392  15.615 -0.6686  0.1601  0.0213
  851MPD2    C112497   2.995   2.401  15.502 -0.4209  0.1997  0.4247
  851MPD2    C212498   3.001   2.304  15.406 -0.5706 -0.0376 -0.3065
  851MPD2    C312499   3.096   2.202  15.411  0.6152 -0.3353 -0.2002
  851MPD2    C412500   3.180   2.201  15.518 -0.2857 -0.4448  0.2565
  851MPD2    C512501   3.170   2.290  15.621 -0.0133 -0.8459 -0.5377
  851MPD2     H12502   2.936   2.306  15.319  0.2372 -1.7256 -0.9370
  851MPD2    H112503   3.255   2.123  15.518 -0.1125 -0.2656 -1.2285
  851MPD2    H212504   3.074   2.453  15.704  0.2792  1.2417 -0.6688
  851MPD2    H312505   3.231   2.281  15.710 -1.8935 -0.6427  0.7754
  851MPD2     N12506   3.103   2.098  15.311  0.2945 -0.0822 -0.3433
  851MPD2    H512507   3.036   2.106  15.235  1.3940 -2.1706 -1.5393
  851MPD2    N112508   2.914   2.517  15.490  1.2132 -0.1972  0.2492
  851MPD2    H712509   2.944   2.596  15.546 -0.8946  2.1031 -1.8876
  852MPD2     C12510   2.905   4.319  10.125  0.3177  0.1130  0.9941
  852MPD2    C112511   2.831   4.426  10.161 -0.0937 -0.3287 -0.3827
  852MPD2    C212512   2.861   4.549  10.124  0.8562 -0.2019 -0.2356
  852MPD2    C312513   2.971   4.569  10.043 -0.6467  0.6006 -0.7146
  852MPD2    C412514   3.048   4.464  10.011 -0.3976  0.1401  0.0732
  852MPD2    C512515   3.023   4.337  10.055  0.1628 -0.3838  0.4166
  852MPD2     H12516   2.806   4.637  10.157 -0.0869 -1.2141  0.8688
  852MPD2    H112517   3.140   4.474   9.954 -0.2561  0.8010  0.4155
  852MPD2    H212518   2.878   4.220  10.161 -1.8533 -0.3870 -1.9657
  852MPD2    H312519   3.091   4.254  10.041  1.9190  1.1631 -0.1944
  852MPD2     N12520   3.001   4.704  10.014  0.3035  0.3496 -0.0430
  852MPD2    H512521   2.947   0.048  10.066  0.3162  1.7371 -1.8772
  852MPD2    N112522   2.720   4.423  10.239 -0.0492  0.3731  0.0377
  852MPD2    H712523   2.680   4.514  10.259  0.7631  1.2351 -2.1839
  853MPD2     C12524   4.598   4.608  12.157 -0.5078 -0.6576 -0.2646
  853MPD2    C112525   4.469   4.557  12.166  0.2351 -0.0227  0.0924
  853MPD2    C212526   4.412   4.494  12.054 -0.4544  0.3363 -0.3515
  853MPD2    C312527   4.485   4.493  11.936 -0.1985  0.0397 -1.0678
  853MPD2    C412528   4.614   4.552  11.929 -0.4422  0.2701  0.7641
  853MPD2    C512529   4.671   4.604  12.041  0.5143 -0.4596  0.1616
  853MPD2     H12530   4.314   4.449  12.061 -0.1084  0.0703  2.4526
  853MPD2    H112531   4.677   4.539  11.842  0.3588  1.6988  1.1417
  853MPD2    H212532   4.650   4.638  12.247  1.5569 -0.4769 -1.5224
  853MPD2    H312533   0.051   4.633  12.040  0.4898 -0.4002 -0.3373
  853MPD2     N12534   4.437   4.437  11.817 -0.0413  0.1519 -0.1750
  853MPD2    H512535   4.485   4.460  11.730 -2.6668  1.6904 -1.2140
  853MPD2    N112536   4.406   4.576  12.289  0.3052 -0.1674  0.1637
  853MPD2    H712537   4.458   4.613  12.368  2.8962 -0.0887 -1.5701
  854MPD2     C12538   1.001   4.684  12.895  0.3132  0.6422  0.1624
  854MPD2    C112539   1.032   0.045  12.797  0.3235  0.5102 -0.1969
  854MPD2    C212540   1.106   0.159  12.841 -0.2701  0.1580 -0.2755
  854MPD2    C312541   1.141   0.181  12.977 -0.2228 -0.7002  0.3494
  854MPD2    C412542   1.099   0.091  13.071  0.0433  0.0867  0.3123
  854MPD2    C512543   1.035   4.706  13.028  0.4819  0.1257 -0.4101
  854MPD2     H12544   1.130   0.226  12.760 -0.2090  0.6247  0.1338
  854MPD2    H112545   1.126   0.101  13.176 -0.7343  2.4088  0.3017
  854MPD2    H212546   0.955   4.588  12.871  0.9751  1.7715 -5.5194
  854MPD2    H312547   0.995   4.646  13.109  1.8217 -1.0350 -0.6136
  854MPD2     N12548   1.241   0.276  13.019  0.3456 -0.8877 -0.5925
  854MPD2    H512549   1.290   0.261  13.107 -0.7572  1.9668  0.4921
  854MPD2    N112550   1.010   0.004  12.669  0.1213  0.4556  1.1109
  854MPD2    H712551   0.995   4.629  12.653 -1.2584  0.5476  1.8608
  855MPD2     C12552   1.676   0.245  13.710 -0.1586  0.0885  0.1407
  855MPD2    C112553   1.714   0.160  13.613  0.0836 -0.1680  0.2394
  855MPD2    C212554   1.686   0.184  13.481 -0.5966 -0.7041 -0.4177
  855MPD2    C312555   1.642   0.309  13.435 -0.2980 -0.5226 -0.4470
  855MPD2    C412556   1.623   0.402  13.538 -0.3439 -0.3343  0.6223
  855MPD2    C512557   1.636   0.370  13.669  0.0769  0.8572 -0.6661
  855MPD2     H12558   1.700   0.111  13.403  2.5267 -0.4975 -0.0618
  855MPD2    H112559   1.596   0.506  13.521  1.6083  0.0892  0.0389
  855MPD2    H212560   1.673   0.219  13.815 -1.0318 -2.3968 -0.5012
  855MPD2    H312561   1.611   0.443  13.745  0.0385 -0.8684  1.0026
  855MPD2     N12562   1.626   0.344  13.303 -0.4201 -0.2242 -0.4509
  855MPD2    H512563   1.584   0.432  13.274 -0.2167 -0.1523 -0.5217
  855MPD2    N112564   1.792   0.040  13.637 -0.5722 -0.1408 -0.2130
  855MPD2    H712565   1.804   4.701  13.559 -1.5304  0.6364 -0.9850
  856MPD2     C12566   3.542   0.942  14.371  0.1315 -0.2529 -0.6968
  856MPD2    C112567   3.609   1.064  14.374  0.0535  0.6243  0.3150
  856MPD2    C212568   3.545   1.172  14.325 -0.6208 -0.4353  0.0132
  856MPD2    C312569   3.415   1.169  14.282  0.5461 -0.4150 -0.0390
  856MPD2    C412570   3.349   1.050  14.301  0.3881 -0.0628 -0.3203
  856MPD2    C512571   3.407   0.939  14.343 -0.3641 -0.2249  0.5828
  856MPD2     H12572   3.599   1.266  14.333  1.1031 -1.2919 -1.4430
  856MPD2    H112573   3.242   1.051  14.286  0.1642 -0.1137  1.2719
  856MPD2    H212574   3.593   0.849  14.394 -1.3155 -1.2817 -1.6823
  856MPD2    H312575   3.347   0.850  14.360 -1.3854  0.4313  0.4362
  856MPD2     N12576   3.342   1.280  14.245 -0.4024 -0.3188  0.2561
  856MPD2    H512577   3.241   1.277  14.241 -0.3729  1.1164 -1.3190
  856MPD2    N112578   3.749   1.090  14.411  0.1374  0.1090 -0.3000
  856MPD2    H712579   3.791   1.180  14.393  1.2189  0.5078  4.3780
  857MPD2     C12580   0.337   3.044  13.580 -0.0453 -0.6878 -0.2732
  857MPD2    C112581   0.412   3.041  13.466 -0.0217 -0.1238 -0.6677
  857MPD2    C212582   0.463   3.159  13.417 -0.7301  0.4430  0.5126
  857MPD2    C312583   0.429   3.276  13.473 -0.3027  0.2594 -0.1450
  857MPD2    C412584   0.356   3.286  13.590  0.3653 -0.3705  0.4445
  857MPD2    C512585   0.312   3.168  13.645  0.6302  0.4541  1.3875
  857MPD2     H12586   0.513   3.168  13.321 -2.2076 -1.9996 -0.5129
  857MPD2    H112587   0.344   3.380  13.642 -0.2268  0.4837 -1.2507
  857MPD2    H212588   0.294   2.954  13.620  0.2908 -0.7191  0.0176
  857MPD2    H312589   0.250   3.162  13.733 -0.0917 -0.6526  0.7979
  857MPD2     N12590   0.482   3.389  13.409  0.3989 -0.1500  0.1147
  857MPD2    H512591   0.546   3.371  13.332  2.3038 -1.3906  1.9958
  857MPD2    N112592   0.432   2.911  13.403  0.3475  0.5123 -0.2386
  857MPD2    H712593   0.406   2.823  13.446 -1.1883  0.3230 -1.5529
  858MPD2     C12594   1.124   2.105  17.086  0.2153  0.0218 -0.5932
  858MPD2    C112595   1.259   2.080  17.076  0.2922 -0.8854  0.0901
  858MPD2    C212596   1.334   2.079  17.199 -0.1261  0.5670 -0.7364
  858MPD2    C312597   1.276   2.090  17.324 -0.1491  0.5895  0.5205
  858MPD2    C412598   1.137   2.089  17.324 -0.2078  0.1531  0.1236
  858MPD2    C512599   1.066   2.116  17.211  0.1939 -0.2636  0.0214
  858MPD2     H12600   1.440   2.056  17.195 -0.3328 -0.7630  1.7338
  858MPD2    H112601   1.080   2.087  17.416  1.7613  0.7154  1.3552
  858MPD2    H212602   1.062   2.111  16.997 -1.7120 -0.9783  0.6785
  858MPD2    H312603   0.959   2.129  17.207  0.2876  1.2047  2.2639
  858MPD2     N12604   1.347   2.095  17.446  0.3152  0.2648 -0.1901
  858MPD2    H512605   1.282   2.113  17.522  0.2478 -0.9803  0.0401
  858MPD2    N112606   1.315   2.058  16.943 -0.3443  0.2377 -0.2007
  858MPD2    H712607   1.259   2.089  16.864  0.7522 -2.1595 -1.9069
  859MPD2     C12608   0.152   3.852  15.367 -0.0115 -0.4862  0.1521
  859MPD2    C112609   0.165   3.855  15.231  0.0656  0.2588  0.3418
  859MPD2    C212610   0.151   3.735  15.162 -0.5324  0.0310  0.5024
  859MPD2    C312611   0.137   3.609  15.225 -0.4726  0.1392 -0.2203
  859MPD2    C412612   0.146   3.609  15.364  0.1532  0.6613 -0.2463
  859MPD2    C512613   0.146   3.735  15.432  0.3392 -0.1836 -0.4337
  859MPD2     H12614   0.121   3.736  15.057 -2.2681  0.7007  1.0016
  859MPD2    H112615   0.155   3.518  15.424  1.4563  0.0624 -1.3557
  859MPD2    H212616   0.144   3.941  15.429 -0.4869 -1.7741  1.9376
  859MPD2    H312617   0.140   3.742  15.540 -1.1882  0.5144 -0.5741
  859MPD2     N12618   0.141   3.487  15.157  0.1056 -0.8000  0.3135
  859MPD2    H512619   0.120   3.399  15.204 -0.7176  0.7384  2.7844
  859MPD2    N112620   0.162   3.983  15.165 -0.4721 -0.2475  1.2819
  859MPD2    H712621   0.173   4.068  15.221  0.9142 -0.3617  1.1839
  860MPD2     C12622   2.408   0.071  11.626  0.1158  0.2749 -0.2132
  860MPD2    C112623   2.423   0.163  11.732  0.2191 -0.3696 -0.7372
  860MPD2    C212624   2.310   0.238  11.769  0.0404  0.5275 -0.3602
  860MPD2    C312625   2.192   0.230  11.694 -1.1280  0.5497  0.1362
  860MPD2    C412626   2.189   0.149  11.584  0.2035  0.1507 -0.0128
  860MPD2    C512627   2.292   0.065  11.553 -0.7623  0.8714 -0.3256
  860MPD2     H12628   2.319   0.312  11.848 -0.4528 -1.1012  1.2313
  860MPD2    H112629   2.100   0.127  11.526 -0.1909  3.1526 -0.5335
  860MPD2    H212630   2.491   0.007  11.598 -0.9975 -0.4067 -1.9384
  860MPD2    H312631   2.283   4.720  11.470 -3.0725  2.7966 -1.6729
  860MPD2     N12632   2.096   0.325  11.731  0.4169  0.6495 -0.4224
  860MPD2    H512633   2.122   0.377  11.814  0.5913 -0.8619  0.4803
  860MPD2    N112634   2.540   0.174  11.803 -0.1232 -0.3052  0.6322
  860MPD2    H712635   2.537   0.223  11.892 -1.0940 -1.6362  1.3426
  861MPD2     C12636   1.059   2.597  11.509  0.2886  0.1175 -0.0463
  861MPD2    C112637   0.945   2.527  11.546 -0.0917 -0.8365  0.4222
  861MPD2    C212638   0.844   2.521  11.452  0.6413 -0.0249  0.6603
  861MPD2    C312639   0.858   2.585  11.329 -0.3217 -0.6264 -0.1436
  861MPD2    C412640   0.979   2.637  11.290  0.8197 -0.1879 -0.0749
  861MPD2    C512641   1.080   2.640  11.380 -0.1734  0.2280  0.5629
  861MPD2     H12642   0.753   2.467  11.475  0.2292 -0.3804 -1.7349
  861MPD2    H112643   1.003   2.648  11.185  0.8871  0.2151 -0.0191
  861MPD2    H212644   1.140   2.618  11.577  0.4727 -1.0445  0.0920
  861MPD2    H312645   1.179   2.682  11.363 -0.5366  1.0065  0.3739
  861MPD2     N12646   0.757   2.599  11.233  0.0243 -0.1524  0.4667
  861MPD2    H512647   0.768   2.662  11.153 -0.7702 -1.9915 -1.0981
  861MPD2    N112648   0.929   2.471  11.675  0.3156 -0.0098  0.2264
  861MPD2    H712649   0.845   2.416  11.688 -0.5000  1.2872  0.4299
  862MPD2     C12650   0.534   2.672  10.567  0.7159  0.3633  0.5855
  862MPD2    C112651   0.626   2.638  10.660 -0.3734  0.2950 -0.6928
  862MPD2    C212652   0.718   2.544  10.625 -0.4861  0.1100  0.3456
  862MPD2    C312653   0.712   2.472  10.507 -0.1449 -0.8926 -0.4128
  862MPD2    C412654   0.624   2.506  10.410  0.0537 -0.0793  0.1183
  862MPD2    C512655   0.532   2.605  10.449  0.1547  0.3691  0.2089
  862MPD2     H12656   0.782   2.502  10.701 -3.5067 -1.5588  1.9513
  862MPD2    H112657   0.629   2.463  10.310 -0.0445  1.6754 -0.6513
  862MPD2    H212658   0.466   2.753  10.588 -0.1530  0.2038 -1.6372
  862MPD2    H312659   0.454   2.630  10.378  1.2490  0.9322 -0.7957
  862MPD2     N12660   0.780   2.353  10.486  0.2222 -0.3403  0.2795
  862MPD2    H512661   0.745   2.289  10.416  2.1223 -0.5669 -0.4693
  862MPD2    N112662   0.640   2.695  10.791 -0.6892  0.3255  0.4289
  862MPD2    H712663   0.714   2.668  10.855  1.2899 -1.2626 -2.5521
  863MPD2     C12664   0.313   0.909  16.607 -0.1453  0.6936  0.3994
  863MPD2    C112665   0.221   0.834  16.670 -0.2632 -0.0024 -0.5240
  863MPD2    C212666   0.221   0.841  16.808 -0.1126  0.6567  0.1230
  863MPD2    C312667   0.306   0.923  16.883 -0.5616 -0.4350 -0.8830
  863MPD2    C412668   0.374   1.018  16.814  0.4498 -0.0130  0.3015
  863MPD2    C512669   0.384   1.008  16.678 -0.3177  0.3156  0.1344
  863MPD2     H12670   0.157   0.770  16.859  1.4895  0.7292  2.2275
  863MPD2    H112671   0.455   1.073  16.861  0.9904  0.7113 -1.4923
  863MPD2    H212672   0.320   0.912  16.499 -0.0467  1.3812  0.4222
  863MPD2    H312673   0.463   1.062  16.626 -0.5497  1.5778  1.1067
  863MPD2     N12674   0.314   0.918  17.022  0.3151  0.0578 -0.2864
  863MPD2    H512675   0.366   0.993  17.067 -0.4396  0.0085  0.6859
  863MPD2    N112676   0.138   0.747  16.604  0.3663 -0.5601  0.3121
  863MPD2    H712677   0.153   0.729  16.505  2.9517  2.0227  0.2253
  864MPD2     C12678   0.076   1.973  17.403 -0.9049  0.4605  0.0137
  864MPD2    C112679   0.175   1.943  17.316 -0.2489  0.2978 -0.9379
  864MPD2    C212680   0.244   2.048  17.260  0.1235  0.1465  0.4658
  864MPD2    C312681   0.223   2.181  17.296  0.0940  1.2460 -0.2592
  864MPD2    C412682   0.128   2.205  17.388  0.2366  0.4469 -0.1785
  864MPD2    C512683   0.053   2.105  17.448  0.0660  0.0444 -0.6782
  864MPD2     H12684   0.318   2.030  17.183 -0.9073 -0.0539 -0.4636
  864MPD2    H112685   0.097   2.308  17.403 -2.1834 -0.5558  1.6210
  864MPD2    H212686   0.024   1.888  17.446 -0.4536  0.3438  0.3277
  864MPD2    H312687   4.694   2.131  17.512 -1.2338 -1.3597 -1.7940
  864MPD2     N12688   0.292   2.288  17.242  0.5120 -0.7402 -0.0671
  864MPD2    H512689   0.277   2.379  17.286  1.2437 -1.4480  1.6624
  864MPD2    N112690   0.212   1.808  17.305 -0.4468 -0.3651  0.4399
  864MPD2    H712691   0.157   1.738  17.353 -0.0107 -0.9126  0.1375
  865MPD2     C12692   0.440   2.646  16.367  0.6733 -0.3282 -0.3545
  865MPD2    C112693   0.434   2.532  16.439 -0.1690  0.0213  0.1041
  865MPD2    C212694   0.408   2.548  16.579  0.1069  0.3897 -0.0737
  865MPD2    C312695   0.367   2.675  16.634 -0.0466  1.0474 -0.4171
  865MPD2    C412696   0.367   2.785  16.551  0.5243 -0.0770  0.2063
  865MPD2    C512697   0.406   2.769  16.421  0.7555 -0.3238 -0.6550
  865MPD2     H12698   0.408   2.458  16.640  0.5870  1.3399  1.3001
  865MPD2    H112699   0.336   2.882  16.588  0.9531 -0.2343  0.9756
  865MPD2    H212700   0.464   2.641  16.261  0.6552 -1.2538 -0.3151
  865MPD2    H312701   0.404   2.851  16.349 -2.5524 -0.0925 -0.2774
  865MPD2     N12702   0.337   2.697  16.773  0.7181 -0.6066  0.2361
  865MPD2    H512703   0.355   2.792  16.804  0.5443 -0.4812 -0.0396
  865MPD2    N112704   0.459   2.409  16.372 -0.1112 -0.1939  0.1381
  865MPD2    H712705   0.492   2.422  16.276  1.9743  0.4098  0.9462
  866MPD2     C12706   1.591   3.429  11.629  0.3681  1.3890 -0.7481
  866MPD2    C112707   1.575   3.354  11.510 -0.7203 -0.4637 -0.2442
  866MPD2    C212708   1.457   3.299  11.474 -0.5657  0.2010 -0.3677
  866MPD2    C312709   1.352   3.299  11.563 -0.1836  0.4816 -0.0539
  866MPD2    C412710   1.369   3.358  11.686  0.2736  0.2799 -0.0006
  866MPD2    C512711   1.488   3.422  11.723 -0.5265  0.0143 -0.2863
  866MPD2     H12712   1.454   3.274  11.369 -0.8948  1.6677 -0.7098
  866MPD2    H112713   1.284   3.368  11.752 -0.2983  1.5357 -0.9321
  866MPD2    H212714   1.685   3.474  11.659  0.4632 -1.1573  2.7374
  866MPD2    H312715   1.501   3.473  11.817  0.3860 -0.8533  0.0551
  866MPD2     N12716   1.218   3.254  11.537  0.0222 -0.5325  0.5173
  866MPD2    H512717   1.158   3.247  11.619  1.6550 -3.0406  1.5033
  866MPD2    N112718   1.685   3.356  11.414 -0.3662  0.8557  0.1017
  866MPD2    H712719   1.769   3.401  11.450  0.5188 -0.2074 -0.6265
  867MPD2     C12720   4.000   1.613  16.193 -0.1284  0.1184 -0.2774
  867MPD2    C112721   4.094   1.667  16.277  0.0761  0.2258 -0.2027
  867MPD2    C212722   4.068   1.790  16.345 -0.0935 -0.6785 -0.5851
  867MPD2    C312723   3.953   1.857  16.320 -0.4342 -0.4148 -0.0993
  867MPD2    C412724   3.865   1.805  16.232 -0.1340 -0.5213  0.0877
  867MPD2    C512725   3.887   1.685  16.179 -0.1604 -0.1346 -0.1976
  867MPD2     H12726   4.145   1.844  16.399  1.5773 -3.0248 -0.6399
  867MPD2    H112727   3.775   1.858  16.202  0.1909  0.2839  0.5342
  867MPD2    H212728   4.011   1.515  16.147  1.4893 -0.6585  1.7583
  867MPD2    H312729   3.807   1.647  16.116 -0.4199  0.0476  0.0243
  867MPD2     N12730   3.916   1.981  16.371  0.0785 -0.7108  0.1081
  867MPD2    H512731   3.828   2.017  16.336 -0.1345  0.8768  2.2805
  867MPD2    N112732   4.206   1.584  16.289  0.3730 -0.7572 -1.0522
  867MPD2    H712733   4.184   1.491  16.253 -0.0028 -1.4531  0.9609
  868MPD2     C12734   0.391   1.028  13.236 -0.2466 -0.6454  0.3582
  868MPD2    C112735   0.489   1.056  13.334  0.1682  0.5198 -0.5134
  868MPD2    C212736   0.452   1.138  13.437  0.5547  0.2286 -0.3559
  868MPD2    C312737   0.326   1.199  13.445 -0.1774  0.1434 -0.3265
  868MPD2    C412738   0.239   1.184  13.340  0.0437  0.3839  0.1045
  868MPD2    C512739   0.265   1.088  13.241 -0.2612 -0.3254 -0.4099
  868MPD2     H12740   0.515   1.159  13.523 -1.0210  1.4456  0.5064
  868MPD2    H112741   0.149   1.244  13.335 -0.7683 -0.9127 -0.7279
  868MPD2    H212742   0.425   0.963  13.156  1.2632  0.8958 -0.2547
  868MPD2    H312743   0.203   1.081  13.152 -1.2770  1.4710  0.1664
  868MPD2     N12744   0.300   1.292  13.546  0.4158  0.2322  0.4371
  868MPD2    H512745   0.368   1.285  13.622  0.8868  0.1172  0.0051
  868MPD2    N112746   0.625   1.015  13.322  0.6338 -0.2956  0.3455
  868MPD2    H712747   0.656   0.957  13.245 -1.7900  0.4792 -1.1910
  869MPD2     C12748   2.628   0.335   2.461 -0.3962  0.1234  0.7304
  869MPD2    C112749   2.652   0.252   2.353 -0.2267 -0.0930  0.6340
  869MPD2    C212750   2.592   0.277   2.236  0.2453 -0.4932  0.3426
  869MPD2    C312751   2.490   0.367   2.221  0.0675 -0.0610  0.3026
  869MPD2    C412752   2.460   0.443   2.329 -0.1315 -0.2906 -0.0078
  869MPD2    C512753   2.534   0.436   2.443  0.1055 -0.1504 -0.0750
  869MPD2     H12754   2.596   0.197   2.163  0.3000 -0.4429  0.2901
  869MPD2    H112755   2.381   0.518   2.338 -0.3430 -0.5917  0.6340
  869MPD2    H212756   2.668   0.317   2.560  1.2622  1.0725  0.2334
  869MPD2    H312757   2.521   0.505   2.526  1.7332 -0.9944  0.8699
  869MPD2     N12758   2.415   0.372   2.106 -0.1670 -0.2223 -0.2625
  869MPD2    H512759   2.425   0.292   2.045 -0.0645 -0.3011 -0.1426
  869MPD2    N112760   2.743   0.145   2.377 -0.5537  0.1746 -0.4551
  869MPD2    H712761   2.770   0.124   2.473 -0.5562  2.3014  0.0194
  870MPD2     C12762   0.980   3.076   1.535  0.0130  1.0093  0.1937
  870MPD2    C112763   1.084   3.054   1.449 -0.1526 -0.0432  0.5424
  870MPD2    C212764   1.065   2.994   1.328 -0.2295 -0.5687  0.6950
  870MPD2    C312765   0.938   2.969   1.281  0.1790  0.0577  0.2920
  870MPD2    C412766   0.832   2.997   1.368  0.5618 -0.4704  0.2315
  870MPD2    C512767   0.850   3.050   1.494 -0.0298  0.4286 -0.0409
  870MPD2     H12768   1.150   2.987   1.261 -0.4569 -0.2274  0.3672
  870MPD2    H112769   0.729   2.978   1.341  1.0119 -1.6067 -0.6540
  870MPD2    H212770   0.995   3.109   1.638  1.0398 -3.2988  1.4212
  870MPD2    H312771   0.766   3.050   1.562 -0.7829 -1.4863 -0.9611
  870MPD2     N12772   0.922   2.908   1.153 -0.3659 -0.3352 -0.0812
  870MPD2    H512773   0.997   2.884   1.089  1.1881  1.8659  0.9279
  870MPD2    N112774   1.208   3.091   1.503 -0.0730 -0.0976 -0.2030
  870MPD2    H712775   1.204   3.119   1.600  1.0217  0.7180 -0.4053
  871MPD2     C12776   3.197   2.454  16.492 -0.5086  0.3501  0.4881
  871MPD2    C112777   3.095   2.395  16.564 -0.4015 -0.0882  0.5459
  871MPD2    C212778   3.040   2.282  16.507  0.0739  0.0216  0.2454
  871MPD2    C312779   3.075   2.230  16.382 -0.9250  0.4581  0.3932
  871MPD2    C412780   3.160   2.311  16.310  0.1613  0.8486  0.3861
  871MPD2    C512781   3.223   2.415  16.366  0.0103  0.1275 -0.3208
  871MPD2     H12782   2.957   2.230  16.554 -0.1618  0.1977  0.0276
  871MPD2    H112783   3.189   2.283  16.209  1.3413  2.1990  0.3415
  871MPD2    H212784   3.243   2.545  16.529 -1.1774  1.7653 -2.1119
  871MPD2    H312785   3.280   2.486  16.307  3.1285 -2.3891 -0.3520
  871MPD2     N12786   3.024   2.110  16.343  0.0319  0.5241 -0.1825
  871MPD2    H512787   2.971   2.064  16.417  1.1635 -1.0435 -0.3518
  871MPD2    N112788   3.058   2.465  16.684 -0.1748  0.1949  0.1102
  871MPD2    H712789   3.103   2.554  16.706 -1.8315  0.5267  2.1564
  872MPD2     C12790   3.753   0.507  13.670  1.0243  0.2697  0.1737
  872MPD2    C112791   3.776   0.573  13.791  0.7323  0.0609  0.0730
  872MPD2    C212792   3.710   0.526  13.899 -0.3578  0.0238 -0.5973
  872MPD2    C312793   3.628   0.421  13.895 -0.1292  0.0345  0.3130
  872MPD2    C412794   3.613   0.350  13.776 -0.1402  0.3184 -0.8633
  872MPD2    C512795   3.679   0.393  13.669 -0.1903  1.3401 -0.1936
  872MPD2     H12796   3.713   0.582  13.992  0.1490  1.7673 -1.6665
  872MPD2    H112797   3.557   0.257  13.774  0.3904 -0.1054  2.7094
  872MPD2    H212798   3.790   0.542  13.574  0.1600  0.3410 -0.1286
  872MPD2    H312799   3.667   0.344  13.573  1.1748  0.0769  0.2708
  872MPD2     N12800   3.572   0.375  14.014 -0.0130 -0.5552  0.2844
  872MPD2    H512801   3.626   0.403  14.095 -1.8268 -0.4397  1.4445
  872MPD2    N112802   3.855   0.689  13.806  0.1382 -0.0104  0.1631
  872MPD2    H712803   3.848   0.743  13.892 -1.6496  1.1742 -0.7081
  873MPD2     C12804   0.726   0.405   1.710  0.5177 -0.8560  0.3291
  873MPD2    C112805   0.594   0.431   1.717  0.5854  0.2202 -0.0602
  873MPD2    C212806   0.502   0.333   1.683  0.0528  0.1266 -0.4387
  873MPD2    C312807   0.553   0.209   1.648 -0.8603  0.1727  0.8898
  873MPD2    C412808   0.684   0.197   1.622  0.0431  0.3404  0.0429
  873MPD2    C512809   0.776   0.287   1.657 -0.3241 -0.5084 -0.8519
  873MPD2     H12810   0.397   0.348   1.709  0.7212  0.7794  1.8890
  873MPD2    H112811   0.727   0.102   1.590 -1.4421 -0.3440  0.0882
  873MPD2    H212812   0.797   0.483   1.738 -0.2359 -0.0229 -0.0608
  873MPD2    H312813   0.883   0.271   1.648  0.0379  0.3483  1.9610
  873MPD2     N12814   0.473   0.090   1.632  0.9646  0.7331 -0.8055
  873MPD2    H512815   0.510   0.002   1.598  1.3432 -0.2025  2.0730
  873MPD2    N112816   0.556   0.563   1.768  0.6547 -0.0018 -0.8801
  873MPD2    H712817   0.630   0.628   1.792 -1.2360  1.9157 -0.1255
  874MPD2     C12818   0.660   4.592  16.215 -0.0653  0.0947  0.6087
  874MPD2    C112819   0.694   4.628  16.340  0.6300  0.4719 -0.2734
  874MPD2    C212820   0.794   0.000  16.363  0.4136  0.2340  0.2085
  874MPD2    C312821   0.861   0.053  16.256 -0.4380 -0.1143 -0.4640
  874MPD2    C412822   0.826   0.022  16.125  0.0037 -0.3163 -0.1651
  874MPD2    C512823   0.726   4.655  16.105 -0.2736  0.0641  0.2325
  874MPD2     H12824   0.824   0.033  16.462 -1.9009 -0.0860  1.0058
  874MPD2    H112825   0.871   0.065  16.037  2.1098 -1.1779  0.4910
  874MPD2    H212826   0.581   4.518  16.204 -1.6886  1.8553  0.4200
  874MPD2    H312827   0.693   4.638  16.003  0.2224  1.4463 -0.1598
  874MPD2     N12828   0.965   0.141  16.295  0.4663  0.3783 -1.0843
  874MPD2    H512829   0.981   0.151  16.394 -2.0415  0.1269 -0.6551
  874MPD2    N112830   0.634   4.563  16.449  0.1149 -0.4141  0.5143
  874MPD2    H712831   0.561   4.498  16.424  1.3662 -1.7823  0.4099
  875MPD2     C12832   1.444   3.612  14.199  0.1156  0.2322 -0.2369
  875MPD2    C112833   1.311   3.582  14.237 -0.6557 -0.2807 -0.0807
  875MPD2    C212834   1.283   3.568  14.375  0.8585  0.3876  0.4372
  875MPD2    C312835   1.380   3.577  14.472  0.3614  0.7295  0.3024
  875MPD2    C412836   1.502   3.623  14.419  0.1197  0.1643 -0.4663
  875MPD2    C512837   1.539   3.614  14.290  0.5623 -0.0590 -0.0200
  875MPD2     H12838   1.180   3.542  14.398  0.7678  0.9241  0.6131
  875MPD2    H112839   1.590   3.647  14.478 -0.4108 -0.8045  0.7187
  875MPD2    H212840   1.480   3.616  14.097  0.0394 -1.3619 -0.3286
  875MPD2    H312841   1.635   3.651  14.255  1.0564 -1.8377 -0.5596
  875MPD2     N12842   1.366   3.557  14.613  1.2276  0.3662 -0.7787
  875MPD2    H512843   1.450   3.578  14.666 -0.3105  3.4961  0.4225
  875MPD2    N112844   1.204   3.574  14.140  0.8426 -0.2256  0.8354
  875MPD2    H712845   1.117   3.541  14.179 -0.0992  1.8048  0.4493
  876MPD2     C12846   0.738   4.416  15.846  0.0728 -0.3552 -0.0322
  876MPD2    C112847   0.636   4.375  15.772  0.4199 -0.2196 -0.9925
  876MPD2    C212848   0.562   4.275  15.819 -0.5675 -0.5095  0.2134
  876MPD2    C312849   0.582   4.211  15.942  0.3095  0.4072  0.0882
  876MPD2    C412850   0.693   4.249  16.012  0.5330 -0.4222 -1.0116
  876MPD2    C512851   0.773   4.349  15.959 -0.3736  0.1627  0.3700
  876MPD2     H12852   0.483   4.230  15.760 -0.6479 -2.0759  1.5143
  876MPD2    H112853   0.722   4.209  16.109  0.5133  1.5456 -0.1952
  876MPD2    H212854   0.781   4.514  15.831  4.1341 -1.8466  1.7627
  876MPD2    H312855   0.838   4.396  16.032  0.0956  0.7212 -0.4086
  876MPD2     N12856   0.491   4.113  15.996  0.4887 -0.2888  0.1855
  876MPD2    H512857   0.402   4.110  15.946  0.6748  0.3218 -0.1918
  876MPD2    N112858   0.606   4.444  15.648  0.3772 -0.2895 -0.1112
  876MPD2    H712859   0.674   4.516  15.626  0.2678  0.5479  2.3052
  877MPD2     C12860   0.057   4.686  15.027 -0.3379  0.0550 -0.1971
  877MPD2    C112861   0.188   0.011  15.023 -0.2565  0.7654  0.7720
  877MPD2    C212862   0.234   0.065  14.904 -0.3391  1.4431  0.3714
  877MPD2    C312863   0.154   0.071  14.790 -0.0779 -0.4039  0.0632
  877MPD2    C412864   0.029   0.007  14.795 -1.1081 -0.4849  0.0848
  877MPD2    C512865   4.708   4.676  14.911  0.0624 -0.4704  0.0358
  877MPD2     H12866   0.334   0.108  14.900  0.0928  0.3567 -0.5512
  877MPD2    H112867   4.695   0.001  14.704  1.4448  1.5816 -1.7004
  877MPD2    H212868   0.008   4.672  15.122  0.5212  1.6279  0.4798
  877MPD2    H312869   4.609   4.633  14.899  0.1220 -0.8544  0.9148
  877MPD2     N12870   0.194   0.122  14.665 -0.1888  0.6951  0.5375
  877MPD2    H512871   0.127   0.119  14.589 -0.1160 -1.4714  0.5402
  877MPD2    N112872   0.274   0.010  15.133 -0.5415 -0.3333 -0.0306
  877MPD2    H712873   0.365   0.052  15.120 -1.1133  1.0078  0.2087
  878MPD2     C12874   0.659   0.135  12.838  0.8632  1.2293 -0.4255
  878MPD2    C112875   0.525   0.147  12.825  0.2135 -0.1412  0.5099
  878MPD2    C212876   0.461   0.262  12.872 -0.3734 -0.5349 -0.0379
  878MPD2    C312877   0.523   0.341  12.969  0.3301  0.5704 -0.1092
  878MPD2    C412878   0.658   0.328  12.986  0.0790  0.3689  0.5913
  878MPD2    C512879   0.717   0.221  12.924 -0.3793  0.7530  0.0596
  878MPD2     H12880   0.354   0.255  12.863 -0.4403 -0.6060  0.7837
  878MPD2    H112881   0.715   0.376  13.066  1.4624 -0.3438  0.0347
  878MPD2    H212882   0.720   0.060  12.789  1.3342  2.6642 -2.0337
  878MPD2    H312883   0.819   0.214  12.959 -0.4710 -0.3055  0.1168
  878MPD2     N12884   0.437   0.425  13.051 -0.1142  0.4590 -0.3228
  878MPD2    H512885   0.484   0.468  13.130  1.4266  0.0001 -0.9798
  878MPD2    N112886   0.457   0.059  12.739 -0.2132 -0.0674 -0.7233
  878MPD2    H712887   0.510   4.702  12.708 -1.0852 -0.3917 -1.3505
  879MPD2     C12888   0.464   0.895   0.089  0.7463 -0.5922 -0.1399
  879MPD2    C112889   0.507   0.898  17.656  0.5507 -0.8528  0.1992
  879MPD2    C212890   0.481   0.785  17.582 -0.2835 -0.4362 -0.0518
  879MPD2    C312891   0.410   0.677  17.630  0.5326 -0.6088  0.4458
  879MPD2    C412892   0.359   0.680   0.061 -0.6136 -0.3672  0.0149
  879MPD2    C512893   0.395   0.788   0.132  0.3469  0.1147  0.3061
  879MPD2     H12894   0.517   0.777  17.480  0.5118  3.8002 -0.1339
  879MPD2    H112895   0.299   0.605   0.111 -0.9641  0.4059  0.7632
  879MPD2    H212896   0.476   0.976   0.160 -1.3949  0.0460 -0.5074
  879MPD2    H312897   0.348   0.797   0.229  1.9729 -0.4139  1.1555
  879MPD2     N12898   0.381   0.565  17.547 -0.5572 -0.4537 -0.1300
  879MPD2    H512899   0.314   0.500  17.589 -0.2555  0.0334  1.1031
  879MPD2    N112900   0.566   1.014  17.600  0.2084  0.0787 -0.3722
  879MPD2    H712901   0.583   1.086  17.670  1.0325  0.7432 -1.2611
  880MPD2     C12902   1.520   2.878   0.983 -0.0901 -0.7559 -0.0094
  880MPD2    C112903   1.649   2.908   0.951 -0.4996  0.4301  0.2677
  880MPD2    C212904   1.731   2.941   1.056 -0.2359  0.2595 -0.9474
  880MPD2    C312905   1.683   2.945   1.184 -0.5469  0.1327  0.0405
  880MPD2    C412906   1.547   2.925   1.212  0.6915 -0.2465  0.1135
  880MPD2    C512907   1.466   2.892   1.110 -0.3829  0.7384  0.9238
  880MPD2     H12908   1.834   2.969   1.039 -0.7206  1.4080 -1.9190
  880MPD2    H112909   1.507   2.930   1.313  0.8979 -0.8821  0.2239
  880MPD2    H212910   1.456   2.841   0.904  0.6765  0.1188 -1.0307
  880MPD2    H312911   1.362   2.868   1.130 -0.2936 -1.7906 -1.6069
  880MPD2     N12912   1.775   2.975   1.287 -0.0913  0.8666 -0.6077
  880MPD2    H512913   1.873   2.968   1.261 -0.7023 -2.8963 -1.8478
  880MPD2    N112914   1.691   2.883   0.818  0.1037 -0.2974  0.0378
  880MPD2    H712915   1.617   2.846   0.759  0.2643  1.0715 -1.0339
  881MPD2     C12916   2.126   3.285   0.005 -0.1274 -0.1852 -0.1241
  881MPD2    C112917   2.072   3.162  17.664 -0.7800  0.5286  0.0628
  881MPD2    C212918   2.032   3.071   0.070  1.0080  0.2925  0.0692
  881MPD2    C312919   2.022   3.110   0.210 -0.1489 -0.4935 -0.3450
  881MPD2    C412920   2.059   3.235   0.234  0.6282 -0.3418  0.3609
  881MPD2    C512921   2.119   3.315   0.139 -1.6788  0.3329  0.3468
  881MPD2     H12922   2.005   2.970   0.043 -1.9021  0.7250  1.3559
  881MPD2    H112923   2.035   3.272   0.333  0.1451 -2.1177  0.9272
  881MPD2    H212924   2.154   3.356  17.626 -0.8421 -0.6612 -0.8143
  881MPD2    H312925   2.144   3.414   0.174 -0.6924  0.4407 -0.6557
  881MPD2     N12926   1.981   3.026   0.321 -0.2806 -0.0779  0.0178
  881MPD2    H512927   1.981   3.068   0.414  3.5276  0.1152 -0.0408
  881MPD2    N112928   2.097   3.125  17.533  0.1021 -0.0931  0.3967
  881MPD2    H712929   2.140   3.198  17.476 -2.8387 -0.1609 -1.9040
  882MPD2     C12930   0.262   0.614  13.940  0.1334 -0.9223 -0.2759
  882MPD2    C112931   0.176   0.557  14.029 -0.7072  0.0015 -0.1190
  882MPD2    C212932   0.045   0.575  14.019 -0.4209 -0.2415 -0.4280
  882MPD2    C312933   4.711   0.643  13.911 -0.2705  0.0478 -0.7073
  882MPD2    C412934   0.072   0.699  13.816  0.4163 -0.8333 -0.3462
  882MPD2    C512935   0.206   0.682  13.840 -0.1295 -0.1510  0.3537
  882MPD2     H12936   4.711   0.536  14.102  0.2408 -1.9942 -0.7771
  882MPD2    H112937   0.040   0.749  13.725 -1.0366  2.8579  2.1550
  882MPD2    H212938   0.366   0.587  13.946 -0.1151 -1.8989 -0.2700
  882MPD2    H312939   0.272   0.698  13.755  1.0381 -1.2509  1.0605
  882MPD2     N12940   4.569   0.651  13.888 -0.1738 -0.0471 -0.2059
  882MPD2    H512941   4.530   0.690  13.803 -0.9795 -2.1070 -0.7862
  882MPD2    N112942   0.231   0.476  14.133  0.2493  0.3714 -0.2537
  882MPD2    H712943   0.331   0.479  14.149  0.4122  0.5758 -1.3277
  883MPD2     C12944   2.158   0.108  16.171  0.3969 -0.1985 -0.2863
  883MPD2    C112945   2.241   0.133  16.062 -0.2448  0.0552 -0.0235
  883MPD2    C212946   2.381   0.126  16.088 -0.6407 -0.2831 -0.1502
  883MPD2    C312947   2.431   0.083  16.210 -0.4638 -0.4747  0.5255
  883MPD2    C412948   2.347   0.058  16.316  0.8216  0.4995  0.2816
  883MPD2    C512949   2.211   0.068  16.293  0.5900  1.1350  0.3310
  883MPD2     H12950   2.446   0.154  16.007 -0.5653 -0.4174 -0.1369
  883MPD2    H112951   2.383   0.029  16.414  0.7188  2.2188  0.8238
  883MPD2    H212952   2.051   0.106  16.152  1.1081  2.9272 -4.5920
  883MPD2    H312953   2.139   0.049  16.372  1.1673  1.6177  0.9791
  883MPD2     N12954   2.569   0.095  16.221 -0.5352 -0.1670  0.2685
  883MPD2    H512955   2.625   0.092  16.136  0.1672 -0.4924  0.7343
  883MPD2    N112956   2.192   0.153  15.929  0.1686  0.5480 -0.2957
  883MPD2    H712957   2.269   0.177  15.867  1.5655 -0.7664  0.9290
  884MPD2     C12958   4.283   0.553  15.662  0.2141  0.0416  0.1030
  884MPD2    C112959   4.288   0.680  15.608  0.2499  0.9113  0.2844
  884MPD2    C212960   4.173   0.737  15.551  0.0299  0.5293 -0.0715
  884MPD2    C312961   4.051   0.667  15.549 -0.5605 -0.5452  0.2274
  884MPD2    C412962   4.045   0.545  15.617  0.4438  0.0617  0.0932
  884MPD2    C512963   4.163   0.485  15.665  0.0283  0.7986  0.9183
  884MPD2     H12964   4.185   0.835  15.506  0.6258  0.4793 -0.0209
  884MPD2    H112965   3.955   0.485  15.623 -0.2363  1.0731  0.2199
  884MPD2    H212966   4.365   0.497  15.704 -0.7952  0.3758  2.4845
  884MPD2    H312967   4.163   0.393  15.722  0.7413  0.8017  0.9266
  884MPD2     N12968   3.940   0.732  15.485 -0.6957 -0.6413 -0.7487
  884MPD2    H512969   3.970   0.822  15.448  1.1678 -0.6972  0.6433
  884MPD2    N112970   4.404   0.758  15.611  0.0321  0.1086 -0.3553
  884MPD2    H712971   4.403   0.846  15.561 -2.3651  0.8092  0.9563
  885MPD2     C12972   2.272   0.935   0.339 -0.7169 -0.2303 -0.3476
  885MPD2    C112973   2.405   0.957   0.352  0.0066  0.3217 -0.2308
  885MPD2    C212974   2.490   0.921   0.246  0.5457  1.0056  1.6960
  885MPD2    C312975   2.442   0.898   0.123  0.6814  0.3022 -0.8149
  885MPD2    C412976   2.305   0.879   0.102 -0.7727  0.3358 -0.0579
  885MPD2    C512977   2.224   0.896   0.216 -0.1707 -0.2042 -0.2641
  885MPD2     H12978   2.597   0.939   0.250  0.4825  1.2662  2.3801
  885MPD2    H112979   2.266   0.855   0.004  1.1266  1.4726 -1.0773
  885MPD2    H212980   2.213   0.939   0.429 -2.1418 -1.1057 -1.2412
  885MPD2    H312981   2.119   0.870   0.208 -0.4641  1.1654 -0.8150
  885MPD2     N12982   2.539   0.892   0.017 -0.4524  0.1195 -0.0555
  885MPD2    H512983   2.633   0.915   0.047  0.2264  0.3636 -2.3321
  885MPD2    N112984   2.452   1.005   0.479 -0.1366 -0.2668 -0.0639
  885MPD2    H712985   2.380   1.034   0.544  1.1042  2.5179  0.0917
  886MPD2     C12986   3.845   4.258  15.662 -0.1158 -0.3044  0.4041
  886MPD2    C112987   3.860   4.214  15.528 -0.3183  0.7195  0.4835
  886MPD2    C212988   3.864   4.309  15.425  0.9179  0.0406  0.7922
  886MPD2    C312989   3.869   4.446  15.454 -0.3279  0.5876 -0.8270
  886MPD2    C412990   3.846   4.478  15.581 -0.6489 -0.5143 -0.7022
  886MPD2    C512991   3.828   4.393  15.681 -0.1071 -0.5600 -0.0891
  886MPD2     H12992   3.885   4.283  15.322 -1.6242 -2.4739  0.9305
  886MPD2    H112993   3.856   4.579  15.618 -0.4456 -0.7950  0.0086
  886MPD2    H212994   3.804   4.190  15.736  0.9677 -0.4838  0.8368
  886MPD2    H312995   3.800   4.435  15.777  1.5118 -1.6141  0.8385
  886MPD2     N12996   3.882   4.545  15.357 -0.3601 -0.8854 -0.1049
  886MPD2    H512997   3.914   4.638  15.385 -0.1138 -0.9242 -0.2587
  886MPD2    N112998   3.883   4.071  15.504 -0.2588  0.2103  0.8657
  886MPD2    H712999   3.896   4.039  15.409  0.2869  0.1448  0.9608
  887MPD2     C13000   4.411   3.896  15.234 -0.2046  0.6618  0.7946
  887MPD2    C113001   4.306   3.949  15.309  0.2110 -0.2292  0.6025
  887MPD2    C213002   4.322   4.077  15.359  0.1797 -1.0087 -0.2927
  887MPD2    C313003   4.443   4.146  15.336  0.2686  0.1266 -0.5593
  887MPD2    C413004   4.549   4.086  15.271  0.4135 -0.8659  0.2064
  887MPD2    C513005   4.534   3.962  15.219  0.1636 -0.0616  0.1570
  887MPD2     H13006   4.240   4.123  15.414  0.9130  0.7723 -0.6712
  887MPD2    H113007   4.651   4.118  15.253  0.6556  0.2363  3.7035
  887MPD2    H213008   4.401   3.791  15.206 -0.0678  0.5455  1.1766
  887MPD2    H313009   4.621   3.917  15.172  1.0256  0.1761  1.5094
  887MPD2     N13010   4.467   4.273  15.397  0.7097  0.1233  0.1119
  887MPD2    H513011   4.566   4.297  15.407  1.5385 -3.0295 -0.8046
  887MPD2    N113012   4.201   3.872  15.359  0.2547 -0.2368  0.0047
  887MPD2    H713013   4.121   3.922  15.399 -0.4530  1.1412 -3.0961
  888MPD2     C13014   1.235   4.226  14.968  0.4758  0.0537  0.7509
  888MPD2    C113015   1.173   4.260  15.085  0.0702  0.4280  0.5902
  888MPD2    C213016   1.201   4.387  15.142 -0.3544 -0.7977 -0.3145
  888MPD2    C313017   1.282   4.479  15.075 -0.1007  0.2619 -0.1941
  888MPD2    C413018   1.350   4.434  14.963 -0.1991  0.0383  0.2883
  888MPD2    C513019   1.323   4.312  14.907 -0.3900  0.1805 -0.9855
  888MPD2     H13020   1.154   4.429  15.230  0.1272 -0.2770 -0.3074
  888MPD2    H113021   1.421   4.497  14.911 -0.2308 -0.2802 -0.1411
  888MPD2    H213022   1.246   4.125  14.931 -0.9142  0.5708 -1.0581
  888MPD2    H313023   1.370   4.280  14.815 -0.0420 -0.9513 -0.4058
  888MPD2     N13024   1.305   4.607  15.135  0.8569 -0.3502 -0.0336
  888MPD2    H513025   1.257   4.625  15.223  0.1441 -0.5453 -0.3870
  888MPD2    N113026   1.090   4.180  15.156  0.4784  0.1521  0.2891
  888MPD2    H713027   1.060   4.203  15.250 -2.1611 -1.6721 -0.1164
  889MPD2     C13028   0.469   4.201  13.091 -0.6196  0.5429  0.3788
  889MPD2    C113029   0.590   4.178  13.153  0.0329  0.5876  0.0798
  889MPD2    C213030   0.669   4.293  13.167  0.1987  1.0606  0.3817
  889MPD2    C313031   0.625   4.425  13.139 -0.2697  0.6325  0.1438
  889MPD2    C413032   0.513   4.435  13.063  0.0688 -0.3382 -0.1992
  889MPD2    C513033   0.436   4.323  13.038  0.2072  0.7690  0.0816
  889MPD2     H13034   0.759   4.277  13.226  0.8164  1.7363 -0.3639
  889MPD2    H113035   0.473   4.527  13.022  1.2387  0.4270  0.3911
  889MPD2    H213036   0.416   4.115  13.051 -1.0025 -0.0110  2.0357
  889MPD2    H313037   0.352   4.324  12.969 -0.2873 -2.4394  0.6453
  889MPD2     N13038   0.702   4.535  13.183  0.6122  0.2409  0.3961
  889MPD2    H513039   0.788   4.521  13.235 -1.2631 -1.5134  3.0897
  889MPD2    N113040   0.625   4.050  13.207  0.9670 -0.6797  0.2481
  889MPD2    H713041   0.720   4.036  13.241  1.1719 -3.0291 -1.3159
  890MPD2     C13042   0.263   0.790  15.057 -0.8171 -0.6392 -0.0253
  890MPD2    C113043   0.352   0.847  15.146  0.0040  0.7482  0.1587
  890MPD2    C213044   0.416   0.777  15.248  0.3478  0.5796 -0.0302
  890MPD2    C313045   0.382   0.638  15.258 -0.1721  0.4084  0.5528
  890MPD2    C413046   0.302   0.583  15.160 -0.0380 -0.6022  0.5666
  890MPD2    C513047   0.246   0.659  15.066 -0.6193 -0.1229 -0.2296
  890MPD2     H13048   0.488   0.822  15.315 -0.1732  1.8691 -0.3248
  890MPD2    H113049   0.280   0.476  15.161  2.4115 -1.1287 -2.3553
  890MPD2    H213050   0.221   0.848  14.977 -0.7826  1.6699  1.6286
  890MPD2    H313051   0.183   0.615  14.989  1.7766 -2.7552 -0.7131
  890MPD2     N13052   0.449   0.558  15.350  0.1642 -0.0515 -0.2830
  890MPD2    H513053   0.522   0.610  15.398  0.6551 -0.6120 -0.4308
  890MPD2    N113054   0.369   0.985  15.129  0.4220  0.5127 -0.3468
  890MPD2    H713055   0.309   1.031  15.062 -0.7016 -0.3479  0.0658
  891MPD2     C13056   3.231   4.205  16.560 -0.3948 -1.0249  0.0469
  891MPD2    C113057   3.158   4.257  16.665 -0.1029 -0.4928  0.4366
  891MPD2    C213058   3.188   4.224  16.798  0.0177 -0.2054 -0.4343
  891MPD2    C313059   3.300   4.147  16.823 -0.1318  0.2281  0.1763
  891MPD2    C413060   3.377   4.101  16.718  0.6487  0.2014  0.2164
  891MPD2    C513061   3.343   4.133  16.589  0.5755  0.2119  0.6722
  891MPD2     H13062   3.129   4.253  16.884  1.5706 -0.1960  0.6285
  891MPD2    H113063   3.464   4.038  16.729  0.9216  0.7401  1.1143
  891MPD2    H213064   3.214   4.234  16.457 -1.6010 -0.0593  0.5142
  891MPD2    H313065   3.409   4.117  16.505  1.1916  1.2349  0.9647
  891MPD2     N13066   3.333   4.125  16.957  0.0892 -0.4234  0.1774
  891MPD2    H513067   3.263   4.152  17.025  0.9497  0.9948  0.5124
  891MPD2    N113068   3.044   4.333  16.632  0.0820 -0.8787  0.2254
  891MPD2    H713069   3.035   4.366  16.537  0.5097 -1.3558  0.0227
  892MPD2     C13070   4.171   0.621  14.671 -0.4907 -0.9603  1.0200
  892MPD2    C113071   4.057   0.650  14.611 -0.1573 -0.3859 -0.0857
  892MPD2    C213072   4.056   0.642  14.473 -0.2077 -0.4212  0.4744
  892MPD2    C313073   4.172   0.627  14.402 -0.2009 -0.0956 -0.2564
  892MPD2    C413074   4.290   0.625  14.460  0.3911 -0.2366  0.8765
  892MPD2    C513075   4.285   0.618  14.596  0.2316  0.4753  0.6118
  892MPD2     H13076   3.959   0.658  14.428  0.0744 -1.3488 -0.4617
  892MPD2    H113077   4.384   0.614  14.407  0.4224 -1.0206  1.0987
  892MPD2    H213078   4.189   0.618  14.778 -4.7278  1.0631  1.7971
  892MPD2    H313079   4.381   0.610  14.644  0.2192  1.5007  0.8011
  892MPD2     N13080   4.182   0.622  14.257 -0.3346  0.7975 -0.6695
  892MPD2    H513081   4.277   0.614  14.220 -0.2528  2.9452 -0.8840
  892MPD2    N113082   3.935   0.662  14.677  0.4208 -0.1337 -0.1483
  892MPD2    H713083   3.852   0.674  14.620  0.7588  0.8644 -0.4322
  893MPD2     C13084   2.210   4.136   1.566 -0.1917 -0.1137  0.8209
  893MPD2    C113085   2.281   4.092   1.456 -0.2157 -0.4425 -0.1148
  893MPD2    C213086   2.219   4.013   1.359  0.1415 -0.5161  0.8196
  893MPD2    C313087   2.087   3.970   1.376  0.1556 -0.3999 -0.3649
  893MPD2    C413088   2.023   4.012   1.492 -0.5196  0.0624  0.1773
  893MPD2    C513089   2.084   4.092   1.583  0.0418 -0.4737  0.9915
  893MPD2     H13090   2.288   3.978   1.283  2.0074  2.0737  1.3055
  893MPD2    H113091   1.918   3.990   1.507 -0.6083  1.1958  1.1747
  893MPD2    H213092   2.249   4.204   1.641  1.2299  0.0731 -0.0906
  893MPD2    H313093   2.029   4.123   1.672  0.7777 -1.2984  1.7375
  893MPD2     N13094   2.014   3.901   1.279  0.4186 -0.0983 -0.7340
  893MPD2    H513095   1.920   3.878   1.311  0.3735 -0.0541 -0.8369
  893MPD2    N113096   2.415   4.139   1.448  0.2654 -0.3876 -0.2627
  893MPD2    H713097   2.444   4.206   1.519 -0.5688 -0.1767 -0.1243
  894MPD2     C13098   3.074   1.509   0.823  0.1595  0.2110  0.9956
  894MPD2    C113099   3.142   1.428   0.915 -0.0678  0.6035 -0.0728
  894MPD2    C213100   3.279   1.424   0.915 -0.0944  0.3470 -0.7102
  894MPD2    C313101   3.357   1.504   0.832 -0.7629  0.4978  0.0528
  894MPD2    C413102   3.289   1.582   0.735  0.2019 -0.4649  0.0028
  894MPD2    C513103   3.150   1.582   0.730  0.0542 -0.0591 -0.7709
  894MPD2     H13104   3.326   1.387   1.005 -0.4025 -1.8809 -1.4761
  894MPD2    H113105   3.341   1.647   0.666 -0.9877  1.4427  0.9223
  894MPD2    H213106   2.966   1.506   0.814  0.0174 -0.6991  3.0125
  894MPD2    H313107   3.096   1.641   0.657  0.4782 -0.2458 -1.2389
  894MPD2     N13108   3.497   1.494   0.851  0.2953  0.0614  0.4672
  894MPD2    H513109   3.535   1.416   0.904 -1.8326  0.2445  2.2595
  894MPD2    N113110   3.071   1.352   1.004 -0.3215  0.2980  0.4164
  894MPD2    H713111   3.130   1.300   1.068  0.0586  1.3888  0.9530
  895MPD2     C13112   2.980   4.358  13.558 -0.0548 -0.6331 -0.3044
  895MPD2    C113113   3.117   4.386  13.554 -1.2500  0.4350 -0.2129
  895MPD2    C213114   3.189   4.303  13.466 -0.0537  0.2002 -0.1189
  895MPD2    C313115   3.120   4.223  13.380  0.1350  0.1983 -0.0832
  895MPD2    C413116   2.987   4.204  13.386  0.1285  0.3437 -0.1617
  895MPD2    C513117   2.914   4.268  13.477 -0.6778  0.0020  0.9017
  895MPD2     H13118   3.296   4.312  13.451  0.1641 -0.7144  0.8689
  895MPD2    H113119   2.926   4.142  13.321 -0.4834  2.0474 -1.2364
  895MPD2    H213120   2.923   4.419  13.627 -0.8237 -0.5317 -1.0374
  895MPD2    H313121   2.807   4.255  13.474 -0.6909 -0.1406  1.8400
  895MPD2     N13122   3.180   4.163  13.263  0.2325  0.3249  0.4348
  895MPD2    H513123   3.120   4.109  13.201  1.7494 -0.1754 -0.6001
  895MPD2    N113124   3.175   4.464  13.648 -0.0183  0.7614  0.2714
  895MPD2    H713125   3.122   4.548  13.670  0.5329  0.9815  0.7601
  896MPD2     C13126   0.817   2.323   1.705  0.0359 -0.2103  0.6035
  896MPD2    C113127   0.889   2.276   1.593 -0.2227 -0.0794  0.3309
  896MPD2    C213128   0.814   2.232   1.484  0.7821 -0.5687 -0.4951
  896MPD2    C313129   0.675   2.242   1.492 -0.2170 -0.4693  0.4646
  896MPD2    C413130   0.617   2.280   1.612  0.1160 -0.2395 -0.1652
  896MPD2    C513131   0.685   2.324   1.720  0.1283 -0.3323 -0.4316
  896MPD2     H13132   0.853   2.197   1.389  0.0617  1.1547 -1.4379
  896MPD2    H113133   0.509   2.276   1.617  0.1938 -0.8197  1.1072
  896MPD2    H213134   0.871   2.373   1.785 -0.4715 -0.4206  1.0694
  896MPD2    H313135   0.648   2.351   1.818 -0.4809 -0.1440 -0.7152
  896MPD2     N13136   0.595   2.194   1.384  0.3527 -0.3019 -0.3460
  896MPD2    H513137   0.649   2.149   1.310  0.7872 -0.5035  0.0933
  896MPD2    N113138   1.035   2.285   1.593 -0.9129  0.6409  0.5521
  896MPD2    H713139   1.082   2.300   1.681 -1.5251 -0.8076  1.1077
  897MPD2     C13140   1.998   3.587  10.979  0.1157 -0.0638 -0.7615
  897MPD2    C113141   1.891   3.508  10.942 -0.3792 -0.0710 -0.1324
  897MPD2    C213142   1.778   3.516  11.019  0.8536 -0.4385 -0.1912
  897MPD2    C313143   1.760   3.607  11.116 -0.5783  0.1808  0.1685
  897MPD2    C413144   1.868   3.682  11.156 -0.7539 -0.5494  0.2808
  897MPD2    C513145   1.987   3.667  11.089  0.3698 -0.2449 -0.1335
  897MPD2     H13146   1.695   3.459  10.980  2.5645 -2.4417 -0.8872
  897MPD2    H113147   1.867   3.758  11.234  1.2566  3.6676 -3.7584
  897MPD2    H213148   2.091   3.589  10.924 -0.6271  2.2232 -1.9553
  897MPD2    H313149   2.068   3.738  11.102  0.1540 -0.0353  0.0740
  897MPD2     N13150   1.628   3.616  11.167  0.1476  0.8828 -0.3298
  897MPD2    H513151   1.549   3.574  11.120  1.3784 -2.8158  0.8624
  897MPD2    N113152   1.894   3.445  10.820  0.1178 -0.3390 -0.1632
  897MPD2    H713153   1.943   3.489  10.743  1.2231 -1.2484  0.0345
  898MPD2     C13154   0.131   3.931   0.123 -0.0164 -0.5159  0.0295
  898MPD2    C113155   0.047   4.035   0.145  0.5759 -0.7207  0.4818
  898MPD2    C213156   0.049   4.138   0.051 -0.0233 -0.2139  0.2330
  898MPD2    C313157   0.138   4.136  17.643 -0.0894  0.2884  0.0641
  898MPD2    C413158   0.230   4.035  17.631  0.1805  0.9084 -0.1598
  898MPD2    C513159   0.226   3.933   0.021  0.4916 -0.0308  0.7945
  898MPD2     H13160   4.714   4.227   0.063  1.6156  0.6562  1.9737
  898MPD2    H113161   0.313   4.039  17.561  0.5780 -0.2000  0.2473
  898MPD2    H213162   0.132   3.845   0.189 -1.3242  0.9498  1.9819
  898MPD2    H313163   0.308   3.863   0.012  1.4554  1.1322  0.4882
  898MPD2     N13164   0.128   4.241  17.552  0.6177 -0.4589 -0.7604
  898MPD2    H513165   0.048   4.301  17.565  2.0557  1.6296 -1.5769
  898MPD2    N113166   4.674   4.045   0.247 -0.0774 -0.6936  0.1730
  898MPD2    H713167   4.621   4.131   0.254 -1.7994 -1.8730  1.4457
  899MPD2     C13168   4.487   0.503  17.326 -1.0756  0.0984 -1.2237
  899MPD2    C113169   4.537   0.570  17.433 -0.2633 -0.1487  0.1117
  899MPD2    C213170   4.479   0.557  17.559  0.6253 -0.2940  0.3141
  899MPD2    C313171   4.357   0.497  17.573 -0.4203 -0.4561  0.1353
  899MPD2    C413172   4.307   0.434  17.466  0.2666  0.3122 -0.2809
  899MPD2    C513173   4.374   0.430  17.346  1.0491  0.4015 -0.7320
  899MPD2     H13174   4.525   0.602  17.647 -0.9692  0.7212  0.6313
  899MPD2    H113175   4.213   0.382  17.476  1.0058 -0.7183  1.2339
  899MPD2    H213176   4.536   0.500  17.230  0.9876 -0.6487 -0.1360
  899MPD2    H313177   4.325   0.381  17.262  0.5492 -1.0435  0.4056
  899MPD2     N13178   4.287   0.489  17.697 -0.3734 -0.3316 -0.0129
  899MPD2    H513179   4.193   0.452  17.683 -1.4501  2.2039  0.5099
  899MPD2    N113180   4.660   0.646  17.413 -0.2666  0.2359 -0.5149
  899MPD2    H713181   4.685   0.656  17.315 -1.0829  0.0114 -0.7529
  900MPD2     C13182   4.032   2.080  12.577 -0.5195 -0.5744 -0.1931
  900MPD2    C113183   3.939   1.986  12.544  0.1525  0.5669  0.1235
  900MPD2    C213184   3.834   2.032  12.460  0.5059 -0.4106  0.0361
  900MPD2    C313185   3.809   2.163  12.433  0.2906 -0.0833  0.6862
  900MPD2    C413186   3.906   2.252  12.477  0.1649  0.1884 -0.3326
  900MPD2    C513187   4.010   2.208  12.551  0.3022 -0.7071 -0.4463
  900MPD2     H13188   3.767   1.955  12.426 -0.9602 -0.0650  2.1316
  900MPD2    H113189   3.905   2.356  12.447 -1.2214  0.1749 -0.3369
  900MPD2    H213190   4.108   2.050  12.649  0.1371 -0.3658 -0.8074
  900MPD2    H313191   4.090   2.270  12.591 -0.5979  1.4147 -1.9632
  900MPD2     N13192   3.692   2.203  12.360  0.2787 -0.5729 -0.1411
  900MPD2    H513193   3.628   2.132  12.328 -0.8276 -0.7527  2.4629
  900MPD2    N113194   3.963   1.854  12.583 -0.1220  0.6032 -0.8789
  900MPD2    H713195   4.046   1.830  12.637 -1.3501  1.2174  1.2616
  901MPD2     C13196   3.685   0.834  12.887  0.5613 -0.3298  1.3113
  901MPD2    C113197   3.736   0.833  12.760  0.0139  0.1776  0.9712
  901MPD2    C213198   3.776   0.949  12.696  0.5194  0.1725  0.4761
  901MPD2    C313199   3.754   1.072  12.760  0.3819  0.0428 -0.4076
  901MPD2    C413200   3.692   1.072  12.885 -0.2805 -0.6167  0.2245
  901MPD2    C513201   3.671   0.953  12.952  0.2414  0.7576  0.0417
  901MPD2     H13202   3.825   0.952  12.600  0.3853 -1.6831  0.3614
  901MPD2    H113203   3.671   1.163  12.940 -1.8899 -0.6844 -0.2694
  901MPD2    H213204   3.675   0.739  12.940  0.2097 -0.0052  1.8351
  901MPD2    H313205   3.646   0.958  13.057 -3.0755 -2.2376 -0.6197
  901MPD2     N13206   3.804   1.186  12.694 -0.1066 -0.2719  0.6153
  901MPD2    H513207   3.845   1.168  12.603 -4.9393 -0.0944 -1.6159
  901MPD2    N113208   3.755   0.700  12.707  0.1540  0.0489 -0.1913
  901MPD2    H713209   3.735   0.624  12.772  1.2360  0.6789  0.8709
  902MPD2     C13210   3.895   0.009  13.245  0.6510  0.3409  0.6587
  902MPD2    C113211   3.782   0.055  13.190 -0.1412 -1.2867  0.0475
  902MPD2    C213212   3.728   4.705  13.091  0.4142 -0.4707 -0.0726
  902MPD2    C313213   3.790   4.604  13.026  0.0301 -0.7425 -0.1371
  902MPD2    C413214   3.913   4.567  13.074 -0.6366  0.1508 -0.2254
  902MPD2    C513215   3.962   4.634  13.185 -0.2634 -0.2011  0.3335
  902MPD2     H13216   3.625   0.003  13.064  0.2337 -1.7991 -0.4845
  902MPD2    H113217   3.968   4.491  13.020 -1.6309 -0.2240 -0.7305
  902MPD2    H213218   3.922   0.042  13.344 -0.6369 -2.4483  1.9480
  902MPD2    H313219   4.062   4.605  13.218 -0.1384 -0.8165 -0.6079
  902MPD2     N13220   3.734   4.541  12.905  0.3993 -0.5667  0.1184
  902MPD2    H513221   3.788   4.475  12.851 -1.0231 -1.6458  0.0174
  902MPD2    N113222   3.715   0.173  13.246  0.2188 -0.1785  0.3892
  902MPD2    H713223   3.761   0.219  13.324  0.9289  1.1740 -0.8278
  903MPD2     C13224   3.570   4.611  12.057  0.4885  0.2104 -0.1624
  903MPD2    C113225   3.482   4.594  12.162 -0.5199 -0.3309 -0.1502
  903MPD2    C213226   3.356   4.654  12.148  0.3386  0.0979 -0.4349
  903MPD2    C313227   3.314   4.715  12.027 -0.2404 -0.6289  0.0428
  903MPD2    C413228   3.406   0.002  11.929  0.2807  0.2037 -0.1177
  903MPD2    C513229   3.528   4.673  11.943 -0.0728  0.4629 -0.0819
  903MPD2     H13230   3.289   4.651  12.233 -0.4982 -2.3045 -1.1679
  903MPD2    H113231   3.386   0.051  11.834 -1.3885  0.1715  0.2127
  903MPD2    H213232   3.672   4.573  12.057 -0.0077 -1.1551 -2.4154
  903MPD2    H313233   3.606   4.680  11.868  1.9451  0.9444  2.0451
  903MPD2     N13234   3.182   0.042  12.016  0.4461 -0.2058  0.0169
  903MPD2    H513235   3.136   0.029  12.106 -0.9276 -1.0525 -0.8143
  903MPD2    N113236   3.519   4.518  12.280 -0.5089  0.0561 -0.2781
  903MPD2    H713237   3.611   4.476  12.285 -1.3511 -1.7876 -0.2150
  904MPD2     C13238   3.064   3.436  13.950 -0.0294  0.2622 -0.2143
  904MPD2    C113239   3.117   3.556  13.906  0.6551  0.5185 -0.2404
  904MPD2    C213240   3.239   3.600  13.958 -0.0694 -0.4022  0.3777
  904MPD2    C313241   3.314   3.510  14.030 -0.0738 -0.2972 -0.0371
  904MPD2    C413242   3.263   3.379  14.057  0.4559  0.4670  0.8945
  904MPD2    C513243   3.139   3.348  14.014  0.6259  0.4529  0.4084
  904MPD2     H13244   3.269   3.702  13.934  0.5064 -0.5387  0.5157
  904MPD2    H113245   3.320   3.304  14.112  0.0015 -1.6500 -1.5167
  904MPD2    H213246   2.962   3.406  13.929  0.8136  0.4818 -4.6368
  904MPD2    H313247   3.106   3.247  14.034 -0.7276  0.8272  0.0750
  904MPD2     N13248   3.446   3.549  14.071 -0.1768  0.4384  0.0941
  904MPD2    H513249   3.475   3.640  14.036  0.8969  0.0742  0.0423
  904MPD2    N113250   3.035   3.650  13.846  0.5066 -0.3471  0.2154
  904MPD2    H713251   3.075   3.743  13.834  1.4082 -0.5092  2.0954
  905MPD2     C13252   2.620   4.116  13.198  0.7417 -0.4834  0.1761
  905MPD2    C113253   2.692   4.004  13.231 -0.1699  0.1674 -0.1869
  905MPD2    C213254   2.798   3.962  13.151 -0.4200  0.2552  1.0055
  905MPD2    C313255   2.823   4.034  13.034 -0.4745 -0.0154  0.4219
  905MPD2    C413256   2.735   4.131  12.992 -0.2670  0.6168 -0.2019
  905MPD2    C513257   2.643   4.182  13.076 -0.0122  0.8036 -0.3842
  905MPD2     H13258   2.864   3.883  13.186  2.3148  2.3710  0.6440
  905MPD2    H113259   2.754   4.183  12.899 -0.4814 -0.8509 -1.0549
  905MPD2    H213260   2.538   4.138  13.266 -0.8474  1.0567 -2.2342
  905MPD2    H313261   2.577   4.267  13.059 -1.0108 -0.1569 -1.2875
  905MPD2     N13262   2.942   4.018  12.960 -0.5664 -0.0081 -0.0689
  905MPD2    H513263   2.942   4.077  12.878 -0.1069  1.2889  0.8595
  905MPD2    N113264   2.671   3.937  13.357  0.3219  0.2745  0.2843
  905MPD2    H713265   2.605   3.983  13.419 -0.8072  1.3970 -1.7436
  906MPD2     C13266   0.317   3.428  11.513  0.5478  0.4993 -0.9214
  906MPD2    C113267   0.245   3.385  11.408 -0.2182 -0.0453 -0.6427
  906MPD2    C213268   0.155   3.281  11.415  0.2914  0.1697 -0.2419
  906MPD2    C313269   0.128   3.227  11.535 -0.3995 -0.2974 -0.0028
  906MPD2    C413270   0.195   3.270  11.648 -0.1005  0.3745 -0.1974
  906MPD2    C513271   0.287   3.367  11.635  0.0253  0.2866 -0.5812
  906MPD2     H13272   0.097   3.250  11.329  1.8062  0.9136 -1.5342
  906MPD2    H113273   0.185   3.223  11.746  0.3853 -1.3659 -0.9863
  906MPD2    H213274   0.409   3.484  11.500 -0.2857  2.3171  0.9714
  906MPD2    H313275   0.358   3.378  11.716 -0.4090  1.4709 -0.3639
  906MPD2     N13276   0.031   3.122  11.543  0.0921  0.0989  0.4056
  906MPD2    H513277   4.719   3.093  11.453 -1.1872 -1.4157  1.4057
  906MPD2    N113278   0.272   3.430  11.273 -0.3337  0.1477  0.1153
  906MPD2    H713279   0.254   3.365  11.198  1.6071 -3.0959  2.4544
  907MPD2     C13280   4.331   2.845  15.601 -0.3514  0.2345  0.2379
  907MPD2    C113281   4.410   2.731  15.563  0.3582  0.1176 -0.3949
  907MPD2    C213282   4.520   2.698  15.641 -0.2917 -0.0568  0.0312
  907MPD2    C313283   4.544   2.773  15.756  0.4445  0.4220 -1.3359
  907MPD2    C413284   4.473   2.886  15.790  1.1221  0.2543 -0.3574
  907MPD2    C513285   4.368   2.914  15.710 -0.0845 -1.2296  0.4776
  907MPD2     H13286   4.587   2.615  15.620 -0.8226 -0.3073 -0.6967
  907MPD2    H113287   4.484   2.947  15.879 -2.0272  0.7843 -0.3531
  907MPD2    H213288   4.248   2.877  15.540 -0.0743  2.1893  0.8910
  907MPD2    H313289   4.299   2.992  15.739  0.7054 -0.7061  0.9412
  907MPD2     N13290   4.642   2.717  15.847 -0.3192 -0.1354  0.1375
  907MPD2    H513291   4.663   2.618  15.839  3.1248  0.6809 -0.8197
  907MPD2    N113292   4.391   2.647  15.452  0.3276 -0.7141 -0.0129
  907MPD2    H713293   4.449   2.565  15.436  2.2494  0.7163 -0.4742
  908MPD2     C13294   1.609   2.761  10.125 -0.0891 -0.6490 -0.5945
  908MPD2    C113295   1.711   2.768  10.217 -0.0044 -0.3662  0.1342
  908MPD2    C213296   1.735   2.885  10.286  0.0501  0.2219 -0.2034
  908MPD2    C313297   1.665   3.001  10.255  0.1251 -0.5657 -0.5690
  908MPD2    C413298   1.583   2.997  10.148  0.5896 -0.3346 -0.1029
  908MPD2    C513299   1.552   2.880  10.092  0.0254  0.4689 -0.0317
  908MPD2     H13300   1.815   2.894  10.358 -0.4750 -1.0032  0.5308
  908MPD2    H113301   1.527   3.086  10.121 -2.1323 -1.8500  0.5634
  908MPD2    H213302   1.578   2.670  10.075 -2.5823  0.1785 -0.5233
  908MPD2    H313303   1.478   2.887  10.014  1.0659  0.4270 -1.0241
  908MPD2     N13304   1.706   3.115  10.331  0.0355 -0.1640 -0.1553
  908MPD2    H513305   1.779   3.102  10.400  0.5367 -1.2456 -0.9041
  908MPD2    N113306   1.804   2.661  10.215 -0.2022 -0.1776  0.2929
  908MPD2    H713307   1.801   2.598  10.136 -2.2479 -0.2363  0.4176
  909MPD2     C13308   1.956   0.974  12.042 -0.3073 -0.7558 -0.0360
  909MPD2    C113309   2.011   1.093  11.997 -0.2424  0.9139  0.0246
  909MPD2    C213310   1.995   1.204  12.075 -0.5314  0.0319 -0.0145
  909MPD2    C313311   1.922   1.205  12.186  0.4363  0.1033 -0.4132
  909MPD2    C413312   1.859   1.088  12.227 -0.2001  0.5611  0.0739
  909MPD2    C513313   1.870   0.968  12.153  0.4654  0.2594 -0.0022
  909MPD2     H13314   2.036   1.297  12.036  0.1245 -1.3309 -2.5981
  909MPD2    H113315   1.801   1.078  12.318  1.6454  2.3837  1.4380
  909MPD2    H213316   1.977   0.882  11.989 -0.1385 -1.0508  0.5413
  909MPD2    H313317   1.842   0.870  12.191  0.0562  0.3982  0.0566
  909MPD2     N13318   1.899   1.331  12.244 -0.2891 -0.2371 -0.3034
  909MPD2    H513319   1.936   1.415  12.201 -1.0148  0.9703  1.4243
  909MPD2    N113320   2.082   1.112  11.879  0.6108 -0.6136  0.0788
  909MPD2    H713321   2.102   1.209  11.857 -1.6713 -0.6071 -1.9845
  910MPD2     C13322   4.055   3.109  14.947 -0.1562 -0.2232 -0.2503
  910MPD2    C113323   3.964   3.132  15.046  0.4318  0.3728 -1.3720
  910MPD2    C213324   3.906   3.253  15.054  0.3187 -0.4195  1.0032
  910MPD2    C313325   3.935   3.359  14.964 -0.2194 -0.0351  0.2320
  910MPD2    C413326   4.014   3.327  14.861  0.4905 -0.1651  0.4210
  910MPD2    C513327   4.075   3.204  14.853  0.1303 -0.0062  0.5300
  910MPD2     H13328   3.836   3.265  15.135  0.2183 -1.3135  1.0516
  910MPD2    H113329   4.046   3.398  14.785 -0.6777 -0.1612 -0.0667
  910MPD2    H213330   4.094   3.009  14.931  3.5257  0.8331  2.0962
  910MPD2    H313331   4.141   3.176  14.772 -1.1583  0.0401 -0.5259
  910MPD2     N13332   3.877   3.484  14.969  1.4330  0.2160  0.5217
  910MPD2    H513333   3.916   3.548  14.899 -0.2986 -2.1308 -2.5947
  910MPD2    N113334   3.924   3.032  15.139  0.2897 -0.8253  0.3071
  910MPD2    H713335   3.854   3.055  15.208 -0.6754 -1.1453 -0.5718
  911MPD2     C13336   1.282   3.952  16.603  0.1509  0.3406  0.3844
  911MPD2    C113337   1.345   3.996  16.487 -0.6603  0.6687 -0.1226
  911MPD2    C213338   1.281   4.012  16.370  0.1660 -0.3908 -0.3645
  911MPD2    C313339   1.142   3.990  16.370 -0.3765 -0.0202  0.3513
  911MPD2    C413340   1.081   3.936  16.482 -0.2209 -0.0148  0.4287
  911MPD2    C513341   1.151   3.922  16.596 -0.0865 -0.5983  0.0003
  911MPD2     H13342   1.341   4.041  16.285  1.3143  1.3435  1.0342
  911MPD2    H113343   0.974   3.918  16.489 -0.2542 -0.3905 -1.0451
  911MPD2    H213344   1.331   3.940  16.699 -1.4074  0.0695  1.1532
  911MPD2    H313345   1.101   3.880  16.683 -2.6918 -0.5552 -1.4534
  911MPD2     N13346   1.051   4.015  16.266  0.7176  0.6617 -0.8014
  911MPD2    H513347   0.956   3.983  16.279  1.8997 -1.5093  2.4458
  911MPD2    N113348   1.490   4.018  16.477 -0.2371  0.2636  0.1000
  911MPD2    H713349   1.530   4.054  16.390  1.8433 -1.8522  0.1994
  912MPD2     C13350   0.857   3.467  15.725  0.4675  0.0763 -0.0894
  912MPD2    C113351   0.920   3.523  15.828  0.3395  0.1239 -0.0099
  912MPD2    C213352   1.002   3.456  15.910 -0.0142 -0.2943  0.5093
  912MPD2    C313353   1.016   3.319  15.900 -0.1340  0.0588  0.0645
  912MPD2    C413354   0.933   3.256  15.805  0.6586 -0.1653 -0.7822
  912MPD2    C513355   0.864   3.330  15.720  0.0870  0.3638 -0.2563
  912MPD2     H13356   1.061   3.502  15.988  0.2654 -0.8652  0.6370
  912MPD2    H113357   0.924   3.148  15.806  0.3308 -0.1415 -0.9437
  912MPD2    H213358   0.798   3.526  15.656  1.0073 -0.6515 -1.1849
  912MPD2    H313359   0.810   3.278  15.642 -0.5214  0.6262 -0.0156
  912MPD2     N13360   1.082   3.257  16.006 -0.8531 -0.0303 -0.4691
  912MPD2    H513361   1.134   3.323  16.063 -0.0165  0.8001 -2.1973
  912MPD2    N113362   0.923   3.664  15.832 -0.4081 -0.4211  0.2787
  912MPD2    H713363   0.871   3.710  15.757 -0.0921  0.4690  0.6088
  913MPD2     C13364   1.123   2.133   9.263 -0.2006 -0.3669  0.9115
  913MPD2    C113365   1.170   2.249   9.319 -0.2474 -0.6179 -0.2942
  913MPD2    C213366   1.305   2.268   9.308  0.7028 -0.3074  0.1063
  913MPD2    C313367   1.383   2.177   9.249 -0.0196 -0.4388  0.5668
  913MPD2    C413368   1.333   2.058   9.190  0.4014  0.1514  0.2347
  913MPD2    C513369   1.201   2.036   9.211 -0.2718 -0.7681  0.0721
  913MPD2     H13370   1.342   2.359   9.353  0.6878  0.8532 -2.2454
  913MPD2    H113371   1.402   1.994   9.134 -0.0123 -2.0006  2.2017
  913MPD2    H213372   1.018   2.110   9.256 -0.5288  1.2117  0.6020
  913MPD2    H313373   1.164   1.939   9.182 -0.4903 -1.1350  1.5698
  913MPD2     N13374   1.520   2.194   9.230  0.1198  0.3249 -0.4370
  913MPD2    H513375   1.572   2.114   9.199  0.4236  0.4560 -0.2701
  913MPD2    N113376   1.074   2.337   9.376 -0.2623  0.0317  0.2946
  913MPD2    H713377   0.974   2.323   9.372 -0.2133  0.1443 -1.2049
  914MPD2     C13378   3.866   0.794  11.870  1.2575 -0.2358 -0.9038
  914MPD2    C113379   3.859   0.865  11.986  0.5591 -0.3573 -0.3121
  914MPD2    C213380   3.885   0.801  12.105 -0.0334  0.5006  0.3847
  914MPD2    C313381   3.908   0.666  12.113  0.0806 -0.2912  0.3768
  914MPD2    C413382   3.917   0.591  11.994  0.8419 -0.1029 -0.1093
  914MPD2    C513383   3.899   0.655  11.875  0.6999  0.7494 -0.2703
  914MPD2     H13384   3.899   0.852  12.200 -2.4158  0.9651  0.4856
  914MPD2    H113385   3.930   0.483  11.994  2.9613  0.1551  2.3601
  914MPD2    H213386   3.837   0.841  11.777  1.7556  3.2476  0.7087
  914MPD2    H313387   3.886   0.598  11.784 -4.4716  1.3334  0.1427
  914MPD2     N13388   3.919   0.604  12.243 -0.7204  0.3637 -0.3472
  914MPD2    H513389   3.898   0.666  12.320 -0.4975 -1.1313  0.9148
  914MPD2    N113390   3.835   1.002  11.972 -0.0972 -0.4678  0.4882
  914MPD2    H713391   3.830   1.037  11.877 -0.7462  0.7790  0.9840
  915MPD2     C13392   2.557   0.848  15.621 -0.6804 -0.1382 -0.1508
  915MPD2    C113393   2.473   0.947  15.588  0.2184 -0.0946 -0.4909
  915MPD2    C213394   2.382   0.999  15.683 -0.6005  0.3362 -0.0862
  915MPD2    C313395   2.380   0.944  15.813 -0.6554  0.1983 -0.4794
  915MPD2    C413396   2.478   0.848  15.840  0.2133 -0.1698 -1.1870
  915MPD2    C513397   2.569   0.806  15.750 -0.1743 -0.7244  0.4154
  915MPD2     H13398   2.314   1.079  15.655 -0.9000 -0.5651 -1.9037
  915MPD2    H113399   2.491   0.804  15.938 -1.0447 -0.4751 -1.1568
  915MPD2    H213400   2.628   0.797  15.555  0.2308 -0.8494  1.3744
  915MPD2    H313401   2.647   0.735  15.777  0.7984 -0.2975 -1.2475
  915MPD2     N13402   2.301   0.998  15.919 -0.1291  0.1598  0.3328
  915MPD2    H513403   2.236   1.070  15.891  1.4637  0.6719 -2.1341
  915MPD2    N113404   2.472   0.982  15.456 -0.2955  0.2656 -0.6170
  915MPD2    H713405   2.549   0.939  15.405  0.6522 -1.6024  2.3433
  916MPD2     C13406   4.531   3.651  15.979  0.9438 -0.0705 -0.2054
  916MPD2    C113407   4.666   3.646  15.950 -0.4724 -0.0506  0.7049
  916MPD2    C213408   4.714   3.550  15.863 -0.2301  0.2551  0.7708
  916MPD2    C313409   4.632   3.454  15.813  0.3895 -0.2426  0.0439
  916MPD2    C413410   4.495   3.461  15.845 -0.0324  0.5079  0.0990
  916MPD2    C513411   4.442   3.561  15.926  0.2766 -0.1662  0.3392
  916MPD2     H13412   0.096   3.535  15.843 -0.5817 -1.9688  0.5835
  916MPD2    H113413   4.429   3.382  15.811  0.8812  0.3440 -1.3174
  916MPD2    H213414   4.500   3.724  16.053  2.5739 -2.0499  2.4331
  916MPD2    H313415   4.336   3.555  15.948  0.2550  1.9804  0.8380
  916MPD2     N13416   4.686   3.348  15.738 -0.1779  0.3483  0.5458
  916MPD2    H513417   0.063   3.339  15.732 -0.4571 -1.5625 -1.3661
  916MPD2    N113418   0.026   3.736  16.016  0.1328  0.0392 -0.2909
  916MPD2    H713419   4.720   3.794  16.094  0.4971 -0.8800  0.5317
  917MPD2     C13420   0.942   0.987  11.385 -0.4855 -0.2089 -0.0057
  917MPD2    C113421   0.974   1.049  11.501  0.6804 -0.3164 -0.5401
  917MPD2    C213422   1.067   1.151  11.501 -0.0287  0.1028  0.0526
  917MPD2    C313423   1.139   1.183  11.386 -0.1932 -0.2565 -0.9034
  917MPD2    C413424   1.101   1.124  11.268  0.2199 -0.6887 -0.2212
  917MPD2    C513425   1.003   1.030  11.274 -0.1241 -0.3465  0.7827
  917MPD2     H13426   1.086   1.197  11.597 -2.4722 -1.4368  1.2845
  917MPD2    H113427   1.144   1.138  11.169 -0.4270  4.0627  0.1931
  917MPD2    H213428   0.863   0.912  11.385  1.1251 -1.9029 -0.7744
  917MPD2    H313429   0.976   0.976  11.184  0.1284 -0.2236  0.6363
  917MPD2     N13430   1.236   1.286  11.382  0.1691  0.0614 -0.5275
  917MPD2    H513431   1.266   1.323  11.293  0.9784 -0.4876 -0.4890
  917MPD2    N113432   0.896   1.019  11.610  0.2220 -0.0389  0.2479
  917MPD2    H713433   0.814   0.966  11.584 -0.3035  0.8245  0.1370
  918MPD2     C13434   0.604   1.546  12.433 -0.8447 -1.0319  0.1199
  918MPD2    C113435   0.735   1.507  12.399 -0.2045 -0.1103 -0.0974
  918MPD2    C213436   0.748   1.410  12.306 -0.0430 -0.0378  0.3081
  918MPD2    C313437   0.650   1.340  12.242 -0.0247  0.3711  0.0875
  918MPD2    C413438   0.521   1.371  12.283 -0.3048  0.0536 -0.2808
  918MPD2    C513439   0.507   1.471  12.383 -0.1437 -0.8349  0.1673
  918MPD2     H13440   0.847   1.378  12.276 -0.0368  2.6570 -2.5210
  918MPD2    H113441   0.430   1.317  12.261 -0.1958  0.2724 -1.2856
  918MPD2    H213442   0.580   1.627  12.499  1.6629  0.1434 -0.3800
  918MPD2    H313443   0.404   1.495  12.404 -0.3006 -2.8683  1.6996
  918MPD2     N13444   0.681   1.227  12.161  0.1394  0.2796  0.4868
  918MPD2    H513445   0.781   1.209  12.152  0.2359  0.6502  0.7814
  918MPD2    N113446   0.854   1.564  12.441 -0.2000  0.0911 -0.4635
  918MPD2    H713447   0.942   1.526  12.407  0.2415  0.0955  0.6891
  919MPD2     C13448   1.224   0.297  11.635  0.6276  0.5863  0.6407
  919MPD2    C113449   1.257   0.184  11.573  0.0303 -0.2350  0.3917
  919MPD2    C213450   1.314   0.184  11.447  0.5953 -0.0805 -0.0368
  919MPD2    C313451   1.348   0.300  11.387  0.4363 -0.2666 -0.5658
  919MPD2    C413452   1.308   0.412  11.447  0.5462 -0.4588 -0.0367
  919MPD2    C513453   1.242   0.410  11.568  0.0265  0.5356  0.1081
  919MPD2     H13454   1.341   0.089  11.402 -1.7105 -0.9049  0.3474
  919MPD2    H113455   1.317   0.508  11.399 -2.8575 -0.0215  0.1971
  919MPD2    H213456   1.184   0.294  11.736 -0.8139  0.9302  0.0884
  919MPD2    H313457   1.206   0.505  11.607 -1.0995  0.4147 -0.6391
  919MPD2     N13458   1.402   0.306  11.253  0.4045  0.0594 -0.1790
  919MPD2    H513459   1.411   0.400  11.216 -1.8329 -0.5447 -2.3083
  919MPD2    N113460   1.231   0.051  11.617  0.0676 -0.1319  0.5591
  919MPD2    H713461   1.273   4.702  11.561 -0.4825  0.1710 -0.2364
  920MPD2     C13462   1.230   0.789  10.440  0.5213 -0.6820  0.1302
  920MPD2    C113463   1.184   0.666  10.410 -0.7033 -0.9042  0.2019
  920MPD2    C213464   1.234   0.565  10.495  0.0519 -0.8436  0.1819
  920MPD2    C313465   1.309   0.589  10.607 -0.6723 -0.1497  0.6635
  920MPD2    C413466   1.353   0.717  10.627  0.1090 -0.0261  0.2685
  920MPD2    C513467   1.313   0.816  10.538 -0.8071 -0.1198  0.3087
  920MPD2     H13468   1.210   0.460  10.480 -1.9488 -0.2623 -0.7081
  920MPD2    H113469   1.413   0.745  10.714  1.8052 -0.7927 -0.6507
  920MPD2    H213470   1.188   0.871  10.383  0.0727 -1.1331 -0.2019
  920MPD2    H313471   1.339   0.921  10.545 -0.6296 -0.1826  0.5589
  920MPD2     N13472   1.350   0.478  10.689 -0.1902 -0.0703 -0.0454
  920MPD2    H513473   1.290   0.396  10.684 -0.1236 -0.0141 -1.5187
  920MPD2    N113474   1.097   0.633  10.301 -0.6662 -0.2073  0.1811
  920MPD2    H713475   1.080   0.534  10.287 -0.3379 -0.3578  0.8573
  921MPD2     C13476   2.250   4.468  16.949 -0.4796  1.0619 -0.5856
  921MPD2    C113477   2.285   4.395  16.832 -0.2890 -0.5552  0.3548
  921MPD2    C213478   2.203   4.298  16.784 -0.7350 -0.2015  0.3173
  921MPD2    C313479   2.084   4.266  16.855  0.6078 -0.5396  0.2688
  921MPD2    C413480   2.044   4.341  16.962 -0.2690  0.6819 -0.4123
  921MPD2    C513481   2.134   4.433  17.010 -0.0963  0.0492  0.3333
  921MPD2     H13482   2.228   4.232  16.702 -0.3132  1.1027 -0.6093
  921MPD2    H113483   1.952   4.328  17.018 -0.6263 -0.6146 -1.2887
  921MPD2    H213484   2.309   4.548  16.992  2.1769 -1.5271  0.6441
  921MPD2    H313485   2.116   4.489  17.101 -2.9096  0.9837 -0.8042
  921MPD2     N13486   1.996   4.163  16.815  0.2009 -0.4965  0.2806
  921MPD2    H513487   1.912   4.146  16.870  0.4452  1.0865  1.1398
  921MPD2    N113488   2.394   4.426  16.742 -0.3420 -0.5485  0.3791
  921MPD2    H713489   2.411   4.364  16.664  0.4382 -2.3861  2.0100
  922MPD2     C13490   3.484   1.424  17.349 -0.1553  0.5035 -0.2699
  922MPD2    C113491   3.425   1.424  17.225 -0.3706 -0.5620  0.3795
  922MPD2    C213492   3.290   1.421  17.210  0.6978 -0.1294 -0.1715
  922MPD2    C313493   3.211   1.442  17.323  0.7617  0.8043 -0.2800
  922MPD2    C413494   3.271   1.458  17.442 -0.6046 -0.6432  0.0739
  922MPD2    C513495   3.406   1.438  17.453  0.6973 -0.5593  0.2646
  922MPD2     H13496   3.244   1.432  17.113 -2.2972 -2.0222  1.0493
  922MPD2    H113497   3.218   1.469  17.536  0.0158  2.6440  0.0342
  922MPD2    H213498   3.590   1.405  17.364 -0.3179  0.0564  0.3483
  922MPD2    H313499   3.453   1.445  17.550  0.7742  2.3028  0.0158
  922MPD2     N13500   3.072   1.458  17.299  0.0598  0.3391 -0.0405
  922MPD2    H513501   3.037   1.428  17.209 -2.4810 -0.3193  1.1738
  922MPD2    N113502   3.511   1.416  17.112 -0.0822 -0.4709  0.5690
  922MPD2    H713503   3.610   1.436  17.124 -0.1993  0.4185  0.1246
  923MPD2     C13504   4.032   3.435   9.127 -0.4151 -0.5273 -0.3022
  923MPD2    C113505   4.069   3.526   9.214 -0.2547 -0.4356 -0.4944
  923MPD2    C213506   4.184   3.501   9.299  0.2784  0.1956 -0.4222
  923MPD2    C313507   4.254   3.385   9.282  0.0610  0.2147 -1.1467
  923MPD2    C413508   4.222   3.294   9.187  0.8265  0.7221  0.4119
  923MPD2    C513509   4.103   3.315   9.116 -0.0860  0.9211 -0.0586
  923MPD2     H13510   4.204   3.567   9.382 -0.1412 -0.3149  0.0828
  923MPD2    H113511   4.268   3.196   9.181 -1.2486 -0.1191 -1.3412
  923MPD2    H213512   3.943   3.448   9.067  0.3731 -0.4414 -1.4651
  923MPD2    H313513   4.059   3.242   9.050 -0.0739  0.3994  0.5028
  923MPD2     N13514   4.369   3.356   9.364  0.0226  0.1493  0.4286
  923MPD2    H513515   4.407   3.262   9.363  0.2935  0.2559  0.6107
  923MPD2    N113516   3.991   3.643   9.223 -0.1850  0.0135 -0.0905
  923MPD2    H713517   3.918   3.649   9.154  1.3619 -1.8534 -1.9048
  924MPD2     C13518   4.661   1.969  15.764 -0.3273  1.1984  0.5920
  924MPD2    C113519   4.622   2.018  15.881 -0.3799 -0.8510  0.5906
  924MPD2    C213520   4.676   2.139  15.923  0.3244 -0.1725  0.0615
  924MPD2    C313521   0.048   2.210  15.849 -0.4136 -0.3479 -0.1602
  924MPD2    C413522   0.074   2.165  15.721  0.0689  0.4935  0.6192
  924MPD2    C513523   0.015   2.046  15.676 -0.6550 -0.1753  0.3200
  924MPD2     H13524   4.620   2.181  16.006  0.3321 -0.4511  0.2082
  924MPD2    H113525   0.137   2.215  15.648  0.0123  1.6059  1.3427
  924MPD2    H213526   4.632   1.869  15.731  0.5081  0.9621  0.5881
  924MPD2    H313527   0.045   2.002  15.581  2.2356  0.6508  0.8262
  924MPD2     N13528   0.101   2.334  15.899 -0.2888 -0.4428 -0.1328
  924MPD2    H513529   0.157   2.386  15.831 -0.4550 -0.2108 -0.0905
  924MPD2    N113530   4.522   1.958  15.965  0.7208  0.3779  0.5673
  924MPD2    H713531   4.504   2.001  16.056 -0.2512 -0.1002  0.5912
  925MPD2     C13532   3.618   4.652  14.680 -0.2232  0.3990  0.1057
  925MPD2    C113533   3.494   4.697  14.664  0.1215 -0.3974 -0.2833
  925MPD2    C213534   3.401   4.666  14.762 -0.8149 -0.3000  0.0936
  925MPD2    C313535   3.425   4.583  14.866 -0.2463  0.8156 -0.1578
  925MPD2    C413536   3.555   4.531  14.873 -0.1728 -0.9370  0.3685
  925MPD2    C513537   3.647   4.568  14.785 -0.2321  0.2342  1.0469
  925MPD2     H13538   3.300   4.695  14.736 -0.5665 -0.3941 -1.0094
  925MPD2    H113539   3.592   4.464  14.951  0.2190 -0.0353  0.9534
  925MPD2    H213540   3.698   4.678  14.611 -0.4646 -0.9106 -0.6709
  925MPD2    H313541   3.744   4.525  14.807 -0.8608 -1.8143 -0.1828
  925MPD2     N13542   3.324   4.550  14.958 -0.4474  0.4916  0.3322
  925MPD2    H513543   3.345   4.476  15.024 -0.9427 -2.7675 -3.1760
  925MPD2    N113544   3.449   0.044  14.545  0.3301 -0.1587 -0.2980
  925MPD2    H713545   3.349   0.060  14.550  0.1660 -1.3642  0.3757
  926MPD2     C13546   1.804   3.271  13.096  0.0537  0.5714  0.2684
  926MPD2    C113547   1.749   3.400  13.111 -0.7279  0.0489 -0.9542
  926MPD2    C213548   1.797   3.495  13.021 -0.3267  0.0559 -0.5801
  926MPD2    C313549   1.889   3.468  12.923 -0.5666  1.0036 -0.0542
  926MPD2    C413550   1.941   3.343  12.913 -0.7984  0.4245  0.1758
  926MPD2    C513551   1.890   3.245  12.990 -0.5400  0.5917  0.1265
  926MPD2     H13552   1.770   3.598  13.042 -0.0598  0.2972 -1.4522
  926MPD2    H113553   2.008   3.315  12.831 -0.8508  1.4915 -0.2377
  926MPD2    H213554   1.773   3.192  13.164  0.4927  0.4101  0.2843
  926MPD2    H313555   1.945   3.151  12.983 -2.6607 -0.7971  2.0553
  926MPD2     N13556   1.929   3.569  12.830 -0.5661 -0.0415 -0.3413
  926MPD2    H513557   1.989   3.543  12.753  0.3709 -0.4509  0.5187
  926MPD2    N113558   1.675   3.445  13.218 -0.3394  0.4094 -0.1772
  926MPD2    H713559   1.664   3.545  13.229  0.7825  0.7624 -2.2130
  927MPD2     C13560   1.331   1.038  17.542  0.8112  0.1968  0.0551
  927MPD2    C113561   1.406   1.046  17.657  0.2722  0.8369  0.4465
  927MPD2    C213562   1.536   1.006  17.658  0.0732 -0.7446  0.2085
  927MPD2    C313563   1.590   0.948  17.545 -0.5617 -0.6602 -0.0829
  927MPD2    C413564   1.519   0.944  17.425 -0.8093  0.1655 -0.0582
  927MPD2    C513565   1.387   0.983  17.426 -0.5345  0.3502  0.6336
  927MPD2     H13566   1.605   1.025   0.041 -0.2025 -1.1549  0.5428
  927MPD2    H113567   1.553   0.910  17.327  2.3976  0.1626  1.0635
  927MPD2    H213568   1.230   1.075  17.531  0.7815 -0.8982 -3.3510
  927MPD2    H313569   1.320   0.982  17.341  1.0964 -0.8072 -0.6109
  927MPD2     N13570   1.723   0.890  17.550 -0.2208  0.1874  0.2662
  927MPD2    H513571   1.775   0.890  17.637  1.1263  0.2375 -0.5439
  927MPD2    N113572   1.344   1.110   0.066 -0.3224  0.4312 -0.1869
  927MPD2    H713573   1.249   1.139   0.043 -1.2412 -3.2648 -0.9990
  928MPD2     C13574   3.721   4.490   0.982 -0.4631 -0.2557  0.8312
  928MPD2    C113575   3.791   4.537   1.090  0.8599  0.1723 -0.2555
  928MPD2    C213576   3.935   4.524   1.097 -0.6382  0.2338  0.0930
  928MPD2    C313577   4.000   4.444   1.001  0.4292  0.0284  0.1219
  928MPD2    C413578   3.923   4.399   0.901 -0.6205 -0.4446 -0.1556
  928MPD2    C513579   3.789   4.422   0.888 -0.3504  0.0841  0.2302
  928MPD2     H13580   3.999   4.563   1.175  0.5734  0.2698 -0.9161
  928MPD2    H113581   3.963   4.334   0.824 -0.5534  1.0251 -1.3637
  928MPD2    H213582   3.614   4.507   0.980 -0.4963 -0.4724  0.7972
  928MPD2    H313583   3.737   4.376   0.804  0.2965 -1.5129  0.7035
  928MPD2     N13584   4.136   4.417   0.995  0.2949 -0.6708 -0.0890
  928MPD2    H513585   4.173   4.344   0.935 -0.4943 -1.7206  0.6922
  928MPD2    N113586   3.710   4.591   1.189 -0.1149  0.2219 -0.4129
  928MPD2    H713587   3.613   4.582   1.162 -0.2459 -0.0815  0.1538
  929MPD2     C13588   4.186   3.412  10.156  0.1781  0.8172 -0.1251
  929MPD2    C113589   4.079   3.367  10.228 -0.5021  0.6663 -0.3204
  929MPD2    C213590   3.954   3.437  10.219  0.3352  0.6598 -0.6129
  929MPD2    C313591   3.940   3.536  10.127 -0.0217 -0.8633  0.3261
  929MPD2    C413592   4.050   3.580  10.057  0.8585  0.7113  0.8358
  929MPD2    C513593   4.178   3.528  10.075  0.4063 -0.1113 -0.3221
  929MPD2     H13594   3.862   3.400  10.263  1.3989 -0.6177  0.5547
  929MPD2    H113595   4.043   3.664   9.990 -2.6132 -1.0576 -1.0438
  929MPD2    H213596   4.282   3.362  10.164  0.2462  0.9530 -0.0824
  929MPD2    H313597   4.267   3.573  10.033 -0.2437 -0.3689 -1.9947
  929MPD2     N13598   3.819   3.600  10.097  0.0189  0.1429 -0.4356
  929MPD2    H513599   3.817   3.653  10.011 -0.2235  1.2724  0.2549
  929MPD2    N113600   4.109   3.264  10.311 -0.3333  0.7103  0.1788
  929MPD2    H713601   4.207   3.244  10.330 -0.2229  1.7809  0.7228
  930MPD2     C13602   1.231   1.126  14.201  0.0552 -0.3419 -0.4561
  930MPD2    C113603   1.239   1.250  14.142 -0.3315 -0.3353 -0.0467
  930MPD2    C213604   1.222   1.266  14.010 -0.2454 -0.3886 -0.6589
  930MPD2    C313605   1.214   1.149  13.927  0.0769 -0.0691  0.1446
  930MPD2    C413606   1.209   1.021  13.982 -0.1663 -0.0006  0.0632
  930MPD2    C513607   1.223   1.018  14.116  0.4702 -0.4156  0.0067
  930MPD2     H13608   1.235   1.363  13.963  0.3668 -0.3713 -0.4627
  930MPD2    H113609   1.194   0.927  13.932  2.5170  0.0022 -0.7025
  930MPD2    H213610   1.244   1.111  14.307 -1.1442 -1.2131 -0.4422
  930MPD2    H313611   1.225   0.917  14.157  1.3153 -0.8296 -1.0498
  930MPD2     N13612   1.216   1.143  13.789 -0.1605  0.0598  0.6616
  930MPD2    H513613   1.215   1.052  13.744  1.8201  0.6556 -0.5619
  930MPD2    N113614   1.280   1.368  14.217 -0.0077  0.6676 -1.0230
  930MPD2    H713615   1.290   1.455  14.165  0.1650  0.8915 -0.6135
  931MPD2     C13616   1.663   1.239   0.757 -0.2084 -0.0491  0.9442
  931MPD2    C113617   1.527   1.214   0.777 -0.2947 -0.8288  0.1629
  931MPD2    C213618   1.483   1.192   0.909  0.3167  0.1594 -0.0554
  931MPD2    C313619   1.568   1.201   1.017 -0.1628  0.1889 -0.5088
  931MPD2    C413620   1.696   1.251   0.989  0.4909 -0.1413  0.2615
  931MPD2    C513621   1.747   1.254   0.862 -0.3073 -0.2905  0.5446
  931MPD2     H13622   1.378   1.192   0.935 -0.4631 -0.7114 -3.1762
  931MPD2    H113623   1.765   1.256   1.073  0.5534  0.6741  0.1692
  931MPD2    H213624   1.706   1.240   0.657 -3.0928 -0.0856 -0.2985
  931MPD2    H313625   1.853   1.258   0.842 -0.6437 -0.7289 -1.2925
  931MPD2     N13626   1.528   1.182   1.152  0.2331  0.1640  0.5638
  931MPD2    H513627   1.595   1.214   1.221  0.6750 -0.8556  0.5953
  931MPD2    N113628   1.438   1.217   0.660  0.4347 -0.3909  0.5707
  931MPD2    H713629   1.475   1.233   0.566  1.6486 -2.0971  0.7741
  932MPD2     C13630   3.480   4.185  11.267 -0.0491 -0.4154 -0.0326
  932MPD2    C113631   3.583   4.252  11.323  0.3080 -0.3492 -0.0771
  932MPD2    C213632   3.675   4.189  11.409 -0.2810  0.3423  0.7312
  932MPD2    C313633   3.660   4.053  11.438 -0.4742 -0.4968 -0.1390
  932MPD2    C413634   3.555   3.987  11.377  0.3224  0.8876  0.1143
  932MPD2    C513635   3.474   4.051  11.289  1.1538 -0.3267  0.3008
  932MPD2     H13636   3.749   4.247  11.463  0.7812  0.7689 -1.1937
  932MPD2    H113637   3.537   3.880  11.386  1.4591  0.8776  2.2069
  932MPD2    H213638   3.409   4.231  11.200  2.2636  0.4582 -1.9090
  932MPD2    H313639   3.396   3.999  11.235  2.8113  0.0187 -2.4434
  932MPD2     N13640   3.744   3.988  11.532  0.3692 -0.2510 -0.2853
  932MPD2    H513641   3.710   3.901  11.572  0.7817 -0.4184 -0.2975
  932MPD2    N113642   3.577   4.392  11.298 -0.1260  0.5107  0.2755
  932MPD2    H713643   3.519   4.425  11.222 -0.4285  2.0281  1.1545
  933MPD2     C13644   3.007   0.196   1.520 -0.2849 -0.1771 -0.0735
  933MPD2    C113645   3.122   0.204   1.438  0.5439 -0.2982  0.4538
  933MPD2    C213646   3.112   0.283   1.317 -0.6117 -1.0281 -0.2456
  933MPD2    C313647   2.984   0.327   1.276  0.8240 -0.8813  0.4478
  933MPD2    C413648   2.871   0.303   1.353 -0.0418 -0.4287 -0.8452
  933MPD2    C513649   2.889   0.240   1.472 -0.0693 -0.3250 -0.0285
  933MPD2     H13650   3.190   0.306   1.246  0.6991 -0.3012  1.4381
  933MPD2    H113651   2.770   0.326   1.321  0.6110  0.8545 -1.9832
  933MPD2    H213652   3.007   0.140   1.613 -0.3051 -1.0242 -0.5807
  933MPD2    H313653   2.799   0.228   1.532 -1.8775  3.3611 -2.0443
  933MPD2     N13654   2.973   0.400   1.153 -0.3979  0.0366  0.3418
  933MPD2    H513655   3.052   0.406   1.090 -1.0803 -0.5069 -0.5602
  933MPD2    N113656   3.241   0.141   1.476 -0.0427 -0.0721  0.4847
  933MPD2    H713657   3.236   0.068   1.547 -0.1391 -0.6765 -0.1543
  934MPD2     C13658   0.257   2.072   1.616 -0.1133  0.0175  0.0298
  934MPD2    C113659   0.330   1.961   1.646 -0.3729  0.0884  0.0153
  934MPD2    C213660   0.303   1.839   1.588 -1.3092 -0.4370  0.5644
  934MPD2    C313661   0.190   1.828   1.509  0.2255 -0.2276  0.1834
  934MPD2    C413662   0.113   1.937   1.482 -0.2609  0.5863 -0.1967
  934MPD2    C513663   0.151   2.054   1.535 -0.0274 -0.3723  0.7826
  934MPD2     H13664   0.370   1.759   1.615  0.8734  1.7060  1.4230
  934MPD2    H113665   0.038   1.949   1.404  0.2110 -2.1914 -1.0827
  934MPD2    H213666   0.282   2.174   1.645  0.7101  0.0618 -0.8167
  934MPD2    H313667   0.103   2.144   1.497  0.7924 -0.1984  0.1550
  934MPD2     N13668   0.141   1.701   1.465 -0.1062 -0.3166  0.3979
  934MPD2    H513669   0.059   1.698   1.406  0.4007  0.8684 -0.3721
  934MPD2    N113670   0.420   1.964   1.751  0.2226 -0.5094  0.1459
  934MPD2    H713671   0.481   1.887   1.775 -0.1501 -1.5702 -2.3705
  935MPD2     C13672   0.472   0.731   1.427 -0.4625 -0.1354 -0.2908
  935MPD2    C113673   0.359   0.748   1.354  0.2996 -0.2465  0.3470
  935MPD2    C213674   0.283   0.853   1.378 -0.1340 -0.0685 -0.7057
  935MPD2    C313675   0.317   0.952   1.468 -0.1215  0.3530  1.0156
  935MPD2    C413676   0.441   0.938   1.530 -0.5408  0.7072 -0.0338
  935MPD2    C513677   0.514   0.826   1.503  0.9477 -0.9816 -0.0342
  935MPD2     H13678   0.194   0.879   1.321  0.6477  2.3384 -0.8652
  935MPD2    H113679   0.490   1.019   1.583  2.2202  0.7999 -2.6876
  935MPD2    H213680   0.539   0.646   1.417 -1.5833 -1.1049  0.5319
  935MPD2    H313681   0.612   0.816   1.547  0.9063  0.0568  0.2955
  935MPD2     N13682   0.247   1.074   1.490  0.4232 -0.4322  0.5878
  935MPD2    H513683   0.289   1.144   1.549 -0.2797  0.5506 -0.0652
  935MPD2    N113684   0.319   0.664   1.246  0.1915 -0.4264  0.1133
  935MPD2    H713685   0.235   0.694   1.198 -0.8065 -0.9280  1.5355
  936MPD2     C13686   3.471   3.006  12.392  0.6377 -0.2087  0.5397
  936MPD2    C113687   3.528   3.031  12.515  0.2292 -0.2221  0.1053
  936MPD2    C213688   3.514   3.153  12.574  1.2752  0.3222 -0.4732
  936MPD2    C313689   3.427   3.251  12.519 -0.2096  0.3187 -0.2386
  936MPD2    C413690   3.370   3.223  12.396 -0.4634  0.7549 -0.7063
  936MPD2    C513691   3.395   3.105  12.334 -0.5072 -0.4273  0.4018
  936MPD2     H13692   3.573   3.173  12.663  1.6592  1.1655 -0.9174
  936MPD2    H113693   3.306   3.297  12.350  0.5262  0.3779 -2.6808
  936MPD2    H213694   3.472   2.903  12.358 -3.4094 -0.5881  1.6225
  936MPD2    H313695   3.358   3.094  12.232 -0.9931  2.1784  0.2870
  936MPD2     N13696   3.421   3.381  12.568 -0.2700  0.0308  0.4462
  936MPD2    H513697   3.358   3.446  12.523  0.2791 -0.8083 -1.5193
  936MPD2    N113698   3.606   2.925  12.569  0.3880  0.8064  0.0934
  936MPD2    H713699   3.616   2.836  12.519  1.8537 -0.2058  2.1949
  937MPD2     C13700   1.671   4.053  11.658 -0.4959  0.7535  0.3347
  937MPD2    C113701   1.657   4.186  11.632  0.1136  0.3878 -0.6451
  937MPD2    C213702   1.721   4.237  11.513 -0.5774  0.3084  0.5144
  937MPD2    C313703   1.804   4.156  11.431  0.4025 -0.4433  0.0941
  937MPD2    C413704   1.812   4.025  11.464  0.2714 -0.0797 -0.3202
  937MPD2    C513705   1.754   3.973  11.577 -0.5189  0.3531  0.7001
  937MPD2     H13706   1.712   4.340  11.481 -1.5882  1.0331  3.1435
  937MPD2    H113707   1.861   3.950  11.403  2.5687  1.9751 -1.0296
  937MPD2    H213708   1.604   3.997  11.722 -0.0541  0.7564  0.7980
  937MPD2    H313709   1.777   3.870  11.600  2.1872  0.3080 -2.1851
  937MPD2     N13710   1.878   4.215  11.317  0.1526  0.1326 -0.1161
  937MPD2    H513711   1.868   4.315  11.302 -0.2796  0.2449  0.9143
  937MPD2    N113712   1.554   4.258  11.701  0.4322  0.4581  0.1514
  937MPD2    H713713   1.501   4.201  11.766 -0.9253  1.2907 -0.2319
  938MPD2     C13714   4.319   0.642   1.314 -0.6920  0.9461 -0.4316
  938MPD2    C113715   4.238   0.757   1.312  0.5854  0.8195  0.0182
  938MPD2    C213716   4.106   0.750   1.368 -0.5123  0.4268  0.3126
  938MPD2    C313717   4.058   0.632   1.424 -0.0082 -0.1370  0.7486
  938MPD2    C413718   4.146   0.525   1.438 -0.2147  0.2366 -0.5147
  938MPD2    C513719   4.271   0.527   1.379 -0.4146  0.9131  0.2371
  938MPD2     H13720   4.050   0.842   1.379  0.3953  1.0335 -0.1329
  938MPD2    H113721   4.120   0.437   1.497  0.0493 -0.4548 -1.4287
  938MPD2    H213722   4.420   0.639   1.275  0.3348 -2.1840  2.5134
  938MPD2    H313723   4.340   0.447   1.403  0.0492  0.9630 -0.9233
  938MPD2     N13724   3.943   0.615   1.497 -0.3299 -0.0005  0.1956
  938MPD2    H513725   3.923   0.526   1.540 -0.6373  0.0781  0.2176
  938MPD2    N113726   4.277   0.870   1.245  0.2395 -0.0199  0.4896
  938MPD2    H713727   4.204   0.935   1.222  0.5069  0.3874  0.7932
  939MPD2     C13728   1.235   2.463   1.114 -0.0991 -0.0650  0.2500
  939MPD2    C113729   1.292   2.560   1.196 -0.6848 -0.5595  0.4890
  939MPD2    C213730   1.427   2.582   1.179  0.1370 -0.2145 -0.5302
  939MPD2    C313731   1.505   2.515   1.087  0.0168  0.5115  0.0978
  939MPD2    C413732   1.449   2.407   1.016 -0.3833  0.5607  0.0147
  939MPD2    C513733   1.312   2.390   1.025 -0.9124 -0.1325 -0.0885
  939MPD2     H13734   1.484   2.655   1.235 -0.0363 -1.4899  1.3275
  939MPD2    H113735   1.494   2.351   0.935 -1.3445 -0.9056  0.4908
  939MPD2    H213736   1.129   2.440   1.122 -0.3717  1.7348  1.6986
  939MPD2    H313737   1.258   2.324   0.957  0.6854  0.6540 -2.1014
  939MPD2     N13738   1.640   2.558   1.061  0.5733  0.2078 -0.2875
  939MPD2    H513739   1.689   2.617   1.127 -0.5561 -0.8581  1.4896
  939MPD2    N113740   1.208   2.610   1.294  0.3638  0.6279  0.4106
  939MPD2    H713741   1.110   2.585   1.285  1.1489 -2.0919 -0.7837
  940MPD2     C13742   4.389   3.131  13.092 -0.4807  0.2229  0.3336
  940MPD2    C113743   4.363   3.009  13.163 -0.3773  0.2049 -0.1887
  940MPD2    C213744   4.410   2.894  13.105 -0.4078 -0.1166 -0.4879
  940MPD2    C313745   4.482   2.891  12.982 -0.6327  0.0083  0.6745
  940MPD2    C413746   4.510   3.012  12.921  0.2819 -0.3231 -0.4871
  940MPD2    C513747   4.467   3.128  12.977 -0.3148 -0.6113  0.3882
  940MPD2     H13748   4.403   2.801  13.160 -1.7857  1.0524  1.3174
  940MPD2    H113749   4.582   3.016  12.841 -2.2527  0.5371 -2.7199
  940MPD2    H213750   4.350   3.228  13.120  1.2802  1.5424 -1.7780
  940MPD2    H313751   4.492   3.217  12.920 -1.0363  0.2210  1.3748
  940MPD2     N13752   4.530   2.773  12.918 -0.5885 -0.9244  0.6673
  940MPD2    H513753   4.601   2.792  12.848  0.2102  0.4232  1.8458
  940MPD2    N113754   4.299   2.996  13.290  0.0687  0.6791 -0.1165
  940MPD2    H713755   4.311   2.908  13.340  0.7551  1.2266  0.6795
  941MPD2     C13756   4.213   1.535   9.369  0.6961 -0.1022 -0.4025
  941MPD2    C113757   4.157   1.517   9.498 -0.3435  0.2650 -0.4179
  941MPD2    C213758   4.060   1.424   9.511 -0.0293  0.5894  0.6033
  941MPD2    C313759   4.031   1.338   9.405 -0.4272  0.0561 -0.1794
  941MPD2    C413760   4.106   1.347   9.288 -0.4667  0.6646  0.0076
  941MPD2    C513761   4.195   1.445   9.272 -0.2545  0.1792  0.2942
  941MPD2     H13762   4.000   1.417   9.601 -0.9670  0.1034 -0.0625
  941MPD2    H113763   4.115   1.268   9.214 -1.7622  2.4249 -2.0153
  941MPD2    H213764   4.276   1.621   9.347  1.2815 -0.0579  1.4357
  941MPD2    H313765   4.247   1.445   9.177  1.0160  1.6869  0.9841
  941MPD2     N13766   3.931   1.238   9.423  0.7073 -0.9496 -0.1644
  941MPD2    H513767   3.924   1.169   9.349  0.7920 -0.6957 -0.4121
  941MPD2    N113768   4.181   1.615   9.605 -0.7970 -0.0147  0.4277
  941MPD2    H713769   4.119   1.605   9.685 -1.8799 -1.2075 -0.5582
  942MPD2     C13770   2.929   3.613   9.570 -0.1520 -0.3980  0.8471
  942MPD2    C113771   2.968   3.486   9.595  0.2731 -0.0371 -0.0338
  942MPD2    C213772   3.093   3.454   9.550 -0.0222  0.0401  0.3777
  942MPD2    C313773   3.176   3.538   9.477 -0.2175 -0.1539 -0.2166
  942MPD2    C413774   3.130   3.668   9.459  0.3324 -0.5227 -0.3089
  942MPD2    C513775   3.005   3.703   9.500 -0.5107 -0.3160  0.6549
  942MPD2     H13776   3.130   3.353   9.564 -2.5461 -1.3354 -3.0244
  942MPD2    H113777   3.203   3.738   9.419 -0.3974 -0.3038 -1.2555
  942MPD2    H213778   2.836   3.652   9.611 -2.0409 -2.0125 -1.9447
  942MPD2    H313779   2.975   3.806   9.484 -0.9095 -0.5444 -0.0534
  942MPD2     N13780   3.293   3.495   9.418 -0.3545  0.7969  0.3405
  942MPD2    H513781   3.351   3.569   9.380  0.2175  0.5759  0.7896
  942MPD2    N113782   2.892   3.390   9.668 -0.7640 -0.3620  0.4818
  942MPD2    H713783   2.935   3.301   9.692 -1.4154 -0.6941  0.4113
  943MPD2     C13784   3.045   2.071  10.116  0.2948 -0.4886  0.2707
  943MPD2    C113785   2.939   2.104  10.034 -0.3950 -0.0226 -0.3584
  943MPD2    C213786   2.944   2.228   9.967  0.2764 -0.3721  0.7478
  943MPD2    C313787   3.045   2.321  10.005  0.5266  0.5611 -0.9879
  943MPD2    C413788   3.140   2.285  10.093 -0.5695  0.5226 -1.2230
  943MPD2    C513789   3.138   2.162  10.149 -0.0215 -0.1297 -0.3316
  943MPD2     H13790   2.869   2.256   9.893 -1.1568 -0.9341  2.0058
  943MPD2    H113791   3.216   2.353  10.129 -0.7184  1.1697 -2.1197
  943MPD2    H213792   3.058   1.972  10.158 -0.6756 -0.6710  0.1412
  943MPD2    H313793   3.215   2.139  10.222  0.1660  1.1273 -0.1331
  943MPD2     N13794   3.062   2.444   9.940  0.4049 -0.0517  0.3285
  943MPD2    H513795   3.146   2.492   9.969  0.7168 -0.3754 -0.0362
  943MPD2    N113796   2.844   2.006  10.008 -0.7153 -0.3664 -0.2011
  943MPD2    H713797   2.860   1.917  10.054  0.1562  0.0245  0.2676
  944MPD2     C13798   1.534   0.479  11.677  0.3484 -0.3597 -0.0734
  944MPD2    C113799   1.618   0.537  11.584  0.9544  0.4614  0.1158
  944MPD2    C213800   1.651   0.668  11.614  0.3925  0.5245  0.2866
  944MPD2    C313801   1.600   0.740  11.719 -0.3376 -1.1806  0.3360
  944MPD2    C413802   1.509   0.680  11.805  0.0780 -0.1682  0.4834
  944MPD2    C513803   1.475   0.553  11.781  0.2275  0.6332  0.3116
  944MPD2     H13804   1.714   0.721  11.544  0.1130  2.4207  1.4764
  944MPD2    H113805   1.448   0.733  11.878 -1.1402 -1.9009  0.7195
  944MPD2    H213806   1.496   0.378  11.665 -1.8055  0.6814 -2.0749
  944MPD2    H313807   1.394   0.515  11.842  0.3872  0.2550  0.2895
  944MPD2     N13808   1.648   0.874  11.739 -0.0173  0.2248 -0.5124
  944MPD2    H513809   1.717   0.901  11.670  0.5021  2.0725  0.7579
  944MPD2    N113810   1.679   0.461  11.479 -0.1871  0.0582  0.5300
  944MPD2    H713811   1.658   0.362  11.485 -1.1584  0.2504  0.3420
    1TCq1    O113812   0.372   1.869  13.970 -0.7098 -1.1874  0.1598
    1TCq1    C113813   0.473   1.950  13.923 -0.3208  0.5842  0.2011
    1TCq1    O213814   0.490   1.974  13.803  0.3282  0.8274  0.3647
    1TCq1    C213815   0.575   1.917  14.014 -0.0176 -0.1390 -0.2874
    1TCq1    C313816   0.667   1.822  13.969 -0.5206 -0.0951 -0.2552
    1TCq1    C413817   0.766   1.791  14.051 -0.1737  0.1720 -0.5374
    1TCq1    C513818   0.797   1.867  14.157 -0.0374 -0.4213  0.1502
    1TCq1    C613819   0.712   1.965  14.197 -0.2344 -0.2745  0.3266
    1TCq1    C713820   0.595   1.996  14.123  0.5715  0.4423 -0.7294
    1TCq1    C813821   0.755   2.048  14.309  1.0798 -0.7390  0.2706
    1TCq1    O413822   0.871   2.027  14.344 -0.1735 -0.9941  0.0472
    1TCq1    C913823   0.842   1.678  14.013 -0.3183  0.8711 -0.1188
    1TCq1    O513824   0.923   1.635  14.098 -0.0406  0.7603 -0.7116
    1TCq1    O613825   0.837   1.646  13.890 -0.2141 -0.1656 -0.2524
    1TCq1    H113826   0.377   1.848  14.066  0.5154  1.7137  0.7358
    1TCq1    H213827   0.645   1.767  13.879 -1.0093 -1.9648  0.9939
    1TCq1    H313828   0.880   1.833  14.218 -0.3865 -0.6129  0.5188
    1TCq1    H413829   0.530   2.078  14.149  3.2568  2.9129 -1.7783
    2MPD2     C13830   0.766   2.444  14.630 -0.5974  0.7129 -0.4186
    2MPD2    C113831   0.641   2.436  14.579  0.0017  0.4491  1.1135
    2MPD2    C213832   0.609   2.335  14.495  0.0550 -0.4528 -0.0999
    2MPD2    C313833   0.700   2.234  14.463  0.1669  0.2165 -0.4260
    2MPD2    C413834   0.822   2.236  14.525 -0.1665  0.0417 -0.0655
    2MPD2    C513835   0.856   2.338  14.614 -0.2438 -0.1097 -0.6736
    2MPD2     H13836   0.510   2.334  14.450  0.2177  1.8441 -0.4958
    2MPD2    H113837   0.881   2.145  14.522 -0.3267  0.0716 -4.2026
    2MPD2    H213838   0.793   2.533  14.686  0.1054  1.5771 -2.1131
    2MPD2    H313839   0.946   2.346  14.673 -1.4317 -0.8439  1.2305
    2MPD2     N13840   0.662   2.132  14.369 -0.0046 -0.0696 -0.6376
    2MPD2    H513841   0.570   2.142  14.328 -1.4241  1.7336  3.0371
    2MPD2    N113842   0.566   2.548  14.588  0.7769 -0.0866  0.0051
    2MPD2    H713843   0.615   2.635  14.607 -2.3595  1.5514  0.5371
    3TMC2    C113844   0.385   2.692  14.569  0.2776  0.0146 -0.0132
    3TMC2    C213845   0.452   2.792  14.645  0.3077 -0.1100  0.1983
    3TMC2    C313846   0.401   2.918  14.620  0.3462  0.1839 -0.8466
    3TMC2    C413847   0.281   2.720  14.487 -0.5175 -0.1206 -0.0533
    3TMC2    C513848   0.248   2.849  14.468  0.0589  0.3796  0.5639
    3TMC2    C613849   0.300   2.950  14.539  0.0063  0.3077  0.8265
    3TMC2     C13850   0.432   2.556  14.564  0.9393  0.5775  0.0385
    3TMC2     O13851   0.348   2.475  14.533 -0.1850  0.2661 -0.6887
    3TMC2     H13852   0.511   2.766  14.732 -1.8351 -0.0020  1.6916
    3TMC2    H113853   0.263   2.662  14.397 -0.0419  0.3907 -0.4746
    3TMC2    H213854   0.265   3.052  14.532 -0.8563  0.0701  1.6732
    3TMC2    C713855   0.179   2.883  14.343 -0.0364  0.3474 -0.1500
    3TMC2    C813856   0.478   3.033  14.660  0.0502 -0.5473  0.2819
    3TMC2    O113857   0.092   2.808  14.303  0.5119  0.1200 -0.4242
    3TMC2    O213858   0.432   3.146  14.689 -0.1390  0.1187  0.0102
    3TMC2    O513859   0.608   2.992  14.682  0.2639  0.2461  0.4843
    3TMC2    H513860   0.633   2.910  14.634  0.1367  0.0652  0.7231
    4MPD2     C13861   4.632   3.963  13.560  0.2451  0.0396 -0.6619
    4MPD2    C113862   4.657   3.835  13.512  0.4768 -0.8693  0.0086
    4MPD2    C213863   0.051   3.779  13.549  0.0389 -0.5060 -0.4977
    4MPD2    C313864   0.135   3.837  13.648  0.3539 -1.0150  0.3399
    4MPD2    C413865   0.087   3.943  13.713  0.1503  0.4150  0.3151
    4MPD2    C513866   4.707   4.014  13.664 -0.0462 -0.6801  0.0933
    4MPD2     H13867   0.090   3.690  13.499 -0.2991  0.7444 -2.9914
    4MPD2    H113868   0.147   3.991  13.789  2.7977 -1.0558 -0.8622
    4MPD2    H213869   4.551   4.025  13.524 -0.2354 -2.3151 -3.6739
    4MPD2    H313870   4.683   4.111  13.705  3.2174 -1.1568  3.0800
    4MPD2     N13871   0.252   3.764  13.690 -0.0142  0.4840 -0.7607
    4MPD2    H513872   0.264   3.672  13.649 -0.3429 -1.4385  3.4502
    4MPD2    N113873   4.573   3.791  13.409 -0.3082 -0.1828  0.8581
    4MPD2    H713874   4.497   3.852  13.379  1.2684 -0.4645 -3.6938
    5TCq2    C113875   0.347   3.811  13.776  0.1576 -0.0196 -0.4708
    5TCq2    O213876   0.367   3.912  13.847  0.0576  0.0329 -0.1593
    5TCq2    C213877   0.452   3.712  13.798  0.0589 -0.5444 -0.1292
    5TCq2    C313878   0.560   3.751  13.869  0.1320  0.1755 -0.0057
    5TCq2    C413879   0.618   3.691  13.975  0.1267  0.0564 -0.1958
    5TCq2    C513880   0.569   3.570  14.014  0.2528  0.1883 -0.0147
    5TCq2    C613881   0.460   3.528  13.948 -0.0558  0.1386 -0.0831
    5TCq2    C713882   0.401   3.592  13.840 -0.3291  0.8177 -0.9922
    5TCq2    C813883   0.400   3.417  14.024  0.0478 -1.2713 -0.7882
    5TCq2    O413884   0.455   3.379  14.127  0.7450 -0.0530  0.6042
    5TCq2    C913885   0.725   3.763  14.046 -0.0182 -0.0714  0.8426
    5TCq2    O513886   0.784   3.703  14.136  0.3216  0.0574  0.1470
    5TCq2    O613887   0.772   3.864  13.987 -0.1858  0.3556 -0.6474
    5TCq2    H213888   0.592   3.852  13.847 -0.1570  0.5942  1.4866
    5TCq2    H313889   0.620   3.510  14.089  1.5452 -1.4391 -2.1904
    5TCq2    H413890   0.311   3.547  13.798 -2.8920  3.9472  1.0733
    6MPD1     C13891   3.736   4.301  11.772 -0.3524  0.5819 -1.2086
    6MPD1    C113892   3.662   4.308  11.891 -0.4930  0.3501  0.2588
    6MPD1    C213893   3.727   4.297  12.013 -0.5059  0.1421 -0.1891
    6MPD1    C313894   3.867   4.277  12.015  1.0848 -0.5568  0.8677
    6MPD1    C413895   3.940   4.259  11.896  0.0106 -0.7098  0.3153
    6MPD1    C513896   3.874   4.270  11.782 -0.3471  0.1911  0.3833
    6MPD1     H13897   3.662   4.287  12.100  0.8489 -1.4511  0.6326
    6MPD1    H113898   4.044   4.227  11.893 -0.2680 -1.8080  2.0253
    6MPD1    H213899   3.697   4.334  11.677 -0.0864 -0.0412 -1.5375
    6MPD1    H313900   3.929   4.251  11.691 -0.3103 -1.2320  0.6906
    6MPD1     N13901   3.948   4.277  12.128  0.1538 -0.0575  0.1021
    6MPD1    H513902   4.043   4.249  12.107 -0.1448 -1.5904  0.7570
    6MPD1    N113903   3.517   4.317  11.883 -0.5808 -0.7381 -0.5788
    6MPD1    H613904   3.480   4.338  11.790 -1.1891 -0.3759 -0.2579
    6MPD1    H713905   3.461   4.358  11.957 -1.0818  0.3608 -1.5616
    7MPD2     C13906   3.960   4.220  12.995 -0.6122  0.5086 -0.4691
    7MPD2    C113907   4.063   4.167  12.926 -0.0638 -0.0607 -0.1441
    7MPD2    C213908   4.142   4.064  12.977 -0.9781 -0.4387  0.1842
    7MPD2    C313909   4.110   4.006  13.099  0.0935 -0.5436  0.1877
    7MPD2    C413910   4.001   4.054  13.173 -0.0308  0.5079 -0.3888
    7MPD2    C513911   3.932   4.166  13.122 -0.2106  0.7638 -0.0420
    7MPD2     H13912   4.235   4.045  12.926 -1.7401 -0.0830 -1.3302
    7MPD2    H113913   3.974   4.012  13.269 -0.2866 -0.8399 -1.0522
    7MPD2    H213914   3.896   4.294  12.950  1.1443  2.5532  0.4069
    7MPD2    H313915   3.855   4.212  13.183 -0.4773  0.9111 -0.4881
    7MPD2     N13916   4.178   3.891  13.149  0.0842 -0.6687 -0.3361
    7MPD2    H513917   4.147   3.856  13.239 -0.4603 -1.0326 -0.6694
    7MPD2    N113918   4.109   4.214  12.802 -0.5149  0.1717  0.1592
    7MPD2    H713919   4.191   4.170  12.761  0.0564  0.3176  1.1317
    8TMC3    C113920   4.289   3.676  13.131 -0.1889 -0.4660  0.1093
    8TMC3    C213921   4.370   3.704  13.235 -0.1377 -0.0624  1.1538
    8TMC3    C313922   4.499   3.656  13.226 -0.1640  0.7623 -0.7205
    8TMC3    C413923   4.330   3.592  13.028  0.8809  0.7618 -0.6376
    8TMC3    C513924   4.456   3.549  13.035  0.2525  0.4839  0.0691
    8TMC3    C613925   4.551   3.580  13.124  0.0085 -0.0467 -0.6766
    8TMC3     C13926   4.244   3.800  13.071  0.9050 -0.1854  0.1481
    8TMC3     O13927   4.265   3.811  12.952 -0.1019 -0.8921 -0.0496
    8TMC3     H13928   4.327   3.760  13.317 -1.5858  0.5416 -0.0227
    8TMC3    H113929   4.259   3.577  12.948  0.4683  3.2385 -0.7365
    8TMC3    H213930   4.657   3.566  13.105  0.3602  0.1715  1.1013
    8TMC3    C713931   4.510   3.557  12.899 -0.2590  0.5767  0.1798
    8TMC3    C813932   4.591   3.677  13.338 -0.4107  0.1875 -0.3035
    8TMC3    O113933   4.591   3.474  12.860 -0.5328 -0.2019 -0.4845
    8TMC3    O213934   4.678   3.591  13.356 -0.2532 -0.4729 -0.1957
    9TMC3    C113935   4.019   4.277  12.353  0.0319  0.3921  0.2945
    9TMC3    C213936   4.126   4.201  12.327  0.0951  0.1375 -0.4470
    9TMC3    C313937   4.218   4.168  12.420 -0.3410  0.5704  0.5918
    9TMC3    C413938   3.987   4.308  12.485 -0.0002  0.2214 -0.0513
    9TMC3    C513939   4.081   4.269  12.573 -0.1104  0.5520 -0.8120
    9TMC3    C613940   4.200   4.212  12.541  0.0398 -0.4374  0.7266
    9TMC3     C13941   3.906   4.304  12.259  0.8299  0.2045 -0.8788
    9TMC3     O13942   3.794   4.335  12.298  0.0174  0.4250  0.1225
    9TMC3     H13943   4.132   4.163  12.225  4.4159 -0.5791  0.0817
    9TMC3    H113944   3.902   4.370  12.511  0.5295  1.4434 -1.1781
    9TMC3    H213945   4.291   4.224  12.600  0.1153  0.3154  0.4556
    9TMC3    C713946   4.035   4.292  12.713  0.6396  0.7782  0.4780
    9TMC3    C813947   4.296   4.043  12.390  0.1306  0.2611  0.1964
    9TMC3    O113948   3.942   4.370  12.737 -0.5068 -0.0640  0.5287
    9TMC3    O213949   4.348   4.019  12.277  0.1933  0.2140  0.4756
   10MPD2     C13950   4.540   3.632  12.606 -0.0732 -0.0590  0.6792
   10MPD2    C113951   4.461   3.696  12.698 -1.1811 -0.5947 -0.1288
   10MPD2    C213952   4.386   3.807  12.658 -0.4153 -0.0616 -0.2289
   10MPD2    C313953   4.382   3.855  12.531  0.9749 -0.6218  0.1537
   10MPD2    C413954   4.467   3.792  12.436  0.0135 -0.5298  0.1736
   10MPD2    C513955   4.540   3.679  12.475  0.4998 -0.0746 -0.2474
   10MPD2     H13956   4.328   3.861  12.732  1.0666  0.7993  0.3122
   10MPD2    H113957   4.467   3.830  12.334  1.6953  2.0679  1.1521
   10MPD2    H213958   4.601   3.544  12.623  0.4509  0.2054  0.1719
   10MPD2    H313959   4.592   3.625  12.397 -1.6925 -2.2129 -0.2551
   10MPD2     N13960   4.297   3.971  12.505  0.2993 -0.3205  0.8458
   10MPD2    H513961   4.247   4.012  12.583 -1.4142 -0.8491  0.0300
   10MPD2    N113962   4.445   3.658  12.831  0.0673 -0.2245 -0.3964
   10MPD2    H713963   4.379   3.705  12.893 -3.2212 -0.4168 -3.8052
   11MPD2     C13964   0.076   3.026  14.111 -0.6807  0.5918 -0.4665
   11MPD2    C113965   0.193   3.057  14.172  0.3368  0.3578 -0.0441
   11MPD2    C213966   0.265   3.165  14.130  0.0232  0.6232 -0.0105
   11MPD2    C313967   0.220   3.249  14.025  0.4757  0.3658 -0.0549
   11MPD2    C413968   0.102   3.218  13.966  0.5272 -0.4568 -0.5382
   11MPD2    C513969   0.032   3.107  14.006 -0.0987  0.6203  0.4813
   11MPD2     H13970   0.358   3.177  14.186  0.7572  1.9166 -1.4980
   11MPD2    H113971   0.065   3.280  13.886 -0.4672  0.9579  1.0218
   11MPD2    H213972   0.006   2.951  14.145  0.0810 -0.0192 -0.2483
   11MPD2    H313973   4.657   3.090  13.965  0.2199  0.2958 -0.1598
   11MPD2     N13974   0.292   3.363  13.966  0.0715  0.3388  0.6043
   11MPD2    H513975   0.244   3.415  13.893 -1.1090  0.4855  1.4782
   11MPD2    N113976   0.235   2.999  14.291  0.9066  0.0434 -0.1518
   11MPD2    H713977   0.321   3.028  14.336  0.6041  0.6117  0.0581
    1MPD1     C13978   3.328   4.365  17.202 -0.5492  0.2139  0.4938
    1MPD1    C113979   3.220   4.392  17.115 -0.3044 -0.2240 -0.0331
    1MPD1    C213980   3.237   4.470  17.002  0.6087 -0.2535 -1.3048
    1MPD1    C313981   3.359   4.534  16.987 -0.7234  0.2646  0.5402
    1MPD1    C413982   3.469   4.508  17.066 -0.3417 -0.2283  0.0063
    1MPD1    C513983   3.451   4.421  17.172 -0.6030  0.6990 -0.4545
    1MPD1     H13984   3.154   4.476  16.933 -1.0742  4.6820  1.1737
    1MPD1    H113985   3.565   4.557  17.056 -0.6088  0.4981  1.0102
    1MPD1    H213986   3.319   4.315  17.298  0.6637  0.3398  0.6784
    1MPD1    H313987   3.530   4.403  17.244 -0.1825  2.8658 -0.3616
    1MPD1     N13988   3.377   4.630  16.882 -0.0503 -0.0715  0.3251
    1MPD1    H513989   3.470   4.670  16.868 -0.1622 -0.4339 -1.4499
    1MPD1    N113990   3.102   4.321  17.131 -0.0675  0.2184 -0.2762
    1MPD1    H613991   3.083   4.300  17.229  1.0482  0.7161  0.0522
    1MPD1    H713992   3.021   4.360  17.082  0.2299 -0.6977 -1.4934
    2MPD1     C13993   4.148   0.146  16.635  0.6576 -0.2355 -0.3647
    2MPD1    C113994   4.090   0.019  16.651 -0.0788  0.5598 -0.4031
    2MPD1    C213995   3.953   0.016  16.666 -0.5489 -0.3810 -0.0444
    2MPD1    C313996   3.876   0.132  16.656  1.0572 -0.4336  0.5671
    2MPD1    C413997   3.938   0.256  16.631 -0.0974 -0.7200 -0.1246
    2MPD1    C513998   4.071   0.260  16.633 -0.6879  0.6659 -0.2331
    2MPD1     H13999   3.906   4.645  16.687  1.2900 -1.0972  0.9116
    2MPD1    H114000   3.881   0.348  16.629 -1.2861 -1.4464  0.3259
    2MPD1    H214001   4.256   0.159  16.636  0.5174  0.8224  1.0804
    2MPD1    H314002   4.120   0.356  16.623 -0.5698  0.6686  0.3853
    2MPD1     N14003   3.736   0.127  16.675  0.1460  0.0327  0.0668
    2MPD1    H514004   3.712   0.040  16.722  0.8117  0.0815  0.4952
    2MPD1    N114005   4.179   4.632  16.671  0.1765 -0.3378 -0.7007
    2MPD1    H614006   4.128   4.544  16.663 -1.3368  0.3697  1.2580
    2MPD1    H714007   4.260   4.627  16.609  0.9465  0.9655  0.2073
    3TMC3    C114008   3.510   0.202  16.648  0.6542  0.4166 -0.6069
    3TMC3    C214009   3.417   0.265  16.565 -0.0321 -0.9218 -0.5880
    3TMC3    C314010   3.284   0.241  16.588 -0.6121  0.5549 -0.1714
    3TMC3    C414011   3.467   0.099  16.729 -0.5388 -0.5477 -0.0092
    3TMC3    C514012   3.327   0.079  16.738  0.4385  0.2356 -0.6329
    3TMC3    C614013   3.237   0.147  16.667 -0.3110  0.5427  0.0814
    3TMC3     C14014   3.650   0.223  16.622  0.4423  0.5478 -0.0416
    3TMC3     O14015   3.673   0.335  16.566  0.3448  0.0768 -0.4882
    3TMC3     H14016   3.447   0.346  16.499  0.5575 -1.2778 -0.7531
    3TMC3    H114017   3.538   0.051  16.797  0.4182  3.8643  2.1313
    3TMC3    H214018   3.130   0.138  16.679 -0.5537 -0.1157 -2.4639
    3TMC3    C714019   3.278   4.699  16.821 -0.5600 -0.3440  0.4947
    3TMC3    C814020   3.184   0.323  16.528 -0.4076  0.5344  0.6214
    3TMC3    O114021   3.156   4.685  16.828 -0.2660 -0.2405  0.2169
    3TMC3    O214022   3.074   0.325  16.572  0.1528  0.1574 -0.2010
    4MPD1     C14023   3.021   0.603  16.132  0.3216 -0.2727  0.3347
    4MPD1    C114024   3.162   0.607  16.127 -0.0383 -0.3080 -0.1244
    4MPD1    C214025   3.221   0.518  16.217 -0.3153  0.1083 -0.2348
    4MPD1    C314026   3.154   0.470  16.328  0.2628 -0.0873 -0.2607
    4MPD1    C414027   3.017   0.493  16.343  0.3597  0.3516 -0.3740
    4MPD1    C514028   2.952   0.558  16.245 -0.2976  0.1934 -0.3471
    4MPD1     H14029   3.319   0.475  16.203 -0.9181 -1.8067  1.3132
    4MPD1    H114030   2.958   0.459  16.428 -0.0583 -1.2278 -1.2903
    4MPD1    H214031   2.962   0.654  16.056 -0.2867 -0.5136  0.6422
    4MPD1    H314032   2.845   0.576  16.248 -0.0753  1.6608 -1.0956
    4MPD1     N14033   3.232   0.390  16.415 -0.3251 -0.2460 -0.1621
    4MPD1    H514034   3.326   0.367  16.385 -0.9015 -1.4608 -1.0753
    4MPD1    N114035   3.223   0.647  16.008  0.3911  0.0311 -0.0846
    4MPD1    H614036   3.186   0.738  15.979  0.9746  0.2582 -0.1167
    4MPD1    H714037   3.319   0.669  16.033 -0.3370  1.8791  1.1030
    1TCq1    O114038   4.368   3.972  10.634 -0.0750 -0.5390  0.3664
    1TCq1    C114039   4.353   3.980  10.506  0.1867 -1.3132  0.3316
    1TCq1    O214040   4.446   3.993  10.426  0.1233 -0.6415 -0.2524
    1TCq1    C214041   4.237   4.061  10.502  0.4413  0.1544 -0.6304
    1TCq1    C314042   4.241   4.186  10.447  0.0463  0.4014  1.1432
    1TCq1    C414043   4.124   4.252  10.426  0.3130 -0.0431 -0.2747
    1TCq1    C514044   4.012   4.202  10.487 -0.3317  0.1717  0.1222
    1TCq1    C614045   4.014   4.081  10.551 -0.2379  0.3192 -0.1843
    1TCq1    C714046   4.129   4.005  10.559  1.0517 -0.9033  1.2344
    1TCq1    C814047   3.906   4.041  10.642 -0.7257 -0.0093 -0.0667
    1TCq1    O414048   3.905   3.925  10.680 -0.1610 -0.1103 -0.0773
    1TCq1    C914049   4.128   4.388  10.381 -0.1914 -0.7267 -0.6548
    1TCq1    O514050   4.011   4.433  10.359  0.1113  0.3341  0.4191
    1TCq1    O614051   4.236   4.447  10.385  0.1003  0.2044 -0.2985
    1TCq1    H114052   4.321   4.037  10.690  1.6812  1.8304 -0.9317
    1TCq1    H214053   4.336   4.229  10.417  0.1501  0.0395  0.9536
    1TCq1    H314054   3.925   4.267  10.490 -1.8057 -1.8797  1.9664
    1TCq1    H414055   4.121   3.906  10.603  3.1371 -1.3751  0.5431
    2MPD1     C14056   3.459   4.152  10.886 -0.3996 -0.0397 -0.0342
    2MPD1    C114057   3.487   4.261  10.801  0.3933  0.4238 -0.0320
    2MPD1    C214058   3.616   4.259  10.741  0.2134 -0.7537  0.3740
    2MPD1    C314059   3.700   4.149  10.745 -0.5624 -0.5006  0.0052
    2MPD1    C414060   3.661   4.039  10.820 -0.5925 -0.6847 -0.0184
    2MPD1    C514061   3.546   4.047  10.892  0.3350  0.3430 -0.2129
    2MPD1     H14062   3.650   4.341  10.679  0.8010  0.8423  2.8261
    2MPD1    H114063   3.727   3.952  10.824  0.7080  0.3721  1.4583
    2MPD1    H214064   3.373   4.133  10.949 -1.1619 -1.3410 -1.4904
    2MPD1    H314065   3.515   3.962  10.952  0.6449  0.0633 -0.4462
    2MPD1     N14066   3.822   4.150  10.675  0.7713  0.4012 -0.7765
    2MPD1    H514067   3.843   4.232  10.619  1.8377  0.7051  0.0731
    2MPD1    N114068   3.393   4.367  10.787  0.2851 -0.3329 -1.0427
    2MPD1    H614069   3.302   4.327  10.768  0.4040 -0.7560 -0.7022
    2MPD1    H714070   3.417   4.433  10.713 -1.5306  2.0599  0.4890
    1TCq1    O114071   2.460   4.628   2.549 -0.8620 -0.0498  0.5602
    1TCq1    C114072   2.462   4.683   2.423 -0.3273  0.3065 -0.2065
    1TCq1    O214073   2.512   4.641   2.319 -0.5955 -0.6255  0.4615
    1TCq1    C214074   2.349   0.052   2.417  1.4538  0.7095  0.0356
    1TCq1    C314075   2.324   0.120   2.534 -0.3390  0.4340 -0.2737
    1TCq1    C414076   2.199   0.179   2.554  0.4250 -0.4702  0.2611
    1TCq1    C514077   2.108   0.188   2.456  0.1614  0.1279  0.8544
    1TCq1    C614078   2.142   0.129   2.335  0.3588  0.9818  0.2297
    1TCq1    C714079   2.253   0.052   2.314  0.3875 -0.7983 -0.7315
    1TCq1    C814080   2.045   0.135   2.228  0.2970 -0.2557  1.0146
    1TCq1    O414081   2.057   0.061   2.132  0.5494 -0.7826  0.0189
    1TCq1    C914082   2.184   0.266   2.671  0.2316 -1.1027 -0.6891
    1TCq1    O514083   2.283   0.275   2.750 -0.2168 -0.0822  0.5916
    1TCq1    O614084   2.092   0.350   2.674  0.1667  0.8568  0.1861
    1TCq1    H114085   2.385   4.651   2.608 -1.3563  2.6521 -1.0967
    1TCq1    H214086   2.386   0.111   2.622 -0.8718  1.3582  0.1900
    1TCq1    H314087   2.007   0.228   2.464 -0.3782 -0.6516 -2.0421
    1TCq1    H414088   2.277   0.006   2.219  2.0249  1.2248 -1.3093
    2MPD1     C14089   1.662   0.378   1.991  0.1847  0.6946 -0.5202
    2MPD1    C114090   1.722   0.256   1.962 -0.1340  0.2134 -0.2869
    2MPD1    C214091   1.820   0.214   2.042  0.3602  0.1970  0.6306
    2MPD1    C314092   1.862   0.290   2.150  0.1742 -0.0214 -0.2614
    2MPD1    C414093   1.801   0.410   2.178 -0.0074 -0.3748  0.1501
    2MPD1    C514094   1.699   0.452   2.098 -0.4896  0.1730  0.4534
    2MPD1     H14095   1.850   0.110   2.030  1.3785  0.5763 -0.1137
    2MPD1    H114096   1.817   0.462   2.271  1.0036  2.2535 -1.4827
    2MPD1    H214097   1.578   0.413   1.931  0.8144  1.9434 -0.6566
    2MPD1    H314098   1.641   0.540   2.121  0.7694  1.2949 -0.6538
    2MPD1     N14099   1.970   0.249   2.239 -0.6795 -0.7458  0.3251
    2MPD1    H514100   1.999   0.314   2.312 -0.4871 -0.3759 -0.0799
    2MPD1    N114101   1.657   0.164   1.876  0.2674  0.1800  0.0416
    2MPD1    H614102   1.723   0.095   1.840  0.1719  0.0458  0.1245
    2MPD1    H714103   1.617   0.210   1.794  1.9056 -1.0200 -1.4216
    1MPD1     C14104   0.200   4.394  10.884  0.3977  0.3863  0.5353
    1MPD1    C114105   0.252   4.449  10.996 -0.5758  0.0767  0.3653
    1MPD1    C214106   0.311   4.357  11.086 -0.3006 -0.2233  0.4619
    1MPD1    C314107   0.338   4.230  11.054 -0.1644  0.3796  0.1075
    1MPD1    C414108   0.292   4.177  10.931 -0.8566  0.0506  0.5894
    1MPD1    C514109   0.227   4.264  10.850 -0.3491 -0.2201 -0.4599
    1MPD1     H14110   0.349   4.396  11.180 -2.2837  1.1995  0.6590
    1MPD1    H114111   0.307   4.078  10.891  2.6049  0.6173  0.5072
    1MPD1    H214112   0.138   4.450  10.814  0.7974 -0.5722 -0.5889
    1MPD1    H314113   0.179   4.219  10.764 -1.1544 -1.2171  0.5168
    1MPD1     N14114   0.403   4.155  11.151  0.3101  0.0817  0.0137
    1MPD1    H514115   0.439   4.207  11.230  1.8389 -0.3282 -0.4125
    1MPD1    N114116   0.232   4.586  11.026  0.7652 -0.0757 -0.0579
    1MPD1    H614117   0.258   4.643  10.945  1.1393  1.9975  1.4988
    1MPD1    H714118   0.296   4.616  11.100  0.1033  1.3544 -0.0710
    2MPD1     C14119   0.430   0.471  11.033  0.2047 -0.2127  0.7867
    2MPD1    C114120   0.343   0.364  11.041 -0.0818  0.4565 -0.1095
    2MPD1    C214121   0.370   0.253  10.963 -0.5326 -0.0541 -0.0709
    2MPD1    C314122   0.479   0.253  10.878 -0.5815  0.3513  1.8231
    2MPD1    C414123   0.567   0.356  10.873 -0.1940 -0.0747 -0.0334
    2MPD1    C514124   0.541   0.467  10.949 -0.0144  0.6616 -0.3498
    2MPD1     H14125   0.304   0.167  10.971  1.1936 -1.3997 -0.4556
    2MPD1    H114126   0.657   0.359  10.813 -0.6281  2.2814 -0.5411
    2MPD1    H214127   0.410   0.561  11.091  0.4310  1.2728 -1.4282
    2MPD1    H314128   0.600   0.558  10.950  2.8521 -1.2250  1.0987
    2MPD1     N14129   0.516   0.139  10.805  0.1861 -0.1223 -0.0861
    2MPD1    H514130   0.605   0.132  10.757  1.0590 -0.8891  1.6449
    2MPD1    N114131   0.235   0.369  11.134  0.4958 -0.4692 -0.2167
    2MPD1    H614132   0.194   0.462  11.141  0.4299 -0.5430  0.3305
    2MPD1    H714133   0.162   0.306  11.102  1.7839 -1.8783 -0.3854
    3MPD1     C14134   0.433   3.893  10.303  0.2828 -0.0318 -0.6075
    3MPD1    C114135   0.479   3.881  10.437 -0.1554  0.4391 -0.0626
    3MPD1    C214136   0.463   3.989  10.528  0.0126 -0.3132 -0.2123
    3MPD1    C314137   0.409   4.113  10.491  0.0862  0.6141  0.3627
    3MPD1    C414138   0.367   4.129  10.361 -0.4639  0.9304 -0.0593
    3MPD1    C514139   0.382   4.020  10.274 -0.4250  0.4332 -0.1670
    3MPD1     H14140   0.491   3.979  10.632  3.3469  1.5169 -0.9534
    3MPD1    H114141   0.316   4.220  10.332  0.9500  1.1825 -1.7382
    3MPD1    H214142   0.436   3.810  10.234  0.3736 -1.3955  1.0362
    3MPD1    H314143   0.336   4.030  10.177 -1.5176 -0.6063  0.2322
    3MPD1     N14144   0.419   4.220  10.586 -0.0122  0.8094 -0.4872
    3MPD1    H514145   0.454   4.194  10.678  1.6772 -2.6241 -2.0772
    3MPD1    N114146   0.520   3.760  10.494 -0.5925 -0.3152  0.1905
    3MPD1    H614147   0.590   3.769  10.567  1.8232  2.4218 -2.4931
    3MPD1    H714148   0.549   3.698  10.419 -1.3224 -0.4740  0.0340
    4MPD2     C14149   0.797   4.392  11.575 -0.0437 -0.1045 -0.2486
    4MPD2    C114150   0.855   4.270  11.530 -1.2747  0.6478  0.9408
    4MPD2    C214151   0.982   4.275  11.476  0.1992 -0.2470 -0.7726
    4MPD2    C314152   1.062   4.383  11.465 -0.4069 -0.4712 -0.1080
    4MPD2    C414153   1.004   4.504  11.512  0.2730  0.1255  0.3181
    4MPD2    C514154   0.874   4.504  11.570 -0.5384  0.0366  0.3663
    4MPD2     H14155   1.021   4.177  11.452 -0.1208  0.0164 -2.3732
    4MPD2    H114156   1.049   4.602  11.512 -0.1753  0.3312 -3.2436
    4MPD2    H214157   0.705   4.394  11.631 -0.9750 -0.5723 -1.7854
    4MPD2    H314158   0.836   4.595  11.616 -1.3672  0.0248 -0.3054
    4MPD2     N14159   1.194   4.364  11.423 -0.3003 -0.3343  0.2784
    4MPD2    H514160   1.232   4.275  11.392 -0.2745 -1.0699  2.4731
    4MPD2    N114161   0.788   4.150  11.526  0.5932  0.3002  0.0772
    4MPD2    H714162   0.837   4.075  11.477  0.7495  0.6535 -0.3047
    5TMC3    C114163   0.614   4.024  11.463 -0.4678 -0.2422 -0.3545
    5TMC3    C214164   0.526   4.052  11.363  0.2354 -0.4807 -0.9805
    5TMC3    C314165   0.531   3.983  11.244  0.5404  0.7187  0.8051
    5TMC3    C414166   0.703   3.921  11.444 -0.2640  0.4182 -0.3334
    5TMC3    C514167   0.722   3.871  11.321 -0.1217  1.2365  0.0863
    5TMC3    C614168   0.637   3.903  11.218  0.0368  0.0929 -0.3408
    5TMC3     C14169   0.655   4.142  11.545 -0.3722  0.0626 -0.5224
    5TMC3     O14170   0.567   4.227  11.572  0.0400  0.6246 -0.0652
    5TMC3     H14171   0.453   4.130  11.379 -1.1512 -1.9460 -0.1983
    5TMC3    H114172   0.765   3.872  11.519  0.5794  0.7427 -0.8155
    5TMC3    H214173   0.661   3.865  11.119 -1.5705 -0.9350 -0.3316
    5TMC3    C714174   0.863   3.888  11.290 -0.0822 -0.5047  0.2913
    5TMC3    C814175   0.450   4.027  11.135 -0.3221  0.1809  0.6721
    5TMC3    O114176   0.928   3.945  11.374 -0.0234  0.1304  0.5206
    5TMC3    O214177   0.431   3.949  11.045 -0.4849  0.4100 -0.1716
    6TMC3    C114178   0.507   4.662  10.716  0.0682  0.3738 -0.0379
    6TMC3    C214179   0.432   4.565  10.652 -0.7395  0.0368 -0.4991
    6TMC3    C314180   0.478   4.438  10.652 -0.3522  0.2116 -0.3514
    6TMC3    C414181   0.629   4.626  10.775 -0.1887  0.3580  0.3069
    6TMC3    C514182   0.675   4.497  10.759 -0.0379 -0.5993  0.3418
    6TMC3    C614183   0.600   4.401  10.696  0.2037  0.2116  0.1105
    6TMC3     C14184   0.429   0.034  10.776  0.2023 -1.1943 -0.1131
    6TMC3     O14185   0.308   0.024  10.787  0.2937  0.9837 -0.2062
    6TMC3     H14186   0.336   4.593  10.613 -2.1086 -3.2853  0.4481
    6TMC3    H114187   0.690   4.694  10.833  1.1183 -0.2064 -0.4045
    6TMC3    H214188   0.652   4.307  10.680 -1.5288 -0.8805  0.9666
    6TMC3    C714189   0.814   4.480  10.777  0.1835  0.0467  0.2507
    6TMC3    C814190   0.403   4.355  10.563  0.7195  0.8629 -0.3200
    6TMC3    O114191   0.867   4.568  10.841  0.4635  0.2386 -0.0533
    6TMC3    O214192   0.363   4.417  10.462 -0.0960  0.7218 -0.3256
    7MPD2     C14193   1.277   3.852  10.992 -0.4396 -0.2351 -0.5824
    7MPD2    C114194   1.258   3.927  11.108 -0.1988  0.8153 -0.4071
    7MPD2    C214195   1.129   3.932  11.159 -0.6734 -0.7861  0.1506
    7MPD2    C314196   1.026   3.853  11.101  0.9175 -0.2858  0.5031
    7MPD2    C414197   1.046   3.787  10.983 -0.6021 -0.0952  0.8531
    7MPD2    C514198   1.177   3.786  10.932 -0.5650 -0.4602  1.0847
    7MPD2     H14199   1.114   3.984  11.253  1.1329  0.1173 -0.0454
    7MPD2    H114200   0.964   3.731  10.941  1.0042 -1.6202 -0.2421
    7MPD2    H214201   1.373   3.852  10.941 -0.5320  0.3732 -0.7672
    7MPD2    H314202   1.207   3.737  10.839 -2.7441  2.3099 -1.0602
    7MPD2     N14203   0.900   3.836  11.168  0.1025 -0.4759  0.5183
    7MPD2    H514204   0.839   3.777  11.113 -1.9158  1.3472  0.8267
    7MPD2    N114205   1.363   4.007  11.162 -0.3950 -0.8572 -0.4505
    7MPD2    H714206   1.450   4.006  11.110 -0.8353  0.4136 -1.2313
    8TMC3    C114207   1.433   4.213  11.251 -0.0910  0.4633 -0.0351
    8TMC3    C214208   1.444   4.257  11.116 -0.6807  0.0451  0.0586
    8TMC3    C314209   1.421   4.390  11.095  0.9535 -0.3711 -0.1830
    8TMC3    C414210   1.425   4.300  11.361  0.2882 -0.0831  0.5388
    8TMC3    C514211   1.393   4.430  11.335 -0.1939  0.3292 -0.1753
    8TMC3    C614212   1.395   4.473  11.203  0.1992 -0.6431 -0.3667
    8TMC3     C14213   1.363   4.088  11.276  0.3481  0.1184 -0.0351
    8TMC3     O14214   1.289   4.094  11.371 -0.1368 -0.1022  0.0201
    8TMC3     H14215   1.447   4.186  11.035 -1.2211 -0.6806  0.6749
    8TMC3    H114216   1.428   4.268  11.464  0.9349 -0.2484  0.4715
    8TMC3    H214217   1.383   4.579  11.185  2.5319 -0.4148 -0.5769
    8TMC3    C714218   1.269   4.478  11.392  0.0456  0.1144  0.2869
    8TMC3    C814219   1.316   4.422  10.997 -0.4709 -0.4840 -0.5680
    8TMC3    O114220   1.241   4.596  11.402  0.4114 -0.0083  0.1290
    8TMC3    O214221   1.225   4.502  11.027 -0.3988 -0.0292  0.3509
    9MPD2     C14222   1.270   4.272  10.664  0.2507 -0.3354  0.2758
    9MPD2    C114223   1.236   4.343  10.773 -0.4407  0.5636  0.3915
    9MPD2    C214224   1.109   4.406  10.781  0.1373  0.0731  0.2267
    9MPD2    C314225   1.017   4.379  10.682  0.1505  0.4477 -0.5541
    9MPD2    C414226   1.058   4.313  10.571 -0.6668 -0.2427  0.2944
    9MPD2    C514227   1.188   4.273  10.559 -0.1702  0.4036 -0.4863
    9MPD2     H14228   1.078   4.463  10.868  2.4700  0.2374  0.9392
    9MPD2    H114229   0.998   4.298  10.482 -2.1317  0.5903  1.1416
    9MPD2    H214230   1.360   4.212  10.656 -0.6007 -1.7692  1.4011
    9MPD2    H314231   1.216   4.213  10.474  1.4995 -0.7153  0.8559
    9MPD2     N14232   0.876   4.398  10.688 -0.4749  0.0647  0.4639
    9MPD2    H514233   0.816   4.365  10.613  2.1559  0.5873 -1.8789
    9MPD2    N114234   1.336   4.355  10.876 -0.1055  0.2589  0.0549
    9MPD2    H714235   1.428   4.315  10.859 -2.4290 -5.2637  0.3307
    1MPD1     C14236   1.507   3.334  17.273 -0.0130 -0.1248  0.0932
    1MPD1    C114237   1.527   3.213  17.210  0.5557  0.5139  0.6648
    1MPD1    C214238   1.432   3.162  17.121  0.3941  0.0729 -0.0058
    1MPD1    C314239   1.323   3.243  17.082 -0.1338  0.5667 -0.3648
    1MPD1    C414240   1.301   3.357  17.155  0.4084  0.2918  0.0321
    1MPD1    C514241   1.387   3.401  17.256  0.0864 -0.3183 -1.0714
    1MPD1     H14242   1.453   3.067  17.073  1.3867  1.1688 -1.6855
    1MPD1    H114243   1.213   3.417  17.137 -0.6233 -1.5508 -1.0535
    1MPD1    H214244   1.576   3.378  17.343 -1.5013  1.1915  0.7369
    1MPD1    H314245   1.370   3.500  17.299  2.0192  0.2841 -1.7003
    1MPD1     N14246   1.229   3.212  16.979 -0.4146  0.2756  0.0446
    1MPD1    H514247   1.159   3.284  16.958 -0.6834  0.0365  0.1236
    1MPD1    N114248   1.648   3.149  17.225  0.7077 -0.1646 -0.8236
    1MPD1    H614249   1.629   3.049  17.214 -0.5574 -0.0119  0.0434
    1MPD1    H714250   1.690   3.170  17.315 -1.2756  0.8139 -0.1297
    2MPD1     C14251   0.893   2.568  16.153  0.0843 -0.4673 -0.2619
    2MPD1    C114252   1.016   2.634  16.174  0.6378 -0.1731  0.6815
    2MPD1    C214253   1.024   2.724  16.285  0.2865  0.9689 -0.3322
    2MPD1    C314254   0.917   2.737  16.374 -0.2234  0.1041 -0.4623
    2MPD1    C414255   0.798   2.677  16.348 -0.1758  0.4383  0.4014
    2MPD1    C514256   0.787   2.597  16.238 -0.2195 -0.6842 -0.2225
    2MPD1     H14257   1.118   2.775  16.302  2.0900 -1.6761 -2.2976
    2MPD1    H114258   0.713   2.685  16.416  1.4798  1.2024  2.3882
    2MPD1    H214259   0.873   2.506  16.067 -1.5366  1.7410 -1.4722
    2MPD1    H314260   0.698   2.536  16.226 -2.0365  1.8632  0.4439
    2MPD1     N14261   0.920   2.820  16.492 -0.5349  0.0443 -0.1887
    2MPD1    H514262   0.831   2.838  16.537 -0.2300  2.1787 -0.4812
    2MPD1    N114263   1.100   2.641  16.063  0.3799 -0.4253  0.0826
    2MPD1    H614264   1.194   2.670  16.088  0.9596 -1.5415 -0.7712
    2MPD1    H714265   1.115   2.553  16.013 -0.2956  1.1365 -2.8621
    3TCq2    C114266   1.030   2.870  16.546 -0.4346  0.2645 -0.2176
    3TCq2    O214267   1.143   2.824  16.527 -0.7024  0.1672 -0.0434
    3TCq2    C214268   1.015   2.986  16.634 -0.5442  0.4071 -0.2247
    3TCq2    C314269   0.906   3.065  16.635  0.0049  0.6254  0.4729
    3TCq2    C414270   0.903   3.154  16.739 -0.2762 -0.3428  0.3056
    3TCq2    C514271   1.004   3.165  16.823 -0.0767  0.5916 -0.7111
    3TCq2    C614272   1.120   3.086  16.816  0.2994 -0.0308  0.1987
    3TCq2    C714273   1.125   2.992  16.719 -0.4436 -0.0073  0.0092
    3TCq2    C814274   1.226   3.091  16.914  0.2896 -0.0774  0.0611
    3TCq2    O414275   1.284   2.986  16.939  0.2856  0.1202  0.2825
    3TCq2    C914276   0.786   3.238  16.760  0.2308  0.7982 -0.7971
    3TCq2    O514277   0.792   3.330  16.848 -0.3360 -0.2821  0.1191
    3TCq2    O614278   0.683   3.216  16.690  0.1794  0.4924 -0.6334
    3TCq2    H214279   0.826   3.051  16.563  0.0752  2.7698 -0.0134
    3TCq2    H314280   0.993   3.235  16.905 -1.0507 -1.3169  0.7987
    3TCq2    H414281   1.210   2.926  16.720 -1.1440 -0.8973  0.3969
    1TCq1    O114282   2.713   2.433  12.687 -0.6929  0.0419 -0.3085
    1TCq1    C114283   2.671   2.472  12.818  0.2603  0.2479 -0.0711
    1TCq1    O214284   2.557   2.513  12.840 -0.5122  0.3736  0.0944
    1TCq1    C214285   2.741   2.400  12.919 -0.7582 -0.5488  0.0683
    1TCq1    C314286   2.667   2.345  13.026 -0.2216 -0.1057 -0.1129
    1TCq1    C414287   2.748   2.285  13.122 -0.8755  0.0337 -0.0726
    1TCq1    C514288   2.879   2.281  13.121 -0.4354 -0.6689  0.2097
    1TCq1    C614289   2.940   2.327  13.009 -0.5280 -0.6495  0.3050
    1TCq1    C714290   2.878   2.385  12.904  0.2639 -0.5629  0.3805
    1TCq1    C814291   3.088   2.342  12.994  0.0029 -0.8837 -0.2372
    1TCq1    O414292   3.127   2.390  12.890  0.3733  0.7607 -0.0061
    1TCq1    C914293   2.681   2.229  13.236 -0.0690 -0.0182 -0.3915
    1TCq1    O514294   2.555   2.236  13.225  0.6307  0.1177  0.1481
    1TCq1    O614295   2.732   2.237  13.349 -0.5313  0.8482  0.0865
    1TCq1    H114296   2.800   2.388  12.687 -1.1556 -0.8507  0.0356
    1TCq1    H214297   2.562   2.367  13.043 -0.8209 -0.7350 -3.0107
    1TCq1    H314298   2.938   2.230  13.196 -0.2373 -2.3539 -1.0874
    1TCq1    H414299   2.932   2.435  12.824 -1.7325  0.9607  0.0045
    2MPD2     C14300   3.381   2.383  13.001  0.0861  0.0878  0.5039
    2MPD2    C114301   3.300   2.358  13.112  0.1702 -0.0524  0.5671
    2MPD2    C214302   3.358   2.371  13.238  0.4922 -0.1286 -0.4144
    2MPD2    C314303   3.489   2.396  13.260 -0.5597 -0.9481 -0.0035
    2MPD2    C414304   3.567   2.403  13.150 -0.6259 -0.3143 -0.1598
    2MPD2    C514305   3.514   2.398  13.024  0.6826  1.0215  0.6163
    2MPD2     H14306   3.296   2.358  13.326 -1.1820  0.4001 -1.5252
    2MPD2    H114307   3.675   2.403  13.159 -0.7973  0.6867  1.8326
    2MPD2    H214308   3.345   2.368  12.900 -0.0602  0.8470  0.4474
    2MPD2    H314309   3.571   2.400  12.932  0.2672 -0.1471  0.3283
    2MPD2     N14310   3.547   2.398  13.389 -0.5398  0.3199  0.4573
    2MPD2    H514311   3.487   2.384  13.470 -0.0406  2.3120  1.1619
    2MPD2    N114312   3.156   2.349  13.111 -0.1115 -0.1336 -0.0509
    2MPD2    H714313   3.105   2.321  13.194  0.9455  1.8446  1.2713
    3TCq1    O114314   3.511   2.575  13.985 -0.3288  0.1081 -0.0348
    3TCq1    C114315   3.462   2.525  13.864 -0.7659 -1.0829  0.6998
    3TCq1    O214316   3.352   2.555  13.817 -0.6573  0.2538  0.6704
    3TCq1    C214317   3.587   2.494  13.785  0.0331  0.6246 -0.1473
    3TCq1    C314318   3.684   2.420  13.844  0.5992  0.5239  0.0314
    3TCq1    C414319   3.772   2.355  13.763 -0.2934  0.1325  0.2649
    3TCq1    C514320   3.765   2.368  13.632 -0.2896  0.1606  0.2806
    3TCq1    C614321   3.680   2.459  13.573  0.0444  0.1498 -0.4147
    3TCq1    C714322   3.581   2.517  13.651 -0.0399  0.0292  0.6124
    3TCq1    C814323   3.671   2.450  13.429  0.4465 -0.3671  0.2759
    3TCq1    O414324   3.760   2.502  13.362  0.0896 -0.2094 -0.3104
    3TCq1    C914325   3.861   2.253  13.816  0.4407  0.8910  0.3880
    3TCq1    O514326   3.871   2.249  13.942 -0.0144 -0.1006 -0.6514
    3TCq1    O614327   3.907   2.168  13.746 -0.4188  0.6625 -0.1893
    3TCq1    H114328   3.606   2.566  14.005 -0.3188 -1.5445 -0.8680
    3TCq1    H214329   3.673   2.389  13.948  0.7099  0.2793 -0.0284
    3TCq1    H314330   3.836   2.316  13.568 -0.2530 -1.4592  1.6574
    3TCq1    H414331   3.512   2.590  13.610  0.4447  0.1912  0.0856
    1MPD2     C14332   2.693   3.372  15.316 -0.1334 -0.0942  0.4273
    1MPD2    C114333   2.655   3.293  15.207  0.3645  0.0141  0.2352
    1MPD2    C214334   2.750   3.247  15.121 -0.0295 -0.1145 -0.0309
    1MPD2    C314335   2.884   3.266  15.140  0.1770 -0.1067 -0.2139
    1MPD2    C414336   2.923   3.345  15.247 -0.3089 -0.3132  0.1478
    1MPD2    C514337   2.830   3.397  15.331  0.1923 -0.1341  0.1654
    1MPD2     H14338   2.729   3.189  15.032  1.8738 -2.6469  1.1755
    1MPD2    H114339   3.030   3.362  15.260 -0.3763 -0.7719  1.3059
    1MPD2    H214340   2.611   3.415  15.373 -1.0409 -1.6668  0.3263
    1MPD2    H314341   2.867   3.461  15.410  1.6534 -0.3887 -0.3184
    1MPD2     N14342   2.972   3.202  15.049  0.1873  0.1319  0.4588
    1MPD2    H514343   2.929   3.166  14.964 -0.5863 -0.3114  1.0368
    1MPD2    N114344   2.517   3.267  15.189  0.3478 -0.3370  0.0288
    1MPD2    H714345   2.453   3.309  15.256  2.7931  4.4791 -0.6951
    2TMC3    C114346   2.318   3.187  15.071  0.0387 -0.0336  0.3360
    2TMC3    C214347   2.275   3.076  15.009  0.1566 -0.3108 -0.0626
    2TMC3    C314348   2.193   3.083  14.904  0.0613 -0.5000 -0.1989
    2TMC3    C414349   2.289   3.308  15.023 -0.4259 -0.1276  0.1577
    2TMC3    C514350   2.202   3.317  14.919 -0.4836 -0.2256  0.4314
    2TMC3    C614351   2.150   3.204  14.855 -0.3112 -0.3934  0.1343
    2TMC3     C14352   2.466   3.177  15.096  0.5874  0.6738  0.1572
    2TMC3     O14353   2.522   3.101  15.015  0.2076  0.4914 -0.2008
    2TMC3     H14354   2.277   2.975  15.048 -2.7315  0.0521  1.0322
    2TMC3    H114355   2.324   3.397  15.073 -0.5072 -0.0416  0.0614
    2TMC3    H214356   2.096   3.199  14.761  0.9397 -2.9805 -0.4302
    2TMC3    C714357   2.177   3.439  14.850  0.1127 -0.6974 -0.7711
    2TMC3    C814358   2.231   2.984  14.804  0.6018  0.0259  0.6076
    2TMC3    O114359   2.069   3.436  14.796 -0.2520  0.1785  0.3151
    2TMC3    O214360   2.149   2.954  14.720  0.0541 -0.5396 -0.2130
    3TCq1    O114361   3.099   4.187  14.386  0.3195 -0.0028 -0.0665
    3TCq1    C114362   2.972   4.144  14.367  0.0944 -0.1194 -0.1644
    3TCq1    O214363   2.921   4.115  14.259 -0.3057  0.2165  0.5835
    3TCq1    C214364   2.910   4.145  14.499 -0.2820 -0.2577 -0.2109
    3TCq1    C314365   2.990   4.095  14.596 -1.0542 -0.1235 -0.2204
    3TCq1    C414366   2.940   4.008  14.691  0.6066  0.1298  0.1902
    3TCq1    C514367   2.811   3.959  14.692 -0.0848 -0.0851 -0.1559
    3TCq1    C614368   2.730   4.012  14.593 -0.1187 -0.4763 -0.7181
    3TCq1    C714369   2.775   4.102  14.498  1.3149  0.1275 -0.3181
    3TCq1    C814370   2.582   3.999  14.602 -0.1938 -0.1686  0.1032
    3TCq1    O414371   2.513   4.088  14.554  0.2773  0.1201  0.5677
    3TCq1    C914372   3.029   3.952  14.789  0.0557  0.2206 -0.0312
    3TCq1    O514373   3.140   4.013  14.797 -0.2066 -0.0083  0.3935
    3TCq1    O614374   2.988   3.866  14.867  0.9390  0.4961  0.0804
    3TCq1    H114375   3.122   4.224  14.474  3.0885 -1.0983 -0.3498
    3TCq1    H214376   3.097   4.110  14.594 -1.0810  0.0026 -0.6768
    3TCq1    H314377   2.771   3.893  14.769  0.1304 -0.9812 -0.8215
    3TCq1    H414378   2.711   4.128  14.415 -1.9179  0.5099  2.2661
    4MPD2     C14379   2.299   3.893  14.645 -0.0568  0.2408 -0.3158
    4MPD2    C114380   2.416   3.831  14.690 -0.2148  0.0440  0.8100
    4MPD2    C214381   2.405   3.711  14.760 -0.1743 -0.6018 -0.2424
    4MPD2    C314382   2.283   3.653  14.783 -0.6646 -0.2650 -0.3422
    4MPD2    C414383   2.173   3.710  14.734 -0.2593 -0.2222  0.1906
    4MPD2    C514384   2.183   3.833  14.668  0.1009  0.1935  0.1898
    4MPD2     H14385   2.496   3.665  14.796 -0.7888  0.2901  2.5244
    4MPD2    H114386   2.070   3.679  14.747  0.3228 -1.7070  1.2079
    4MPD2    H214387   2.295   3.979  14.579 -0.6034 -0.0318 -0.6331
    4MPD2    H314388   2.095   3.880  14.624  0.7200 -0.6652 -1.9894
    4MPD2     N14389   2.287   3.524  14.841 -0.1920 -0.0606 -0.4109
    4MPD2    H514390   2.375   3.487  14.874  0.8664  0.5121 -2.6181
    4MPD2    N114391   2.548   3.880  14.661 -0.0812  0.3245 -1.0645
    4MPD2    H714392   2.625   3.820  14.689  0.4405  0.0218 -3.1324
    5TMC2    C114393   3.014   2.982  14.785  0.0399  0.4090  0.0948
    5TMC2    C214394   3.083   2.870  14.828  0.6298 -0.1521 -0.6101
    5TMC2    C314395   3.194   2.887  14.903 -0.4073  0.0865 -0.0022
    5TMC2    C414396   3.047   3.101  14.834 -0.1587  0.0476  0.6472
    5TMC2    C514397   3.143   3.116  14.926  0.0888  0.5228 -0.8656
    5TMC2    C614398   3.225   3.012  14.953  0.0526 -0.1458  0.2072
    5TMC2     C14399   2.868   2.970  14.779 -0.9668 -0.1950  1.2521
    5TMC2     O14400   2.820   3.056  14.856 -0.8547 -0.0901 -0.3576
    5TMC2     H14401   3.047   2.776  14.788  0.9944 -0.0828 -1.0986
    5TMC2    H114402   3.004   3.188  14.785  1.3673 -1.2176 -2.9419
    5TMC2    H214403   3.318   3.034  15.006  0.8068 -3.5765  0.3351
    5TMC2    C714404   3.107   3.191  15.043  0.7002  0.1476 -0.3381
    5TMC2    C814405   3.294   2.792  14.883 -0.3730 -0.7588  0.8320
    5TMC2    O114406   3.189   3.214  15.130 -0.0232  0.7951 -0.2681
    5TMC2    O214407   3.291   2.720  14.784 -0.3144  0.1955 -0.6196
    5TMC2    O514408   3.311   2.740  15.011 -0.0383  0.1863  0.3333
    5TMC2    H514409   3.269   2.790  15.084 -0.1636  1.1254 -0.3741
    6MPD2     C14410   2.405   2.833  14.608 -0.1369  0.1471  0.0537
    6MPD2    C114411   2.446   2.894  14.724 -0.0657 -0.3185  0.6261
    6MPD2    C214412   2.578   2.907  14.751  0.8776  0.3706 -0.1906
    6MPD2    C314413   2.675   2.857  14.666  0.1041  0.4237 -0.0606
    6MPD2    C414414   2.631   2.782  14.565  0.3089 -0.0921 -0.0915
    6MPD2    C514415   2.498   2.770  14.537  0.5337  0.4333  0.2325
    6MPD2     H14416   2.620   2.950  14.841  0.6068  1.9929 -0.8370
    6MPD2    H114417   2.697   2.731  14.495 -1.2727 -0.8045 -1.0621
    6MPD2    H214418   2.303   2.817  14.576  0.5024 -1.0700 -1.4372
    6MPD2    H314419   2.459   2.708  14.457 -0.2517  2.4711 -0.9660
    6MPD2     N14420   2.815   2.875  14.687  0.1784  0.0280  0.5072
    6MPD2    H514421   2.879   2.815  14.636  2.4483  2.6808  0.1893
    6MPD2    N114422   2.358   2.963  14.816  0.6086 -0.5126 -0.7079
    6MPD2    H714423   2.403   3.006  14.896  0.3861  0.4107 -1.0751
  945NH4     N114424   0.540   0.025  11.431  0.1789 -0.4182 -0.2398
  945NH4     H214425   0.443   0.062  11.430  0.5011  0.5064  1.7611
  945NH4     H314426   0.603   0.073  11.364  2.9230 -0.0085  2.5930
  945NH4     H414427   0.540   4.645  11.429  0.2930 -0.3976 -1.0919
  945NH4     H514428   0.584   0.053  11.522  1.2178  1.1377 -1.2299
  946SOD     NA14429   2.653   1.307  10.053  0.2574 -0.3448 -0.0760
  947SOD     NA14430   2.796   3.298   3.086 -0.0829  0.1131  0.0635
  948SOD     NA14431   2.874   1.532  10.161  0.0199 -0.2692  0.6463
  949SOD     NA14432   1.051   3.276   0.166 -0.2059  0.2640  0.0434
  950SOD     NA14433   3.068   0.116  10.952 -0.2710  0.2712  0.1226
  951SOD     NA14434   2.849   0.792   3.240 -0.3420 -0.4087 -0.4431
  952SOD     NA14435   4.638   3.565  11.727  0.4989 -0.1910  0.3031
  953SOD     NA14436   3.279   2.431  11.635  0.1706 -0.3322  0.0613
  954SOD     NA14437   3.495   1.455  12.802  0.6408 -0.0200 -0.0418
  955SOD     NA14438   1.509   3.009   6.162 -0.3194 -0.2645 -0.1090
  956SOD     NA14439   0.114   2.151  13.546  0.0342  0.2567 -0.3821
  957SOD     NA14440   4.144   3.332  12.504  0.1339  0.0659 -0.2020
  958SOD     NA14441   0.037   2.083  16.753 -0.0700  0.2152  0.4223
  959SOD     NA14442   3.424   2.173  11.731 -0.0722 -0.1455 -0.1628
  960SOD     NA14443   2.123   0.318  13.102 -0.0427 -0.0021  0.1080
  961SOD     NA14444   2.419   1.493  10.209 -0.2714 -0.1418 -0.0715
  962SOD     NA14445   4.250   0.061   1.271 -0.0894  0.0550  0.2757
  963SOD     NA14446   0.978   2.268   3.308  0.5203 -0.6722 -0.0567
  964SOD     NA14447   2.554   2.110  15.624 -0.3146 -0.5024 -0.1287
  965SOD     NA14448   3.989   4.526   9.905  0.8832  0.6459 -0.1468
  966SOD     NA14449   3.667   3.565   0.614  0.0588 -0.1150 -0.1636
  967SOD     NA14450   4.158   1.358  10.903  0.3427 -0.0220 -0.1431
  968SOD     NA14451   3.038   2.170  11.305  0.4060  0.1930  0.6244
  969SOD     NA14452   1.688   2.789  14.090 -0.4426 -0.1792  0.0296
  970SOD     NA14453   3.957   2.955   3.850  0.1233  0.3941 -0.3904
  971SOD     NA14454   3.721   2.163  11.624 -0.4641  0.4531  0.5042
  972SOD     NA14455   0.211   2.755  15.244  0.1128  0.3238  0.3003
  973SOD     NA14456   2.594   2.751  10.056 -0.1286  0.3235  0.1068
  974SOD     NA14457   3.935   1.392  17.292  0.0725 -0.3842  0.1213
  975SOD     NA14458   1.041   1.575  13.864 -0.1222  0.1413 -0.5610
  976SOD     NA14459   0.994   0.176  15.432  0.0731 -0.2419 -0.0485
  977SOD     NA14460   3.079   1.676   2.445 -0.1409 -0.0793 -0.2154
  978SOD     NA14461   3.521   1.688  12.533  0.0412  0.3216  0.6895
  979SOD     NA14462   4.312   1.687   1.408 -0.3355 -0.5748 -0.3620
  980SOD     NA14463   4.703   2.640  14.710 -0.4985 -0.7163 -0.0098
  981SOD     NA14464   3.600   2.554   9.507 -0.5838  0.1263 -0.0885
  982SOD     NA14465   2.046   0.082   0.837 -0.0983  0.5914 -0.2525
  983SOD     NA14466   2.867   2.577  10.901 -0.0537  0.0726 -0.0295
  984SOD     NA14467   1.022   1.048  10.155  0.4066 -0.3984 -0.2265
  985SOD     NA14468   2.298   3.572  11.551 -0.0335  0.0426  0.2442
  986SOD     NA14469   0.477   3.508  14.480 -0.3631  0.0154 -0.0350
  987SOD     NA14470   3.351   3.985  14.779  0.0157  0.1747  0.2542
  988SOD     NA14471   0.676   3.386   1.317 -0.4447 -0.0672 -0.2812
  989SOD     NA14472   4.048   3.357   2.737  0.5357  0.2155 -0.3032
  990SOD     NA14473   1.891   0.819  11.362  0.7059  0.2316 -0.1060
  991SOD     NA14474   4.634   2.759  15.124 -0.4554 -0.3639  0.4322
  992SOD     NA14475   2.511   2.282  13.439 -0.3836 -0.0286  0.1048
  993SOD     NA14476   4.628   0.529   0.276  0.3257  0.3578 -0.6626
  994SOD     NA14477   4.223   4.055  14.557 -0.1366 -0.2080 -0.1509
  995SOD     NA14478   1.139   3.150   7.341  0.5914 -0.3071  0.0492
  996SOD     NA14479   0.733   1.499  13.779  0.1136 -0.1668  0.6000
  997SOD     NA14480   2.795   2.404   9.594 -0.1246  0.0867 -0.1805
  998SOD     NA14481   1.121   0.664   1.671 -0.6015 -0.4331  0.2688
  999SOD     NA14482   3.303   0.949   8.834 -0.5095 -0.2191 -0.2606
 1000SOD     NA14483   0.903   3.296  13.088 -0.1007  0.2697  0.6639
 1001SOD     NA14484   3.106   3.818  15.039  0.2935 -0.1398 -0.3431
 1002SOD     NA14485   2.653   1.891  15.393  0.0264  0.0634  0.3267
 1003SOD     NA14486   2.290   1.055   2.128 -0.3284 -0.1429  0.0358
 1004SOD     NA14487   4.458   2.463  14.715  0.0317  0.5515  0.0335
 1005SOD     NA14488   1.989   3.180   0.926 -0.4779 -0.0553 -0.7673
 1006SOD     NA14489   2.373   2.135  13.192  0.2131  0.2814 -0.0461
 1007SOD     NA14490   4.359   2.985  15.316  0.3513 -0.4240  0.2422
 1008SOD     NA14491   3.072   1.908   1.084  0.0667  0.6636  0.4279
 1009SOD     NA14492   4.644   2.966  11.088  0.6397 -0.0710  0.1820
 1010SOD     NA14493   0.800   4.499   8.763  0.0321 -0.0624 -0.1031
 1011SOL     OW14494   3.176   0.239  12.727  0.0660  0.2795 -0.2692
 1011SOL    HW114495   3.188   0.180  12.653  1.3649 -0.3778  0.4576
 1011SOL    HW214496   3.250   0.215  12.783 -2.1635  0.3595  2.7460
 1012SOL     OW14497   1.651   2.057   5.517 -0.3359  0.4305  0.2375
 1012SOL    HW114498   1.700   2.068   5.436 -1.5436  1.8337 -0.3158
 1012SOL    HW214499   1.693   1.987   5.566 -0.8503  0.5086  0.7971
 1013SOL     OW14500   2.186   4.317   3.339  0.1389 -0.1432 -0.5860
 1013SOL    HW114501   2.268   4.268   3.339 -0.3396 -0.9510  2.0931
 1013SOL    HW214502   2.153   4.295   3.252  1.1809 -1.4490 -0.6406
 1014SOL     OW14503   3.280   0.395   6.935 -0.3999 -0.0745  0.1218
 1014SOL    HW114504   3.311   0.400   7.025 -1.5102  0.3760  0.4881
 1014SOL    HW214505   3.184   0.388   6.939 -0.4576  0.0425 -1.0742
 1015SOL     OW14506   1.710   1.924   4.740 -0.3141 -0.2981  0.5190
 1015SOL    HW114507   1.733   1.883   4.823 -0.4884  0.4927  0.9602
 1015SOL    HW214508   1.796   1.914   4.700 -0.6319  1.8819 -0.7248
 1016SOL     OW14509   2.754   0.906   1.665 -0.6532 -0.4842  0.0861
 1016SOL    HW114510   2.726   0.859   1.743 -0.7291 -1.1209 -0.3297
 1016SOL    HW214511   2.761   0.999   1.687 -2.4820 -0.4652  0.6217
 1017SOL     OW14512   0.306   0.880   0.875  0.0389  0.6771 -0.1007
 1017SOL    HW114513   0.318   0.852   0.784  0.0333 -0.5861  0.2874
 1017SOL    HW214514   0.212   0.895   0.884 -0.8205 -3.7214 -1.6008
 1018SOL     OW14515   4.135   2.319   4.289  0.6611  0.0119 -0.3789
 1018SOL    HW114516   4.183   2.302   4.208 -2.6283 -1.2493 -2.0387
 1018SOL    HW214517   4.094   2.237   4.319  0.1901  0.4708  0.2391
 1019SOL     OW14518   0.727   3.641   9.875 -0.3249 -0.0782  0.2901
 1019SOL    HW114519   0.745   3.603   9.789 -1.8994  0.3146 -0.2291
 1019SOL    HW214520   0.762   3.729   9.857  0.9523 -0.4627  0.9283
 1020SOL     OW14521   4.002   4.601   4.572 -0.6240 -0.2800  0.3060
 1020SOL    HW114522   4.016   4.671   4.635  2.4115 -0.6236  0.0377
 1020SOL    HW214523   3.924   4.625   4.523  1.0851  1.7418 -1.4347
 1021SOL     OW14524   3.991   1.916   7.245 -0.3907  0.1002  0.9043
 1021SOL    HW114525   3.904   1.893   7.211 -0.4123  1.8721 -0.2278
 1021SOL    HW214526   4.009   2.006   7.221 -0.4864 -0.4527 -1.3097
 1022SOL     OW14527   0.267   3.752   6.886  0.0683 -0.3000  0.2943
 1022SOL    HW114528   0.205   3.736   6.957  1.9816 -0.9461  1.8151
 1022SOL    HW214529   0.289   3.663   6.859 -2.1134 -0.8887  0.4924
 1023SOL     OW14530   1.762   2.041   2.135  0.1102  0.1904 -0.0467
 1023SOL    HW114531   1.668   2.031   2.149  0.2131  0.4050  0.7449
 1023SOL    HW214532   1.785   1.951   2.110  0.5451 -0.0327  1.1519
 1024SOL     OW14533   2.739   2.875   2.867 -0.3605 -0.4151  0.0277
 1024SOL    HW114534   2.822   2.890   2.822 -0.3587 -2.3006 -0.5774
 1024SOL    HW214535   2.673   2.913   2.809 -0.2698  1.1851  0.9738
 1025SOL     OW14536   1.072   1.336   5.035 -0.2689 -0.6452 -0.3858
 1025SOL    HW114537   1.038   1.383   5.112  0.1613 -0.0008 -0.5945
 1025SOL    HW214538   1.137   1.276   5.074  0.7177 -0.5560 -1.9232
 1026SOL     OW14539   0.758   1.488   0.260  0.3344 -0.8753  0.1418
 1026SOL    HW114540   0.678   1.490   0.209 -0.6111 -3.2047  1.5621
 1026SOL    HW214541   0.819   1.441   0.203 -0.8229  0.1328 -1.9199
 1027SOL     OW14542   0.263   4.194   9.222  0.2190  0.2886  0.4394
 1027SOL    HW114543   0.344   4.237   9.194 -0.4848  0.4131 -1.3905
 1027SOL    HW214544   0.206   4.248   9.168 -0.7919  0.8367  2.0666
 1028SOL     OW14545   1.924   2.967   7.338 -0.1172 -0.3237  0.3751
 1028SOL    HW114546   1.860   2.941   7.404 -1.4688  1.0894 -0.4003
 1028SOL    HW214547   2.006   2.957   7.386 -0.3983 -1.4043  0.6224
 1029SOL     OW14548   4.341   2.935   3.520 -0.3777 -0.8655 -0.0747
 1029SOL    HW114549   4.423   2.983   3.506 -1.2146  0.9190  1.2561
 1029SOL    HW214550   4.336   2.875   3.446 -0.5450 -1.1576  0.1740
 1030SOL     OW14551   1.266   2.421  10.352  0.3652  0.3385  0.2041
 1030SOL    HW114552   1.172   2.420  10.333  0.3182 -0.4494  0.4599
 1030SOL    HW214553   1.271   2.331  10.384  1.2665  0.3701  0.1451
 1031SOL     OW14554   2.536   1.335   5.868  0.1122 -0.2759  0.0829
 1031SOL    HW114555   2.576   1.404   5.922 -1.8869 -0.1014  1.3661
 1031SOL    HW214556   2.446   1.333   5.901 -0.0024 -0.8084 -0.2643
 1032SOL     OW14557   3.169   1.470   8.682 -0.4587 -0.4142 -0.0151
 1032SOL    HW114558   3.113   1.533   8.728 -0.4709 -0.8662  0.5800
 1032SOL    HW214559   3.227   1.537   8.644  2.3532 -4.1395 -2.2245
 1033SOL     OW14560   3.436   3.583  13.670  0.1858  0.3247  0.5098
 1033SOL    HW114561   3.377   3.638  13.617  3.1681  2.7762 -0.3081
 1033SOL    HW214562   3.479   3.645  13.729  2.1921 -0.8136  0.2424
 1034SOL     OW14563   1.156   1.046  15.100  0.0779  0.1841  0.1547
 1034SOL    HW114564   1.126   1.025  15.189 -1.5551  0.0029 -0.4470
 1034SOL    HW214565   1.224   0.981  15.085  0.6869  0.9045 -0.1810
 1035SOL     OW14566   0.281   0.152  11.346 -0.2306 -0.4211  0.0350
 1035SOL    HW114567   0.206   0.194  11.387 -1.7162 -1.7658 -1.2770
 1035SOL    HW214568   0.294   0.209  11.270  1.6349 -2.1197 -0.9313
 1036SOL     OW14569   2.124   3.092   2.394  0.4640  0.2586  0.5665
 1036SOL    HW114570   2.109   3.162   2.330 -0.2498  1.4079  1.9737
 1036SOL    HW214571   2.036   3.071   2.423  0.5986 -0.6831  0.2879
 1037SOL     OW14572   2.731   3.309   7.582 -0.5950 -0.1149 -0.6525
 1037SOL    HW114573   2.714   3.402   7.571 -0.2666 -0.0074 -0.2552
 1037SOL    HW214574   2.772   3.288   7.498 -1.2708 -1.8559 -0.5578
 1038SOL     OW14575   4.653   0.429   8.691  0.2283 -0.2158  0.2500
 1038SOL    HW114576   4.580   0.390   8.644  1.1531  1.6232 -2.7357
 1038SOL    HW214577   4.714   0.358   8.672  0.9590  0.6627 -0.6696
 1039SOL     OW14578   2.997   0.451   5.722 -0.0024 -0.0110  0.1814
 1039SOL    HW114579   2.995   0.358   5.747  0.1550  0.0280  0.3453
 1039SOL    HW214580   2.913   0.482   5.755  0.1177 -0.2300  0.6918
 1040SOL     OW14581   4.645   0.406   6.950  0.4497  0.2221 -0.0631
 1040SOL    HW114582   4.650   0.335   7.013 -3.2444 -1.1777 -1.3247
 1040SOL    HW214583   4.590   0.474   6.990  0.5451 -0.1207  0.6461
 1041SOL     OW14584   1.078   0.742  16.560  0.0484  0.1148  0.0729
 1041SOL    HW114585   1.120   0.656  16.567 -1.0804 -0.1273  3.4645
 1041SOL    HW214586   1.062   0.735  16.466 -3.6288  1.5414  0.5888
 1042SOL     OW14587   1.494   3.750   3.853 -0.0681  0.0493 -0.2503
 1042SOL    HW114588   1.425   3.771   3.791 -1.0988 -1.6668  0.3093
 1042SOL    HW214589   1.442   3.750   3.933  2.8297  1.5838  1.6460
 1043SOL     OW14590   1.486   0.564   0.944  0.1104 -0.4472  0.0980
 1043SOL    HW114591   1.418   0.529   1.002 -1.4805  0.8945 -0.9260
 1043SOL    HW214592   1.454   0.654   0.956 -0.6982 -0.8712  1.1490
 1044SOL     OW14593   0.035   4.090   8.968 -0.2453 -0.3959 -0.4357
 1044SOL    HW114594   0.075   4.172   8.939  1.0811 -1.1385 -0.7071
 1044SOL    HW214595   4.709   4.111   9.047 -0.0173 -1.1869 -0.0799
 1045SOL     OW14596   0.990   0.366   2.239  0.1608  0.2868  0.2264
 1045SOL    HW114597   1.028   0.280   2.254  1.0051  0.7675  0.8039
 1045SOL    HW214598   0.950   0.383   2.324 -1.9185 -0.7462 -0.5482
 1046SOL     OW14599   3.556   1.035   2.809  0.8844  0.3712 -0.2389
 1046SOL    HW114600   3.574   1.041   2.903 -2.5217 -1.1655  0.5351
 1046SOL    HW214601   3.632   1.087   2.783  2.5850 -1.1505  1.6575
 1047SOL     OW14602   0.500   4.342   2.615  0.0933 -0.3303  0.6384
 1047SOL    HW114603   0.407   4.326   2.601  0.5543 -0.7542 -1.9587
 1047SOL    HW214604   0.502   4.437   2.609  1.9317 -0.3285  1.2724
 1048SOL     OW14605   2.986   1.321   6.845 -0.2847  0.4041  0.0705
 1048SOL    HW114606   3.021   1.242   6.886  1.0050  0.8433 -0.1901
 1048SOL    HW214607   3.063   1.374   6.865  0.1467 -0.1295 -0.1600
 1049SOL     OW14608   4.032   3.793   2.830  0.1550 -0.9411 -0.2484
 1049SOL    HW114609   3.949   3.774   2.872 -0.5685  0.0155 -1.2437
 1049SOL    HW214610   4.047   3.709   2.786 -1.1743  0.0687 -2.6367
 1050SOL     OW14611   3.883   4.431  10.668 -0.1478  0.2233 -0.5285
 1050SOL    HW114612   3.912   4.502  10.610 -0.0504  0.4899 -0.1511
 1050SOL    HW214613   3.806   4.467  10.711 -0.3361 -2.0197  1.0025
 1051SOL     OW14614   4.492   0.485   3.753  0.3807 -0.1055 -0.5132
 1051SOL    HW114615   4.454   0.398   3.739 -1.0978  0.7439 -1.7216
 1051SOL    HW214616   4.538   0.503   3.671 -0.0824 -2.7156 -1.3295
 1052SOL     OW14617   0.899   3.601   4.030 -0.3485 -0.2179 -0.7368
 1052SOL    HW114618   0.893   3.665   4.102  1.1231  0.2883 -1.0667
 1052SOL    HW214619   0.818   3.633   3.989  0.5190  1.7025 -0.9288
 1053SOL     OW14620   2.501   0.815   8.793 -0.9929 -0.4111 -0.0577
 1053SOL    HW114621   2.587   0.780   8.816 -1.3016  0.2414  2.0988
 1053SOL    HW214622   2.451   0.810   8.875 -1.0907  0.4600 -0.0628
 1054SOL     OW14623   3.238   2.103   8.357  0.0455 -0.0505  0.2507
 1054SOL    HW114624   3.221   2.114   8.263 -2.2152  0.4237  0.7116
 1054SOL    HW214625   3.296   2.027   8.356 -1.2693 -1.0701  0.0529
 1055SOL     OW14626   2.721   1.965  10.960  0.0242  0.0859  0.1760
 1055SOL    HW114627   2.659   2.029  10.995 -1.2814 -1.3864  0.5541
 1055SOL    HW214628   2.776   2.033  10.920  0.0978 -0.1741 -0.1625
 1056SOL     OW14629   3.172   1.295   0.550 -0.2085 -0.1067 -0.6297
 1056SOL    HW114630   3.267   1.301   0.541 -0.1126 -2.1795 -1.0002
 1056SOL    HW214631   3.172   1.291   0.646 -0.8838 -0.4424 -0.6402
 1057SOL     OW14632   4.194   2.396  11.784  0.1837 -0.0716  0.7246
 1057SOL    HW114633   4.236   2.331  11.840 -1.3975 -2.5533 -0.9498
 1057SOL    HW214634   4.265   2.460  11.782 -1.3875  1.6672  0.5781
 1058SOL     OW14635   0.503   0.857   2.727  0.1777  0.2178  0.2399
 1058SOL    HW114636   0.492   0.915   2.802  1.2017  0.1722  0.4290
 1058SOL    HW214637   0.455   0.902   2.658 -0.3186  0.0075  0.4509
 1059SOL     OW14638   0.016   0.512   6.556 -0.4143  0.1143  0.3463
 1059SOL    HW114639   0.060   0.459   6.622 -0.2339  0.7619  0.7440
 1059SOL    HW214640   4.663   0.457   6.541  1.1564 -2.7275  2.7969
 1060SOL     OW14641   0.575   3.765   4.630 -0.7279 -0.0392 -0.4334
 1060SOL    HW114642   0.502   3.826   4.631 -0.6894  0.0130 -0.6514
 1060SOL    HW214643   0.550   3.703   4.561  1.5708 -0.9289 -0.4852
 1061SOL     OW14644   3.798   2.689   5.163  0.3759 -0.6908 -0.6504
 1061SOL    HW114645   3.840   2.648   5.239 -0.4142  2.0143  1.2599
 1061SOL    HW214646   3.704   2.681   5.177  0.4379  0.7523  0.5781
 1062SOL     OW14647   0.654   2.885   6.714  0.4873  0.0293  0.4993
 1062SOL    HW114648   0.740   2.907   6.680  0.0035 -0.2654 -0.8862
 1062SOL    HW214649   0.606   2.968   6.706  1.5817  0.6494  0.4267
 1063SOL     OW14650   1.645   3.723  16.130 -0.2294  0.4623  0.6448
 1063SOL    HW114651   1.647   3.669  16.051 -0.0040  0.7103  0.4860
 1063SOL    HW214652   1.703   3.794  16.107  0.2592 -0.0624  0.2687
 1064SOL     OW14653   3.119   3.243   8.339 -0.0349  0.1074 -0.2569
 1064SOL    HW114654   3.147   3.247   8.247  0.5924 -0.2264 -0.0811
 1064SOL    HW214655   3.074   3.159   8.333 -1.0758  0.6215  0.3523
 1065SOL     OW14656   2.341   0.548   5.300 -0.5735  0.0304 -0.3673
 1065SOL    HW114657   2.408   0.613   5.316 -1.6142  1.1209 -0.4509
 1065SOL    HW214658   2.332   0.555   5.205 -0.0362 -0.4366 -0.4528
 1066SOL     OW14659   0.821   0.133   5.258 -0.0161  0.2406  0.3511
 1066SOL    HW114660   0.897   0.079   5.277 -0.2068  0.6622  2.3005
 1066SOL    HW214661   0.778   0.131   5.343 -0.4465 -0.6142  0.1221
 1067SOL     OW14662   1.594   0.832  15.589  0.0443 -0.2519  0.9979
 1067SOL    HW114663   1.651   0.792  15.522 -0.5036 -0.7415  0.8267
 1067SOL    HW214664   1.505   0.835  15.555 -0.4581  1.2459  2.4933
 1068SOL     OW14665   2.160   1.601   7.925 -0.2426 -0.1755  0.4133
 1068SOL    HW114666   2.145   1.695   7.912  2.2109  0.4291  2.0209
 1068SOL    HW214667   2.248   1.602   7.961  1.1838  0.8610 -3.1510
 1069SOL     OW14668   3.549   2.438   2.411  0.2771 -0.2738 -0.1243
 1069SOL    HW114669   3.538   2.382   2.334 -0.3937  0.3238 -0.4591
 1069SOL    HW214670   3.463   2.425   2.451  0.5977  2.1417  1.3348
 1070SOL     OW14671   1.764   2.277   6.600  0.6466 -0.2230 -0.9118
 1070SOL    HW114672   1.784   2.200   6.654 -1.7846 -1.3422 -1.5916
 1070SOL    HW214673   1.705   2.326   6.658  1.6615 -0.8391  0.6557
 1071SOL     OW14674   2.338   3.555  16.787  0.2508 -1.1444 -0.0227
 1071SOL    HW114675   2.272   3.572  16.855  0.6690  2.5045 -0.5281
 1071SOL    HW214676   2.337   3.641  16.745 -0.7671 -0.8167  0.6462
 1072SOL     OW14677   4.311   1.181   5.551 -0.4059 -0.2671  0.4098
 1072SOL    HW114678   4.243   1.187   5.618 -1.7226  0.0935 -0.9846
 1072SOL    HW214679   4.300   1.263   5.504  1.9446 -0.7056 -0.9199
 1073SOL     OW14680   4.292   3.831  13.592  0.0668  0.2180  0.1304
 1073SOL    HW114681   4.223   3.891  13.563 -0.9676 -1.5027 -1.0111
 1073SOL    HW214682   4.289   3.840  13.687  1.2772 -2.1131  0.3949
 1074SOL     OW14683   0.037   2.029  12.684  0.4905  0.1834 -0.6613
 1074SOL    HW114684   0.091   2.015  12.606 -0.8622  1.9546 -1.8943
 1074SOL    HW214685   0.110   2.022  12.746  0.0719 -2.3618 -0.4325
 1075SOL     OW14686   4.532   2.044   4.159  0.2595  0.3529  0.5496
 1075SOL    HW114687   4.519   1.966   4.212 -0.6875 -0.5054 -0.9211
 1075SOL    HW214688   4.497   2.116   4.210 -1.1435 -1.0788  1.5921
 1076SOL     OW14689   3.145   4.020  15.153  0.8270 -0.0742 -0.2221
 1076SOL    HW114690   3.154   4.110  15.185  0.6758 -0.5457  1.1438
 1076SOL    HW214691   3.227   4.013  15.105  0.8936 -2.6582  0.2753
 1077SOL     OW14692   2.176   2.904   4.591 -0.6329  0.1837  0.1185
 1077SOL    HW114693   2.250   2.866   4.638 -0.2126  0.4096 -0.3697
 1077SOL    HW214694   2.206   2.994   4.582  0.5307 -0.1796  0.3690
 1078SOL     OW14695   0.239   0.284   9.978  0.2204  0.2337 -0.5183
 1078SOL    HW114696   0.317   0.287   9.923  0.0236  2.2041 -0.7154
 1078SOL    HW214697   0.279   0.254  10.059 -0.9803 -1.5932 -0.6018
 1079SOL     OW14698   3.363   1.507   0.371 -0.3657  0.4707  0.4319
 1079SOL    HW114699   3.387   1.435   0.429  0.3170  0.3265 -0.0290
 1079SOL    HW214700   3.277   1.478   0.339  0.0701  1.7265 -1.8571
 1080SOL     OW14701   3.843   2.769  11.117 -0.4461 -0.2822 -0.3430
 1080SOL    HW114702   3.770   2.813  11.075  0.2767  1.4833  0.2475
 1080SOL    HW214703   3.795   2.710  11.175  1.3539 -2.1401 -0.7547
 1081SOL     OW14704   0.552   1.621   1.444  0.7875 -0.4364 -0.6168
 1081SOL    HW114705   0.463   1.599   1.474  0.2682 -1.1520 -2.6415
 1081SOL    HW214706   0.531   1.643   1.353  0.2585  0.5848 -0.2531
 1082SOL     OW14707   1.953   4.680  12.739  0.2772 -0.3203 -0.4254
 1082SOL    HW114708   2.020   0.005  12.692 -0.3398  0.8010 -0.1157
 1082SOL    HW214709   1.890   0.028  12.746  0.9639  0.4246 -2.0401
 1083SOL     OW14710   0.028   4.043  15.856  0.0387 -0.1790 -0.2038
 1083SOL    HW114711   4.684   4.029  15.790  1.4541 -1.7649 -1.3101
 1083SOL    HW214712   0.001   4.127  15.894 -0.8112 -0.5508  0.0066
 1084SOL     OW14713   2.553   4.563   2.898  0.6045 -0.1160 -0.5988
 1084SOL    HW114714   2.572   4.503   2.826  1.1238 -1.9759  1.0822
 1084SOL    HW214715   2.533   4.506   2.973 -0.2199 -0.6440 -1.2152
 1085SOL     OW14716   4.432   1.662   1.010  0.2504 -1.0738  0.1228
 1085SOL    HW114717   4.504   1.600   1.020  1.6237  0.4858 -0.0805
 1085SOL    HW214718   4.404   1.637   0.922  2.2270  0.6308 -1.0032
 1086SOL     OW14719   4.433   3.382  13.383 -0.1217  0.0605  0.0325
 1086SOL    HW114720   4.400   3.465  13.417  0.6655  0.0026  0.9182
 1086SOL    HW214721   4.352   3.332  13.369 -0.5959  0.6159  0.8360
 1087SOL     OW14722   2.351   3.243   9.136 -0.0162 -0.5848 -0.2449
 1087SOL    HW114723   2.403   3.322   9.144 -3.3067  1.6086 -0.2584
 1087SOL    HW214724   2.266   3.288   9.134  0.6308  0.5848 -1.4709
 1088SOL     OW14725   1.059   0.311   5.006  0.5218 -0.3698 -0.4206
 1088SOL    HW114726   1.058   0.216   4.991 -0.2024 -0.2935 -0.8184
 1088SOL    HW214727   1.045   0.348   4.919  2.3668  2.4059  0.4788
 1089SOL     OW14728   1.637   1.883   9.319 -0.3325  0.4751  0.1070
 1089SOL    HW114729   1.582   1.806   9.310 -1.8771  1.5030  0.8231
 1089SOL    HW214730   1.666   1.899   9.228  0.4726 -0.8703  0.1254
 1090SOL     OW14731   2.809   4.684   3.160 -0.1474 -0.5275 -0.2106
 1090SOL    HW114732   2.714   4.682   3.174  0.0938  0.1418  1.4757
 1090SOL    HW214733   2.818   4.617   3.092  1.9821  1.2974 -1.7300
 1091SOL     OW14734   3.354   4.143  12.703 -0.1094  0.1587  0.0855
 1091SOL    HW114735   3.322   4.120  12.616  0.2048  0.3339 -0.0740
 1091SOL    HW214736   3.275   4.147  12.758 -2.0354  1.2607 -2.7887
 1092SOL     OW14737   2.200   0.691   5.696 -0.4502  0.7921 -0.0737
 1092SOL    HW114738   2.140   0.617   5.708  0.6191 -0.1889 -0.7159
 1092SOL    HW214739   2.166   0.749   5.764 -1.4709 -3.1663  2.8336
 1093SOL     OW14740   1.739   2.757   4.635  0.1517  0.0410  0.1868
 1093SOL    HW114741   1.679   2.693   4.672 -1.6982  0.9476 -1.2474
 1093SOL    HW214742   1.805   2.699   4.599  2.0132  1.7633  0.8019
 1094SOL     OW14743   3.890   0.132   7.767  0.2710 -0.0118  0.6917
 1094SOL    HW114744   3.882   0.169   7.679 -0.8229  0.2892  0.9148
 1094SOL    HW214745   3.900   0.207   7.826 -1.6586  0.2036  0.7400
 1095SOL     OW14746   1.397   0.551   0.450 -0.6587  0.1847  0.5036
 1095SOL    HW114747   1.454   0.523   0.379 -3.4134  0.7793 -1.9167
 1095SOL    HW214748   1.416   0.479   0.511  2.1737 -1.6001 -2.4603
 1096SOL     OW14749   1.698   2.388  11.708  0.0887  0.2245 -0.1934
 1096SOL    HW114750   1.783   2.362  11.672 -0.1176 -1.0287  0.2131
 1096SOL    HW214751   1.717   2.383  11.802  0.2291 -0.0091 -0.2342
 1097SOL     OW14752   0.626   3.222   2.666 -0.0407 -0.0816  0.0485
 1097SOL    HW114753   0.653   3.188   2.580 -1.1584 -1.0576  0.0912
 1097SOL    HW214754   0.678   3.303   2.672 -0.4096  0.2282 -0.9019
 1098SOL     OW14755   1.646   3.979  11.126 -0.2244  0.3561 -0.1808
 1098SOL    HW114756   1.693   3.992  11.209  0.3861 -0.1464 -0.4540
 1098SOL    HW214757   1.716   3.933  11.081 -1.6594 -0.8156 -1.2212
 1099SOL     OW14758   3.120   2.926   4.151  0.3928  0.1239 -0.6914
 1099SOL    HW114759   3.066   2.880   4.086 -0.0855  0.2913 -0.4099
 1099SOL    HW214760   3.174   2.976   4.089 -1.3678  0.1821 -2.1630
 1100SOL     OW14761   1.743   1.890   1.407 -0.4829 -0.0027 -0.7071
 1100SOL    HW114762   1.745   1.806   1.452 -0.2803  0.1979 -0.3407
 1100SOL    HW214763   1.651   1.886   1.381 -0.8230  0.3346  0.4439
 1101SOL     OW14764   3.650   4.035  14.424  0.1248 -0.5474  0.2496
 1101SOL    HW114765   3.611   4.122  14.435  2.3963  0.7034 -1.4581
 1101SOL    HW214766   3.638   4.013  14.331 -2.4255  4.3680 -0.5789
 1102SOL     OW14767   3.941   2.082   5.134 -0.3691 -0.8615 -0.0583
 1102SOL    HW114768   3.847   2.084   5.112 -0.1923  1.4597 -0.6989
 1102SOL    HW214769   3.958   2.175   5.116 -0.1041 -1.0947 -1.0197
 1103SOL     OW14770   3.113   0.232   0.983 -0.2652  0.0307 -0.1826
 1103SOL    HW114771   3.053   0.179   1.035 -0.9146  1.9305  1.0073
 1103SOL    HW214772   3.198   0.200   1.015 -0.5193  0.3775  0.8231
 1104SOL     OW14773   1.320   1.495   7.285  0.2320 -0.6494  0.4953
 1104SOL    HW114774   1.276   1.532   7.208  3.3735  1.6696 -0.1804
 1104SOL    HW214775   1.366   1.574   7.313  0.2745  0.3971 -2.5764
 1105SOL     OW14776   1.672   4.287   2.969 -0.3093 -0.1905 -0.3786
 1105SOL    HW114777   1.724   4.323   2.897  1.7152 -1.3144  0.5030
 1105SOL    HW214778   1.619   4.362   2.997 -0.0946 -0.6037  1.1525
 1106SOL     OW14779   3.712   2.426   5.631 -0.4335 -0.0885  0.5369
 1106SOL    HW114780   3.706   2.335   5.661  1.2887 -0.2097  0.5089
 1106SOL    HW214781   3.639   2.430   5.569 -0.4532  0.8072  0.6218
 1107SOL     OW14782   1.189   1.696   8.692 -0.2761  0.3163  0.1245
 1107SOL    HW114783   1.118   1.702   8.756  0.8233  1.5008  1.2401
 1107SOL    HW214784   1.223   1.609   8.715 -2.1007 -0.3614  0.2411
 1108SOL     OW14785   1.657   1.721   2.129  0.7000 -0.4897  0.9920
 1108SOL    HW114786   1.566   1.696   2.113  0.6730 -0.2150  0.7112
 1108SOL    HW214787   1.668   1.668   2.208  2.0649 -1.9083 -0.1300
 1109SOL     OW14788   4.445   1.029   1.629 -0.1986 -0.2300  0.2297
 1109SOL    HW114789   4.400   1.008   1.710  0.7846  0.3887  0.9399
 1109SOL    HW214790   4.452   0.945   1.583 -0.4113  0.7808 -1.6474
 1110SOL     OW14791   3.325   4.158   5.606 -0.6688  0.4337 -0.3768
 1110SOL    HW114792   3.343   4.233   5.550  0.6873  1.1903  1.0819
 1110SOL    HW214793   3.243   4.178   5.652 -0.1843  0.2553  0.5556
 1111SOL     OW14794   2.281   0.755   6.263  0.2466  0.1067  0.6172
 1111SOL    HW114795   2.248   0.709   6.185 -2.1333  3.1007 -0.1328
 1111SOL    HW214796   2.349   0.808   6.222 -0.7727  0.6928 -0.3035
 1112SOL     OW14797   0.558   4.583  17.474 -0.2435 -0.3028  0.1204
 1112SOL    HW114798   0.652   4.588  17.490 -0.8946 -0.2415  3.8269
 1112SOL    HW214799   0.516   4.603  17.557 -1.4312  1.3775 -0.8712
 1113SOL     OW14800   2.407   2.513  16.460 -0.4356  0.0213  0.6356
 1113SOL    HW114801   2.441   2.474  16.541  2.2085  0.8056 -0.1027
 1113SOL    HW214802   2.397   2.606  16.480  0.3453 -0.1309  1.7664
 1114SOL     OW14803   3.978   3.146   3.161  0.0736  0.0497  0.3439
 1114SOL    HW114804   4.031   3.208   3.211  2.3148 -0.4950 -1.3556
 1114SOL    HW214805   4.046   3.080   3.152 -2.2633 -2.6397  2.5349
 1115SOL     OW14806   4.718   1.036   2.668 -0.1720 -0.0060  0.2375
 1115SOL    HW114807   4.711   1.044   2.573  1.9882 -1.0995 -0.0132
 1115SOL    HW214808   4.625   1.018   2.683 -0.1657  0.2328  0.5565
 1116SOL     OW14809   0.822   0.357  16.029  1.1551 -0.1602 -0.1945
 1116SOL    HW114810   0.840   0.384  15.939 -2.5295  0.1491 -0.8338
 1116SOL    HW214811   0.891   0.292  16.043  0.5370 -0.9829 -0.9998
 1117SOL     OW14812   3.903   0.723  11.158  0.6013 -0.6076  0.1620
 1117SOL    HW114813   3.814   0.711  11.126  0.2099 -0.1279  1.0876
 1117SOL    HW214814   3.939   0.635  11.152 -0.4651 -0.9954 -0.6062
 1118SOL     OW14815   2.354   0.495   3.848 -0.2521  0.3567  0.2541
 1118SOL    HW114816   2.433   0.500   3.793 -0.1473  1.0132  0.4642
 1118SOL    HW214817   2.337   0.585   3.874 -1.3206  0.6752 -1.5146
 1119SOL     OW14818   4.190   3.143   7.562  0.0154  0.1762  0.0753
 1119SOL    HW114819   4.266   3.152   7.506 -0.0196  0.3585  0.0583
 1119SOL    HW214820   4.139   3.214   7.523  1.6243  0.6646 -1.1126
 1120SOL     OW14821   3.837   1.755   8.572 -0.1769 -0.5976 -0.4198
 1120SOL    HW114822   3.829   1.818   8.501  1.2142  1.0938  0.8937
 1120SOL    HW214823   3.889   1.811   8.630 -1.4837  1.5359 -1.3029
 1121SOL     OW14824   3.283   1.676  12.510 -0.6178 -0.0070  0.4527
 1121SOL    HW114825   3.243   1.760  12.532 -1.6451 -0.4589  0.2787
 1121SOL    HW214826   3.248   1.669  12.422  1.7956 -0.7758 -0.4603
 1122SOL     OW14827   4.529   4.184   7.232 -0.4027  0.6178  0.4513
 1122SOL    HW114828   4.497   4.275   7.230  0.7311  1.0828  3.1317
 1122SOL    HW214829   4.599   4.186   7.298  0.4350  3.7076 -0.5068
 1123SOL     OW14830   3.568   3.469   3.873 -0.3298  0.1822  0.5627
 1123SOL    HW114831   3.652   3.457   3.828 -0.6708 -0.0297 -0.0142
 1123SOL    HW214832   3.583   3.559   3.903 -0.0379  0.8907 -1.6795
 1124SOL     OW14833   0.868   1.256  10.632  0.3987  0.2542  0.1572
 1124SOL    HW114834   0.954   1.215  10.641  0.7008  0.1447 -3.2305
 1124SOL    HW214835   0.902   1.345  10.631  0.3699  0.2645  0.0750
 1125SOL     OW14836   2.371   1.487   6.357 -0.0918 -0.6547 -0.4016
 1125SOL    HW114837   2.392   1.548   6.427 -1.7487  0.4079 -0.8069
 1125SOL    HW214838   2.347   1.409   6.408  1.2780 -1.4151 -0.9298
 1126SOL     OW14839   4.575   2.196   3.562  0.0500  0.4004 -0.2055
 1126SOL    HW114840   4.599   2.105   3.579  1.0586  0.9693  1.4697
 1126SOL    HW214841   4.589   2.232   3.649 -0.0371  2.7860 -1.1808
 1127SOL     OW14842   1.963   4.497   5.180  0.0846 -0.0356  0.2870
 1127SOL    HW114843   1.924   4.429   5.235  0.3680 -0.1106  0.3902
 1127SOL    HW214844   1.933   4.475   5.092 -0.6124  0.9716  0.2705
 1128SOL     OW14845   4.225   3.109   8.225  0.0790 -0.3994 -0.0494
 1128SOL    HW114846   4.171   3.044   8.180 -0.7692  1.9315 -2.4250
 1128SOL    HW214847   4.155   3.158   8.269 -0.4237 -0.3880 -0.8601
 1129SOL     OW14848   0.581   4.207   3.869 -0.2487  0.1596 -0.7096
 1129SOL    HW114849   0.590   4.241   3.780 -4.3370 -1.7033 -1.8803
 1129SOL    HW214850   0.510   4.264   3.899 -1.0178 -0.7435 -0.8222
 1130SOL     OW14851   0.733   0.225   3.738  0.5506  0.1698  0.0741
 1130SOL    HW114852   0.818   0.236   3.694  0.1494 -1.4648 -1.1073
 1130SOL    HW214853   0.769   0.224   3.826  0.9943 -0.8331 -0.1256
 1131SOL     OW14854   3.162   3.698  16.318 -0.1802 -0.5279 -0.1693
 1131SOL    HW114855   3.252   3.666  16.315  0.7043  2.0409 -1.1251
 1131SOL    HW214856   3.140   3.714  16.409 -2.9662  0.8054 -1.0913
 1132SOL     OW14857   2.114   4.351   9.214 -0.4174 -0.0323 -0.0696
 1132SOL    HW114858   2.168   4.321   9.287  0.2214  0.9557 -0.1369
 1132SOL    HW214859   2.056   4.276   9.200  2.6660 -1.9323 -2.5751
 1133SOL     OW14860   1.345   4.340   4.632 -0.0654  0.3581  0.0020
 1133SOL    HW114861   1.298   4.276   4.580 -1.2859  2.7346 -1.7882
 1133SOL    HW214862   1.413   4.381   4.578 -0.8903 -1.1515 -2.1432
 1134SOL     OW14863   0.907   3.863   6.582 -0.6240 -0.3351 -0.5013
 1134SOL    HW114864   0.884   3.934   6.522  1.8894  1.1421  0.2812
 1134SOL    HW214865   1.001   3.859   6.565 -0.4958 -0.7290  0.2914
 1135SOL     OW14866   2.230   0.028   0.698 -0.5546 -0.2465 -0.1283
 1135SOL    HW114867   2.304   4.721   0.646  1.4234  2.7434  0.8879
 1135SOL    HW214868   2.259   0.001   0.785  1.5397  0.6570 -0.5474
 1136SOL     OW14869   2.736   1.339   7.931  0.2682 -0.6891  0.1947
 1136SOL    HW114870   2.680   1.269   7.965  1.5703 -2.0509 -0.4372
 1136SOL    HW214871   2.680   1.416   7.934  0.5553 -0.4053 -1.8672
 1137SOL     OW14872   0.286   3.722   8.131 -0.5588 -0.4182  0.3109
 1137SOL    HW114873   0.316   3.634   8.154  0.1471 -0.5942 -1.2861
 1137SOL    HW214874   0.289   3.766   8.216  2.8460  0.8032 -0.4364
 1138SOL     OW14875   4.496   0.617   7.042  0.4848 -0.2880  0.4281
 1138SOL    HW114876   4.407   0.627   7.076  1.7540  3.0891  2.6959
 1138SOL    HW214877   4.530   0.696   7.082  1.2995  0.0824 -1.0013
 1139SOL     OW14878   1.140   3.068   0.497 -0.2471 -0.6858  0.7989
 1139SOL    HW114879   1.231   3.046   0.519 -0.1749 -1.3695 -0.1575
 1139SOL    HW214880   1.142   3.079   0.402  0.2851 -0.3642  0.8444
 1140SOL     OW14881   3.506   1.952  11.631  0.1345 -0.9228  0.3149
 1140SOL    HW114882   3.476   1.881  11.575 -0.3316 -0.8827  0.5159
 1140SOL    HW214883   3.592   1.919  11.658  0.2132 -0.8085  0.2100
 1141SOL     OW14884   0.825   1.849   8.078  0.7297  0.2073 -0.2050
 1141SOL    HW114885   0.844   1.936   8.115  0.5606  0.1603 -0.0057
 1141SOL    HW214886   0.883   1.803   8.139  1.0705  0.0928 -0.6131
 1142SOL     OW14887   4.248   2.801  17.340  0.3860 -0.0238  0.2506
 1142SOL    HW114888   4.319   2.794  17.277  0.2759 -0.6145  0.1887
 1142SOL    HW214889   4.182   2.827  17.276 -2.2613 -1.2244  2.4758
 1143SOL     OW14890   1.964   0.641   0.967  0.0672 -0.5327 -0.1273
 1143SOL    HW114891   2.020   0.591   1.026  0.5307 -0.7677 -0.7587
 1143SOL    HW214892   1.888   0.584   0.960  0.6557 -1.2074 -1.0757
 1144SOL     OW14893   1.429   3.576   5.367  0.4166 -0.1832  0.4529
 1144SOL    HW114894   1.478   3.583   5.285  0.9331 -0.0157  0.7773
 1144SOL    HW214895   1.345   3.550   5.328  1.5002  0.4153 -2.2370
 1145SOL     OW14896   0.467   4.132  12.745 -0.1401 -0.0906  0.1571
 1145SOL    HW114897   0.419   4.052  12.768 -1.4510  0.8079  0.5013
 1145SOL    HW214898   0.406   4.195  12.707 -1.1762 -0.4909  1.1509
 1146SOL     OW14899   0.737   0.749  12.257  0.3198  0.7464 -0.0202
 1146SOL    HW114900   0.654   0.779  12.297 -0.7098 -1.3897 -0.5754
 1146SOL    HW214901   0.802   0.773  12.324  1.1430 -1.9046  0.1160
 1147SOL     OW14902   3.046   1.048  16.689 -0.2553 -0.8274 -0.3980
 1147SOL    HW114903   2.992   1.044  16.768 -1.1957  1.0624 -0.9278
 1147SOL    HW214904   3.087   1.135  16.698  0.0536 -1.0961  0.7239
 1148SOL     OW14905   1.344   2.975  13.833  0.2388 -0.0922  0.0524
 1148SOL    HW114906   1.335   3.070  13.826 -1.4293 -0.3489 -1.2863
 1148SOL    HW214907   1.429   2.968  13.788  0.0274  0.6452 -0.4665
 1149SOL     OW14908   1.757   4.541  10.339  0.5972  0.2346 -0.1514
 1149SOL    HW114909   1.698   4.615  10.355 -0.4745 -0.9350  1.2705
 1149SOL    HW214910   1.816   4.548  10.414 -0.7649  1.4866  0.8062
 1150SOL     OW14911   2.623   3.153   9.009 -0.5582 -0.3409  0.2184
 1150SOL    HW114912   2.609   3.246   8.991 -3.2268 -0.9126 -0.6856
 1150SOL    HW214913   2.565   3.144   9.085 -0.6448  1.3118  0.3478
 1151SOL     OW14914   4.253   0.711   4.228 -0.1701 -0.2024  0.0211
 1151SOL    HW114915   4.248   0.625   4.187 -0.2856 -0.3274  0.2997
 1151SOL    HW214916   4.317   0.690   4.296 -1.3108 -0.3878  1.0502
 1152SOL     OW14917   1.373   1.774   3.606  0.4871  0.2302  0.1009
 1152SOL    HW114918   1.329   1.762   3.690  2.6451  1.8359  1.4471
 1152SOL    HW214919   1.452   1.727   3.631  1.6447  1.6973 -0.8234
 1153SOL     OW14920   1.496   4.022  14.165  0.2163  0.2209  0.3745
 1153SOL    HW114921   1.495   3.976  14.081 -0.8248  0.7282  0.1031
 1153SOL    HW214922   1.413   3.990  14.200 -0.0103  0.6032  0.1943
 1154SOL     OW14923   1.280   0.749   5.697 -0.5997  0.4676  0.1896
 1154SOL    HW114924   1.326   0.804   5.633  1.2948 -2.0862 -0.6624
 1154SOL    HW214925   1.209   0.804   5.729  0.2915  0.9902  1.2634
 1155SOL     OW14926   1.166   4.661   2.933  0.1745  0.2300  0.0579
 1155SOL    HW114927   1.120   0.006   2.980 -1.7237  0.0226 -1.5213
 1155SOL    HW214928   1.234   4.711   2.889  1.4242  0.8497  2.6443
 1156SOL     OW14929   2.556   0.362  16.871  0.0343  0.2416  0.6905
 1156SOL    HW114930   2.491   0.373  16.940  1.6841  0.2585  2.2623
 1156SOL    HW214931   2.593   0.275  16.884  1.4624  0.7625  0.1901
 1157SOL     OW14932   1.498   0.521  12.199 -0.1908 -0.5503  0.2320
 1157SOL    HW114933   1.405   0.534  12.178 -0.2635 -1.7619 -0.2050
 1157SOL    HW214934   1.529   0.609  12.179 -1.8564  0.5074  2.2378
 1158SOL     OW14935   1.532   4.597  16.711  0.1554  0.1142  0.1548
 1158SOL    HW114936   1.595   4.528  16.692  0.9327  0.4613  1.4797
 1158SOL    HW214937   1.463   4.538  16.742 -1.3471  1.3479 -0.8095
 1159SOL     OW14938   2.196   1.899   4.277  0.7411  0.6288 -0.6260
 1159SOL    HW114939   2.166   1.930   4.191  0.5973  0.3387 -0.6806
 1159SOL    HW214940   2.156   1.971   4.326 -0.8437 -1.6513  1.3847
 1160SOL     OW14941   1.625   3.620  16.387  0.0459  0.3996 -0.2121
 1160SOL    HW114942   1.612   3.534  16.348 -1.4751  0.3640  0.3765
 1160SOL    HW214943   1.621   3.678  16.310 -2.6696  0.8517  0.2824
 1161SOL     OW14944   3.141   3.907  13.824 -0.0750 -0.3725  0.3933
 1161SOL    HW114945   3.200   3.983  13.829 -1.8738  0.8502  3.1051
 1161SOL    HW214946   3.168   3.873  13.739 -0.5188  1.0562 -0.3198
 1162SOL     OW14947   2.031   0.352  12.906  0.5152  0.3439  0.3278
 1162SOL    HW114948   1.972   0.308  12.844  0.8791 -0.2319  0.3913
 1162SOL    HW214949   2.092   0.394  12.845 -1.6550 -0.1794 -2.2183
 1163SOL     OW14950   3.131   4.262  14.864 -0.0987 -0.4571  0.9832
 1163SOL    HW114951   3.217   4.266  14.906  1.0963 -1.3647 -1.3929
 1163SOL    HW214952   3.123   4.174  14.830  1.0939 -0.3939  0.5226
 1164SOL     OW14953   0.898   0.676   0.082  0.3033  0.0682 -0.7882
 1164SOL    HW114954   0.871   0.655  17.691 -0.2564 -0.3513 -0.5178
 1164SOL    HW214955   0.966   0.736   0.052  0.4386  0.5229  0.4534
 1165SOL     OW14956   1.505   2.877   7.467  0.6325 -1.0793  0.5132
 1165SOL    HW114957   1.464   2.860   7.551  1.1298 -0.2149  0.9403
 1165SOL    HW214958   1.587   2.915   7.499 -0.9724  2.5608  0.3425
 1166SOL     OW14959   3.238   2.108   9.772 -0.5094  0.4954 -0.2990
 1166SOL    HW114960   3.233   2.137   9.863 -1.4996  1.1180 -0.5496
 1166SOL    HW214961   3.281   2.179   9.725  0.2294  0.2964  0.0764
 1167SOL     OW14962   1.779   2.359  15.828 -0.2719 -0.3154  0.8206
 1167SOL    HW114963   1.846   2.408  15.780  0.8342 -0.6823  1.9655
 1167SOL    HW214964   1.802   2.374  15.920  0.6349  1.3363  0.3291
 1168SOL     OW14965   0.238   1.146   8.342 -0.0048  0.0159 -0.1328
 1168SOL    HW114966   0.190   1.228   8.349 -3.2035 -1.9535  0.7917
 1168SOL    HW214967   0.261   1.137   8.434 -1.3086  0.4132  0.2277
 1169SOL     OW14968   2.975   1.786   7.015 -0.4076 -0.3252 -0.8715
 1169SOL    HW114969   3.065   1.818   7.013 -0.9694  1.3432  0.6053
 1169SOL    HW214970   2.979   1.708   7.071 -0.9802 -0.9742 -1.7370
 1170SOL     OW14971   1.770   2.434   9.972 -0.0903 -0.9890 -0.7105
 1170SOL    HW114972   1.748   2.386   9.893 -2.3852 -0.6112 -0.2831
 1170SOL    HW214973   1.823   2.508   9.942  0.3374 -0.9406  0.1705
 1171SOL     OW14974   0.674   4.186  12.404 -0.0835  0.7704 -0.3773
 1171SOL    HW114975   0.711   4.114  12.354 -0.1577 -0.6242  1.6068
 1171SOL    HW214976   0.632   4.145  12.480  0.4755 -0.7333 -0.8970
 1172SOL     OW14977   4.264   0.368   7.311 -0.1893 -0.6143 -0.0505
 1172SOL    HW114978   4.295   0.278   7.328 -0.1770 -1.0838 -2.5688
 1172SOL    HW214979   4.199   0.391   7.377  1.1197 -0.3119  1.1561
 1173SOL     OW14980   4.413   1.388   2.773 -0.1545 -0.1853  0.1417
 1173SOL    HW114981   4.492   1.344   2.803  0.1582  0.4862  0.3070
 1173SOL    HW214982   4.465   1.458   2.732 -1.6927  1.7983  1.5633
 1174SOL     OW14983   4.353   3.586  13.896 -0.4512  0.3254  0.5492
 1174SOL    HW114984   4.294   3.584  13.971  0.9511  0.1463  1.6436
 1174SOL    HW214985   4.328   3.673  13.863 -0.9423  0.0954  0.3185
 1175SOL     OW14986   3.091   0.318   8.769 -0.2759  0.0420 -0.1735
 1175SOL    HW114987   3.099   0.377   8.844 -0.6490 -2.1990  1.6091
 1175SOL    HW214988   3.186   0.310   8.760 -0.0489  1.9922  0.5124
 1176SOL     OW14989   3.044   0.470   9.173 -0.3250 -0.6559  0.2770
 1176SOL    HW114990   2.984   0.396   9.161  0.7516 -1.5219  0.2382
 1176SOL    HW214991   3.048   0.472   9.268 -0.2600 -4.8359  0.3665
 1177SOL     OW14992   1.998   4.588  13.053  0.4683  0.1637  0.1444
 1177SOL    HW114993   1.974   4.633  12.972 -1.6288  0.1137  0.7417
 1177SOL    HW214994   2.057   4.522  13.018 -0.9163 -1.1877  0.3646
 1178SOL     OW14995   3.994   0.543   9.264  0.2817  0.4042 -0.5160
 1178SOL    HW114996   3.993   0.448   9.278  0.9471  0.6827  1.4195
 1178SOL    HW214997   3.922   0.552   9.201  0.7405 -0.2075 -1.1279
 1179SOL     OW14998   1.995   0.941   6.141  0.1325 -0.4737  0.0463
 1179SOL    HW114999   1.992   1.023   6.189 -1.1797 -0.1432 -0.5996
 1179SOL    HW215000   2.088   0.918   6.141  0.1985 -0.2062 -0.1260
 1180SOL     OW15001   1.015   1.164  12.126  0.2972 -0.4469 -0.1712
 1180SOL    HW115002   1.101   1.160  12.084 -0.0502 -3.8264 -0.5584
 1180SOL    HW215003   1.034   1.127  12.213  0.5128 -1.4533 -0.6496
 1181SOL     OW15004   2.077   0.292  13.311 -0.3758  0.3019  0.1069
 1181SOL    HW115005   2.051   0.215  13.361  2.7383 -0.4562  0.5843
 1181SOL    HW215006   2.039   0.358  13.369  0.1374  1.3284 -0.7295
 1182SOL     OW15007   4.656   2.477   8.470  0.4303  0.5135  0.1789
 1182SOL    HW115008   4.720   2.476   8.399  0.4995  1.5731  0.2368
 1182SOL    HW215009   4.666   2.388   8.506 -1.0689 -0.6682 -2.3393
 1183SOL     OW15010   3.613   3.979   4.448  0.0579 -0.3783 -0.1661
 1183SOL    HW115011   3.527   3.956   4.481 -0.7290  0.9376 -1.3368
 1183SOL    HW215012   3.643   3.896   4.409  0.9129 -0.4586  0.6470
 1184SOL     OW15013   2.596   0.455  15.540  0.1455 -0.1295 -0.4065
 1184SOL    HW115014   2.623   0.441  15.631  0.3021 -1.4428 -0.6461
 1184SOL    HW215015   2.606   0.365  15.507  0.4563  0.5843 -2.2651
 1185SOL     OW15016   4.052   3.786   4.855  0.1397 -0.5273  0.2847
 1185SOL    HW115017   4.015   3.758   4.771 -1.0460  0.4624  0.4741
 1185SOL    HW215018   4.110   3.715   4.881 -1.2456 -1.7323  0.0774
 1186SOL     OW15019   1.997   3.914   2.083  0.3775  0.5969  0.0227
 1186SOL    HW115020   2.045   3.964   2.018  1.6890  0.1991  0.6946
 1186SOL    HW215021   2.066   3.890   2.145  0.1977  1.5911  0.6032
 1187SOL     OW15022   1.701   3.817  10.055  0.4773 -0.0515  0.3272
 1187SOL    HW115023   1.772   3.881  10.055  1.2798 -0.9412  1.0008
 1187SOL    HW215024   1.701   3.789  10.146 -1.1164  0.2232  0.4183
 1188SOL     OW15025   3.117   2.941   7.509  0.4828 -0.4017  0.3566
 1188SOL    HW115026   3.114   2.867   7.569 -2.0710 -2.7543 -2.6264
 1188SOL    HW215027   3.051   2.924   7.441  0.3912  1.2666  0.0411
 1189SOL     OW15028   4.586   4.192   2.250  0.2065  0.5757  0.4885
 1189SOL    HW115029   4.662   4.200   2.192 -1.4347  3.1046 -1.3356
 1189SOL    HW215030   4.629   4.160   2.330  0.1837 -2.3724 -0.6799
 1190SOL     OW15031   4.431   2.561   3.083  0.0123 -0.3092 -0.2405
 1190SOL    HW115032   4.524   2.573   3.063 -0.1445 -1.3724 -1.6234
 1190SOL    HW215033   4.391   2.609   3.011  0.0219  0.2861  0.1494
 1191SOL     OW15034   4.014   1.247   2.053  0.3461 -0.4251 -0.3024
 1191SOL    HW115035   4.016   1.256   2.148 -0.2703 -0.6750 -0.2687
 1191SOL    HW215036   3.973   1.326   2.017  2.6288  0.6047 -0.6475
 1192SOL     OW15037   3.760   1.354   4.734  0.1437 -0.2630  0.2384
 1192SOL    HW115038   3.737   1.444   4.754 -1.2232 -0.6826  0.5316
 1192SOL    HW215039   3.684   1.309   4.771 -1.1552  1.0887 -0.8017
 1193SOL     OW15040   2.973   0.713  16.684 -0.0680 -0.5529 -0.2473
 1193SOL    HW115041   2.892   0.756  16.712  1.1868  0.6425  1.4937
 1193SOL    HW215042   2.939   0.624  16.674 -0.1031 -0.8176  2.2810
 1194SOL     OW15043   3.768   4.385  10.240  0.1402  0.5650 -0.6400
 1194SOL    HW115044   3.741   4.298  10.270 -0.8703  1.3758  0.8056
 1194SOL    HW215045   3.849   4.397  10.290 -0.5175  0.4982  0.4436
 1195SOL     OW15046   2.116   0.663   8.131  0.3451  0.0268 -0.5837
 1195SOL    HW115047   2.105   0.666   8.036  2.1615  0.2384 -0.7750
 1195SOL    HW215048   2.032   0.680   8.173  0.2919  2.5985 -1.7296
 1196SOL     OW15049   2.507   3.998   2.009  0.1323  0.3115 -0.7355
 1196SOL    HW115050   2.522   3.977   1.917 -1.7270  0.4824 -1.0793
 1196SOL    HW215051   2.544   4.086   2.008  0.4586  0.1430 -2.4811
 1197SOL     OW15052   0.089   1.678  17.580  0.1749 -0.4466  0.0694
 1197SOL    HW115053   0.078   1.587  17.607 -3.0241  0.3675  1.5736
 1197SOL    HW215054   0.017   1.688  17.517  1.5437 -0.3818 -1.4939
 1198SOL     OW15055   2.864   0.663   9.096  0.1882 -0.2390 -0.3980
 1198SOL    HW115056   2.934   0.598   9.106 -0.7440 -1.0317  0.9485
 1198SOL    HW215057   2.912   0.745   9.110 -0.3482  0.3241 -1.8384
 1199SOL     OW15058   1.600   0.172  15.806  0.0813  0.1147 -0.1137
 1199SOL    HW115059   1.558   0.145  15.888  1.2835  1.2438  0.8725
 1199SOL    HW215060   1.536   0.237  15.777  0.8216  0.5165 -0.8371
 1200SOL     OW15061   4.424   3.508   8.632  0.1519 -0.3987  0.3030
 1200SOL    HW115062   4.501   3.457   8.609 -0.4063 -0.5402 -1.2369
 1200SOL    HW215063   4.462   3.582   8.681 -1.4692  1.2038 -0.8367
 1201SOL     OW15064   2.234   0.061   4.289  0.0331  0.6169 -0.5549
 1201SOL    HW115065   2.173   0.050   4.362  2.0817 -1.0919  0.8892
 1201SOL    HW215066   2.316   0.034   4.330 -0.7673  2.0460  1.9716
 1202SOL     OW15067   0.451   1.549   2.747 -0.5421 -0.1707 -0.8324
 1202SOL    HW115068   0.521   1.486   2.731 -0.7314 -0.9460  1.3616
 1202SOL    HW215069   0.393   1.501   2.806  0.6463  0.2448  0.6855
 1203SOL     OW15070   1.916   1.049   4.988 -0.8339 -0.2401 -0.2515
 1203SOL    HW115071   2.007   1.048   4.957  0.0077 -0.8705  2.1987
 1203SOL    HW215072   1.911   0.966   5.037 -1.7139 -1.3567 -2.2682
 1204SOL     OW15073   3.683   2.307  15.152  0.0217  0.9528  0.1051
 1204SOL    HW115074   3.671   2.400  15.171 -0.3509  1.6426 -3.5234
 1204SOL    HW215075   3.750   2.285  15.216 -0.9112 -1.8987  0.0821
 1205SOL     OW15076   3.796   2.158   1.002 -0.6145  0.5028 -0.5537
 1205SOL    HW115077   3.877   2.209   0.998 -1.5116  1.8221 -2.0314
 1205SOL    HW215078   3.731   2.228   1.010  0.1985  1.3507 -1.3189
 1206SOL     OW15079   1.183   0.085  15.875 -0.2350  0.2208  0.2524
 1206SOL    HW115080   1.271   0.090  15.911  0.3491  0.4696 -1.1980
 1206SOL    HW215081   1.132   0.149  15.925  0.6778 -0.1117  1.5873
 1207SOL     OW15082   2.955   0.644   7.079  0.4565 -0.4807  0.2466
 1207SOL    HW115083   2.864   0.669   7.095 -0.4359 -1.2863 -3.6311
 1207SOL    HW215084   2.989   0.717   7.132 -0.9807 -0.4309  1.1177
 1208SOL     OW15085   3.381   2.932  15.573 -0.1076  0.7691 -0.6024
 1208SOL    HW115086   3.351   2.951  15.484 -0.4959 -0.0967 -0.6548
 1208SOL    HW215087   3.376   3.019  15.612  0.2804  0.0986  0.9478
 1209SOL     OW15088   1.632   2.636   1.468 -0.0896 -0.1237 -1.1258
 1209SOL    HW115089   1.662   2.721   1.501  0.4746 -1.3743  1.5359
 1209SOL    HW215090   1.542   2.660   1.443 -0.4989  0.0481  0.5392
 1210SOL     OW15091   4.202   0.094   1.699 -0.1181 -0.2238 -0.1463
 1210SOL    HW115092   4.218   0.147   1.777 -0.9782  0.1124 -0.1910
 1210SOL    HW215093   4.173   0.011   1.737  0.2769  0.6336  2.0214
 1211SOL     OW15094   1.657   1.239   8.171  0.2422  0.5722 -0.0457
 1211SOL    HW115095   1.600   1.163   8.185  0.2259  0.6791  0.4858
 1211SOL    HW215096   1.729   1.226   8.232 -0.1855 -0.0372  0.3318
 1212SOL     OW15097   4.550   2.274   8.813  0.0174  0.2111  0.2907
 1212SOL    HW115098   4.524   2.307   8.899 -0.6965  2.5351 -0.8194
 1212SOL    HW215099   4.645   2.271   8.826 -0.0171 -1.1302  0.1849
 1213SOL     OW15100   2.702   3.644   6.007 -0.2709  0.4053 -0.2871
 1213SOL    HW115101   2.702   3.549   5.996 -1.3565  0.4200 -0.4129
 1213SOL    HW215102   2.777   3.670   5.954  1.1966 -4.2119 -0.4749
 1214SOL     OW15103   0.269   0.440   2.527  0.7652 -0.5108 -0.2579
 1214SOL    HW115104   0.217   0.405   2.455 -0.5431  1.1902 -0.1456
 1214SOL    HW215105   0.220   0.411   2.604  1.0166  0.4499  0.2686
 1215SOL     OW15106   3.558   2.123   5.038 -0.2036  0.2693  0.3143
 1215SOL    HW115107   3.515   2.100   4.956  0.5372  1.2423 -0.3570
 1215SOL    HW215108   3.642   2.141   4.994  0.5205  0.6828  1.8757
 1216SOL     OW15109   2.540   0.361   8.546  0.5504  0.0881 -0.3389
 1216SOL    HW115110   2.575   0.378   8.634 -0.5102  0.5908 -0.0127
 1216SOL    HW215111   2.478   0.434   8.541 -0.4389 -0.6798  0.7610
 1217SOL     OW15112   3.839   1.296   7.689 -0.2607 -0.3735  0.4861
 1217SOL    HW115113   3.755   1.269   7.651  0.4584 -1.4506 -0.3203
 1217SOL    HW215114   3.884   1.214   7.672  0.2372 -0.0656  0.3297
 1218SOL     OW15115   3.912   1.818   6.983 -0.3296 -0.1831 -0.5020
 1218SOL    HW115116   3.967   1.808   6.905  1.9788  0.6956  1.0152
 1218SOL    HW215117   3.953   1.751   7.036  0.3438  0.4112 -0.2779
 1219SOL     OW15118   2.363   3.328   5.449 -0.6739 -0.6591 -0.7503
 1219SOL    HW115119   2.303   3.401   5.441  0.7960  0.3226 -2.8615
 1219SOL    HW215120   2.429   3.347   5.381 -3.6070  0.3761 -3.2885
 1220SOL     OW15121   2.760   0.191   1.878  1.0531 -0.2534 -0.9004
 1220SOL    HW115122   2.668   0.174   1.857  0.3811  2.6200 -0.3692
 1220SOL    HW215123   2.756   0.179   1.973  2.2642  0.5630 -0.7450
 1221SOL     OW15124   4.634   4.223   2.577  0.1821  0.7433  0.8048
 1221SOL    HW115125   4.584   4.245   2.656  1.4682  2.8717  1.0308
 1221SOL    HW215126   4.637   4.311   2.538 -0.4942  0.8969  1.1013
 1222SOL     OW15127   3.603   1.340   7.533  0.1067 -0.0281  0.5005
 1222SOL    HW115128   3.540   1.319   7.602  1.3116 -0.9453  1.3135
 1222SOL    HW215129   3.561   1.297   7.458 -2.3263 -0.5618  2.1813
 1223SOL     OW15130   1.311   3.257   3.694 -0.3818  0.3287  0.3259
 1223SOL    HW115131   1.401   3.224   3.692 -0.3760  0.3679 -0.0495
 1223SOL    HW215132   1.269   3.218   3.771  0.6564  1.9035  1.6908
 1224SOL     OW15133   0.032   3.692   8.058 -0.0961  0.4528  0.4747
 1224SOL    HW115134   0.020   3.778   8.016 -0.2777  0.1509 -0.0904
 1224SOL    HW215135   0.126   3.693   8.075 -0.4691 -0.4560  2.5386
 1225SOL     OW15136   2.251   3.700   0.730  0.8039  0.1791  0.3793
 1225SOL    HW115137   2.303   3.727   0.655  1.5646 -1.0799  0.4526
 1225SOL    HW215138   2.162   3.731   0.713  0.1599 -0.9697  1.6344
 1226SOL     OW15139   3.036   1.544  10.322  0.5718  0.1909 -0.3458
 1226SOL    HW115140   3.098   1.474  10.306  0.4716  0.2055 -0.7970
 1226SOL    HW215141   3.084   1.606  10.377  2.1061 -1.4629  0.1741
 1227SOL     OW15142   1.708   2.483   4.440 -0.5669  0.3224 -0.3636
 1227SOL    HW115143   1.721   2.551   4.375 -0.8091 -0.0708 -0.8231
 1227SOL    HW215144   1.788   2.499   4.490  0.4465 -2.7208 -0.9715
 1228SOL     OW15145   0.761   4.110   8.531  0.6023  0.2552 -0.3205
 1228SOL    HW115146   0.793   4.062   8.455  0.6838  2.2275 -1.5163
 1228SOL    HW215147   0.768   4.036   8.592 -1.1806  1.5550  1.4611
 1229SOL     OW15148   4.109   4.421   2.683  0.3005 -0.2072 -0.7879
 1229SOL    HW115149   4.114   4.331   2.718 -1.8082 -0.0668 -0.1200
 1229SOL    HW215150   4.162   4.426   2.604 -2.0681 -1.2942 -2.4756
 1230SOL     OW15151   0.083   1.085   7.622 -0.7067 -0.7991 -0.1298
 1230SOL    HW115152   0.128   1.033   7.555  0.2889 -0.7139  0.4765
 1230SOL    HW215153   0.023   1.137   7.569 -0.2838  0.4049  0.5567
 1231SOL     OW15154   1.647   0.696   1.872 -0.5208 -0.2045  0.3605
 1231SOL    HW115155   1.637   0.768   1.810 -0.3241  2.6071  3.6137
 1231SOL    HW215156   1.693   0.631   1.819 -1.4142 -2.0880  1.9146
 1232SOL     OW15157   4.160   2.629   5.570  0.1924 -0.3073 -0.4554
 1232SOL    HW115158   4.189   2.618   5.479 -1.4403  1.4970 -1.1971
 1232SOL    HW215159   4.170   2.724   5.575  0.4558 -0.3486 -0.1106
 1233SOL     OW15160   3.830   3.409   3.744  0.7664 -0.1799  0.3901
 1233SOL    HW115161   3.841   3.495   3.703 -0.9684  0.5728  1.5040
 1233SOL    HW215162   3.899   3.369   3.690 -0.9677 -3.6245  0.6994
 1234SOL     OW15163   1.450   1.042   9.067 -0.0379  0.4091 -0.0685
 1234SOL    HW115164   1.542   1.023   9.086 -0.5495 -1.7792  0.2550
 1234SOL    HW215165   1.410   0.973   9.119 -0.2312 -0.7648 -1.7629
 1235SOL     OW15166   3.847   1.729   3.125  0.2124  0.1561 -0.0459
 1235SOL    HW115167   3.880   1.811   3.163 -0.2400  0.6104 -0.6337
 1235SOL    HW215168   3.850   1.676   3.204  0.5852  0.4231  0.1208
 1236SOL     OW15169   1.998   3.085   6.162  0.2104 -0.1576  0.3918
 1236SOL    HW115170   1.996   3.035   6.244 -0.7686 -0.5769  0.1093
 1236SOL    HW215171   1.931   3.153   6.171  0.9000  0.3950  1.3288
 1237SOL     OW15172   0.706   0.023   7.732  0.4584  0.2357 -0.3382
 1237SOL    HW115173   0.663   4.718   7.812 -0.9536  0.4097 -1.0318
 1237SOL    HW215174   0.801   0.023   7.742  0.3962  0.4653  0.3002
 1238SOL     OW15175   0.968   3.138   9.188  0.2929 -0.3601  0.6573
 1238SOL    HW115176   1.024   3.090   9.128  1.3588  2.0795 -0.2984
 1238SOL    HW215177   0.962   3.211   9.127 -1.0335 -0.2994  0.8464
 1239SOL     OW15178   3.235   4.157   6.302 -0.9237 -0.3582  0.1128
 1239SOL    HW115179   3.243   4.108   6.220  0.6847  3.9631 -2.3199
 1239SOL    HW215180   3.259   4.247   6.279  0.6882 -0.0217  3.1287
 1240SOL     OW15181   3.883   3.693   8.287 -0.1959  0.5345 -0.0713
 1240SOL    HW115182   3.977   3.706   8.270 -0.2155  3.1654  1.7908
 1240SOL    HW215183   3.889   3.678   8.381 -0.7293 -0.1620 -0.1502
 1241SOL     OW15184   4.060   0.037  14.638 -0.2557  1.2218 -0.8193
 1241SOL    HW115185   3.989   0.028  14.575  0.6954  0.8783 -1.8337
 1241SOL    HW215186   4.123   0.070  14.574  0.9513 -1.7550 -1.1777
 1242SOL     OW15187   0.517   1.158   3.523 -0.6898 -0.6067  0.0884
 1242SOL    HW115188   0.591   1.153   3.583  1.1944 -0.2358 -2.2435
 1242SOL    HW215189   0.448   1.120   3.578 -1.6517 -1.3591 -1.6296
 1243SOL     OW15190   2.758   3.071   6.717 -0.3036  0.1777  0.3052
 1243SOL    HW115191   2.710   3.108   6.643  0.0312  1.9536  0.9707
 1243SOL    HW215192   2.774   3.144   6.776 -1.5599  0.8995 -0.2495
 1244SOL     OW15193   0.740   4.317   4.086  0.0786  0.1701  0.2776
 1244SOL    HW115194   0.774   4.253   4.023  0.0313 -0.6496  1.0845
 1244SOL    HW215195   0.658   4.332   4.039 -0.3308 -0.2388  0.8679
 1245SOL     OW15196   4.390   0.972   8.695  0.7661 -0.1070 -0.1603
 1245SOL    HW115197   4.403   0.888   8.650  1.3104  0.2132 -0.5907
 1245SOL    HW215198   4.298   0.954   8.716  1.1435 -1.1529  0.6459
 1246SOL     OW15199   1.282   3.708   7.860  0.2339  0.1217  0.2858
 1246SOL    HW115200   1.377   3.714   7.868  0.0033  3.7379  0.6724
 1246SOL    HW215201   1.274   3.772   7.932 -2.1358  1.6507 -1.3592
 1247SOL     OW15202   3.257   0.266   4.270  1.1799 -0.3234 -0.1198
 1247SOL    HW115203   3.195   0.285   4.200 -0.7502  0.3202  1.7573
 1247SOL    HW215204   3.226   0.180   4.300  2.2163 -0.9628 -0.8849
 1248SOL     OW15205   1.329   0.430   2.131  0.3916  0.0030  0.2162
 1248SOL    HW115206   1.364   0.370   2.065  0.1675 -1.1854  1.1908
 1248SOL    HW215207   1.409   0.450   2.179  0.8652  0.7142 -0.8631
 1249SOL     OW15208   0.325   0.248   7.646 -0.2500  0.7467 -0.1238
 1249SOL    HW115209   0.343   0.195   7.724  1.1891  2.4376  0.6706
 1249SOL    HW215210   0.411   0.240   7.606 -0.8242 -1.6044 -0.8782
 1250SOL     OW15211   2.352   1.965   3.302  0.2273 -0.2230 -0.0879
 1250SOL    HW115212   2.265   1.929   3.316  0.4812 -1.5869 -1.9569
 1250SOL    HW215213   2.333   2.051   3.339 -1.1239  0.0366 -1.4031
 1251SOL     OW15214   2.140   2.321   5.457  0.8093  0.0742 -0.0317
 1251SOL    HW115215   2.192   2.301   5.535  0.7308  0.3963  0.1029
 1251SOL    HW215216   2.085   2.390   5.496  1.8156  1.8201 -1.7344
 1252SOL     OW15217   2.178   1.097   4.870  0.3060  0.2824  0.0494
 1252SOL    HW115218   2.189   1.062   4.781 -2.9001 -0.7551  0.0664
 1252SOL    HW215219   2.266   1.131   4.881  0.0324  0.5858  1.2339
 1253SOL     OW15220   3.245   3.643  12.031 -0.2621 -0.3319 -0.0007
 1253SOL    HW115221   3.292   3.559  12.038 -2.4572 -1.4564  1.2700
 1253SOL    HW215222   3.182   3.618  11.964 -1.4695  0.0585  0.9953
 1254SOL     OW15223   4.575   2.096   5.719 -0.3053  0.0025  0.0638
 1254SOL    HW115224   4.638   2.028   5.743  0.7228  1.0015  0.1555
 1254SOL    HW215225   4.536   2.119   5.803  0.6912  2.2015 -0.0914
 1255SOL     OW15226   4.296   0.356   7.935  0.1825 -0.1776  0.3490
 1255SOL    HW115227   4.250   0.298   7.996  0.8897  0.9321  1.9678
 1255SOL    HW215228   4.340   0.424   7.986 -0.8798 -0.0484  1.1023
 1256SOL     OW15229   4.554   3.437   5.987  0.2981  0.3697 -0.0668
 1256SOL    HW115230   4.649   3.446   5.992  0.4058 -0.8144  0.0485
 1256SOL    HW215231   4.519   3.526   5.984 -0.8590 -0.1411 -1.7905
 1257SOL     OW15232   1.577   3.771  10.852  0.7442 -0.3807 -0.1732
 1257SOL    HW115233   1.567   3.688  10.898 -2.4471  0.5647  0.8344
 1257SOL    HW215234   1.670   3.785  10.871  0.4106 -1.6826  2.4033
 1258SOL     OW15235   4.168   0.693   5.583 -0.5221 -0.0892 -0.5664
 1258SOL    HW115236   4.263   0.698   5.588 -0.5846 -0.8333  1.5124
 1258SOL    HW215237   4.141   0.758   5.518  0.0828 -0.3811 -1.1042
 1259SOL     OW15238   3.234   1.870   3.761  0.1274 -0.9267 -0.3285
 1259SOL    HW115239   3.326   1.877   3.737  0.6980 -1.7201  1.5904
 1259SOL    HW215240   3.241   1.867   3.857  1.6270 -2.1292 -0.4827
 1260SOL     OW15241   0.959   1.172  15.429 -0.0061 -0.3931 -0.7565
 1260SOL    HW115242   1.042   1.125  15.427  0.4481  0.3451  1.4658
 1260SOL    HW215243   0.917   1.139  15.349 -0.2776  3.2643 -2.1432
 1261SOL     OW15244   4.211   0.265   3.376 -0.1627 -0.0859 -0.2797
 1261SOL    HW115245   4.234   0.180   3.337  0.2215  0.1925 -0.6624
 1261SOL    HW215246   4.120   0.281   3.350 -0.2802  3.4400  2.4736
 1262SOL     OW15247   1.842   3.027   2.992  0.2540 -0.1263  0.1900
 1262SOL    HW115248   1.756   3.067   3.004  0.4103  0.5832 -1.0095
 1262SOL    HW215249   1.829   2.985   2.907  1.4925  1.2643 -0.6949
 1263SOL     OW15250   0.816   3.196   3.437 -0.6398 -0.0495  0.1038
 1263SOL    HW115251   0.793   3.261   3.371 -0.3375 -0.0310  0.0156
 1263SOL    HW215252   0.909   3.215   3.451 -1.0022  0.7731  1.4267
 1264SOL     OW15253   2.824   1.048  16.902  0.4398  0.2926  0.0080
 1264SOL    HW115254   2.730   1.054  16.920  0.2393 -0.9418 -0.6601
 1264SOL    HW215255   2.806   0.972  16.847  0.6230 -0.2096  0.6512
 1265SOL     OW15256   3.720   1.838   7.244  0.0224 -0.0033  0.0866
 1265SOL    HW115257   3.693   1.843   7.336  1.8409 -1.4488  0.6937
 1265SOL    HW215258   3.707   1.745   7.230  1.3751 -0.3993  1.4385
 1266SOL     OW15259   2.189   0.336   2.987  0.1580 -0.4066  0.1573
 1266SOL    HW115260   2.174   0.353   2.894 -0.0248  0.5056  0.3518
 1266SOL    HW215261   2.275   0.294   2.980  0.7787  0.9966 -0.4975
 1267SOL     OW15262   3.644   4.163  10.333  0.1116 -0.7612 -0.1353
 1267SOL    HW115263   3.588   4.102  10.380 -0.6852  0.7046  0.8014
 1267SOL    HW215264   3.628   4.134  10.243  1.1660  0.1589 -0.6178
 1268SOL     OW15265   3.119   0.840  13.456  0.1746  0.8476  0.0156
 1268SOL    HW115266   3.115   0.746  13.444  1.9643  0.8030 -0.2471
 1268SOL    HW215267   3.211   0.854  13.434 -0.2457  2.1600 -0.9319
 1269SOL     OW15268   3.830   0.357  14.152  0.1164 -0.0921 -0.1643
 1269SOL    HW115269   3.869   0.440  14.178  1.0348 -0.1023 -1.4965
 1269SOL    HW215270   3.907   0.300  14.163  0.8391  0.9899  0.3590
 1270SOL     OW15271   1.515   0.775  11.012 -0.0631 -0.0530 -0.1735
 1270SOL    HW115272   1.479   0.847  10.961 -0.8413  0.0358  0.5172
 1270SOL    HW215273   1.535   0.711  10.943  0.4355  3.0478 -2.8963
 1271SOL     OW15274   1.324   4.633  13.307  0.0427  0.0922  0.7551
 1271SOL    HW115275   1.255   4.663  13.366  0.8586 -0.7790  2.1480
 1271SOL    HW215276   1.281   4.556  13.270 -0.2452 -0.1487  1.5953
 1272SOL     OW15277   1.853   0.148   3.985  0.0539 -0.2627 -0.2227
 1272SOL    HW115278   1.822   0.162   3.895  1.0839  1.6981 -0.2717
 1272SOL    HW215279   1.863   0.238   4.014 -0.3583  0.0889 -1.1761
 1273SOL     OW15280   0.768   1.176   5.826  0.3703  0.3671  0.2438
 1273SOL    HW115281   0.817   1.098   5.800 -3.7813 -1.4497 -2.1154
 1273SOL    HW215282   0.809   1.246   5.777  1.1201  1.1458  1.9775
 1274SOL     OW15283   1.172   0.601  17.385  0.1013 -0.0559  0.1844
 1274SOL    HW115284   1.082   0.633  17.392  0.5582  1.5123 -0.9703
 1274SOL    HW215285   1.209   0.648  17.310 -0.4871  1.2926  0.7387
 1275SOL     OW15286   0.970   1.840   6.920  0.7256  0.2633  0.1102
 1275SOL    HW115287   1.052   1.833   6.969  0.5209 -1.1788  0.2690
 1275SOL    HW215288   0.984   1.923   6.875  0.1382  0.9154  1.1109
 1276SOL     OW15289   3.585   4.595   3.379 -0.0459  0.5955 -0.2899
 1276SOL    HW115290   3.555   4.517   3.332  0.5157 -0.9726  1.9397
 1276SOL    HW215291   3.622   4.637   3.301 -1.4253 -0.9315 -1.7623
 1277SOL     OW15292   2.148   2.687  16.239 -0.4160 -0.1108  0.3817
 1277SOL    HW115293   2.153   2.740  16.159 -4.2346 -1.0320 -0.4523
 1277SOL    HW215294   2.061   2.710  16.272 -1.3039  0.4692 -2.3918
 1278SOL     OW15295   1.033   1.235   7.592 -0.0685 -0.0062  0.1546
 1278SOL    HW115296   1.064   1.221   7.503  0.4563 -1.8939  0.6297
 1278SOL    HW215297   1.096   1.288   7.640 -0.6236  2.8063 -2.2614
 1279SOL     OW15298   1.450   2.455   8.504  0.5766  0.2528 -0.2138
 1279SOL    HW115299   1.404   2.449   8.589  0.0383 -4.7487 -0.8335
 1279SOL    HW215300   1.432   2.367   8.469  0.3566  1.1853 -2.4297
 1280SOL     OW15301   0.529   2.998   7.442  0.4934 -0.5474 -0.1171
 1280SOL    HW115302   0.519   2.978   7.535 -1.3127  0.8482 -0.0169
 1280SOL    HW215303   0.452   2.947   7.416  0.5573 -0.4734 -0.4572
 1281SOL     OW15304   2.411   1.200   7.793  0.3989  0.2463 -0.2022
 1281SOL    HW115305   2.454   1.269   7.742  1.3970  0.6779  1.2232
 1281SOL    HW215306   2.489   1.146   7.803  2.0798  3.1217  2.1447
 1282SOL     OW15307   1.487   0.324   6.119 -0.2638 -0.2866  0.3304
 1282SOL    HW115308   1.526   0.335   6.205 -1.1635  0.1810  0.6759
 1282SOL    HW215309   1.542   0.253   6.087 -1.1127 -1.5047  1.6096
 1283SOL     OW15310   4.231   1.165   2.495  0.2782  0.0829 -0.3201
 1283SOL    HW115311   4.246   1.077   2.461 -0.3240 -0.2190  0.1800
 1283SOL    HW215312   4.202   1.216   2.419 -0.4988 -2.2497 -1.5731
 1284SOL     OW15313   0.998   0.285  10.456 -0.3415 -0.1307  0.4615
 1284SOL    HW115314   1.026   0.232  10.531  0.0751 -0.1938  0.2618
 1284SOL    HW215315   1.082   0.288  10.411 -0.7649  0.7465 -0.2587
 1285SOL     OW15316   4.672   3.101   0.192  0.1434  0.0729 -0.2757
 1285SOL    HW115317   0.038   3.105   0.222 -0.6943  0.1536  2.2304
 1285SOL    HW215318   4.649   3.192   0.176  1.9574  0.4703 -0.5541
 1286SOL     OW15319   4.706   4.066   2.802  0.4216 -0.1244 -0.4549
 1286SOL    HW115320   4.662   4.151   2.796  1.5082  0.3644 -1.5378
 1286SOL    HW215321   4.638   4.009   2.837 -0.4692  0.2369 -1.5956
 1287SOL     OW15322   2.205   4.019   0.857 -0.1106  0.5832  0.3624
 1287SOL    HW115323   2.180   3.975   0.938 -1.7009  1.9204  0.5888
 1287SOL    HW215324   2.132   4.081   0.859 -1.9120 -1.4783 -0.5282
 1288SOL     OW15325   1.581   1.174   6.955  0.2367 -0.3036  0.8037
 1288SOL    HW115326   1.561   1.119   6.879 -0.7514  0.0392  0.8146
 1288SOL    HW215327   1.527   1.252   6.942 -1.1561 -1.5084 -0.6219
 1289SOL     OW15328   3.679   3.233   0.180 -0.1233 -0.0864 -0.6160
 1289SOL    HW115329   3.604   3.178   0.158  0.3169  0.0590 -2.4952
 1289SOL    HW215330   3.727   3.242   0.097 -2.7155  0.5668 -2.0513
 1290SOL     OW15331   2.589   4.319   6.029 -0.3012 -0.1917  1.0258
 1290SOL    HW115332   2.675   4.355   6.049 -0.6020  1.5540 -0.8431
 1290SOL    HW215333   2.588   4.232   5.991  0.9191 -0.8714  2.5285
 1291SOL     OW15334   0.463   2.582   7.700  0.5667 -0.2434 -0.1280
 1291SOL    HW115335   0.533   2.580   7.766 -0.2135 -0.2759  0.6920
 1291SOL    HW215336   0.521   2.613   7.630  1.4322 -1.4817  0.0239
 1292SOL     OW15337   3.635   1.678  13.977  0.3757  0.0668  0.0331
 1292SOL    HW115338   3.652   1.590  14.010 -0.4265  1.0175  2.9801
 1292SOL    HW215339   3.628   1.660  13.883  0.3561  0.8601 -0.1204
 1293SOL     OW15340   0.595   0.683   2.907 -0.1077  0.2409  0.4079
 1293SOL    HW115341   0.569   0.600   2.868 -2.3351  0.7715  0.7606
 1293SOL    HW215342   0.574   0.736   2.831  0.7084  1.0524  0.7464
 1294SOL     OW15343   2.181   1.696  12.850  0.3471  0.4398 -0.3231
 1294SOL    HW115344   2.272   1.685  12.823  1.1179  0.3540  2.3040
 1294SOL    HW215345   2.185   1.754  12.926  0.4982 -1.4930  1.1515
 1295SOL     OW15346   1.046   0.761   8.400  0.2749 -0.0775  0.5332
 1295SOL    HW115347   0.982   0.820   8.360  1.5816  1.0963  0.1877
 1295SOL    HW215348   1.111   0.758   8.330 -1.2325 -1.4788 -0.8113
 1296SOL     OW15349   3.635   1.395  14.054  0.1690 -0.4840  0.1099
 1296SOL    HW115350   3.574   1.423  14.122 -0.7833 -3.6118  0.5398
 1296SOL    HW215351   3.719   1.372  14.096 -0.2213 -1.2216  0.5007
 1297SOL     OW15352   1.898   4.063   6.576 -0.5141  0.2309 -0.1424
 1297SOL    HW115353   1.913   4.056   6.670 -0.2734 -0.4685 -0.2322
 1297SOL    HW215354   1.859   4.150   6.579 -1.7008 -0.3859  1.8517
 1298SOL     OW15355   2.606   2.179   0.621 -0.1764 -0.4591  0.0676
 1298SOL    HW115356   2.551   2.170   0.699  0.4265  1.7112  0.7301
 1298SOL    HW215357   2.617   2.274   0.624 -0.3612 -0.4871  1.3153
 1299SOL     OW15358   3.195   2.274  15.961 -0.4100 -0.0396  0.2364
 1299SOL    HW115359   3.173   2.222  16.038  1.7856  1.6341  1.9861
 1299SOL    HW215360   3.117   2.327  15.977  0.3704  1.8292 -2.1081
 1300SOL     OW15361   1.764   4.504   9.628  0.0301  0.0948 -0.4154
 1300SOL    HW115362   1.801   4.591   9.638  0.4879 -0.1689  0.1949
 1300SOL    HW215363   1.670   4.519   9.627 -0.1987 -1.2588  0.2918
 1301SOL     OW15364   3.211   1.131  15.728  0.1435 -0.1275  0.6188
 1301SOL    HW115365   3.181   1.086  15.807  0.0269  1.2423  1.3692
 1301SOL    HW215366   3.265   1.059  15.696 -0.6909  0.3358 -1.8729
 1302SOL     OW15367   1.464   0.790   0.538  0.1218  0.2071 -0.0086
 1302SOL    HW115368   1.451   0.697   0.518  0.6435  0.2926 -0.7430
 1302SOL    HW215369   1.389   0.830   0.493  0.0395  0.8487  0.7035
 1303SOL     OW15370   0.639   1.003   9.157  0.2218 -0.5685  0.0872
 1303SOL    HW115371   0.614   0.919   9.194  0.6162 -0.2603  1.0540
 1303SOL    HW215372   0.731   0.992   9.134  0.0368  0.0353 -0.9722
 1304SOL     OW15373   0.989   1.631   1.707  0.1171 -0.5996 -0.8667
 1304SOL    HW115374   1.018   1.721   1.693 -3.2064  0.3011 -1.9398
 1304SOL    HW215375   0.895   1.636   1.695 -0.0655  1.2534  1.4337
 1305SOL     OW15376   1.428   0.106   1.302  0.4857 -0.0073  0.0833
 1305SOL    HW115377   1.366   0.111   1.230 -0.1856  0.9502  0.7135
 1305SOL    HW215378   1.509   0.100   1.251 -0.5818  1.4081 -1.7766
 1306SOL     OW15379   3.390   0.953   5.658  0.1034 -0.8413  0.4164
 1306SOL    HW115380   3.391   1.020   5.589  1.9965 -2.1385 -0.8320
 1306SOL    HW215381   3.440   0.881   5.619  0.4023 -1.1530  1.3783
 1307SOL     OW15382   4.065   0.293   3.062  0.2923 -0.2060  0.4132
 1307SOL    HW115383   4.002   0.331   3.000  0.1529 -1.0784  0.0099
 1307SOL    HW215384   4.134   0.358   3.068 -0.0067 -0.0350  1.8241
 1308SOL     OW15385   3.320   3.755   3.064 -0.0372 -0.2213  0.4682
 1308SOL    HW115386   3.260   3.722   2.997 -1.8110 -1.0655  2.4710
 1308SOL    HW215387   3.393   3.795   3.017 -0.2565  1.2352  1.3484
 1309SOL     OW15388   2.070   4.128   8.537 -0.2807 -0.3166  0.0116
 1309SOL    HW115389   2.137   4.178   8.490 -1.5425 -1.1842 -2.6933
 1309SOL    HW215390   2.119   4.111   8.617  0.5651 -0.4140 -0.5295
 1310SOL     OW15391   1.393   2.970  15.541 -0.5075  0.2851 -0.1107
 1310SOL    HW115392   1.395   2.878  15.515  0.3632  0.3064 -0.1310
 1310SOL    HW215393   1.316   2.959  15.597 -0.3532  1.3765  0.3014
 1311SOL     OW15394   2.082   0.429   3.460 -0.1712  0.3319  0.5879
 1311SOL    HW115395   2.102   0.465   3.373  0.0957  1.5244  1.1485
 1311SOL    HW215396   2.083   0.507   3.515 -0.9673  0.7541  0.0020
 1312SOL     OW15397   2.895   0.500  11.195 -0.3436  0.4034 -0.4358
 1312SOL    HW115398   2.965   0.564  11.205 -0.9370  0.9661  0.0987
 1312SOL    HW215399   2.812   0.547  11.193 -0.8966 -0.5717 -0.6755
 1313SOL     OW15400   3.004   3.834   3.182  0.2183  0.2132 -0.6260
 1313SOL    HW115401   2.910   3.825   3.196  0.4150  0.9840  1.0808
 1313SOL    HW215402   3.024   3.784   3.102  1.9864 -1.3213  0.7732
 1314SOL     OW15403   2.068   1.501   0.519  0.6049 -0.5610  0.1115
 1314SOL    HW115404   1.992   1.483   0.464 -0.7964  1.7526  1.2726
 1314SOL    HW215405   2.141   1.450   0.484  0.1565  0.0913 -1.7933
 1315SOL     OW15406   0.279   4.269  11.472 -0.1140 -0.3101  0.1304
 1315SOL    HW115407   0.289   4.271  11.567 -2.2754  1.7114  0.3337
 1315SOL    HW215408   0.303   4.360  11.457 -4.4371  0.7962 -0.1972
 1316SOL     OW15409   3.850   4.043   8.627  0.9456 -0.4192 -0.0729
 1316SOL    HW115410   3.816   4.069   8.713 -0.6057 -2.6320 -0.0071
 1316SOL    HW215411   3.924   3.990   8.657  0.6894 -1.9602 -2.1254
 1317SOL     OW15412   2.389   0.345  16.673  0.3351  0.0345 -0.0898
 1317SOL    HW115413   2.300   0.341  16.710  0.7205  0.0930  0.8347
 1317SOL    HW215414   2.444   0.363  16.749  0.4689 -3.8129  0.7502
 1318SOL     OW15415   3.516   2.673   0.416 -0.0871 -0.2651  0.2351
 1318SOL    HW115416   3.426   2.644   0.435  0.1708 -2.0063 -1.2245
 1318SOL    HW215417   3.532   2.746   0.476  0.2553  0.3235 -0.5798
 1319SOL     OW15418   0.530   2.226  16.810  0.5293  0.1685 -0.1518
 1319SOL    HW115419   0.444   2.220  16.851  0.8186 -0.8394  0.2989
 1319SOL    HW215420   0.510   2.227  16.717 -2.1005  1.1481  0.4185
 1320SOL     OW15421   3.148   0.498   4.461  0.4700 -0.4177  0.3524
 1320SOL    HW115422   3.176   0.423   4.409  1.2924  0.7062 -0.8243
 1320SOL    HW215423   3.055   0.501   4.436  0.6522  1.6205 -0.1176
 1321SOL     OW15424   2.760   4.241  11.355 -0.7385 -0.3319  0.6013
 1321SOL    HW115425   2.787   4.211  11.441 -1.5317  0.2098  1.0364
 1321SOL    HW215426   2.716   4.159  11.334  0.8675 -1.0223 -0.0701
 1322SOL     OW15427   4.414   3.106   6.682 -0.5945 -0.1688  0.0485
 1322SOL    HW115428   4.400   3.026   6.631 -0.6328 -0.2568  0.1986
 1322SOL    HW215429   4.397   3.174   6.616  2.9174 -0.3387 -1.0421
 1323SOL     OW15430   4.614   3.241   9.140 -0.2141  0.3697 -0.0891
 1323SOL    HW115431   4.637   3.198   9.058 -1.5659  0.5858 -0.5889
 1323SOL    HW215432   4.672   3.196   9.201 -0.4839 -0.1772 -0.2403
 1324SOL     OW15433   4.069   4.267   2.442  0.1920  0.4796 -0.9351
 1324SOL    HW115434   4.002   4.302   2.502  0.9901  3.0804 -1.5836
 1324SOL    HW215435   4.017   4.232   2.369  2.1181 -0.3297 -1.9179
 1325SOL     OW15436   0.204   1.536  15.266  0.4941 -0.1889  0.3349
 1325SOL    HW115437   0.240   1.458  15.307 -1.2828 -1.0458  0.2785
 1325SOL    HW215438   0.114   1.542  15.298 -0.1598  0.2760 -1.5972
 1326SOL     OW15439   2.825   4.390   5.590  0.3842  0.6635 -0.0977
 1326SOL    HW115440   2.779   4.390   5.506 -1.5567 -1.3726  0.9493
 1326SOL    HW215441   2.814   4.484   5.605 -0.5955  0.9589 -2.6238
 1327SOL     OW15442   4.699   0.160   7.584  0.4505  0.4009 -0.1981
 1327SOL    HW115443   4.643   0.186   7.656  0.1389  0.7553 -0.5716
 1327SOL    HW215444   4.641   0.173   7.509 -1.7818 -0.3166  1.4156
 1328SOL     OW15445   0.386   4.080   3.193  0.0598  0.6631  0.0869
 1328SOL    HW115446   0.418   3.996   3.227  1.3841  0.6924 -1.1018
 1328SOL    HW215447   0.452   4.142   3.225  1.1498 -0.7841  0.6423
 1329SOL     OW15448   1.659   1.561  17.093  0.0539  0.1576  0.3072
 1329SOL    HW115449   1.583   1.616  17.074 -2.7257 -4.0026 -0.4987
 1329SOL    HW215450   1.620   1.473  17.092  0.1191  0.1238  0.9464
 1330SOL     OW15451   2.975   4.389   3.724  0.4376 -0.5330 -0.1758
 1330SOL    HW115452   3.057   4.349   3.693  1.9457  0.4182  2.6445
 1330SOL    HW215453   2.940   4.316   3.775  1.1306 -0.9495 -0.2965
 1331SOL     OW15454   0.643   2.304  12.098  0.2672  0.7792 -0.1133
 1331SOL    HW115455   0.601   2.389  12.110  2.7635  1.5688  3.2054
 1331SOL    HW215456   0.568   2.245  12.103 -0.1345  1.3701  0.8428
 1332SOL     OW15457   1.257   1.686   5.201  0.0669 -0.0663 -0.1358
 1332SOL    HW115458   1.312   1.610   5.179 -1.2248 -0.9919 -0.1858
 1332SOL    HW215459   1.324   1.753   5.189  0.9437 -1.0245 -0.6539
 1333SOL     OW15460   4.540   3.118   3.468 -0.2386 -0.8728  0.0371
 1333SOL    HW115461   4.558   3.123   3.374  1.8673 -0.3371  0.4885
 1333SOL    HW215462   4.491   3.200   3.468  0.3394 -0.5311 -1.5121
 1334SOL     OW15463   2.812   2.583   5.595 -0.5088  0.5175  0.0742
 1334SOL    HW115464   2.831   2.674   5.572 -1.3615  0.9168  0.9886
 1334SOL    HW215465   2.900   2.545   5.606  0.1563  2.0971  0.1265
 1335SOL     OW15466   2.337   0.523   4.357 -0.4596 -0.2575  0.0578
 1335SOL    HW115467   2.350   0.434   4.323 -0.2826 -0.9791  2.0107
 1335SOL    HW215468   2.282   0.550   4.283  1.3869 -0.5103 -1.4114
 1336SOL     OW15469   0.403   3.213   4.330  0.6385 -0.0290  0.4063
 1336SOL    HW115470   0.357   3.231   4.413  1.8339 -3.2793  1.7751
 1336SOL    HW215471   0.483   3.249   4.367  0.8340 -0.4937  0.4336
 1337SOL     OW15472   0.873   3.554   7.868 -0.5695 -0.0364  0.0500
 1337SOL    HW115473   0.837   3.632   7.825 -1.4571 -0.2105  0.4716
 1337SOL    HW215474   0.803   3.489   7.862  1.3692 -2.0997  0.0419
 1338SOL     OW15475   4.434   1.929   9.056 -0.1718  0.4161 -0.3429
 1338SOL    HW115476   4.389   1.926   9.140 -2.0692 -2.2862 -1.4395
 1338SOL    HW215477   4.513   1.970   9.092 -0.2843 -0.4148  0.8662
 1339SOL     OW15478   4.315   2.092   1.950  0.1808  0.2687 -0.5756
 1339SOL    HW115479   4.361   2.038   2.014  0.0170  1.9807  0.9858
 1339SOL    HW215480   4.223   2.091   1.975 -0.1165  2.0026 -1.5748
 1340SOL     OW15481   2.365   0.681   0.954 -0.0654 -0.3310 -0.3399
 1340SOL    HW115482   2.383   0.606   1.010  0.5632 -0.9668 -1.3891
 1340SOL    HW215483   2.417   0.664   0.876  0.7448  0.0168  0.1243
 1341SOL     OW15484   3.953   4.389   4.239 -0.5080 -0.1563  0.6062
 1341SOL    HW115485   3.860   4.365   4.245 -0.4563  0.0612  2.3440
 1341SOL    HW215486   3.995   4.332   4.303 -0.0309  0.7811  1.1221
 1342SOL     OW15487   2.143   0.459  15.932  0.5369  0.3746  0.3180
 1342SOL    HW115488   2.234   0.433  15.946 -0.1115 -2.4965 -0.8651
 1342SOL    HW215489   2.103   0.446  16.018  1.8962  1.1290  1.0601
 1343SOL     OW15490   0.909   0.824   0.851 -0.1657  0.1586 -0.0956
 1343SOL    HW115491   0.941   0.748   0.802 -1.0088 -1.2439  1.5362
 1343SOL    HW215492   0.987   0.878   0.860  0.8145 -0.5682 -4.2675
 1344SOL     OW15493   4.226   3.122   1.438  0.3451 -0.2119  0.3518
 1344SOL    HW115494   4.318   3.113   1.414  0.0350 -1.1993 -0.4695
 1344SOL    HW215495   4.195   3.166   1.358 -0.8159  1.7331  1.8809
 1345SOL     OW15496   2.323   4.461   3.948  0.0250 -0.3227  0.0973
 1345SOL    HW115497   2.368   4.394   3.999  0.4073 -1.0577 -1.2153
 1345SOL    HW215498   2.353   4.540   3.993 -0.0739 -0.0610 -0.2918
 1346SOL     OW15499   2.549   3.847   6.043 -0.2801  0.0465 -0.2325
 1346SOL    HW115500   2.495   3.817   6.116  0.6579 -0.8408  0.0950
 1346SOL    HW215501   2.597   3.768   6.017  0.1684  0.6768 -1.3415
 1347SOL     OW15502   2.758   4.519   5.331  0.5114 -0.5469 -0.0802
 1347SOL    HW115503   2.822   4.585   5.355  1.8446 -1.3279 -1.4455
 1347SOL    HW215504   2.795   4.495   5.245  1.1106 -0.6852  0.2155
 1348SOL     OW15505   1.316   3.814   5.640  0.4001  0.0730  0.0633
 1348SOL    HW115506   1.297   3.865   5.718  3.1679  2.0374 -0.5625
 1348SOL    HW215507   1.230   3.824   5.600  1.1771  1.1815 -1.2963
 1349SOL     OW15508   0.264   1.359   7.965  0.1885 -0.1807 -0.0967
 1349SOL    HW115509   0.285   1.303   7.890 -0.3149  1.8649 -1.7604
 1349SOL    HW215510   0.275   1.448   7.933  1.4246 -0.2524  0.0947
 1350SOL     OW15511   3.909   3.288   2.541  0.5361 -0.1317 -0.9428
 1350SOL    HW115512   3.901   3.219   2.476 -2.4830  1.4709 -2.2765
 1350SOL    HW215513   3.817   3.306   2.557  0.8413  1.4447 -0.9344
 1351SOL     OW15514   4.216   4.197  16.956  0.2193  0.9223  0.1314
 1351SOL    HW115515   4.307   4.201  16.983  1.2915 -0.8744 -3.0992
 1351SOL    HW215516   4.189   4.284  16.985 -0.6449  0.2777  1.2607
 1352SOL     OW15517   0.049   2.388   4.410  0.7632  0.1762  0.1187
 1352SOL    HW115518   4.678   2.383   4.417  0.4803  1.4046 -2.8058
 1352SOL    HW215519   0.049   2.462   4.350 -0.5714  0.0893  0.0091
 1353SOL     OW15520   1.342   0.952   6.816  0.2747  0.5027  0.0919
 1353SOL    HW115521   1.394   0.907   6.882 -0.4991 -2.1047 -1.0571
 1353SOL    HW215522   1.400   0.944   6.740 -0.8127 -1.6219 -0.5363
 1354SOL     OW15523   2.783   4.357  12.654  0.1392 -0.1462 -0.0772
 1354SOL    HW115524   2.790   4.312  12.570  1.7652 -0.9459  0.4667
 1354SOL    HW215525   2.856   4.314  12.699  0.6767  0.3810 -0.4359
 1355SOL     OW15526   1.778   1.945   5.279 -0.6923  0.4284 -0.0953
 1355SOL    HW115527   1.783   1.934   5.374 -1.7959 -1.3907 -0.2437
 1355SOL    HW215528   1.790   1.852   5.261 -0.5727  0.4538 -0.1478
 1356SOL     OW15529   4.153   0.846  11.037 -0.2680  0.4273 -0.1506
 1356SOL    HW115530   4.084   0.798  11.082 -0.2942  0.0293 -0.6200
 1356SOL    HW215531   4.120   0.935  11.043  1.5711  1.1162 -0.3061
 1357SOL     OW15532   0.800   0.907  12.993  0.4394  0.3247  0.4182
 1357SOL    HW115533   0.863   0.963  12.948  1.4074 -2.1131 -1.2320
 1357SOL    HW215534   0.757   0.863  12.920  1.3422 -1.2331  0.8433
 1358SOL     OW15535   2.393   2.073   7.567  0.6753  0.0439 -0.2785
 1358SOL    HW115536   2.342   2.119   7.501 -0.2161 -0.4109  0.1020
 1358SOL    HW215537   2.479   2.049   7.532  0.4784 -1.1797  0.1031
 1359SOL     OW15538   4.055   3.648   1.431 -1.0249 -0.4037  0.1294
 1359SOL    HW115539   4.021   3.560   1.443  1.2031 -1.4291 -1.0693
 1359SOL    HW215540   4.103   3.657   1.513  0.9448 -2.4787 -0.7998
 1360SOL     OW15541   0.785   1.112   1.366 -0.2270  0.2751  0.4348
 1360SOL    HW115542   0.789   1.193   1.316 -1.0328  0.7260  1.1208
 1360SOL    HW215543   0.740   1.141   1.445 -1.3847  1.1215 -0.5349
 1361SOL     OW15544   2.022   2.316   8.025 -0.0213  0.1907  0.6856
 1361SOL    HW115545   2.038   2.406   8.056 -0.8713  0.2640  0.9169
 1361SOL    HW215546   2.101   2.271   8.056  0.3892 -0.0064 -0.6455
 1362SOL     OW15547   4.430   0.185   7.752  0.1374  0.3586 -0.8936
 1362SOL    HW115548   4.391   0.265   7.717 -0.0187  0.2846 -0.8878
 1362SOL    HW215549   4.376   0.165   7.828  1.0300 -0.2807 -0.4223
 1363SOL     OW15550   4.407   2.525  12.302 -0.6773  0.8556 -0.5116
 1363SOL    HW115551   4.478   2.479  12.258 -0.8147  1.2593 -1.1629
 1363SOL    HW215552   4.374   2.582  12.232 -0.7254 -0.4117 -1.5185
 1364SOL     OW15553   1.086   1.941   3.647  0.3797 -0.7767  0.2308
 1364SOL    HW115554   1.112   1.850   3.632 -1.5615 -1.3745  0.5652
 1364SOL    HW215555   1.016   1.943   3.582  1.0839  0.7045 -0.4875
 1365SOL     OW15556   1.016   1.745  14.795  0.3451 -0.0774  0.3034
 1365SOL    HW115557   1.008   1.820  14.736  1.2753 -1.1002 -1.1297
 1365SOL    HW215558   0.925   1.731  14.821 -0.6122  1.6858 -2.0427
 1366SOL     OW15559   4.027   2.581   5.826 -0.1031 -0.2577 -0.2272
 1366SOL    HW115560   3.989   2.668   5.813 -0.8204 -0.3696  1.2032
 1366SOL    HW215561   4.037   2.557   5.734  2.4585 -0.7342  0.1712
 1367SOL     OW15562   4.485   4.277  13.817  0.3807  0.2640 -0.0008
 1367SOL    HW115563   4.550   4.333  13.774  0.9348 -0.6414 -0.3356
 1367SOL    HW215564   4.543   4.201  13.827  1.1064  0.8297  0.1165
 1368SOL     OW15565   1.250   3.862   3.981 -0.7942  0.2393 -0.3855
 1368SOL    HW115566   1.263   3.953   4.008  2.4932  0.3737 -2.4304
 1368SOL    HW215567   1.268   3.866   3.887  1.3847  1.6735  0.0840
 1369SOL     OW15568   4.261   2.777   7.643  0.4407  0.1883 -0.3037
 1369SOL    HW115569   4.333   2.833   7.615  0.0177  2.0729  2.4143
 1369SOL    HW215570   4.240   2.727   7.564  0.3470 -0.8288  0.3700
 1370SOL     OW15571   1.162   1.522   8.323  0.1643  1.0946  0.4949
 1370SOL    HW115572   1.215   1.459   8.372 -0.6057  0.2689  0.2674
 1370SOL    HW215573   1.210   1.604   8.336 -0.8761  1.7488  0.2017
 1371SOL     OW15574   2.022   0.054   7.448  0.3338  0.6792  0.0355
 1371SOL    HW115575   2.034   0.127   7.388  0.1524  1.1713  0.5987
 1371SOL    HW215576   2.004   0.109   7.525 -2.4365  0.8982 -0.7852
 1372SOL     OW15577   4.290   2.766   4.409  0.1465  0.2679  0.0652
 1372SOL    HW115578   4.220   2.737   4.468 -1.2239 -0.1332 -1.7486
 1372SOL    HW215579   4.234   2.803   4.340  1.8309  2.4779 -0.1213
 1373SOL     OW15580   2.885   2.476   6.384  0.3418  0.0322  0.3338
 1373SOL    HW115581   2.878   2.525   6.302 -3.4233 -1.9729 -0.5502
 1373SOL    HW215582   2.944   2.403   6.371  1.7559  1.1014  0.7958
 1374SOL     OW15583   4.309   0.700   7.356  0.0025 -0.0624 -0.0280
 1374SOL    HW115584   4.237   0.728   7.413 -1.0418 -1.2624 -0.7647
 1374SOL    HW215585   4.268   0.644   7.290  1.8355  0.0533 -1.2399
 1375SOL     OW15586   3.110   1.331  16.614  0.1598  0.0030  0.2105
 1375SOL    HW115587   3.021   1.337  16.649 -0.6684  0.2418 -1.9265
 1375SOL    HW215588   3.152   1.417  16.611 -0.6032  0.4160  1.4393
 1376SOL     OW15589   3.041   1.589  13.281 -0.3970  0.6235 -0.2346
 1376SOL    HW115590   3.101   1.608  13.209  0.1076  0.8285  0.2377
 1376SOL    HW215591   3.106   1.546  13.337  1.0522 -0.0143 -2.3940
 1377SOL     OW15592   3.630   3.598   1.518  0.2914 -0.4053 -0.0510
 1377SOL    HW115593   3.634   3.541   1.442 -1.0763 -0.1409 -0.3244
 1377SOL    HW215594   3.694   3.559   1.578  0.2427  0.9116  0.8687
 1378SOL     OW15595   0.903   4.361   2.163  0.2006  0.7005  0.4928
 1378SOL    HW115596   0.868   4.276   2.139  1.0954  0.6196 -0.5287
 1378SOL    HW215597   0.838   4.426   2.136 -1.9660 -3.1549 -3.6144
 1379SOL     OW15598   2.289   2.715   2.389  0.0783  0.4006  0.1441
 1379SOL    HW115599   2.352   2.667   2.337 -1.6586 -1.1931 -0.4742
 1379SOL    HW215600   2.221   2.738   2.325  1.7079  0.4720 -1.5637
 1380SOL     OW15601   0.114   0.419   9.086  0.0882 -0.1510 -0.0819
 1380SOL    HW115602   0.123   0.488   9.151 -2.6215  1.8261 -1.8059
 1380SOL    HW215603   0.030   0.441   9.045  1.2670  1.9104 -1.3749
 1381SOL     OW15604   4.653   2.117   9.077 -0.2791  0.1282  0.2945
 1381SOL    HW115605   0.013   2.143   9.039  0.1046 -1.2756  0.2106
 1381SOL    HW215606   4.687   2.047   9.132 -1.0200 -0.0430  0.5366
 1382SOL     OW15607   3.083   0.129   9.546 -0.1165 -0.5305  0.0049
 1382SOL    HW115608   2.996   0.145   9.583 -0.6921 -0.6196 -1.2994
 1382SOL    HW215609   3.086   0.034   9.556 -0.5690 -0.8201 -2.5409
 1383SOL     OW15610   4.333   2.337   0.440  0.0041 -0.2571 -0.4803
 1383SOL    HW115611   4.263   2.338   0.375 -1.4708 -0.6718  1.1230
 1383SOL    HW215612   4.415   2.356   0.394  0.1560 -0.2312 -0.2025
 1384SOL     OW15613   2.625   1.664   9.080  0.0406  0.6800 -0.1835
 1384SOL    HW115614   2.545   1.711   9.058  0.9617  1.7067 -1.3060
 1384SOL    HW215615   2.674   1.730   9.129 -1.4415 -0.1200  2.3953
 1385SOL     OW15616   0.115   3.966   8.213  0.0227  0.4629 -0.1574
 1385SOL    HW115617   0.034   3.918   8.227  0.8753 -0.3502  1.9706
 1385SOL    HW215618   0.078   4.050   8.186  0.7588  1.0162  0.5454
 1386SOL     OW15619   0.353   4.277   8.646  0.1554  0.0525 -0.3548
 1386SOL    HW115620   0.305   4.270   8.728  1.1374  1.3609  0.3415
 1386SOL    HW215621   0.299   4.342   8.601 -0.4851  0.3315  0.8197
 1387SOL     OW15622   2.508   1.788   5.566  0.2674  0.0407 -0.3458
 1387SOL    HW115623   2.598   1.787   5.599  0.8041  1.1836 -1.7778
 1387SOL    HW215624   2.503   1.698   5.535  1.0393 -0.0108 -0.3228
 1388SOL     OW15625   0.256   0.502   7.573 -0.1971  0.4078 -0.5795
 1388SOL    HW115626   0.178   0.483   7.522 -0.1328  0.1913 -0.5977
 1388SOL    HW215627   0.286   0.412   7.591 -1.5682  0.2750  1.0627
 1389SOL     OW15628   0.109   2.329   7.506  0.0300 -0.5755 -0.2382
 1389SOL    HW115629   0.155   2.395   7.454  1.2953 -1.9462 -0.8915
 1389SOL    HW215630   0.177   2.264   7.527 -0.9590 -0.7863  2.2811
 1390SOL     OW15631   3.183   3.806   7.135 -0.6936  0.1474  0.0028
 1390SOL    HW115632   3.206   3.898   7.123  0.7843 -0.1278  0.7830
 1390SOL    HW215633   3.151   3.817   7.225  0.0295  0.5128  0.2165
 1391SOL     OW15634   1.576   0.472   6.532 -0.3265  0.3572 -0.3960
 1391SOL    HW115635   1.601   0.564   6.516 -1.7633  0.9406  0.7401
 1391SOL    HW215636   1.481   0.475   6.544 -0.2318  0.9552  0.2212
 1392SOL     OW15637   3.497   3.933  12.336 -0.0910  0.0611 -0.4999
 1392SOL    HW115638   3.500   4.014  12.284 -1.0393  1.0613  0.9903
 1392SOL    HW215639   3.570   3.946  12.397 -1.7005 -2.7953  1.9740
 1393SOL     OW15640   1.340   1.462   2.781  0.0922 -0.2666  0.9223
 1393SOL    HW115641   1.256   1.425   2.755  0.2124 -0.7845  1.2743
 1393SOL    HW215642   1.321   1.466   2.874 -0.0744  1.1820  0.8280
 1394SOL     OW15643   1.923   3.774   4.155 -0.2661  0.0729 -0.3685
 1394SOL    HW115644   1.842   3.797   4.110 -1.3255 -1.6319  0.6450
 1394SOL    HW215645   1.986   3.758   4.085 -1.5214 -0.7545 -1.2952
 1395SOL     OW15646   3.910   3.428   8.782 -0.1287 -0.0721  0.0987
 1395SOL    HW115647   3.990   3.404   8.736 -0.6091  0.5379 -1.0293
 1395SOL    HW215648   3.889   3.345   8.826 -0.5130  0.6648  1.3175
 1396SOL     OW15649   4.062   3.330   3.599 -0.0391 -0.3667  0.1843
 1396SOL    HW115650   4.097   3.248   3.564 -1.6622 -0.0697 -2.1613
 1396SOL    HW215651   4.095   3.388   3.530 -0.7248 -0.3611 -0.1413
 1397SOL     OW15652   3.481   4.152  12.197 -0.1568  0.0548  0.1839
 1397SOL    HW115653   3.398   4.197  12.179 -0.6112 -0.2111  1.6784
 1397SOL    HW215654   3.495   4.100  12.118  0.8762  2.2817 -1.1270
 1398SOL     OW15655   0.474   3.303  14.378  0.3236 -0.1689  0.1247
 1398SOL    HW115656   0.476   3.338  14.289 -2.8981 -1.0379 -0.2734
 1398SOL    HW215657   0.508   3.215  14.363 -0.6989 -0.3738 -0.9319
 1399SOL     OW15658   1.960   2.444   4.086 -0.3733 -0.1056 -0.7797
 1399SOL    HW115659   1.953   2.361   4.133  2.8994  0.3503  0.5228
 1399SOL    HW215660   2.019   2.478   4.153  0.7207 -0.3366 -1.6374
 1400SOL     OW15661   3.911   4.308   7.314 -0.0652  0.4490  0.2135
 1400SOL    HW115662   3.997   4.281   7.348  0.2626 -0.6910 -1.5014
 1400SOL    HW215663   3.863   4.316   7.396 -0.6768 -1.9407  0.0892
 1401SOL     OW15664   3.877   3.610   3.557  0.1839 -0.7088  0.0457
 1401SOL    HW115665   3.827   3.588   3.478  1.6527  0.9424 -1.3342
 1401SOL    HW215666   3.967   3.593   3.532  0.8553  0.2182  1.8505
 1402SOL     OW15667   0.201   2.086   3.752 -0.6329 -0.1329  0.5491
 1402SOL    HW115668   0.147   2.044   3.685  2.2427 -1.4439 -0.9276
 1402SOL    HW215669   0.141   2.156   3.779 -1.5149 -1.4095  1.8871
 1403SOL     OW15670   2.215   2.570   4.642  0.2948 -0.4097  0.0349
 1403SOL    HW115671   2.208   2.633   4.714 -1.0351 -1.4108  0.7796
 1403SOL    HW215672   2.279   2.608   4.581 -0.1790 -0.9182 -0.7767
 1404SOL     OW15673   3.207   0.290   3.972  0.3893 -0.5107 -0.1438
 1404SOL    HW115674   3.162   0.280   3.888  0.6235  0.7845 -0.4207
 1404SOL    HW215675   3.283   0.345   3.954 -1.2817  0.9269 -2.8511
 1405SOL     OW15676   1.733   2.174  13.256 -0.7008  0.3620  0.4777
 1405SOL    HW115677   1.734   2.109  13.327 -1.3952  0.6244  0.7254
 1405SOL    HW215678   1.659   2.226  13.285 -1.5489  0.6969 -2.2656
 1406SOL     OW15679   2.697   3.922   9.620 -0.2500  0.0422  0.0599
 1406SOL    HW115680   2.710   3.920   9.715  0.0207  1.6831  0.0577
 1406SOL    HW215681   2.632   3.853   9.612  1.5910 -1.7668  0.7420
 1407SOL     OW15682   1.964   4.169  14.195  0.0182 -0.0701 -0.3655
 1407SOL    HW115683   2.029   4.188  14.264 -1.5644 -0.9594  1.3753
 1407SOL    HW215684   1.916   4.252  14.198  1.5219  0.8111 -0.9031
 1408SOL     OW15685   2.773   0.205   4.029  0.0418 -0.2651  0.4341
 1408SOL    HW115686   2.793   0.231   4.119 -1.2845  0.0439  0.6382
 1408SOL    HW215687   2.678   0.211   4.025 -0.0533 -0.8611  1.9431
 1409SOL     OW15688   3.642   1.770   9.949 -0.5172 -0.1704 -0.0359
 1409SOL    HW115689   3.681   1.857   9.957 -0.9524 -0.0183  0.4252
 1409SOL    HW215690   3.711   1.723   9.997 -0.9075 -1.5229 -0.7873
 1410SOL     OW15691   3.044   3.415  14.335  0.7802  0.1362 -0.3214
 1410SOL    HW115692   3.125   3.364  14.325  1.7327  1.4779  0.5603
 1410SOL    HW215693   3.040   3.480  14.266  1.3892  1.2020  0.6467
 1411SOL     OW15694   2.794   1.946  13.467  0.2125  0.6926 -0.0005
 1411SOL    HW115695   2.767   2.033  13.436  2.1528  1.4248  0.3635
 1411SOL    HW215696   2.866   1.985  13.516 -1.4193  0.9857  2.1756
 1412SOL     OW15697   3.384   1.876   2.061  0.0842 -0.2686  0.0747
 1412SOL    HW115698   3.404   1.960   2.019 -1.8869  0.7709  1.2282
 1412SOL    HW215699   3.365   1.823   1.983  0.3739  1.0985 -0.9343
 1413SOL     OW15700   0.444   3.587  16.578  0.0842  0.0076 -0.5030
 1413SOL    HW115701   0.447   3.501  16.620  0.6010  0.3185  0.0927
 1413SOL    HW215702   0.475   3.642  16.651 -0.5826 -0.1135 -0.1270
 1414SOL     OW15703   3.639   1.194   5.732  0.4616  0.1864  0.4184
 1414SOL    HW115704   3.597   1.224   5.651 -2.5688  1.4859  2.5035
 1414SOL    HW215705   3.717   1.250   5.731  1.2690 -0.9256  2.0124
 1415SOL     OW15706   0.145   0.765   2.160  0.2468  0.1840  0.2710
 1415SOL    HW115707   0.148   0.677   2.121 -3.3466  1.2904 -2.5306
 1415SOL    HW215708   0.237   0.764   2.189  0.1204 -0.3768  0.6576
 1416SOL     OW15709   2.106   3.155   2.942 -0.2115 -0.7914  0.1840
 1416SOL    HW115710   2.110   3.173   2.848  2.5046 -1.5150  0.1672
 1416SOL    HW215711   2.017   3.140   2.973 -0.5402  0.6329 -0.0961
 1417SOL     OW15712   3.055   4.591  11.677 -0.3751 -0.5613 -0.6837
 1417SOL    HW115713   3.002   4.595  11.597 -0.7259 -0.2536 -0.4393
 1417SOL    HW215714   3.090   4.678  11.698  1.8785 -2.0700  1.8134
 1418SOL     OW15715   0.273   0.018   6.473  0.2816  0.1427  0.6224
 1418SOL    HW115716   0.353   4.690   6.476 -0.4788 -1.0703 -0.1336
 1418SOL    HW215717   0.238   4.683   6.407  0.1059 -0.7247  1.4924
 1419SOL     OW15718   1.384   4.657   4.726  0.4580  0.1696  0.4800
 1419SOL    HW115719   1.429   4.574   4.744 -0.8595 -0.9409 -1.3754
 1419SOL    HW215720   1.443   4.699   4.664  3.3476 -1.1441  2.3071
 1420SOL     OW15721   3.532   1.303   5.512 -0.2120  0.6736  0.2620
 1420SOL    HW115722   3.531   1.231   5.449 -0.4744  0.8102  0.1099
 1420SOL    HW215723   3.542   1.385   5.463  0.7387  0.3683 -0.0616
 1421SOL     OW15724   1.745   1.885  13.059 -0.3815  0.1282 -0.5252
 1421SOL    HW115725   1.678   1.900  12.993  0.1102 -1.2610 -1.3443
 1421SOL    HW215726   1.679   1.881  13.128  0.1303 -0.4101 -0.0596
 1422SOL     OW15727   1.785   1.224   9.232  0.1156 -0.6224 -0.5455
 1422SOL    HW115728   1.879   1.213   9.218  0.0886 -0.8520 -0.5437
 1422SOL    HW215729   1.766   1.131   9.219  0.5073 -0.9474  1.2332
 1423SOL     OW15730   4.693   0.445   6.190  0.1742  0.2578  0.6162
 1423SOL    HW115731   4.713   0.369   6.246  1.8318 -2.0153 -3.0782
 1423SOL    HW215732   4.716   0.419   6.101  0.7906  0.6114  0.6735
 1424SOL     OW15733   0.889   2.981   7.963  0.2330 -0.2159 -0.0623
 1424SOL    HW115734   0.853   2.910   8.015  2.6392 -1.1114  0.3484
 1424SOL    HW215735   0.972   2.944   7.933  0.8169  0.5662  0.6016
 1425SOL     OW15736   1.559   4.140   5.167 -0.4387 -0.2261 -0.0122
 1425SOL    HW115737   1.595   4.112   5.251  0.1778 -1.5733 -0.7193
 1425SOL    HW215738   1.471   4.159   5.199 -1.5621 -1.6014 -2.3269
 1426SOL     OW15739   3.638   2.474   0.295 -0.7466  0.0380 -0.2779
 1426SOL    HW115740   3.594   2.550   0.334  0.5765  0.5062  0.2992
 1426SOL    HW215741   3.717   2.525   0.275  1.1083 -2.6931  0.0099
 1427SOL     OW15742   0.273   2.989   4.931  0.0751 -0.6517 -0.5492
 1427SOL    HW115743   0.226   3.071   4.943 -0.7816 -1.0298 -1.2643
 1427SOL    HW215744   0.210   2.920   4.953  0.4827 -0.6324  0.6486
 1428SOL     OW15745   0.307   2.274   7.246 -0.1438 -0.0961  0.0964
 1428SOL    HW115746   0.330   2.334   7.317 -0.9153 -1.1320  1.2242
 1428SOL    HW215747   0.383   2.267   7.188  0.3351  0.9862  0.5881
 1429SOL     OW15748   0.256   1.142  12.892 -0.1616  1.0587 -0.3094
 1429SOL    HW115749   0.348   1.164  12.879  0.0559  0.8396  0.8672
 1429SOL    HW215750   0.263   1.052  12.861  0.4158  1.4352 -1.2638
 1430SOL     OW15751   1.649   3.511   0.630  0.3718 -0.7567  0.2443
 1430SOL    HW115752   1.574   3.570   0.635  0.8787 -0.0520 -0.5391
 1430SOL    HW215753   1.710   3.585   0.628 -1.0723  0.3666 -1.3245
 1431SOL     OW15754   0.943   3.606  10.268  0.2617  0.7475 -0.1644
 1431SOL    HW115755   0.908   3.516  10.271  0.8806  0.4759 -1.0664
 1431SOL    HW215756   0.971   3.606  10.176 -1.2616  0.6532 -0.6331
 1432SOL     OW15757   2.817   4.454   6.144  0.4853  0.1334  0.5662
 1432SOL    HW115758   2.777   4.439   6.229 -0.3254 -0.7301  0.0356
 1432SOL    HW215759   2.801   4.548   6.138  0.6837  0.2296  1.5307
 1433SOL     OW15760   0.186   1.900   2.749  0.0628  0.7607 -0.0725
 1433SOL    HW115761   0.216   1.891   2.839 -0.0825 -1.7408 -0.2736
 1433SOL    HW215762   0.250   1.860   2.689 -0.1496  0.4684 -0.1028
 1434SOL     OW15763   1.040   1.238   3.155  0.1325 -0.1846 -0.1321
 1434SOL    HW115764   0.948   1.231   3.178 -0.1380  3.0647 -0.2306
 1434SOL    HW215765   1.072   1.179   3.224 -0.0640  1.9140  1.7228
 1435SOL     OW15766   1.010   1.827   6.209  0.0092 -0.1480 -0.2968
 1435SOL    HW115767   1.070   1.783   6.269 -1.8085 -1.5761  0.4598
 1435SOL    HW215768   0.953   1.873   6.271 -0.5245  1.2627 -1.8267
 1436SOL     OW15769   2.263   0.694   3.326 -0.0723  0.0987  0.1486
 1436SOL    HW115770   2.239   0.777   3.365  1.1085  0.5953 -0.1996
 1436SOL    HW215771   2.269   0.703   3.231  0.2302  1.9208  0.3569
 1437SOL     OW15772   1.322   4.147   5.358  0.6542  0.6546 -0.0619
 1437SOL    HW115773   1.348   4.198   5.435  2.9749 -0.1289 -0.3422
 1437SOL    HW215774   1.267   4.215   5.319 -1.8452 -2.0577 -1.2795
 1438SOL     OW15775   3.808   1.141   6.916 -0.1025 -0.2189 -0.2139
 1438SOL    HW115776   3.885   1.108   6.869 -2.4563 -2.3299 -2.5028
 1438SOL    HW215777   3.819   1.107   7.005  0.2247  1.6269  0.4667
 1439SOL     OW15778   2.476   3.922   3.279 -0.2531 -0.8206  0.4241
 1439SOL    HW115779   2.417   3.868   3.226 -0.7178  1.5223 -1.4588
 1439SOL    HW215780   2.539   3.929   3.207  1.3669  0.9265  2.0158
 1440SOL     OW15781   0.258   1.511  12.154  0.2394  0.1584  0.1242
 1440SOL    HW115782   0.199   1.438  12.136  0.6069 -0.2184  0.4473
 1440SOL    HW215783   0.342   1.466  12.163 -0.3100 -1.0174 -0.6677
 1441SOL     OW15784   0.177   4.166   3.400 -0.0468 -0.3934 -0.1382
 1441SOL    HW115785   0.241   4.128   3.339 -0.4628 -0.5273 -0.4865
 1441SOL    HW215786   0.095   4.148   3.355 -1.6772  1.5328  2.0920
 1442SOL     OW15787   0.798   1.042   4.293 -0.0311 -0.4713  0.2851
 1442SOL    HW115788   0.745   1.107   4.246  0.6942  1.0640  1.5988
 1442SOL    HW215789   0.867   1.018   4.231  0.5962  0.5843  0.5623
 1443SOL     OW15790   2.262   3.478  13.961  0.0099  0.1231  0.0672
 1443SOL    HW115791   2.213   3.396  13.972 -1.0695  0.6698 -0.6888
 1443SOL    HW215792   2.195   3.537  13.995  0.3851 -0.9966  2.7182
 1444SOL     OW15793   4.579   4.319   1.324  0.5944  0.0748 -0.0056
 1444SOL    HW115794   4.486   4.302   1.315  1.1031 -2.2380 -1.0134
 1444SOL    HW215795   4.591   4.370   1.404 -3.3545 -0.1568  0.6930
 1445SOL     OW15796   3.709   4.620  16.829 -0.4945  0.0164 -0.4754
 1445SOL    HW115797   3.671   4.539  16.795 -1.1830  0.3318 -0.4616
 1445SOL    HW215798   3.784   4.583  16.877 -1.5878 -2.0775 -0.3842
 1446SOL     OW15799   2.931   3.801  10.218  0.4861  0.0336  0.3750
 1446SOL    HW115800   3.022   3.773  10.219  0.7103  0.7627  0.4295
 1446SOL    HW215801   2.935   3.881  10.270 -0.9949  1.3840 -1.5749
 1447SOL     OW15802   0.591   0.653   4.943 -0.0739 -0.0561 -0.0403
 1447SOL    HW115803   0.663   0.684   4.998 -0.2996 -1.6618  1.1446
 1447SOL    HW215804   0.617   0.699   4.863  0.1088 -0.4735 -0.2268
 1448SOL     OW15805   1.824   2.811   3.321  0.0818  0.2240  0.1196
 1448SOL    HW115806   1.769   2.874   3.367 -0.1828  1.1849 -1.5392
 1448SOL    HW215807   1.897   2.862   3.286  0.0821  1.2875  1.6773
 1449SOL     OW15808   2.251   2.828   4.058  0.3225  0.3247  0.3790
 1449SOL    HW115809   2.171   2.869   4.092 -0.7614 -1.8620  0.4087
 1449SOL    HW215810   2.295   2.805   4.140 -0.3834 -2.4407 -0.0476
 1450SOL     OW15811   2.910   1.586   9.101 -0.3591 -0.3936  0.1793
 1450SOL    HW115812   2.814   1.587   9.107 -0.3074 -0.3111  0.9965
 1450SOL    HW215813   2.934   1.598   9.193 -1.1579  0.3307  0.2989
 1451SOL     OW15814   3.248   0.960   3.712 -0.4575 -0.1622 -0.5039
 1451SOL    HW115815   3.161   0.989   3.738 -0.8958  0.3603 -2.5038
 1451SOL    HW215816   3.292   1.045   3.723  0.0827 -0.3900 -0.8796
 1452SOL     OW15817   2.635   3.012  16.120  0.7311  0.2726  0.4951
 1452SOL    HW115818   2.676   2.995  16.035  1.3268 -0.7010  0.9784
 1452SOL    HW215819   2.585   3.090  16.097  2.9357  1.5084 -0.1655
 1453SOL     OW15820   0.925   1.365  13.873 -0.1647 -0.3675  0.3820
 1453SOL    HW115821   0.919   1.338  13.965  2.5486 -0.8261  0.4040
 1453SOL    HW215822   0.927   1.277  13.836  1.9968  0.2904 -1.0330
 1454SOL     OW15823   0.169   1.737   6.578 -0.3498  0.2813  0.4931
 1454SOL    HW115824   0.207   1.824   6.582 -0.9236  0.5711 -0.4917
 1454SOL    HW215825   0.195   1.722   6.488 -0.1044 -0.4751  0.6866
 1455SOL     OW15826   0.392   1.979  13.184 -0.1076  0.6408 -0.3876
 1455SOL    HW115827   0.414   1.977  13.091 -0.7152 -0.2493 -0.5095
 1455SOL    HW215828   0.480   2.002  13.213  0.3995 -2.6256  0.5824
 1456SOL     OW15829   2.414   2.382   6.510 -0.6643 -0.9688  0.0314
 1456SOL    HW115830   2.491   2.325   6.505  0.9479  1.1297  0.7863
 1456SOL    HW215831   2.454   2.469   6.514 -1.6463 -0.5757  1.2404
 1457SOL     OW15832   0.021   4.343   3.983  0.1395  0.1627  0.5638
 1457SOL    HW115833   4.695   4.322   4.061  0.5111  1.1433  1.0764
 1457SOL    HW215834   0.063   4.260   3.959 -0.4298 -0.2278  0.9500
 1458SOL     OW15835   3.283   4.699   7.470 -0.5068 -0.1690 -0.5362
 1458SOL    HW115836   3.261   0.024   7.391  0.3119  1.2869  0.1389
 1458SOL    HW215837   3.243   0.040   7.527  1.4519  1.0153 -0.5236
 1459SOL     OW15838   4.572   2.981   3.758 -0.1137  0.7319 -0.0442
 1459SOL    HW115839   4.646   3.042   3.747 -2.3508  3.8683  2.2933
 1459SOL    HW215840   4.499   3.035   3.730  0.0358  1.5713  1.1709
 1460SOL     OW15841   3.772   2.780   3.505 -0.6585 -0.1500 -0.0898
 1460SOL    HW115842   3.849   2.724   3.501 -0.0178  0.6874  0.4544
 1460SOL    HW215843   3.736   2.771   3.417  0.3246  0.2138 -0.5338
 1461SOL     OW15844   4.647   1.603   6.651  0.2898 -0.2862  1.2633
 1461SOL    HW115845   4.656   1.533   6.716 -0.0707 -1.8654 -0.3809
 1461SOL    HW215846   4.724   1.584   6.596 -1.2253 -3.4418  0.2142
 1462SOL     OW15847   1.072   4.519   6.088 -0.4508 -0.3311  0.0775
 1462SOL    HW115848   1.125   4.455   6.135 -0.2431  0.2441  0.6392
 1462SOL    HW215849   1.120   4.522   6.005  0.9195  1.6755  0.9368
 1463SOL     OW15850   3.729   3.550   8.093  0.2597  0.0310  0.0529
 1463SOL    HW115851   3.793   3.596   8.146 -1.2599  1.0193  1.0368
 1463SOL    HW215852   3.684   3.496   8.158 -0.2837  0.3076 -0.0936
 1464SOL     OW15853   1.862   2.363  11.943  0.0583  0.2597 -0.2173
 1464SOL    HW115854   1.826   2.317  12.019  1.6334  1.1140  1.0539
 1464SOL    HW215855   1.943   2.402  11.976  0.2517  0.0536 -0.4558
 1465SOL     OW15856   1.471   0.944   6.193  0.0005  0.0623 -0.5116
 1465SOL    HW115857   1.542   1.003   6.218 -1.7217  1.4063  1.2346
 1465SOL    HW215858   1.398   1.003   6.175  0.6784  0.5286 -1.7484
 1466SOL     OW15859   0.083   1.048   0.964 -0.4396  0.5569 -0.4024
 1466SOL    HW115860   0.108   1.127   0.917  2.6326 -0.7428 -0.9345
 1466SOL    HW215861   0.007   1.025   0.910 -0.1067  1.8952 -1.4312
 1467SOL     OW15862   1.938   1.160  13.009  0.3883 -0.1661 -0.6010
 1467SOL    HW115863   1.927   1.211  13.089  1.0911 -0.2419 -0.4501
 1467SOL    HW215864   1.940   1.230  12.943  0.7493 -2.7848 -3.3399
 1468SOL     OW15865   1.534   1.052  14.143 -0.2351  0.5649  0.5292
 1468SOL    HW115866   1.442   1.068  14.120 -0.4724  1.8860  2.3941
 1468SOL    HW215867   1.517   0.995  14.218 -0.6934  0.0129  0.0097
 1469SOL     OW15868   1.942   4.409   7.225 -0.5493  0.1717  0.0079
 1469SOL    HW115869   2.036   4.423   7.222 -0.8631  1.9261 -1.7060
 1469SOL    HW215870   1.910   4.483   7.278 -0.7569  0.7983 -0.9988
 1470SOL     OW15871   2.158   2.965   2.115  0.0478  0.2512 -0.1745
 1470SOL    HW115872   2.109   2.938   2.038  1.5094  1.6023 -1.5842
 1470SOL    HW215873   2.109   2.929   2.189 -1.0726  0.7267 -0.6809
 1471SOL     OW15874   2.974   1.065  13.370  0.0061  0.7611  0.2299
 1471SOL    HW115875   3.017   0.986  13.402  1.3002  1.2318 -0.3538
 1471SOL    HW215876   2.940   1.102  13.452  1.2310  4.3951 -0.9052
 1472SOL     OW15877   1.027   1.751   5.036 -1.0609  0.0999 -0.2649
 1472SOL    HW115878   1.109   1.725   5.078 -1.1263 -1.2802 -0.9796
 1472SOL    HW215879   1.064   1.785   4.954 -0.2953 -0.1846 -0.0385
 1473SOL     OW15880   1.800   0.530   2.961 -0.4436 -0.9938  0.6153
 1473SOL    HW115881   1.754   0.612   2.981 -0.9952 -0.9798 -0.6957
 1473SOL    HW215882   1.889   0.564   2.961 -1.1103  0.7448 -0.1228
 1474SOL     OW15883   0.378   1.152  15.559  0.0691  0.1776 -0.4340
 1474SOL    HW115884   0.351   1.145  15.650 -0.9883 -1.8886 -0.9101
 1474SOL    HW215885   0.458   1.098  15.559  0.2508  0.4495 -0.5659
 1475SOL     OW15886   2.752   0.940   2.911  0.0748  0.1042  0.7616
 1475SOL    HW115887   2.705   0.963   2.830  1.3837 -0.4759 -0.1646
 1475SOL    HW215888   2.712   0.857   2.938  0.4195 -0.0475  0.8039
 1476SOL     OW15889   1.560   1.996   7.182  0.5602 -0.3498  0.0276
 1476SOL    HW115890   1.499   2.003   7.256  2.1036 -0.2723  1.2896
 1476SOL    HW215891   1.641   2.011   7.231  1.1127  0.2646 -1.0770
 1477SOL     OW15892   1.161   4.342   8.976 -0.1204  0.1178 -0.0187
 1477SOL    HW115893   1.246   4.385   8.967  0.1275 -0.3971 -0.1379
 1477SOL    HW215894   1.122   4.401   9.040 -1.6300 -0.7409 -0.1585
 1478SOL     OW15895   3.649   0.354   7.026  0.4579  0.1385  0.0378
 1478SOL    HW115896   3.741   0.347   7.000  0.1988  0.3158 -0.9292
 1478SOL    HW215897   3.602   0.371   6.944  0.6860  0.4323 -0.0358
 1479SOL     OW15898   2.028   0.043  12.045  0.4007 -0.6872 -0.5938
 1479SOL    HW115899   1.989   4.698  11.992  1.1248 -0.1410 -1.8530
 1479SOL    HW215900   1.986   0.115  11.997  0.9003 -0.0749 -0.1046
 1480SOL     OW15901   0.901   2.294   8.060  0.2612  0.2260 -0.4319
 1480SOL    HW115902   0.872   2.330   7.976 -1.0519 -1.7831 -0.8609
 1480SOL    HW215903   0.917   2.374   8.109 -1.0037  1.7774 -2.5507
 1481SOL     OW15904   4.244   0.185  14.477 -0.0336  0.1122  0.0907
 1481SOL    HW115905   4.269   0.127  14.405  0.2328  1.0409 -0.5706
 1481SOL    HW215906   4.289   0.263  14.443 -1.7566  1.5773  1.1546
 1482SOL     OW15907   3.754   3.647   3.060  0.0590  0.1022 -0.4682
 1482SOL    HW115908   3.727   3.591   2.987  2.8046  0.2433 -1.6199
 1482SOL    HW215909   3.673   3.697   3.073  0.0654  0.1164 -0.4825
 1483SOL     OW15910   0.137   3.247  17.544 -0.5083 -0.3328 -0.0683
 1483SOL    HW115911   0.063   3.306  17.553 -1.3506 -1.1939 -1.4030
 1483SOL    HW215912   0.127   3.212  17.456  1.8209  0.0905 -0.5214
 1484SOL     OW15913   3.704   4.261   4.570 -0.5990  0.1028  0.3296
 1484SOL    HW115914   3.707   4.259   4.666  0.0892 -0.3435  0.2923
 1484SOL    HW215915   3.648   4.187   4.546  0.6780 -0.7523  0.0081
 1485SOL     OW15916   1.220   2.914   3.435 -0.5998  0.3843  0.0553
 1485SOL    HW115917   1.127   2.929   3.422 -0.6375 -1.5838 -1.9163
 1485SOL    HW215918   1.230   2.834   3.486 -3.7935  0.9709  1.5769
 1486SOL     OW15919   2.621   3.375   1.087  0.4213 -0.4906  0.3303
 1486SOL    HW115920   2.686   3.350   1.153  0.0098  0.7540  1.2121
 1486SOL    HW215921   2.544   3.335   1.127 -2.4859  2.4683 -2.2609
 1487SOL     OW15922   2.570   3.557   4.182  0.4795  0.1019  0.3212
 1487SOL    HW115923   2.622   3.613   4.126  0.0180  0.3859  0.1801
 1487SOL    HW215924   2.618   3.555   4.265  1.2749 -0.4454 -0.1570
 1488SOL     OW15925   2.140   0.145   3.711  0.0938 -0.0457 -0.2033
 1488SOL    HW115926   2.082   0.184   3.646  0.2595 -0.0908 -0.3804
 1488SOL    HW215927   2.117   0.052   3.705  0.6564 -0.2569  0.9323
 1489SOL     OW15928   1.208   4.548   8.047 -0.8686  0.1224  0.6229
 1489SOL    HW115929   1.219   4.643   8.038 -1.7903  0.1438 -0.1925
 1489SOL    HW215930   1.182   4.519   7.960 -0.5777 -0.8255  0.8521
 1490SOL     OW15931   3.547   3.749   6.154  0.7358  0.5923 -0.0715
 1490SOL    HW115932   3.587   3.777   6.236 -2.2495  1.2506  1.1900
 1490SOL    HW215933   3.611   3.786   6.094  2.1691 -1.1410  0.4004
 1491SOL     OW15934   1.518   3.124  10.928 -0.1946 -0.9739  0.1156
 1491SOL    HW115935   1.553   3.115  10.840 -1.0217  0.3346 -0.3551
 1491SOL    HW215936   1.588   3.088  10.981 -1.9769 -0.7842  2.6030
 1492SOL     OW15937   0.118   2.554   6.293 -0.6055 -0.1475 -0.1217
 1492SOL    HW115938   0.213   2.566   6.295 -0.5210 -0.8147 -0.2818
 1492SOL    HW215939   0.093   2.520   6.208 -1.3081 -0.6776  0.2962
 1493SOL     OW15940   3.591   1.635   0.417 -0.4096 -0.5613 -0.8158
 1493SOL    HW115941   3.518   1.573   0.426 -1.7113  1.3909  1.9942
 1493SOL    HW215942   3.591   1.681   0.501  0.1583 -0.6824 -0.7514
 1494SOL     OW15943   4.322   4.357   5.858 -0.1586 -0.2319 -0.5469
 1494SOL    HW115944   4.296   4.269   5.882 -0.0300 -0.2525 -0.4819
 1494SOL    HW215945   4.348   4.388   5.945 -0.3237 -1.1030 -0.1960
 1495SOL     OW15946   1.388   4.652   9.916 -0.4668  0.1116 -0.0494
 1495SOL    HW115947   1.347   0.009   9.886  0.9585  0.9724  0.3461
 1495SOL    HW215948   1.425   4.681   9.999 -4.6509 -1.0200  2.2164
 1496SOL     OW15949   1.099   3.890   8.607 -0.1250  0.6369  0.6198
 1496SOL    HW115950   1.129   3.800   8.615 -0.1308  0.5527 -0.2824
 1496SOL    HW215951   1.169   3.937   8.653  0.2696  1.0550 -0.4125
 1497SOL     OW15952   0.601   3.359   4.032  1.2301 -0.4564 -0.0220
 1497SOL    HW115953   0.638   3.391   3.949  2.0574 -1.1486  0.0778
 1497SOL    HW215954   0.685   3.352   4.077 -0.4578 -3.8275  2.6001
 1498SOL     OW15955   4.410   1.598   8.141  0.0806 -0.0757  0.7003
 1498SOL    HW115956   4.405   1.688   8.175 -0.2221  0.3950 -0.6179
 1498SOL    HW215957   4.322   1.563   8.134 -0.7406  2.0971  0.0859
 1499SOL     OW15958   4.578   3.348   7.145  0.0583  0.0440 -0.1376
 1499SOL    HW115959   4.597   3.369   7.054 -1.7507  1.6551 -0.1569
 1499SOL    HW215960   4.558   3.254   7.142  1.9244 -0.4037  1.3402
 1500SOL     OW15961   0.745   3.218   1.768 -0.1846  0.3851  0.1322
 1500SOL    HW115962   0.673   3.241   1.826 -0.8267  0.1462 -0.5727
 1500SOL    HW215963   0.759   3.127   1.795  0.1481  0.6030  0.6883
 1501SOL     OW15964   4.040   1.864   4.604  0.0319  0.3267 -0.0967
 1501SOL    HW115965   4.100   1.863   4.679 -0.9514 -0.5168  0.6829
 1501SOL    HW215966   3.970   1.904   4.654 -0.7156  0.6902 -1.4446
 1502SOL     OW15967   3.943   1.317   8.134  0.1627  0.1803 -0.2116
 1502SOL    HW115968   3.921   1.227   8.111 -2.0645  0.5514  0.4941
 1502SOL    HW215969   4.038   1.320   8.123  0.2011 -0.7128 -0.0468
 1503SOL     OW15970   1.287   2.642   1.996  0.0078 -0.1460 -0.1186
 1503SOL    HW115971   1.285   2.587   1.918  0.0850  0.5518 -0.6118
 1503SOL    HW215972   1.230   2.713   1.966 -0.8500 -0.1021  1.6174
 1504SOL     OW15973   3.192   1.017   0.261 -0.4579 -0.1211  0.4371
 1504SOL    HW115974   3.122   1.056   0.313 -0.1007  0.6893  0.3130
 1504SOL    HW215975   3.206   1.087   0.196  1.5743 -1.4671 -0.5738
 1505SOL     OW15976   2.169   1.531   9.400 -0.1492 -0.4852 -0.2017
 1505SOL    HW115977   2.228   1.554   9.472 -0.8156 -1.0845  0.5470
 1505SOL    HW215978   2.149   1.439   9.414 -1.5146 -0.1994 -0.2682
 1506SOL     OW15979   4.128   1.793   2.099  0.5661  0.1602 -0.5429
 1506SOL    HW115980   4.104   1.764   2.011 -0.5481  0.4867 -0.3499
 1506SOL    HW215981   4.087   1.717   2.141 -0.9333  0.5566 -1.2693
 1507SOL     OW15982   0.291   1.617   7.066 -0.4061 -0.6151  0.0655
 1507SOL    HW115983   0.306   1.706   7.035 -0.1736 -1.1902 -1.4905
 1507SOL    HW215984   0.242   1.649   7.141 -0.8964  0.8401 -0.8632
 1508SOL     OW15985   2.134   0.676   8.909 -0.2499  0.0341  0.0778
 1508SOL    HW115986   2.086   0.724   8.841 -0.5705  0.2527  0.4522
 1508SOL    HW215987   2.172   0.613   8.848  1.6335  0.3921  0.9033
 1509SOL     OW15988   2.481   1.511   8.590 -0.8468 -0.5207  0.1593
 1509SOL    HW115989   2.458   1.455   8.516 -1.6456  1.0343 -0.7764
 1509SOL    HW215990   2.569   1.479   8.611 -1.3657 -0.9054  1.7383
 1510SOL     OW15991   0.472   2.079  10.043 -0.1827  0.0603  0.3495
 1510SOL    HW115992   0.402   2.064  10.107 -0.5017  2.4270  0.5449
 1510SOL    HW215993   0.424   2.109   9.966 -0.9594 -2.6342 -0.2153
 1511SOL     OW15994   3.396   1.317  12.945  0.5701 -0.0631 -0.1706
 1511SOL    HW115995   3.310   1.359  12.952  0.3688 -0.4609 -0.2635
 1511SOL    HW215996   3.395   1.261  13.023  1.8423 -0.6921 -0.6116
 1512SOL     OW15997   4.254   1.468  15.978 -0.3750 -0.2813 -0.2535
 1512SOL    HW115998   4.217   1.382  15.998  0.6164 -0.0897  2.3315
 1512SOL    HW215999   4.273   1.459  15.884 -2.1809 -1.3172 -0.5167
 1513SOL     OW16000   4.327   2.656   1.083 -0.4757  0.5625 -0.3152
 1513SOL    HW116001   4.367   2.572   1.060 -0.6491  0.3523  0.1428
 1513SOL    HW216002   4.306   2.639   1.175  0.4341 -0.4508 -0.2913
 1514SOL     OW16003   0.074   2.197  15.330  0.3577 -0.2958 -0.3579
 1514SOL    HW116004   0.014   2.123  15.320  0.4140 -0.3843 -0.0272
 1514SOL    HW216005   0.010   2.266  15.346  1.5324  0.8800 -0.6716
 1515SOL     OW16006   1.841   4.368   2.794  0.0241 -0.1980 -0.1899
 1515SOL    HW116007   1.914   4.334   2.742 -0.0980 -0.6048 -0.0981
 1515SOL    HW216008   1.801   4.438   2.742 -0.2322 -0.0467  0.2115
 1516SOL     OW16009   4.124   3.580   3.437 -0.3035  0.6326 -0.3250
 1516SOL    HW116010   4.173   3.658   3.463  3.2991 -1.7560 -0.1077
 1516SOL    HW216011   4.125   3.598   3.343 -0.4806  2.9927  0.1080
 1517SOL     OW16012   3.229   3.704   2.740  0.4363 -0.4874 -0.0641
 1517SOL    HW116013   3.316   3.673   2.713 -0.5879 -1.3923 -2.3609
 1517SOL    HW216014   3.174   3.680   2.665 -2.3538  0.2754  1.7268
 1518SOL     OW16015   4.274   2.916   2.248 -0.3578  0.3626 -0.9660
 1518SOL    HW116016   4.202   2.865   2.284  1.3600 -2.7708 -1.9524
 1518SOL    HW216017   4.258   3.002   2.289 -0.4038  0.6000 -1.4799
 1519SOL     OW16018   2.886   2.979   4.303  0.1752 -0.2686  0.3479
 1519SOL    HW116019   2.915   3.034   4.375  1.4234  0.1867 -0.5139
 1519SOL    HW216020   2.972   2.970   4.262 -0.2266  3.7542 -1.3931
 1520SOL     OW16021   0.098   4.005  12.427 -0.7738 -0.2108  0.2158
 1520SOL    HW116022   0.053   3.986  12.345 -1.9732 -1.6508  1.2137
 1520SOL    HW216023   0.104   3.915  12.458 -3.0147 -0.4151  0.0707
 1521SOL     OW16024   2.994   4.209   9.068  0.3623 -0.2776  0.1306
 1521SOL    HW116025   3.079   4.210   9.024  0.3389 -1.3638  0.0561
 1521SOL    HW216026   3.026   4.207   9.158 -1.3645  0.2129  0.7548
 1522SOL     OW16027   2.900   3.735   2.912 -0.0648 -0.0851  0.3305
 1522SOL    HW116028   2.811   3.704   2.895 -0.3746  1.8442 -1.5941
 1522SOL    HW216029   2.888   3.817   2.864  2.5866 -0.1147 -0.3598
 1523SOL     OW16030   2.176   4.384   0.757  0.0012  0.4626  0.7082
 1523SOL    HW116031   2.179   4.360   0.665 -2.1402  1.2594  0.4490
 1523SOL    HW216032   2.133   4.303   0.784  0.4934 -0.4047 -1.1014
 1524SOL     OW16033   4.258   2.659   0.467 -0.6675 -0.7025  0.8446
 1524SOL    HW116034   4.350   2.634   0.458 -0.3920  0.1668  1.2199
 1524SOL    HW216035   4.252   2.689   0.558 -1.4087  1.3242  0.1324
 1525SOL     OW16036   1.491   3.389   5.596  0.2093 -0.1486 -0.1780
 1525SOL    HW116037   1.497   3.393   5.500 -0.8056  1.7367 -0.1725
 1525SOL    HW216038   1.551   3.320   5.622 -0.6562 -0.3937  1.1403
 1526SOL     OW16039   3.305   3.927   2.002  0.0777  0.7237 -0.1707
 1526SOL    HW116040   3.381   3.870   1.993  1.2944  1.7199  4.1140
 1526SOL    HW216041   3.342   4.015   1.996  1.9653 -0.2789 -3.0858
 1527SOL     OW16042   0.768   4.329   4.689  0.2921  0.1573 -0.2756
 1527SOL    HW116043   0.837   4.372   4.638  1.3667 -1.7380 -0.4142
 1527SOL    HW216044   0.716   4.294   4.616 -0.4783 -0.7073  0.6977
 1528SOL     OW16045   0.951   0.829   6.401 -0.1152  0.2626  0.3426
 1528SOL    HW116046   0.935   0.898   6.465 -3.4308  0.2861 -0.5338
 1528SOL    HW216047   0.864   0.814   6.365 -0.0911  0.6436  0.1309
 1529SOL     OW16048   4.387   2.020   7.583 -0.2010  0.1764 -0.6297
 1529SOL    HW116049   4.319   2.077   7.548  0.1342  0.5866 -0.6143
 1529SOL    HW216050   4.461   2.050   7.531  0.9163 -0.6649  0.4780
 1530SOL     OW16051   3.226   3.546  12.418  0.5047  0.0555 -1.0029
 1530SOL    HW116052   3.146   3.525  12.370 -0.2811  1.0701 -0.1313
 1530SOL    HW216053   3.236   3.635  12.386 -2.1565  0.9003  0.4999
 1531SOL     OW16054   2.701   1.892   4.439 -0.4761 -0.3697  0.1428
 1531SOL    HW116055   2.627   1.927   4.488 -0.5944  1.3836 -1.2941
 1531SOL    HW216056   2.751   1.973   4.428  1.5204 -1.9320 -2.4052
 1532SOL     OW16057   2.055   4.014   9.827  0.1758 -0.2310  0.2720
 1532SOL    HW116058   2.098   3.932   9.853 -0.4734 -0.0449  1.9074
 1532SOL    HW216059   2.075   4.015   9.733 -0.7901 -2.8738  0.0450
 1533SOL     OW16060   3.351   4.497   4.933 -0.3405 -0.9641  0.2446
 1533SOL    HW116061   3.420   4.553   4.900 -2.8245  3.3641  2.3906
 1533SOL    HW216062   3.288   4.503   4.860 -1.5407 -0.1296  1.3470
 1534SOL     OW16063   0.762   4.193  11.031 -0.6971 -0.0387  0.5910
 1534SOL    HW116064   0.826   4.133  10.993  0.5830  1.7402 -0.0809
 1534SOL    HW216065   0.830   4.245  11.075 -0.2361 -0.6844  0.6466
 1535SOL     OW16066   2.577   3.793  16.856  0.4186  0.2831 -0.2318
 1535SOL    HW116067   2.486   3.821  16.860  0.5117  0.5400  0.1592
 1535SOL    HW216068   2.619   3.873  16.825  1.5360 -0.4363 -0.5784
 1536SOL     OW16069   1.235   4.486   7.283  0.7350  0.7883 -0.5372
 1536SOL    HW116070   1.227   4.581   7.282  0.3026  0.7652  0.2762
 1536SOL    HW216071   1.204   4.465   7.195 -0.4838 -0.6760  0.2470
 1537SOL     OW16072   0.015   0.070   3.957  0.6374  0.0098 -0.1902
 1537SOL    HW116073   4.701   0.091   3.872  0.6249  1.6674  0.2264
 1537SOL    HW216074   4.693   0.122   4.023 -0.8603  0.8797 -1.9108
 1538SOL     OW16075   3.459   2.829   5.560  0.4147  0.3668  0.1839
 1538SOL    HW116076   3.432   2.882   5.485 -0.3032 -0.0504  0.1528
 1538SOL    HW216077   3.385   2.769   5.567 -0.8631  1.5447 -3.3638
 1539SOL     OW16078   2.209   1.995   2.962 -0.2592 -0.3243 -0.0192
 1539SOL    HW116079   2.266   2.054   3.011  0.1568 -0.6821 -0.0786
 1539SOL    HW216080   2.127   2.045   2.968  0.1672  0.2520  0.9112
 1540SOL     OW16081   4.486   0.826   2.521  0.1200 -0.3126  0.4051
 1540SOL    HW116082   4.416   0.861   2.467  0.3696  0.1136  0.3547
 1540SOL    HW216083   4.477   0.875   2.602  1.3529  1.3439 -0.4596
 1541SOL     OW16084   4.104   3.562  14.482 -0.2152  0.4753  0.8986
 1541SOL    HW116085   4.030   3.510  14.451 -0.1854  1.0375 -0.1096
 1541SOL    HW216086   4.094   3.646  14.438 -1.5403 -1.3406 -2.2604
 1542SOL     OW16087   1.169   1.649   3.764  0.0616  0.1201  0.2458
 1542SOL    HW116088   1.148   1.577   3.706  1.9717 -0.1352 -0.1388
 1542SOL    HW216089   1.110   1.636   3.838  1.2261 -0.8454  0.9984
 1543SOL     OW16090   1.785   1.673   5.305 -0.2794  0.4727  0.2971
 1543SOL    HW116091   1.768   1.616   5.380 -3.8616 -1.5226 -2.0391
 1543SOL    HW216092   1.844   1.614   5.258 -1.2132  1.1817 -1.7662
 1544SOL     OW16093   0.357   1.878   4.225  0.1265 -0.0943  0.2217
 1544SOL    HW116094   0.358   1.946   4.158 -4.6844  0.6070  0.8945
 1544SOL    HW216095   0.352   1.798   4.172 -1.5705  0.0335  0.2191
 1545SOL     OW16096   1.677   4.353   9.834  0.4413 -0.1158 -0.3250
 1545SOL    HW116097   1.717   4.407   9.902 -1.5775  1.8077 -0.6683
 1545SOL    HW216098   1.707   4.401   9.757  2.3585  1.1428  1.1899
 1546SOL     OW16099   4.153   1.837   6.689 -0.3956 -0.0182  1.0665
 1546SOL    HW116100   4.114   1.920   6.716  2.6168  1.4218  0.9790
 1546SOL    HW216101   4.221   1.873   6.631  0.6930 -4.1946 -0.3055
 1547SOL     OW16102   3.319   1.045   1.091  0.1786 -0.0064  0.1225
 1547SOL    HW116103   3.275   0.991   1.156  1.2055  2.1512  2.5960
 1547SOL    HW216104   3.363   1.104   1.152  1.6926 -0.0299 -0.9377
 1548SOL     OW16105   4.270   4.676   5.940  0.0383  0.4721 -0.0803
 1548SOL    HW116106   4.343   4.724   5.901  1.8790 -2.5567 -0.3680
 1548SOL    HW216107   4.292   4.697   6.031  0.3443  0.8060 -0.2305
 1549SOL     OW16108   1.997   2.880  16.527  0.1619 -0.5507 -0.3871
 1549SOL    HW116109   2.036   2.823  16.592  0.7345  1.3628  0.9550
 1549SOL    HW216110   2.069   2.895  16.466  0.1309 -0.3178 -0.3678
 1550SOL     OW16111   3.432   4.550   2.982  0.5210 -0.2305  0.0788
 1550SOL    HW116112   3.344   4.532   2.949 -0.7013  1.4640  2.4984
 1550SOL    HW216113   3.483   4.529   2.903 -1.1889  1.6487 -1.5126
 1551SOL     OW16114   2.701   1.090   5.505 -0.3154 -0.0552  0.2229
 1551SOL    HW116115   2.713   1.071   5.598  0.0346  1.6609  0.5313
 1551SOL    HW216116   2.638   1.019   5.492  1.3636 -1.4048 -0.5506
 1552SOL     OW16117   0.182   2.907   2.823  0.2989  0.1506  0.6424
 1552SOL    HW116118   0.157   2.903   2.915 -0.8277 -2.1363  0.2454
 1552SOL    HW216119   0.102   2.872   2.784 -1.0486  2.9968  0.8489
 1553SOL     OW16120   3.101   2.906   3.154 -0.1182 -0.5084  0.0155
 1553SOL    HW116121   3.083   2.873   3.242  0.3702  0.6035  0.5407
 1553SOL    HW216122   3.157   2.982   3.173 -2.1325  0.7952  0.8165
 1554SOL     OW16123   2.562   3.332   6.185  0.6545 -0.1389  0.1828
 1554SOL    HW116124   2.540   3.358   6.095  0.3092  1.7754  0.8253
 1554SOL    HW216125   2.474   3.352   6.218  0.2029  0.5284 -1.4225
 1555SOL     OW16126   4.600   1.887   1.069  0.0863 -0.0237  0.2393
 1555SOL    HW116127   4.678   1.838   1.040  1.4803  2.5502 -0.4112
 1555SOL    HW216128   4.531   1.837   1.026 -0.8226 -0.5404  2.3071
 1556SOL     OW16129   3.166   0.077   7.183 -0.3825 -0.6744 -0.2056
 1556SOL    HW116130   3.095   0.041   7.129 -0.9852  0.8018 -0.3777
 1556SOL    HW216131   3.239   0.023   7.152 -0.1075 -1.3369  1.5780
 1557SOL     OW16132   4.289   1.228   0.294  0.1137  0.0700 -0.0686
 1557SOL    HW116133   4.265   1.308   0.246 -0.0785  0.0070 -0.0769
 1557SOL    HW216134   4.290   1.255   0.386  2.2471 -0.7248  0.1450
 1558SOL     OW16135   0.177   3.828   3.133  0.5796 -0.5337  0.7585
 1558SOL    HW116136   0.237   3.848   3.061  0.0074  1.5149  0.8560
 1558SOL    HW216137   0.225   3.756   3.176  0.3697 -0.6063  0.8723
 1559SOL     OW16138   2.959   4.657   5.408 -0.2550 -0.0265 -0.2456
 1559SOL    HW116139   3.032   4.637   5.467 -0.1332  1.8165  0.2458
 1559SOL    HW216140   2.959   0.026   5.431 -2.4647 -0.6237  2.1228
 1560SOL     OW16141   2.906   1.602   6.048 -0.5923 -0.0410 -0.1825
 1560SOL    HW116142   2.918   1.518   6.004 -1.8991  0.3702 -1.3188
 1560SOL    HW216143   2.992   1.621   6.086  0.1173 -1.0515 -1.2874
 1561SOL     OW16144   4.349   2.556   2.029 -0.1070 -0.1455  0.4668
 1561SOL    HW116145   4.412   2.485   2.014 -0.3206 -0.2474  0.0625
 1561SOL    HW216146   4.406   2.633   2.032 -1.3709  0.8370 -1.1962
 1562SOL     OW16147   2.680   1.790   0.275  0.1410  0.5237  0.2727
 1562SOL    HW116148   2.655   1.828   0.359  0.6009 -0.0530  0.6710
 1562SOL    HW216149   2.597   1.768   0.233  0.0985  2.8657 -0.8790
 1563SOL     OW16150   0.020   3.584   5.292  0.0949 -0.1141  0.1035
 1563SOL    HW116151   4.663   3.533   5.296  2.0786 -3.2366  0.9150
 1563SOL    HW216152   0.004   3.622   5.378  0.7219 -0.8517  0.5434
 1564SOL     OW16153   1.615   2.983   3.411 -0.5840 -0.2158 -0.1661
 1564SOL    HW116154   1.559   3.037   3.467  1.4059  2.2304 -0.5282
 1564SOL    HW216155   1.555   2.963   3.339 -2.6902  1.4557  1.1076
 1565SOL     OW16156   0.582   1.262   6.647  0.1731 -0.4014 -0.1403
 1565SOL    HW116157   0.577   1.166   6.652 -1.1294 -0.3837 -1.1973
 1565SOL    HW216158   0.510   1.278   6.708  1.2793 -0.8681  1.2835
 1566SOL     OW16159   0.820   0.036   3.248 -0.6244 -0.2587  0.6981
 1566SOL    HW116160   0.872   0.116   3.246  0.3505 -0.9346 -1.3209
 1566SOL    HW216161   0.884   4.697   3.216 -0.9778 -0.3231  0.1239
 1567SOL     OW16162   3.255   1.168  10.912  0.0240 -0.2518 -0.9199
 1567SOL    HW116163   3.208   1.223  10.850 -1.9079  1.7698  2.3206
 1567SOL    HW216164   3.178   1.142  10.963 -0.3015 -3.0427 -2.8798
 1568SOL     OW16165   4.494   1.557  16.050 -0.3381  0.5902 -0.4265
 1568SOL    HW116166   4.480   1.501  16.126 -0.1756 -1.0793 -1.6510
 1568SOL    HW216167   4.411   1.543  16.006 -0.4220 -0.4495  0.0794
 1569SOL     OW16168   2.643   1.280   6.177 -0.2722  0.3714  0.4374
 1569SOL    HW116169   2.647   1.372   6.153  0.5990 -0.0229 -1.0204
 1569SOL    HW216170   2.676   1.232   6.100  0.8559  4.0030 -1.3258
 1570SOL     OW16171   3.466   2.131   2.009 -0.0390  0.0044  0.2510
 1570SOL    HW116172   3.426   2.181   1.938  1.0744 -0.8481 -0.9701
 1570SOL    HW216173   3.560   2.145   2.002 -0.6755  3.2130 -1.9155
 1571SOL     OW16174   1.329   1.250   9.859  0.6516 -0.4541 -0.0576
 1571SOL    HW116175   1.359   1.332   9.820 -1.9015  0.8084  0.6072
 1571SOL    HW216176   1.286   1.226   9.777 -2.1342  0.0479  1.2541
 1572SOL     OW16177   3.203   4.719   6.461  0.3300  0.3388  0.0005
 1572SOL    HW116178   3.211   0.042   6.378  1.7586  1.3696  0.7247
 1572SOL    HW216179   3.115   4.681   6.459  1.3758 -1.9627 -1.7613
 1573SOL     OW16180   1.349   3.657   6.534  0.3631  0.3709  0.4739
 1573SOL    HW116181   1.372   3.572   6.498  0.7279 -0.6095  3.0487
 1573SOL    HW216182   1.329   3.648   6.627 -1.2585 -0.8263  0.0162
 1574SOL     OW16183   3.207   0.099   6.710  0.3050  0.0970 -0.2226
 1574SOL    HW116184   3.207   0.052   6.627 -0.3975  0.3635 -0.3745
 1574SOL    HW216185   3.202   0.187   6.673 -1.2183 -0.8819 -2.3128
 1575SOL     OW16186   0.618   0.647   3.205 -0.3412  0.5034 -0.5590
 1575SOL    HW116187   0.640   0.680   3.117  0.5797  2.8836  0.5630
 1575SOL    HW216188   0.536   0.604   3.180  1.2454 -0.2246 -4.5786
 1576SOL     OW16189   3.489   3.900   2.892 -0.2968  0.3739 -0.1581
 1576SOL    HW116190   3.531   3.986   2.904  1.8802 -0.5700 -0.9825
 1576SOL    HW216191   3.538   3.870   2.816 -0.0636  0.4416 -0.0348
 1577SOL     OW16192   2.519   4.236   8.561 -0.5637 -0.5148  0.1017
 1577SOL    HW116193   2.544   4.148   8.588  0.7429  0.2795  1.4857
 1577SOL    HW216194   2.513   4.277   8.648 -0.3904  3.5197 -1.8204
 1578SOL     OW16195   1.953   4.254   4.018  0.1487  0.1191  0.1062
 1578SOL    HW116196   1.898   4.271   3.942 -1.6248 -0.5904  1.2203
 1578SOL    HW216197   2.036   4.227   3.978 -1.0886 -1.3428 -1.4577
 1579SOL     OW16198   4.195   3.614   8.899  0.2885  0.2975 -0.2803
 1579SOL    HW116199   4.148   3.595   8.981 -0.1814 -0.1327 -0.6497
 1579SOL    HW216200   4.274   3.559   8.898  0.6327  0.7178  3.1841
 1580SOL     OW16201   1.830   0.947   3.029  0.2742  0.1413 -0.1581
 1580SOL    HW116202   1.830   0.885   3.102 -1.3837 -1.2594 -1.3428
 1580SOL    HW216203   1.923   0.954   3.008  0.9889  0.3624  3.0470
 1581SOL     OW16204   2.016   4.576   7.708 -0.0122  0.6895 -0.1600
 1581SOL    HW116205   1.971   4.536   7.633  0.8006 -0.5292  0.0135
 1581SOL    HW216206   1.975   4.521   7.774 -1.6051 -1.1967 -2.6881
 1582SOL     OW16207   1.318   4.241   1.446  0.3863 -0.0679  0.4411
 1582SOL    HW116208   1.384   4.310   1.434 -0.6369  0.7370 -0.5002
 1582SOL    HW216209   1.299   4.226   1.353 -0.8583  0.7204  0.5619
 1583SOL     OW16210   0.750   0.794   4.602  0.0401  0.1119  0.3778
 1583SOL    HW116211   0.785   0.813   4.515 -1.2577  1.4670  0.1473
 1583SOL    HW216212   0.765   0.873   4.653  2.5440  0.6355 -1.1544
 1584SOL     OW16213   1.078   1.145  17.685  0.2159 -0.5522 -0.5243
 1584SOL    HW116214   0.996   1.162   0.033  0.7670  0.7175 -0.0198
 1584SOL    HW216215   1.067   1.050  17.676 -2.6440 -0.3946  1.0957
 1585SOL     OW16216   3.721   1.114   1.558 -0.3158  0.2319 -0.1527
 1585SOL    HW116217   3.708   1.062   1.479  0.5259 -2.2766  1.3474
 1585SOL    HW216218   3.690   1.202   1.536 -0.3844  0.2563  0.0364
 1586SOL     OW16219   4.309   3.401  17.056 -0.0724  0.5767  0.3241
 1586SOL    HW116220   4.227   3.368  17.018  1.3748 -2.9929  0.2292
 1586SOL    HW216221   4.359   3.432  16.981  2.8255 -1.2365  1.4855
 1587SOL     OW16222   3.177   2.019   5.832 -0.0595  0.1079  0.1421
 1587SOL    HW116223   3.197   2.056   5.919 -0.9705 -1.9370  1.2159
 1587SOL    HW216224   3.108   1.960   5.860  0.7151 -0.3226  1.1654
 1588SOL     OW16225   4.425   1.043   2.696  0.1985  0.0959 -0.2011
 1588SOL    HW116226   4.440   1.083   2.781  0.8844  0.8805 -0.6972
 1588SOL    HW216227   4.348   1.094   2.669  0.0297 -0.0225  0.0479
 1589SOL     OW16228   4.138   2.892   5.522  0.7028 -0.0802  0.3213
 1589SOL    HW116229   4.144   2.977   5.566  0.0815  0.6572 -1.0334
 1589SOL    HW216230   4.058   2.899   5.470 -0.0721  0.8967  1.6444
 1590SOL     OW16231   2.102   2.023   4.046 -0.1137  0.0808  0.2195
 1590SOL    HW116232   2.017   1.981   4.043  1.1628 -2.4042 -0.7361
 1590SOL    HW216233   2.123   2.060   3.960 -0.3745 -0.6602 -0.1615
 1591SOL     OW16234   2.809   0.139   8.730 -0.7976 -0.7680  0.4040
 1591SOL    HW116235   2.881   0.173   8.677 -1.3031  1.8294  1.3918
 1591SOL    HW216236   2.799   0.047   8.706 -2.5930 -0.3796 -0.2936
 1592SOL     OW16237   0.752   3.889   2.745  0.4224  0.2366 -0.2936
 1592SOL    HW116238   0.837   3.905   2.785 -1.6310  0.5830  3.8914
 1592SOL    HW216239   0.737   3.975   2.705  0.7574 -0.5197 -2.0699
 1593SOL     OW16240   3.032   2.710   5.958 -0.8993  0.4556 -0.1901
 1593SOL    HW116241   3.044   2.797   5.997 -1.2594  1.0167 -1.3366
 1593SOL    HW216242   2.936   2.709   5.956 -0.9047  0.2548  0.2024
 1594SOL     OW16243   3.268   2.982   8.207  0.7127  0.0002 -0.2212
 1594SOL    HW116244   3.260   3.054   8.144  2.1149  1.3754  1.1682
 1594SOL    HW216245   3.184   2.995   8.252  1.6269 -0.4954  1.6054
 1595SOL     OW16246   0.165   1.601   8.495  0.4249  0.5064 -0.4605
 1595SOL    HW116247   0.201   1.541   8.430 -0.3231  1.2751 -1.5728
 1595SOL    HW216248   0.214   1.575   8.573  0.4494  1.8369 -0.0277
 1596SOL     OW16249   1.306   4.001   4.855 -0.1317  0.2374 -0.1275
 1596SOL    HW116250   1.222   4.040   4.879  1.0581  0.6166  3.4269
 1596SOL    HW216251   1.274   3.911   4.843 -0.8710  0.1685  2.3562
 1597SOL     OW16252   1.424   1.209   4.003 -0.1027  0.3012  0.5206
 1597SOL    HW116253   1.459   1.287   3.959 -1.0233  1.0610  1.1216
 1597SOL    HW216254   1.502   1.169   4.041 -1.1067 -1.7343  0.4024
 1598SOL     OW16255   3.112   2.858  15.197  0.0110  0.0169  0.5644
 1598SOL    HW116256   3.076   2.884  15.282 -0.5820  2.8304 -0.5250
 1598SOL    HW216257   3.043   2.795  15.178  0.5896 -0.5955  0.5009
 1599SOL     OW16258   1.566   2.758   4.139 -0.5854  0.5147 -0.0638
 1599SOL    HW116259   1.571   2.821   4.211 -1.1565 -0.1202  0.5227
 1599SOL    HW216260   1.627   2.693   4.174 -1.1922 -0.4907 -0.8476
 1600SOL     OW16261   3.530   2.364   8.224 -0.4088  0.3840 -0.0965
 1600SOL    HW116262   3.460   2.370   8.289 -3.7046  1.5463 -3.7702
 1600SOL    HW216263   3.477   2.374   8.145 -0.1807  0.3104 -0.2613
 1601SOL     OW16264   1.354   2.696   4.691  0.2069  0.4627  0.3339
 1601SOL    HW116265   1.363   2.790   4.677  1.2527  0.3422  0.2380
 1601SOL    HW216266   1.328   2.667   4.603 -0.1076  2.0604 -0.0969
 1602SOL     OW16267   1.102   2.720  15.726 -0.4183  0.2669 -0.1533
 1602SOL    HW116268   1.175   2.696  15.782  1.3400  0.6711 -2.2589
 1602SOL    HW216269   1.026   2.706  15.782 -0.0373  0.6828  0.4655
 1603SOL     OW16270   0.125   0.152   0.874 -0.1543 -0.1083 -0.0710
 1603SOL    HW116271   0.137   0.076   0.932 -0.1494 -0.9949 -1.2337
 1603SOL    HW216272   0.192   0.134   0.809 -0.4250  0.4275 -0.4942
 1604SOL     OW16273   4.304   2.728  12.129  0.3633 -0.0173  0.0367
 1604SOL    HW116274   4.246   2.804  12.128 -1.3360 -1.3108  0.7257
 1604SOL    HW216275   4.309   2.726  12.033 -0.1357 -0.0598  0.0143
 1605SOL     OW16276   3.115   2.447   1.064  0.5966  0.1295 -0.4271
 1605SOL    HW116277   3.066   2.514   1.016  0.3361 -1.4302 -2.3616
 1605SOL    HW216278   3.184   2.500   1.104  1.6083 -2.0599  0.7128
 1606SOL     OW16279   4.191   3.329   8.702 -0.2636  0.3409 -0.1990
 1606SOL    HW116280   4.274   3.321   8.656  0.7845  2.3027  1.3589
 1606SOL    HW216281   4.218   3.402   8.757  1.3082 -0.0147 -0.5018
 1607SOL     OW16282   2.350   1.219   8.574  0.2570  1.3936 -0.5738
 1607SOL    HW116283   2.321   1.128   8.574 -1.4356  1.9342 -1.1953
 1607SOL    HW216284   2.402   1.223   8.654 -0.7953 -0.4369  0.2061
 1608SOL     OW16285   1.646   3.507  13.841  0.3189 -0.5500 -0.1689
 1608SOL    HW116286   1.671   3.581  13.786 -3.2427  0.9122  0.1656
 1608SOL    HW216287   1.699   3.441  13.795  0.2735  0.8711 -2.2556
 1609SOL     OW16288   2.935   4.484   8.771 -0.4926  0.1657  0.7173
 1609SOL    HW116289   2.962   4.415   8.709 -1.3015 -0.0804  0.6458
 1609SOL    HW216290   3.008   4.531   8.811  0.4700  0.8063 -1.7469
 1610SOL     OW16291   4.135   1.433  11.764 -0.5034 -0.0053  0.1154
 1610SOL    HW116292   4.182   1.438  11.681 -0.2159 -1.2337  0.1998
 1610SOL    HW216293   4.150   1.339  11.780 -3.0880 -0.4333  0.0807
 1611SOL     OW16294   3.919   4.139   5.313 -0.0266 -0.2066  0.3228
 1611SOL    HW116295   3.885   4.146   5.402 -0.0675 -0.9457  0.3666
 1611SOL    HW216296   3.884   4.055   5.282  4.1287 -0.2937 -4.1202
 1612SOL     OW16297   1.011   1.638  11.476 -0.1868  0.4357  0.1040
 1612SOL    HW116298   1.004   1.732  11.486 -0.8419  0.4264 -0.2605
 1612SOL    HW216299   1.041   1.605  11.561 -0.4897 -2.3915 -0.8621
 1613SOL     OW16300   3.886   4.496   4.996 -0.0301  0.0803  0.3145
 1613SOL    HW116301   3.898   4.585   5.029 -0.3749  0.7022 -1.2357
 1613SOL    HW216302   3.943   4.445   5.054  0.5593 -0.9262 -1.1463
 1614SOL     OW16303   1.719   4.141   0.269  0.4799  0.6818  0.0725
 1614SOL    HW116304   1.649   4.077   0.281 -1.6651  2.6276 -2.1170
 1614SOL    HW216305   1.675   4.221   0.298 -3.2421 -1.3925  0.1167
 1615SOL     OW16306   0.612   2.218   6.160  0.1701  0.1214  0.3968
 1615SOL    HW116307   0.598   2.270   6.240 -2.7689 -0.9598  0.5763
 1615SOL    HW216308   0.674   2.151   6.188  0.6549 -0.7775 -2.8420
 1616SOL     OW16309   0.183   3.863   2.533  0.6640  0.4147  0.0642
 1616SOL    HW116310   0.092   3.890   2.520  0.4853 -0.0514  0.3427
 1616SOL    HW216311   0.235   3.920   2.476 -0.6269  1.5098 -0.0111
 1617SOL     OW16312   0.683   4.229   1.117  0.4608 -0.1963 -0.5737
 1617SOL    HW116313   0.729   4.159   1.072 -0.3806 -1.2085  0.1364
 1617SOL    HW216314   0.637   4.268   1.042 -0.0825 -1.7004 -1.0285
 1618SOL     OW16315   4.675   4.293  12.328 -0.2008  0.0041  0.1169
 1618SOL    HW116316   4.715   4.225  12.274  1.3175 -0.4896  1.8404
 1618SOL    HW216317   4.593   4.314  12.284  1.0998  2.3854 -1.1651
 1619SOL     OW16318   3.700   2.224   6.345 -0.0073  0.5103  0.0967
 1619SOL    HW116319   3.665   2.136   6.353 -0.8725  1.0528  2.2403
 1619SOL    HW216320   3.790   2.193   6.335  0.5681  1.8490  1.1495
 1620SOL     OW16321   0.775   3.468   2.701  0.6078 -0.1818  0.1725
 1620SOL    HW116322   0.842   3.507   2.757  0.1298 -0.3311  0.8489
 1620SOL    HW216323   0.695   3.478   2.753  0.0336  1.2752 -0.9763
 1621SOL     OW16324   0.083   3.192   4.663 -0.3411 -0.2127  0.3348
 1621SOL    HW116325   0.084   3.101   4.634 -1.4298 -0.5040  1.1904
 1621SOL    HW216326   0.019   3.223   4.599  0.2358  1.5220  0.6069
 1622SOL     OW16327   0.813   4.562   3.940  0.0135  0.5824  0.0346
 1622SOL    HW116328   0.785   4.490   3.883 -1.0391  0.5020  0.6517
 1622SOL    HW216329   0.734   4.615   3.948  0.5715  1.6539 -1.5964
 1623SOL     OW16330   0.026   0.847   6.894  0.3851  0.5874 -0.5392
 1623SOL    HW116331   4.700   0.893   6.827  0.8515 -0.3424 -1.5368
 1623SOL    HW216332   0.104   0.833   6.839  0.0609 -1.2458 -0.5474
 1624SOL     OW16333   4.174   2.739  16.909  0.3059 -0.4482 -0.3428
 1624SOL    HW116334   4.226   2.787  16.843 -0.1469  0.0734 -0.3216
 1624SOL    HW216335   4.109   2.689  16.859 -0.3813  1.9389 -1.8258
 1625SOL     OW16336   4.404   4.105  12.776 -0.3741  0.0499 -0.2832
 1625SOL    HW116337   4.423   4.198  12.788  1.3929 -0.2761 -0.4782
 1625SOL    HW216338   4.477   4.075  12.722  0.5860 -0.4546  1.2787
 1626SOL     OW16339   0.694   2.289   6.436  0.1924 -0.4138  0.2453
 1626SOL    HW116340   0.651   2.357   6.488 -0.8337  0.8797 -2.3135
 1626SOL    HW216341   0.780   2.278   6.477  0.4995  1.1770  0.0331
 1627SOL     OW16342   0.970   1.763  11.107  0.0494  0.5483  1.0348
 1627SOL    HW116343   1.058   1.746  11.142 -0.5907 -0.1541  2.2915
 1627SOL    HW216344   0.993   1.745  11.016 -0.5626 -0.6402  1.1096
 1628SOL     OW16345   3.202   2.032   7.624  1.0066 -0.1744 -0.0887
 1628SOL    HW116346   3.198   1.936   7.628  0.0543 -0.1391 -0.1644
 1628SOL    HW216347   3.113   2.050   7.653  1.4147  0.2041  0.9468
 1629SOL     OW16348   3.428   4.705   6.088  0.1861  0.1128 -0.9064
 1629SOL    HW116349   3.485   4.674   6.018 -1.4101  0.2306 -2.2448
 1629SOL    HW216350   3.427   4.636   6.155  1.5121  0.7379 -0.2416
 1630SOL     OW16351   1.372   2.349   3.631  0.3156 -0.5431  0.0054
 1630SOL    HW116352   1.362   2.415   3.563 -1.0766  1.1427  1.8609
 1630SOL    HW216353   1.373   2.262   3.589  0.3468 -0.9212  0.7929
 1631SOL     OW16354   0.877   0.284  13.706  0.2985  0.9682  0.6021
 1631SOL    HW116355   0.846   0.257  13.793  1.5415 -1.5672  0.2719
 1631SOL    HW216356   0.923   0.367  13.720 -1.5177  2.4827 -2.4458
 1632SOL     OW16357   2.076   1.336   7.972  0.1248  0.0962  0.1671
 1632SOL    HW116358   2.102   1.418   7.929  1.2603  0.7858  2.1688
 1632SOL    HW216359   1.995   1.362   8.016  0.2271  0.4913  0.1244
 1633SOL     OW16360   0.620   3.092   9.764  0.0057 -0.0822 -0.0165
 1633SOL    HW116361   0.633   3.031   9.837 -0.9187  0.2233  0.4100
 1633SOL    HW216362   0.683   3.050   9.706  0.4821  0.8101 -0.1482
 1634SOL     OW16363   3.160   2.250   1.417  0.3019  0.6175  0.1154
 1634SOL    HW116364   3.094   2.261   1.486 -1.7649 -0.3864 -1.6798
 1634SOL    HW216365   3.120   2.241   1.331 -2.1732 -0.0768  1.3412
 1635SOL     OW16366   2.102   0.123   5.182  0.5289  0.1713  0.0521
 1635SOL    HW116367   2.174   0.064   5.156  0.6588  1.1312 -1.7703
 1635SOL    HW216368   2.100   0.109   5.277  0.6356  1.6177  0.2669
 1636SOL     OW16369   3.996   3.317   2.081  0.2219  0.2264 -0.4890
 1636SOL    HW116370   4.000   3.226   2.050 -0.6430  0.1400 -0.3353
 1636SOL    HW216371   4.022   3.301   2.172 -1.2680  1.3777  0.1234
 1637SOL     OW16372   2.057   0.851   7.115  0.4355  0.6599 -0.0846
 1637SOL    HW116373   1.987   0.821   7.057  1.0470 -0.8946 -0.0144
 1637SOL    HW216374   2.005   0.881   7.189 -0.2914 -3.1487  0.9521
 1638SOL     OW16375   2.566   3.870   5.411  0.5787  0.0421 -0.4941
 1638SOL    HW116376   2.473   3.847   5.406 -0.2194  2.8063  1.7654
 1638SOL    HW216377   2.588   3.827   5.494  1.2456 -0.8377 -1.1351
 1639SOL     OW16378   1.642   2.238   3.205 -0.1420  0.0164  0.2269
 1639SOL    HW116379   1.721   2.283   3.175 -1.1782  2.5354  1.2500
 1639SOL    HW216380   1.612   2.199   3.123  1.5302  0.1789 -0.4593
 1640SOL     OW16381   1.009   4.034  13.017  0.2921 -0.3617  0.6442
 1640SOL    HW116382   1.039   4.038  12.926 -1.2285  1.4056  0.2233
 1640SOL    HW216383   0.938   3.971  13.009  0.0209 -0.1080  1.0578
 1641SOL     OW16384   1.245   0.565   4.562  0.9700 -0.1339 -0.3571
 1641SOL    HW116385   1.292   0.496   4.609  1.2465  1.2734  1.4478
 1641SOL    HW216386   1.263   0.535   4.473  1.0323 -1.0089 -0.0493
 1642SOL     OW16387   1.979   3.094   4.905 -1.1186  0.4927 -0.5360
 1642SOL    HW116388   1.884   3.106   4.912 -1.6182 -4.5151  1.7035
 1642SOL    HW216389   1.995   3.074   4.813  0.6128 -1.8486  0.2733
 1643SOL     OW16390   2.485   2.366  15.947  0.2315  1.0675 -0.2752
 1643SOL    HW116391   2.544   2.436  15.919 -1.4478  1.2361 -3.3681
 1643SOL    HW216392   2.484   2.389  16.040 -1.9051  3.2937 -0.8661
 1644SOL     OW16393   3.209   2.984   5.136  0.0198  0.3982 -0.5977
 1644SOL    HW116394   3.154   2.930   5.080 -1.1693 -2.4169  3.2848
 1644SOL    HW216395   3.278   2.991   5.070  0.4106  2.2960  0.0075
 1645SOL     OW16396   2.781   3.670   7.739  0.3760  0.3632 -0.4600
 1645SOL    HW116397   2.689   3.677   7.765  0.0414  2.3012 -2.1062
 1645SOL    HW216398   2.782   3.760   7.708 -1.5955 -0.5020 -3.1358
 1646SOL     OW16399   0.810   2.237   4.287 -0.0689 -0.0912 -0.5842
 1646SOL    HW116400   0.849   2.324   4.289 -0.0418 -0.0716 -1.9860
 1646SOL    HW216401   0.739   2.249   4.224  1.7320  0.3660 -2.5327
 1647SOL     OW16402   1.943   3.271   4.509 -0.1414  0.0579 -0.0519
 1647SOL    HW116403   1.906   3.185   4.531 -0.0087  0.1885  0.6849
 1647SOL    HW216404   1.870   3.311   4.463 -1.8798 -2.3811  0.6101
 1648SOL     OW16405   3.584   1.556  12.346 -0.5136  0.5392 -0.2623
 1648SOL    HW116406   3.559   1.550  12.254 -0.8221 -1.5891 -0.0375
 1648SOL    HW216407   3.603   1.463  12.361  1.2797  0.4125 -3.2609
 1649SOL     OW16408   2.759   0.771   5.644  0.1707  0.3137 -0.1086
 1649SOL    HW116409   2.665   0.783   5.659 -0.1091 -1.6315 -0.2753
 1649SOL    HW216410   2.752   0.710   5.571  1.3646  0.7385 -0.5781
 1650SOL     OW16411   3.281   3.816   6.212  0.1746 -0.2029 -0.2129
 1650SOL    HW116412   3.371   3.784   6.201 -0.5658 -1.3596 -3.0056
 1650SOL    HW216413   3.275   3.875   6.137 -1.7270 -0.0337  0.0847
 1651SOL     OW16414   3.448   0.796  10.959  0.5331 -0.4754 -0.0680
 1651SOL    HW116415   3.353   0.812  10.952  1.0715  2.5691 -0.4017
 1651SOL    HW216416   3.474   0.860  10.893  2.9901  1.3704  2.7011
 1652SOL     OW16417   2.398   0.707  12.256 -0.7873  0.0267  1.0325
 1652SOL    HW116418   2.352   0.762  12.192 -0.2091  0.1159  0.6936
 1652SOL    HW216419   2.387   0.774  12.324 -0.8040 -0.2654  1.3158
 1653SOL     OW16420   1.837   3.245  16.209 -0.4445 -0.2168  0.8848
 1653SOL    HW116421   1.895   3.180  16.169 -0.5589  0.7123 -0.7903
 1653SOL    HW216422   1.827   3.212  16.298 -1.7447  0.0449  0.8405
 1654SOL     OW16423   2.792   1.502  12.843  0.0315  0.7660 -0.9992
 1654SOL    HW116424   2.718   1.445  12.823 -1.2693  2.2892 -0.5603
 1654SOL    HW216425   2.781   1.520  12.936 -0.1134  0.3828 -0.9405
 1655SOL     OW16426   4.532   0.700   7.511 -0.1065 -0.0810 -0.0893
 1655SOL    HW116427   4.551   0.794   7.511  0.8779 -0.2794 -0.6861
 1655SOL    HW216428   4.447   0.698   7.467  0.2760 -0.6574 -0.8070
 1656SOL     OW16429   3.143   2.905   6.143  0.1620  1.0073  0.1776
 1656SOL    HW116430   3.193   2.941   6.070  0.1489  0.2323 -0.2142
 1656SOL    HW216431   3.209   2.912   6.211  0.3385 -0.2934  0.1340
 1657SOL     OW16432   4.129   3.762   6.669 -0.3259  0.6341 -0.1426
 1657SOL    HW116433   4.199   3.820   6.700 -1.8654  2.4874 -0.1556
 1657SOL    HW216434   4.171   3.676   6.674  0.9441  1.3032  0.9946
 1658SOL     OW16435   4.337   3.582  13.518  0.1030 -0.0568  0.0711
 1658SOL    HW116436   4.332   3.672  13.551 -0.5305 -0.7358  1.8327
 1658SOL    HW216437   4.244   3.557  13.526  0.5561 -2.3727 -1.9737
 1659SOL     OW16438   1.611   3.096   5.660  0.2682 -0.1863 -0.6640
 1659SOL    HW116439   1.673   3.088   5.732  0.4918 -0.2374 -0.8619
 1659SOL    HW216440   1.565   3.012   5.663  1.2527 -0.6449  1.4770
 1660SOL     OW16441   3.857   4.232   8.426  0.0968  0.2580  0.2833
 1660SOL    HW116442   3.837   4.156   8.480  2.2131 -1.5464 -1.4535
 1660SOL    HW216443   3.893   4.297   8.487 -2.3322  2.2429 -0.4331
 1661SOL     OW16444   4.157   1.212   3.141 -0.0078 -0.3630 -0.4884
 1661SOL    HW116445   4.219   1.172   3.081  1.1690  0.8394 -0.0801
 1661SOL    HW216446   4.122   1.133   3.183 -0.0053 -0.3112 -0.3871
 1662SOL     OW16447   4.181   1.746  13.175 -0.6311 -0.4477 -0.0647
 1662SOL    HW116448   4.158   1.737  13.082 -2.9577  0.6406  0.3998
 1662SOL    HW216449   4.104   1.793  13.207 -1.1431 -1.2597 -0.1265
 1663SOL     OW16450   2.191   4.249   8.757  0.2017  0.3967 -0.1245
 1663SOL    HW116451   2.237   4.332   8.743 -1.3636  1.2147 -0.4610
 1663SOL    HW216452   2.113   4.289   8.795 -1.2308 -0.7104 -1.9255
 1664SOL     OW16453   0.895   4.102   7.841 -1.3450  0.2376  0.7817
 1664SOL    HW116454   0.880   4.170   7.776 -0.1259  0.2596  0.5137
 1664SOL    HW216455   0.817   4.048   7.830 -0.4613 -0.8869 -0.0202
 1665SOL     OW16456   1.564   1.649   5.813 -0.2967  0.2164 -0.1830
 1665SOL    HW116457   1.657   1.627   5.816 -0.6128 -1.1021 -0.0936
 1665SOL    HW216458   1.547   1.632   5.905  0.1918  0.2556 -0.0882
 1666SOL     OW16459   0.327   1.187   6.793  0.6255  0.2995 -0.0760
 1666SOL    HW116460   0.380   1.115   6.827  0.1490  1.1532  2.4734
 1666SOL    HW216461   0.338   1.250   6.864 -0.4323 -0.8120  1.0920
 1667SOL     OW16462   2.164   3.504   5.355  0.0772  0.3514 -0.3083
 1667SOL    HW116463   2.169   3.411   5.332  3.5486  0.6187 -0.6225
 1667SOL    HW216464   2.228   3.540   5.294  1.3311 -0.3729  0.5703
 1668SOL     OW16465   1.162   3.486   6.269  0.0329 -0.4666 -0.1833
 1668SOL    HW116466   1.079   3.450   6.239 -0.8604  2.1339 -0.7998
 1668SOL    HW216467   1.149   3.580   6.269  0.1533 -0.4595 -2.6211
 1669SOL     OW16468   4.584   0.407   5.009 -0.4595 -0.4269 -0.3000
 1669SOL    HW116469   4.611   0.352   5.082  1.9488  0.3822 -0.5921
 1669SOL    HW216470   4.498   0.415   5.050 -1.3743  0.0746 -2.3159
 1670SOL     OW16471   1.937   3.670   1.926 -0.0065  0.3849  0.3699
 1670SOL    HW116472   2.017   3.659   1.875  1.6025  2.4781  2.4217
 1670SOL    HW216473   1.964   3.672   2.018  3.1876  0.5582 -0.5692
 1671SOL     OW16474   2.294   3.431   2.388 -0.5638 -0.0653  0.1101
 1671SOL    HW116475   2.232   3.400   2.322  1.2646 -1.8411 -0.7586
 1671SOL    HW216476   2.368   3.453   2.332  1.9099 -2.8660  2.2589
 1672SOL     OW16477   3.519   1.080   5.342 -0.6553 -0.2327 -0.0169
 1672SOL    HW116478   3.599   1.037   5.312  0.2463  1.0792  0.4977
 1672SOL    HW216479   3.454   1.013   5.321  0.6016 -2.0264  1.8244
 1673SOL     OW16480   1.379   4.461  10.397 -0.0676  0.4404 -0.2698
 1673SOL    HW116481   1.394   4.414  10.315 -0.5637 -2.8647  1.5641
 1673SOL    HW216482   1.325   4.408  10.455 -0.9915  1.9486  0.2593
 1674SOL     OW16483   1.800   1.006  11.423  0.1004  1.0688 -0.0740
 1674SOL    HW116484   1.705   1.008  11.436 -0.1040 -1.2572 -1.4058
 1674SOL    HW216485   1.812   1.100  11.410  0.6196  0.8970 -0.8253
 1675SOL     OW16486   0.981   2.467   5.622 -0.2527  0.4591  0.2614
 1675SOL    HW116487   0.961   2.561   5.621  0.0941  0.5314 -0.4698
 1675SOL    HW216488   1.060   2.463   5.568 -0.7643  0.1812 -0.4725
 1676SOL     OW16489   3.913   4.045   4.023  0.0271 -0.7118 -0.3456
 1676SOL    HW116490   3.934   4.111   3.957 -1.7370  1.5278  1.3130
 1676SOL    HW216491   3.992   4.050   4.076 -0.1918  1.9807 -0.2895
 1677SOL     OW16492   4.180   3.176  16.676 -0.1390  0.2957  0.0379
 1677SOL    HW116493   4.271   3.144  16.677  0.2738  1.5001  0.9830
 1677SOL    HW216494   4.158   3.157  16.585 -0.9458  1.6845 -0.0523
 1678SOL     OW16495   0.225   3.418   5.224  0.4740 -0.1747 -0.6194
 1678SOL    HW116496   0.312   3.428   5.263 -0.5959  2.3579  1.1342
 1678SOL    HW216497   0.182   3.496   5.258 -0.7439 -1.6084  1.1359
 1679SOL     OW16498   0.999   1.267  10.057  0.3979  0.1360 -0.0512
 1679SOL    HW116499   0.926   1.315  10.096  0.5865 -0.6793  1.3151
 1679SOL    HW216500   1.026   1.325   9.986 -0.0513 -1.3055 -1.4103
 1680SOL     OW16501   2.247   4.489   7.065  0.3513  0.2850 -0.0264
 1680SOL    HW116502   2.333   4.523   7.038  0.1460  1.6570  1.0375
 1680SOL    HW216503   2.256   4.511   7.158 -1.5435 -1.8848  0.6691
 1681SOL     OW16504   2.057   1.675   7.191 -0.3721  0.0448  0.1443
 1681SOL    HW116505   2.123   1.674   7.260  0.1943  0.0307 -0.3944
 1681SOL    HW216506   2.078   1.601   7.133  3.9210  1.5714 -0.2286
 1682SOL     OW16507   4.378   0.987   5.338 -0.5400 -0.0882 -0.0298
 1682SOL    HW116508   4.291   0.983   5.299  0.2441  1.6616 -1.9174
 1682SOL    HW216509   4.356   1.033   5.420 -2.1032 -1.1757  0.1613
 1683SOL     OW16510   1.193   0.166   2.188 -1.0678  0.4467 -0.4933
 1683SOL    HW116511   1.214   0.192   2.278  1.1148  0.4001 -0.9780
 1683SOL    HW216512   1.282   0.139   2.163 -1.7213 -3.1519  1.0549
 1684SOL     OW16513   3.797   2.353  14.164 -0.4064  0.4518 -0.0369
 1684SOL    HW116514   3.884   2.348  14.204 -0.7021 -1.8599  0.3089
 1684SOL    HW216515   3.813   2.313  14.079 -0.6693 -1.5699  0.8446
 1685SOL     OW16516   4.635   1.805   5.378  0.0261  0.2996  0.1617
 1685SOL    HW116517   4.550   1.802   5.334 -0.2125  0.3871  0.6149
 1685SOL    HW216518   4.636   1.742   5.449  1.2356  1.3805  1.1106
 1686SOL     OW16519   3.718   0.819   2.782 -0.2112 -1.1849  0.1813
 1686SOL    HW116520   3.633   0.861   2.772  0.6226  0.0074 -1.9088
 1686SOL    HW216521   3.713   0.766   2.702  0.2416 -0.9491 -0.0091
 1687SOL     OW16522   4.083   0.651   5.988  0.0911  0.0372  0.4372
 1687SOL    HW116523   4.092   0.585   6.056 -2.3297 -1.2707 -0.5077
 1687SOL    HW216524   4.120   0.613   5.909 -1.7326  2.2628 -1.4826
 1688SOL     OW16525   3.148   2.886  14.074 -0.1509 -0.0112  0.2178
 1688SOL    HW116526   3.216   2.844  14.127 -0.4489  0.2939  0.8403
 1688SOL    HW216527   3.078   2.891  14.139 -0.0339 -0.2115  0.3617
 1689SOL     OW16528   3.422   1.715  16.787  0.3514 -0.0600  0.1989
 1689SOL    HW116529   3.372   1.783  16.742  1.9652 -0.3895 -2.0639
 1689SOL    HW216530   3.408   1.739  16.879  1.9844 -2.1797  1.0012
 1690SOL     OW16531   4.477   4.348   4.719  0.4890  0.8514  0.2172
 1690SOL    HW116532   4.403   4.372   4.774  0.0142 -1.4801  0.5848
 1690SOL    HW216533   4.528   4.429   4.727 -2.0921  2.7117 -2.2347
 1691SOL     OW16534   2.583   4.096   3.562  0.0790 -0.6193 -0.3652
 1691SOL    HW116535   2.552   4.166   3.618 -0.5893 -2.5540  1.7002
 1691SOL    HW216536   2.657   4.143   3.525 -0.8653  2.1597  1.3252
 1692SOL     OW16537   0.597   0.357   4.412 -0.2864  0.4665  0.4376
 1692SOL    HW116538   0.581   0.431   4.354 -0.7364  0.0312  0.0139
 1692SOL    HW216539   0.548   0.385   4.490  0.1330  0.2370  0.7834
 1693SOL     OW16540   2.472   3.347   7.358  0.3272 -0.5072 -0.0916
 1693SOL    HW116541   2.445   3.291   7.286 -2.1064 -0.0176  0.4468
 1693SOL    HW216542   2.396   3.330   7.414  3.1826 -0.7778  3.7342
 1694SOL     OW16543   3.764   3.752  13.475 -0.1327 -0.0918 -0.5789
 1694SOL    HW116544   3.767   3.721  13.385 -1.1692 -2.3376  0.1593
 1694SOL    HW216545   3.739   3.669  13.515  0.7722  0.3700  0.9460
 1695SOL     OW16546   1.743   4.554   9.064 -0.2009 -0.2864 -0.4307
 1695SOL    HW116547   1.723   4.550   8.970  1.1565  1.4249 -0.7966
 1695SOL    HW216548   1.776   4.643   9.077 -0.4220 -0.3134  0.3029
 1696SOL     OW16549   3.813   3.918   5.120  0.3829 -0.0494  0.2165
 1696SOL    HW116550   3.909   3.923   5.118  0.2046  3.5238  0.7609
 1696SOL    HW216551   3.795   3.826   5.140 -0.0068 -0.7696 -3.4971
 1697SOL     OW16552   3.435   0.326   4.473  0.1073  0.0919  0.1099
 1697SOL    HW116553   3.501   0.393   4.454 -3.7082  3.0148 -2.7397
 1697SOL    HW216554   3.398   0.309   4.387 -1.1379 -1.6876  0.9925
 1698SOL     OW16555   3.052   1.344   2.785  0.3511 -0.4086 -0.2088
 1698SOL    HW116556   3.092   1.279   2.727 -2.4656 -0.5501 -1.9948
 1698SOL    HW216557   2.971   1.301   2.812  0.2652  0.1958  0.4903
 1699SOL     OW16558   0.063   1.257   6.709  0.2437  0.1252  0.7640
 1699SOL    HW116559   0.019   1.172   6.712  0.7406 -0.1662 -0.2449
 1699SOL    HW216560   0.151   1.227   6.731  0.9562  0.6913 -1.3445
 1700SOL     OW16561   0.879   4.515   4.230  0.1323  0.6121  0.0607
 1700SOL    HW116562   0.829   4.596   4.225  0.9148  0.9464 -2.3909
 1700SOL    HW216563   0.821   4.457   4.180 -0.0215  0.7261  0.1086
 1701SOL     OW16564   1.786   3.836   7.176 -0.2518  0.2005 -0.3597
 1701SOL    HW116565   1.774   3.784   7.255 -2.1932 -0.6349 -1.1923
 1701SOL    HW216566   1.808   3.763   7.119  1.5955 -0.6855  1.5091
 1702SOL     OW16567   1.504   3.325   3.483 -0.7476  1.0367  0.4662
 1702SOL    HW116568   1.560   3.321   3.560 -0.5045  0.8601  0.2801
 1702SOL    HW216569   1.443   3.398   3.494 -1.5279  0.4938 -0.1904
 1703SOL     OW16570   0.749   0.172  10.636  0.2907  0.8407  0.2404
 1703SOL    HW116571   0.824   0.114  10.624 -0.9830 -0.8864  0.7571
 1703SOL    HW216572   0.709   0.172  10.549  1.4955  0.7832 -0.3293
 1704SOL     OW16573   4.289   0.261   6.133 -0.4476 -0.2577 -0.1648
 1704SOL    HW116574   4.274   0.166   6.135 -0.5735 -0.2677 -2.3364
 1704SOL    HW216575   4.384   0.257   6.130 -0.5296 -1.9251 -0.6943
 1705SOL     OW16576   3.036   3.262  12.531 -0.8596  0.1130  0.1369
 1705SOL    HW116577   3.060   3.304  12.448  0.6147 -0.5252  0.2300
 1705SOL    HW216578   3.038   3.339  12.589  0.9373  2.8726 -3.5272
 1706SOL     OW16579   3.452   2.383   5.875  0.3726 -0.0194  0.5821
 1706SOL    HW116580   3.386   2.338   5.822  1.3413  1.0094 -1.5065
 1706SOL    HW216581   3.467   2.460   5.819 -0.9137  0.3326  0.7007
 1707SOL     OW16582   2.851   2.584   2.736 -0.0015 -0.0641 -0.1259
 1707SOL    HW116583   2.945   2.600   2.731  0.2262 -0.9536  1.2058
 1707SOL    HW216584   2.844   2.490   2.720  0.2825 -0.0489 -0.3476
 1708SOL     OW16585   3.228   0.603   3.427 -0.5733 -0.0411  0.2700
 1708SOL    HW116586   3.319   0.581   3.411 -0.7980 -0.3686 -0.5736
 1708SOL    HW216587   3.239   0.698   3.426  1.3051 -0.2492  1.1545
 1709SOL     OW16588   2.143   1.130   3.131 -0.4420 -0.3729  0.3211
 1709SOL    HW116589   2.107   1.199   3.187  2.8702  0.2733  1.6402
 1709SOL    HW216590   2.229   1.160   3.105 -0.6472 -0.7144 -0.7239
 1710SOL     OW16591   0.474   0.913  12.837 -0.1569 -0.3984 -0.0967
 1710SOL    HW116592   0.508   1.001  12.848  2.1000 -1.4380  1.1255
 1710SOL    HW216593   0.542   0.859  12.799 -1.9359 -0.9772 -2.4538
 1711SOL     OW16594   3.971   0.009  12.157  0.5418  0.5343  0.3229
 1711SOL    HW116595   3.998   0.063  12.083  0.9992  0.4140  0.4038
 1711SOL    HW216596   4.011   4.648  12.144 -0.0410  0.2069  0.6623
 1712SOL     OW16597   1.266   4.373   2.514  0.3519  0.6914 -0.5698
 1712SOL    HW116598   1.324   4.395   2.442 -0.5603  1.9688 -0.9141
 1712SOL    HW216599   1.210   4.313   2.466 -1.2914 -0.3274  2.5735
 1713SOL     OW16600   4.355   0.819   7.862  0.4409 -1.0060  0.2902
 1713SOL    HW116601   4.445   0.827   7.829  0.6898  1.1978  1.5402
 1713SOL    HW216602   4.347   0.914   7.866  2.7967 -0.8600  1.8908
 1714SOL     OW16603   4.145   2.680  11.520  0.0973 -0.1107 -0.1219
 1714SOL    HW116604   4.099   2.597  11.504 -0.9484  0.4911 -0.2711
 1714SOL    HW216605   4.075   2.719  11.573  0.5834  1.2857 -0.5176
 1715SOL     OW16606   4.573   4.450   3.661  0.5511  0.0459  0.0003
 1715SOL    HW116607   4.516   4.460   3.585  1.1904 -1.7599 -0.7078
 1715SOL    HW216608   4.593   4.357   3.657 -1.4043 -0.3410 -0.7111
 1716SOL     OW16609   4.699   2.888   1.488 -0.2173  0.1493  0.2093
 1716SOL    HW116610   4.707   2.796   1.461  1.7553 -0.3911  2.5995
 1716SOL    HW216611   4.681   2.923   1.401 -0.6456 -0.2916  0.1235
 1717SOL     OW16612   3.308   4.053   6.061 -0.1688 -0.2249 -0.5930
 1717SOL    HW116613   3.353   4.138   6.054  1.3075 -1.1168 -1.8923
 1717SOL    HW216614   3.231   4.077   6.010 -0.5515  0.6215  0.3948
 1718SOL     OW16615   3.063   1.653  15.810 -0.3159 -0.0384 -0.2574
 1718SOL    HW116616   3.137   1.639  15.869 -0.4379 -2.6925 -0.7166
 1718SOL    HW216617   3.107   1.625  15.730 -0.1838  2.4824 -1.0792
 1719SOL     OW16618   3.101   3.573   2.954 -0.3359 -0.1012 -0.6921
 1719SOL    HW116619   3.131   3.608   2.870  3.4113  0.0360  0.7048
 1719SOL    HW216620   3.009   3.596   2.941 -0.3400  0.5392  0.4821
 1720SOL     OW16621   2.371   4.267  16.433  0.4097  0.2947 -0.0338
 1720SOL    HW116622   2.295   4.324  16.434 -1.5831 -2.3285 -3.0504
 1720SOL    HW216623   2.355   4.216  16.354 -0.8966  0.1631  0.3217
 1721SOL     OW16624   3.314   3.735   7.490 -0.1339  0.3301 -0.4276
 1721SOL    HW116625   3.363   3.653   7.501  1.2857  1.0545 -1.2468
 1721SOL    HW216626   3.386   3.793   7.515 -0.9088  0.2764  1.9411
 1722SOL     OW16627   0.558   1.022   8.643 -0.0672  0.3746 -0.1769
 1722SOL    HW116628   0.496   1.036   8.715 -1.1174  0.8605 -1.1660
 1722SOL    HW216629   0.609   1.102   8.652  1.9876 -0.7922 -1.4881
 1723SOL     OW16630   0.758   2.055   9.139  0.3031  0.2995 -0.1428
 1723SOL    HW116631   0.737   2.124   9.077 -4.3034 -1.8461 -1.0060
 1723SOL    HW216632   0.693   1.991   9.112 -0.7422  0.4347  2.0104
 1724SOL     OW16633   2.456   2.542   2.248 -0.8319 -0.2697  0.4803
 1724SOL    HW116634   2.432   2.470   2.189 -3.3183  1.0180 -0.0610
 1724SOL    HW216635   2.549   2.548   2.226 -1.1099 -0.2102 -0.6887
 1725SOL     OW16636   1.154   0.021   7.231  0.2071  0.4559  0.4380
 1725SOL    HW116637   1.191   0.102   7.195 -2.3602  0.8132 -1.3210
 1725SOL    HW216638   1.075   0.001   7.182 -0.6422 -0.2825  2.1126
 1726SOL     OW16639   2.844   3.484   1.811 -0.5726 -0.5447  0.7901
 1726SOL    HW116640   2.796   3.555   1.855  0.4036  0.0783  0.8631
 1726SOL    HW216641   2.921   3.538   1.791  0.0890 -2.1106 -0.8491
 1727SOL     OW16642   4.097   4.206   2.877 -0.4279 -0.1538 -0.2319
 1727SOL    HW116643   4.174   4.247   2.916 -0.2504  1.1712 -1.9720
 1727SOL    HW216644   4.029   4.229   2.941 -0.1365  1.3212 -0.4410
 1728SOL     OW16645   3.241   3.572   3.359  0.4037 -0.4681  0.1348
 1728SOL    HW116646   3.257   3.497   3.301 -0.1754 -0.4191 -0.0855
 1728SOL    HW216647   3.273   3.642   3.303  1.1947 -0.1463  1.0017
 1729SOL     OW16648   3.500   1.918   2.799  0.0454 -0.0068 -0.4050
 1729SOL    HW116649   3.473   1.832   2.831  1.6672 -0.1849  0.5118
 1729SOL    HW216650   3.495   1.962   2.884 -1.3068 -0.4565 -0.2606
 1730SOL     OW16651   2.319   1.544   5.793  0.0141 -0.4362  0.1263
 1730SOL    HW116652   2.246   1.549   5.732  1.5114 -0.8853 -1.6710
 1730SOL    HW216653   2.382   1.503   5.734  0.9232  2.6713 -1.0244
 1731SOL     OW16654   1.093   0.472   2.011 -0.1149 -0.6988  0.2805
 1731SOL    HW116655   1.184   0.461   2.039 -0.3568 -0.2597  1.2319
 1731SOL    HW216656   1.053   0.446   2.094 -1.1499 -2.1331 -0.6596
 1732SOL     OW16657   4.472   0.377   9.447  0.6720  0.1299 -0.2203
 1732SOL    HW116658   4.467   0.473   9.442 -0.3653  0.0269 -1.2397
 1732SOL    HW216659   4.437   0.358   9.360 -1.2203 -2.0334  1.0185
 1733SOL     OW16660   1.186   1.087   8.903  0.0698  0.4033 -0.8393
 1733SOL    HW116661   1.155   1.165   8.951  0.6824  1.7378 -2.6015
 1733SOL    HW216662   1.261   1.054   8.952 -0.9760  0.6911  0.9765
 1734SOL     OW16663   3.832   3.165   4.287  0.3662 -0.3770  0.1689
 1734SOL    HW116664   3.794   3.250   4.265 -1.2481 -1.6986 -2.1075
 1734SOL    HW216665   3.758   3.109   4.265 -0.4511  0.5351  0.5985
 1735SOL     OW16666   0.497   1.157   5.733  0.4210 -0.6963  0.2049
 1735SOL    HW116667   0.480   1.087   5.670  1.1303 -0.8819  0.2248
 1735SOL    HW216668   0.591   1.154   5.747  0.1835 -1.4499  1.7444
 1736SOL     OW16669   4.612   4.504  11.567 -0.6317  0.3300 -0.1575
 1736SOL    HW116670   4.557   4.583  11.575 -0.6822  0.1361  1.4028
 1736SOL    HW216671   4.648   4.505  11.479  0.7753  2.1313  0.4527
 1737SOL     OW16672   4.650   1.692  11.589  0.3972  0.4594  0.7134
 1737SOL    HW116673   4.624   1.673  11.679 -0.3878  1.1858  0.6442
 1737SOL    HW216674   0.021   1.705  11.598  0.5010 -0.1384  0.4629
 1738SOL     OW16675   3.874   3.696   0.608 -0.7167  0.4164  0.1884
 1738SOL    HW116676   3.914   3.767   0.558  1.6808  1.1911  3.2422
 1738SOL    HW216677   3.937   3.624   0.603 -1.3849 -0.0775 -1.1146
 1739SOL     OW16678   2.152   0.433   8.389  0.0064 -0.1161 -0.2745
 1739SOL    HW116679   2.106   0.465   8.311 -3.6809  0.5478  2.1504
 1739SOL    HW216680   2.162   0.339   8.373  0.3595 -0.0668 -0.3329
 1740SOL     OW16681   2.211   0.347   4.808 -0.3749 -0.0585  0.1575
 1740SOL    HW116682   2.146   0.395   4.756  1.5909  3.6654  1.0949
 1740SOL    HW216683   2.174   0.261   4.829 -0.4462  0.1047  0.6922
 1741SOL     OW16684   4.140   1.309  10.526  0.0716 -0.1376 -0.5285
 1741SOL    HW116685   4.116   1.217  10.537  0.8100 -0.3598 -0.7545
 1741SOL    HW216686   4.226   1.302  10.568  0.4954 -0.8522 -1.5251
 1742SOL     OW16687   3.836   4.088   5.876  0.4189 -0.2654 -0.3351
 1742SOL    HW116688   3.741   4.099   5.871  0.4704  1.2368  1.9637
 1742SOL    HW216689   3.859   4.179   5.858 -2.3235  0.8709  1.9819
 1743SOL     OW16690   2.947   1.176  17.097  0.5058 -0.4184  0.2438
 1743SOL    HW116691   3.035   1.175  17.059  0.4447  1.7939  0.0460
 1743SOL    HW216692   2.908   1.112  17.037  0.8513  0.4306 -0.8789
 1744SOL     OW16693   2.135   3.350   7.375 -0.3364  0.4170 -0.9222
 1744SOL    HW116694   2.040   3.340   7.384 -0.3630  1.4466  0.0108
 1744SOL    HW216695   2.167   3.340   7.464  0.6489 -0.2784 -1.3501
 1745SOL     OW16696   0.931   0.673  17.246  0.4638 -0.7132  0.9112
 1745SOL    HW116697   0.884   0.628  17.176  0.1950  1.7813 -0.5208
 1745SOL    HW216698   0.981   0.740  17.199  0.8062 -0.3895  1.7447
 1746SOL     OW16699   0.061   0.136  15.827  0.5457 -0.1348  0.2648
 1746SOL    HW116700   0.150   0.162  15.854  0.7321 -1.5779  1.0462
 1746SOL    HW216701   0.026   0.097  15.907  2.1567 -2.2415 -0.0635
 1747SOL     OW16702   3.959   3.662   7.773 -0.1932 -0.2950 -0.2476
 1747SOL    HW116703   3.892   3.598   7.800  0.9482 -1.4402 -0.1211
 1747SOL    HW216704   3.905   3.741   7.769 -1.2054 -0.9464  0.5678
 1748SOL     OW16705   0.823   3.784  14.515 -0.0237  0.6065  0.6635
 1748SOL    HW116706   0.818   3.869  14.558 -0.0030 -0.1515  2.1879
 1748SOL    HW216707   0.852   3.731  14.589  1.9238 -0.1724 -0.6435
 1749SOL     OW16708   0.727   2.953  16.987 -0.1650  0.7588  0.1733
 1749SOL    HW116709   0.720   2.957  17.083  0.8490 -0.0955  0.2761
 1749SOL    HW216710   0.808   2.912  16.958 -1.0311 -0.7720 -0.0608
 1750SOL     OW16711   1.668   3.049  13.443  0.2323  0.7227  0.0689
 1750SOL    HW116712   1.647   2.978  13.384 -0.7709  0.3612  0.8654
 1750SOL    HW216713   1.650   3.119  13.380  0.8113  1.6569  0.9359
 1751SOL     OW16714   2.470   1.503  15.250 -0.5076 -0.6206 -0.0853
 1751SOL    HW116715   2.555   1.471  15.221 -0.0609 -0.2303  0.8008
 1751SOL    HW216716   2.422   1.429  15.288  1.9554 -2.1098  0.1026
 1752SOL     OW16717   1.144   0.691  13.968 -1.1349  0.2931  0.5639
 1752SOL    HW116718   1.083   0.754  13.929  0.0965 -1.5429 -4.2604
 1752SOL    HW216719   1.073   0.645  14.013 -1.6084  0.3610 -0.1123
 1753SOL     OW16720   1.135   3.666  17.094 -0.4402 -0.0997  0.1215
 1753SOL    HW116721   1.054   3.622  17.070 -0.0252 -0.4944 -0.5606
 1753SOL    HW216722   1.181   3.661  17.010  0.2824 -0.1780  0.5267
 1754SOL     OW16723   3.391   1.831   4.473 -0.1849 -0.1148 -0.5106
 1754SOL    HW116724   3.383   1.925   4.458 -2.0470 -0.2530 -0.4012
 1754SOL    HW216725   3.322   1.791   4.420 -0.2388 -0.4851 -0.1623
 1755SOL     OW16726   1.251   4.018   6.255 -0.8479  0.3792  0.0378
 1755SOL    HW116727   1.184   3.963   6.215  0.1682  0.0270 -1.1834
 1755SOL    HW216728   1.332   3.973   6.231 -1.1201  0.0347 -0.2281
 1756SOL     OW16729   0.634   1.834  10.056 -0.2240 -0.6821 -0.0091
 1756SOL    HW116730   0.620   1.871  10.143 -0.4648  2.5176 -1.4202
 1756SOL    HW216731   0.615   1.919  10.016  1.0120  0.8867  2.7322
 1757SOL     OW16732   2.980   2.349   3.901  0.0190  0.0876  0.1462
 1757SOL    HW116733   3.031   2.386   3.829 -2.0492 -0.8789 -1.7814
 1757SOL    HW216734   2.956   2.264   3.865 -0.3257  0.0900  0.3670
 1758SOL     OW16735   4.308   2.513   0.804 -0.0021  0.6627  0.4028
 1758SOL    HW116736   4.354   2.477   0.880  0.6537 -0.0313 -0.3157
 1758SOL    HW216737   4.383   2.550   0.758 -0.2809  1.6116  0.7226
 1759SOL     OW16738   3.980   0.380   8.511  0.5041  0.5714  0.2511
 1759SOL    HW116739   3.980   0.475   8.497  0.9676  0.3695 -1.1263
 1759SOL    HW216740   3.908   0.376   8.574  1.6161 -1.0350  1.4156
 1760SOL     OW16741   1.249   3.066   6.477  0.0464  0.1241 -0.1898
 1760SOL    HW116742   1.258   3.085   6.571 -1.1288  2.6304 -0.5621
 1760SOL    HW216743   1.238   3.158   6.452  0.1961  0.1070 -0.3200
 1761SOL     OW16744   1.357   2.479   8.756  0.3197  0.5906 -0.2867
 1761SOL    HW116745   1.384   2.478   8.848 -0.3351 -1.0181 -0.1155
 1761SOL    HW216746   1.308   2.562   8.756 -1.3826 -0.4223 -0.3842
 1762SOL     OW16747   2.057   0.075   3.052  0.1979 -0.5538 -0.4744
 1762SOL    HW116748   2.096   0.162   3.050 -1.4413  0.2384  1.5049
 1762SOL    HW216749   2.140   0.028   3.060  0.2026 -0.6304 -0.9912
 1763SOL     OW16750   3.665   1.934   6.340 -0.1227  0.7211 -0.2350
 1763SOL    HW116751   3.602   1.872   6.376  0.8514 -0.4404 -0.5287
 1763SOL    HW216752   3.722   1.953   6.415 -2.3571 -0.7088  1.8069
 1764SOL     OW16753   1.708   0.835   8.064  0.0168  0.4586 -0.1699
 1764SOL    HW116754   1.795   0.838   8.023 -0.0568  0.5830 -0.3173
 1764SOL    HW216755   1.646   0.818   7.994 -0.7370 -0.3331  0.6921
 1765SOL     OW16756   0.609   3.654  12.666 -0.0932 -0.4800  0.2471
 1765SOL    HW116757   0.591   3.571  12.621 -0.6889  1.5705 -3.3249
 1765SOL    HW216758   0.701   3.641  12.690  0.0472  2.4607  1.1580
 1766SOL     OW16759   4.336   0.612   6.745  0.3745 -0.5906 -0.1756
 1766SOL    HW116760   4.407   0.550   6.758 -0.0477 -0.4083  3.1485
 1766SOL    HW216761   4.375   0.686   6.699 -1.4884  0.3954 -0.2068
 1767SOL     OW16762   0.593   0.278   2.933 -0.4075 -0.5403  0.4316
 1767SOL    HW116763   0.601   0.288   3.028  0.6682 -0.1089  0.2981
 1767SOL    HW216764   0.653   0.204   2.924 -1.1025 -1.0399 -0.1731
 1768SOL     OW16765   0.773   3.116  14.971 -0.1671  0.4953 -0.2238
 1768SOL    HW116766   0.717   3.190  14.948  0.6005  0.1505 -3.1734
 1768SOL    HW216767   0.823   3.152  15.045 -0.0320 -0.5253  0.1940
 1769SOL     OW16768   2.406   0.790  11.848  0.0718 -0.0824  0.2519
 1769SOL    HW116769   2.425   0.700  11.875  0.8973 -0.1328 -0.4818
 1769SOL    HW216770   2.490   0.832  11.829 -1.2095  1.9532 -0.9873
 1770SOL     OW16771   0.827   2.995   1.902  0.0961  0.4896 -0.0534
 1770SOL    HW116772   0.758   2.943   1.943  0.9673 -1.8234 -1.4641
 1770SOL    HW216773   0.898   2.930   1.909  0.4219  0.9109  0.4725
 1771SOL     OW16774   1.897   0.440  16.212 -0.4063  0.3794  0.1585
 1771SOL    HW116775   1.989   0.422  16.194 -0.6347 -0.1853 -0.4660
 1771SOL    HW216776   1.853   0.406  16.134  1.0432 -0.6825 -0.1877
 1772SOL     OW16777   3.822   4.315   2.540  0.1023 -0.1007  0.0284
 1772SOL    HW116778   3.834   4.370   2.618  0.8009 -1.0174  0.5583
 1772SOL    HW216779   3.775   4.378   2.485  0.9321 -0.2503 -0.8446
 1773SOL     OW16780   0.740   0.638   1.321 -0.5251 -0.1633 -0.2110
 1773SOL    HW116781   0.763   0.695   1.247 -0.3995 -1.9943 -1.5787
 1773SOL    HW216782   0.652   0.615   1.293 -1.1400  1.6676  0.1877
 1774SOL     OW16783   1.951   1.438   4.283  0.2285  0.1020 -0.6036
 1774SOL    HW116784   1.876   1.498   4.280  0.5545  0.5297 -0.0385
 1774SOL    HW216785   2.015   1.489   4.332 -0.3662 -0.4996  0.8139
 1775SOL     OW16786   0.243   3.343  15.719 -0.3658  0.0630 -0.2277
 1775SOL    HW116787   0.316   3.403  15.733 -1.4283  1.4718 -0.7551
 1775SOL    HW216788   0.275   3.292  15.644  0.3443  3.2152 -2.0768
 1776SOL     OW16789   3.394   3.191   1.776  0.4783  0.0079  0.2720
 1776SOL    HW116790   3.376   3.098   1.758 -2.7471  0.6947  0.0468
 1776SOL    HW216791   3.394   3.200   1.872  1.8643  1.3921  0.1400
 1777SOL     OW16792   3.977   1.477   7.850  0.0249  0.1508  0.3661
 1777SOL    HW116793   4.002   1.538   7.781 -1.4311  2.0376  1.5110
 1777SOL    HW216794   3.923   1.415   7.802  0.5486  2.2775 -2.9160
 1778SOL     OW16795   1.891   1.343   5.468  0.7728 -0.1136  0.2335
 1778SOL    HW116796   1.909   1.317   5.377 -0.6252 -0.5132  0.0664
 1778SOL    HW216797   1.964   1.296   5.508  1.5981 -0.0157 -1.1548
 1779SOL     OW16798   3.803   0.800  14.070  0.5414 -0.4158  0.0465
 1779SOL    HW116799   3.719   0.800  14.117  1.1782  2.2529  1.2219
 1779SOL    HW216800   3.848   0.726  14.112 -1.5075 -0.9739  1.2677
 1780SOL     OW16801   4.719   1.544  15.928 -0.2003 -0.0772 -0.5588
 1780SOL    HW116802   4.630   1.544  15.963  0.9578 -1.5231  2.3675
 1780SOL    HW216803   4.716   1.502  15.842  3.8177 -1.0618 -0.2456
 1781SOL     OW16804   2.585   0.185   6.124 -0.0881  0.1705 -0.4354
 1781SOL    HW116805   2.489   0.190   6.130 -0.0408  0.2084  0.3152
 1781SOL    HW216806   2.610   0.270   6.089  0.9915  0.1709  0.3575
 1782SOL     OW16807   1.420   1.367   6.815  0.0970 -0.0186  0.0345
 1782SOL    HW116808   1.377   1.355   6.730  0.7153  1.0751 -0.4278
 1782SOL    HW216809   1.349   1.381   6.877  0.4674 -0.1661  0.4915
 1783SOL     OW16810   3.804   3.451  15.347  0.0276 -0.2027 -0.5060
 1783SOL    HW116811   3.745   3.509  15.396  1.1829 -1.1708  2.0129
 1783SOL    HW216812   3.755   3.439  15.266  0.2101 -0.3483 -0.5923
 1784SOL     OW16813   3.459   2.893   3.057 -0.8341 -0.3304  0.2149
 1784SOL    HW116814   3.428   2.862   3.142 -1.3982 -0.5331 -0.0645
 1784SOL    HW216815   3.454   2.817   2.999  0.4136 -0.8501  0.7797
 1785SOL     OW16816   0.596   2.225   2.552 -0.0835  0.2321  0.2847
 1785SOL    HW116817   0.518   2.169   2.555  0.5695 -0.6684  0.2677
 1785SOL    HW216818   0.591   2.242   2.458 -2.9470 -0.9866  0.2023
 1786SOL     OW16819   1.989   4.020   5.265  0.2146  0.0388 -0.2519
 1786SOL    HW116820   2.067   4.037   5.213  1.3536  0.2763  1.5265
 1786SOL    HW216821   1.994   3.924   5.267 -2.0584 -0.0044  4.0760
 1787SOL     OW16822   1.863   3.411   9.901  0.6771  0.8951 -0.1653
 1787SOL    HW116823   1.872   3.374   9.989 -0.2827  0.6396 -0.1712
 1787SOL    HW216824   1.768   3.414   9.912  0.5044 -2.5430 -0.6563
 1788SOL     OW16825   3.363   4.313   6.693 -0.1374 -0.0401 -0.4499
 1788SOL    HW116826   3.350   4.309   6.788 -1.6895 -0.2746 -0.6783
 1788SOL    HW216827   3.278   4.348   6.667  1.0088  0.9677 -2.8145
 1789SOL     OW16828   2.069   2.877  12.940 -0.8141 -0.0931 -0.4144
 1789SOL    HW116829   2.021   2.813  12.888 -1.1244 -0.7174  0.6343
 1789SOL    HW216830   2.057   2.957  12.889  1.9678  0.5489 -0.0023
 1790SOL     OW16831   0.749   2.985   3.153 -0.3315 -0.0012 -0.4886
 1790SOL    HW116832   0.693   2.953   3.082 -2.2427  0.8496  0.6273
 1790SOL    HW216833   0.782   3.066   3.114  0.2848 -1.2473 -2.5335
 1791SOL     OW16834   0.813   3.792  16.713 -0.6637  0.4700 -0.4785
 1791SOL    HW116835   0.765   3.709  16.717 -0.0828  0.1307 -0.5875
 1791SOL    HW216836   0.747   3.840  16.662  1.5478  1.9971 -1.9037
 1792SOL     OW16837   2.948   1.445   8.539 -0.4371  0.0366 -0.1238
 1792SOL    HW116838   3.031   1.449   8.587  1.5084  0.7346 -3.5357
 1792SOL    HW216839   2.966   1.362   8.494  0.7860  0.8991 -1.2079
 1793SOL     OW16840   0.593   2.978   4.279 -0.4663  0.0752 -0.4261
 1793SOL    HW116841   0.615   2.995   4.188  2.0547  1.0085  0.3651
 1793SOL    HW216842   0.502   3.007   4.283 -0.3635  0.3332  0.0406
 1794SOL     OW16843   1.964   1.056   4.152 -0.3942 -0.0532  0.2659
 1794SOL    HW116844   1.962   0.971   4.109 -1.4324  0.2598 -0.3232
 1794SOL    HW216845   1.942   1.041   4.244  1.6988  1.4199  1.0046
 1795SOL     OW16846   2.180   1.843   6.367 -0.7433  0.5926  0.4608
 1795SOL    HW116847   2.166   1.925   6.319 -2.7409  0.2251  0.4146
 1795SOL    HW216848   2.231   1.883   6.437 -1.6050  0.9423  0.8921
 1796SOL     OW16849   4.547   0.380   9.813 -0.1857  0.7526  0.7156
 1796SOL    HW116850   4.480   0.417   9.870  0.1394  1.5443  0.5856
 1796SOL    HW216851   4.624   0.426   9.848  1.6974 -1.5883 -0.3407
 1797SOL     OW16852   2.204   2.584   0.337  0.3030 -0.5926 -0.7427
 1797SOL    HW116853   2.278   2.638   0.366 -0.0740 -0.9129  0.8302
 1797SOL    HW216854   2.264   2.509   0.331  0.2300 -0.4974 -2.6112
 1798SOL     OW16855   1.982   1.597   8.340 -0.4200  0.7067 -0.6842
 1798SOL    HW116856   1.992   1.690   8.357 -0.7498  0.0274  3.1447
 1798SOL    HW216857   2.013   1.585   8.250  3.7325 -1.7746  1.0797
 1799SOL     OW16858   2.226   1.126  10.012 -0.3419 -0.2493  1.0124
 1799SOL    HW116859   2.208   1.033  10.005  1.2263 -0.4699 -0.1706
 1799SOL    HW216860   2.137   1.157  10.029 -0.3206  0.7152 -0.6027
 1800SOL     OW16861   0.066   3.678   5.029 -0.3818  0.2939 -0.3857
 1800SOL    HW116862   0.036   3.614   5.095 -1.7322 -1.2713 -2.5275
 1800SOL    HW216863   0.136   3.632   4.984 -0.3825  0.3556 -0.4488
 1801SOL     OW16864   1.117   4.219   7.079 -0.1317 -0.5540  0.5570
 1801SOL    HW116865   1.149   4.176   6.999 -0.7655 -0.7929  0.4312
 1801SOL    HW216866   1.085   4.301   7.041 -0.2227 -0.0155  1.7910
 1802SOL     OW16867   2.004   2.580  14.746 -0.1308  0.2578 -0.6482
 1802SOL    HW116868   1.910   2.573  14.728 -0.3397  2.2957 -0.4246
 1802SOL    HW216869   2.015   2.676  14.746 -0.7712  0.3325 -0.7830
 1803SOL     OW16870   1.207   3.495   9.082  0.3407 -0.2272  0.0714
 1803SOL    HW116871   1.212   3.569   9.143  0.1443 -0.3239  0.2051
 1803SOL    HW216872   1.271   3.527   9.018  0.3263 -1.0269 -0.3466
 1804SOL     OW16873   2.210   0.389  12.034  0.8518  0.1168 -0.0911
 1804SOL    HW116874   2.190   0.481  12.053  2.2407 -0.0656  2.2688
 1804SOL    HW216875   2.152   0.348  12.098  1.3673 -0.7054 -0.1500
 1805SOL     OW16876   2.301   1.076   5.810 -0.2838  0.6693  0.1396
 1805SOL    HW116877   2.283   1.169   5.820 -0.1218  0.6559  0.5252
 1805SOL    HW216878   2.284   1.057   5.718 -0.6733  1.4565  0.0487
 1806SOL     OW16879   1.227   0.511  12.191  0.3525  0.0842  0.0297
 1806SOL    HW116880   1.147   0.508  12.138  0.7543 -0.5589 -0.5519
 1806SOL    HW216881   1.251   0.420  12.170 -0.4810 -0.3892  1.1422
 1807SOL     OW16882   3.275   4.180   4.141 -0.4415 -0.3933  0.4137
 1807SOL    HW116883   3.242   4.249   4.084 -1.2398 -0.0742  1.2534
 1807SOL    HW216884   3.243   4.201   4.229  1.0207 -0.1035  0.8775
 1808SOL     OW16885   2.418   0.281   1.402  0.0951  0.3039  0.3766
 1808SOL    HW116886   2.485   0.341   1.370  1.9837 -1.9383  0.1555
 1808SOL    HW216887   2.366   0.337   1.459 -0.1350 -3.9220  4.3200
 1809SOL     OW16888   1.830   2.407  13.110  0.1196  0.2905  0.1767
 1809SOL    HW116889   1.924   2.387  13.114 -0.1194 -0.7571  0.4860
 1809SOL    HW216890   1.795   2.326  13.146 -0.3288  0.6311  0.5050
 1810SOL     OW16891   1.097   2.840  17.506  0.2529 -0.4366  0.0993
 1810SOL    HW116892   1.181   2.882  17.526 -0.6908  1.0118  0.9762
 1810SOL    HW216893   1.092   2.867  17.415 -1.3691 -0.1513  0.2765
 1811SOL     OW16894   0.170   2.001   8.938  0.8101 -0.1650 -0.1510
 1811SOL    HW116895   0.221   2.008   8.858 -1.5963  2.2029 -1.4842
 1811SOL    HW216896   0.220   2.047   9.006  1.7221 -0.1991 -0.8067
 1812SOL     OW16897   1.127   0.412   2.697  0.2752 -0.2804 -0.1683
 1812SOL    HW116898   1.078   0.478   2.648  0.5961  0.1813  0.1376
 1812SOL    HW216899   1.138   0.458   2.781 -1.1449 -2.5468  1.2487
 1813SOL     OW16900   3.997   0.585   7.945 -0.1544  0.3144  0.0961
 1813SOL    HW116901   4.077   0.622   7.907  0.0610 -0.7941 -0.5413
 1813SOL    HW216902   4.014   0.582   8.040 -0.0248 -1.7649  0.0170
 1814SOL     OW16903   3.559   2.850   0.913  0.1017  0.4007 -0.0048
 1814SOL    HW116904   3.620   2.798   0.966 -2.2877 -1.2703  1.0842
 1814SOL    HW216905   3.593   2.938   0.933 -1.9499  1.2907 -0.4141
 1815SOL     OW16906   1.149   3.981  10.652  0.1823 -0.1372  0.3909
 1815SOL    HW116907   1.236   3.952  10.680 -0.4333 -2.8489 -0.5425
 1815SOL    HW216908   1.122   3.904  10.602 -0.9006  1.9029 -2.1424
 1816SOL     OW16909   1.179   3.873   6.506 -0.2897 -0.2095 -0.3704
 1816SOL    HW116910   1.244   3.811   6.539  1.2499  0.7265 -1.7353
 1816SOL    HW216911   1.175   3.858   6.412  2.8963  0.1212 -0.5282
 1817SOL     OW16912   3.304   2.628   1.153  0.8385  0.4045  0.3812
 1817SOL    HW116913   3.254   2.699   1.195 -0.1754 -0.6318  0.9347
 1817SOL    HW216914   3.376   2.620   1.216  0.7244  2.9401  0.8201
 1818SOL     OW16915   2.349   4.444   7.525 -0.2230 -0.1273 -0.3273
 1818SOL    HW116916   2.389   4.377   7.470  0.3831 -1.2755  1.5153
 1818SOL    HW216917   2.313   4.381   7.587  1.3800  1.4516  2.1677
 1819SOL     OW16918   0.454   4.035   2.748 -0.0826  0.1521  0.8419
 1819SOL    HW116919   0.413   3.984   2.818  0.7651 -1.4843  0.1595
 1819SOL    HW216920   0.400   4.007   2.674  1.5758 -0.0319 -0.2915
 1820SOL     OW16921   0.175   3.133  16.902 -0.4900  0.5859  0.0739
 1820SOL    HW116922   0.205   3.179  16.981  0.2031 -0.9238  0.6850
 1820SOL    HW216923   0.130   3.207  16.860 -0.4665  1.4473  1.5673
 1821SOL     OW16924   2.320   2.223   3.072 -0.0317  0.3855 -0.3660
 1821SOL    HW116925   2.324   2.308   3.028  1.2224 -1.0636 -3.0966
 1821SOL    HW216926   2.307   2.253   3.162 -1.5127  0.4169 -0.5893
 1822SOL     OW16927   3.820   4.584   8.007 -0.0776 -0.0485 -0.2553
 1822SOL    HW116928   3.788   4.522   8.073  1.0161 -1.2045 -0.8041
 1822SOL    HW216929   3.802   4.667   8.049 -1.4530 -1.2993  1.6263
 1823SOL     OW16930   3.979   2.833   1.544  0.2929  0.2544 -0.3103
 1823SOL    HW116931   3.903   2.785   1.512 -0.5305  1.8514 -0.7289
 1823SOL    HW216932   3.943   2.883   1.617 -1.9232  1.1689 -2.0485
 1824SOL     OW16933   0.971   4.302  12.997  0.4696 -0.0129 -0.4899
 1824SOL    HW116934   1.030   4.326  12.926 -0.2623 -0.5747 -1.2906
 1824SOL    HW216935   0.978   4.207  13.004  1.1225  0.2059  1.8076
 1825SOL     OW16936   3.279   3.814  10.935  0.0472  0.5639 -0.3825
 1825SOL    HW116937   3.209   3.750  10.947 -0.8493  1.5807 -0.2003
 1825SOL    HW216938   3.348   3.748  10.928 -0.1790  0.7619 -4.3317
 1826SOL     OW16939   1.023   0.034   5.006  0.5071  0.3940  0.9810
 1826SOL    HW116940   0.958   0.002   5.069 -1.2241 -0.3215 -1.1535
 1826SOL    HW216941   0.990   4.713   4.928 -1.0337 -1.4772  2.6860
 1827SOL     OW16942   2.016   1.719   5.971 -0.4291  0.1207  0.0639
 1827SOL    HW116943   1.941   1.738   6.028  0.0416 -0.3801  0.8459
 1827SOL    HW216944   2.092   1.716   6.029 -0.4479 -0.4729  0.0525
 1828SOL     OW16945   1.797   4.118   8.687 -0.0449 -0.2198  0.1385
 1828SOL    HW116946   1.808   4.039   8.739 -1.0383 -0.9760 -0.7970
 1828SOL    HW216947   1.828   4.090   8.601 -0.1123  0.3554 -0.0754
 1829SOL     OW16948   0.971   0.876  16.863 -0.1110 -0.1087  0.0630
 1829SOL    HW116949   1.063   0.869  16.839 -0.4688  0.2542 -1.3968
 1829SOL    HW216950   0.924   0.830  16.794  0.5964 -2.6431  1.2855
 1830SOL     OW16951   3.382   0.289   8.755 -0.5246 -0.0903  0.2366
 1830SOL    HW116952   3.399   0.196   8.738  4.3787  1.0846 -1.2300
 1830SOL    HW216953   3.357   0.286   8.847  1.7337  1.3285  0.8817
 1831SOL     OW16954   2.836   3.469   5.813 -0.2049  0.4481  0.3046
 1831SOL    HW116955   2.780   3.497   5.741 -1.2264  0.4425  1.1024
 1831SOL    HW216956   2.913   3.525   5.796 -0.7537  1.3306  0.7366
 1832SOL     OW16957   2.348   2.357  12.811 -0.4287  0.5130  0.0473
 1832SOL    HW116958   2.327   2.358  12.904  0.4982  2.1603  0.2491
 1832SOL    HW216959   2.420   2.421  12.815  0.1175  0.0466 -2.0694
 1833SOL     OW16960   1.657   0.415  17.427  0.5807  0.4522  0.0590
 1833SOL    HW116961   1.597   0.489  17.415 -0.1289 -0.3505 -1.4049
 1833SOL    HW216962   1.611   0.351  17.481 -1.6785 -0.1811 -2.6026
 1834SOL     OW16963   4.173   3.011  12.076 -0.3582  0.1080  0.1074
 1834SOL    HW116964   4.125   3.018  11.993 -1.3392 -1.2684  0.5624
 1834SOL    HW216965   4.102   2.977  12.129 -1.1704 -1.1990 -1.8017
 1835SOL     OW16966   0.067   4.320   5.415  0.2434  0.2565 -0.6120
 1835SOL    HW116967   0.115   4.287   5.492 -0.5538  0.7181  0.0821
 1835SOL    HW216968   0.142   4.362   5.371  0.8379 -0.2935 -0.1278
 1836SOL     OW16969   2.684   3.526   0.882  0.1584 -0.2047 -0.2224
 1836SOL    HW116970   2.659   3.478   0.960  1.0154  0.1815  0.2912
 1836SOL    HW216971   2.615   3.590   0.861  2.4523  2.1305 -0.6563
 1837SOL     OW16972   3.575   2.972   6.908 -0.1923 -0.3786  0.1056
 1837SOL    HW116973   3.537   3.003   6.826  0.2133 -0.6023 -0.1660
 1837SOL    HW216974   3.654   2.938   6.867  0.3742  0.9132  0.1308
 1838SOL     OW16975   0.483   2.845   5.834 -0.6136  0.4435  0.0902
 1838SOL    HW116976   0.566   2.845   5.787 -0.1113  1.1239  0.9992
 1838SOL    HW216977   0.430   2.805   5.764  0.2905 -0.4428 -0.0765
 1839SOL     OW16978   2.923   0.154   6.451  0.9266  0.2654  0.1630
 1839SOL    HW116979   2.960   0.181   6.535  0.3100 -1.4143  0.9870
 1839SOL    HW216980   2.866   0.227   6.426  1.5208  0.7156  0.1217
 1840SOL     OW16981   0.777   1.677   7.064  0.2469  0.0753 -0.4195
 1840SOL    HW116982   0.708   1.705   7.124  0.0719 -0.8383 -0.1954
 1840SOL    HW216983   0.837   1.751   7.053  0.7068 -0.1292  0.7432
 1841SOL     OW16984   0.317   2.340  10.438  0.1105  0.5597  0.5319
 1841SOL    HW116985   0.370   2.357  10.360  1.1502  1.5326  1.4476
 1841SOL    HW216986   0.239   2.290  10.415  0.9970 -0.1832 -0.8486
 1842SOL     OW16987   4.077   0.508   5.746 -0.5538 -0.4344  0.5139
 1842SOL    HW116988   4.157   0.466   5.714 -0.8645  0.6357 -1.7085
 1842SOL    HW216989   4.100   0.596   5.714 -0.9045 -1.1585 -1.7206
 1843SOL     OW16990   1.188   2.650   7.143  0.2781 -0.6664 -0.5869
 1843SOL    HW116991   1.257   2.615   7.199  1.1070  1.7436 -0.0970
 1843SOL    HW216992   1.122   2.684   7.203 -0.1191 -2.5573  0.0196
 1844SOL     OW16993   4.122   3.401  13.727  0.3476 -0.6459 -0.0013
 1844SOL    HW116994   4.089   3.429  13.812 -0.8430  0.1214 -0.7218
 1844SOL    HW216995   4.190   3.337  13.750  0.3622 -0.9751 -0.9636
 1845SOL     OW16996   0.222   3.576   0.521 -0.4219 -0.4152 -0.3040
 1845SOL    HW116997   0.184   3.512   0.581 -1.8671 -0.3354 -1.1362
 1845SOL    HW216998   0.273   3.516   0.466  1.7535  0.3481  0.8620
 1846SOL     OW16999   3.787   1.473   1.619 -0.1075  0.4567  0.2539
 1846SOL    HW117000   3.781   1.547   1.558 -0.7758 -0.8439 -1.2715
 1846SOL    HW217001   3.733   1.405   1.579 -0.4135 -0.8849  2.9521
 1847SOL     OW17002   3.656   1.891   5.695 -0.2424  0.5136 -0.3280
 1847SOL    HW117003   3.611   1.971   5.668 -2.2380  0.6505  3.3557
 1847SOL    HW217004   3.603   1.853   5.765 -0.3623 -2.2636 -1.9178
 1848SOL     OW17005   4.032   3.808  13.380  0.1325 -0.1653 -0.4998
 1848SOL    HW117006   4.052   3.723  13.418  0.1333  0.8462  1.7571
 1848SOL    HW217007   3.942   3.792  13.352  0.6123  2.1035 -3.4570
 1849SOL     OW17008   4.348   2.289   8.487  0.0473 -0.2413 -0.3809
 1849SOL    HW117009   4.322   2.322   8.401  0.2100  0.6840 -0.0640
 1849SOL    HW217010   4.443   2.285   8.479 -0.0385 -0.4770 -1.4018
 1850SOL     OW17011   4.481   4.015   5.162 -0.0088 -0.2234  0.0291
 1850SOL    HW117012   4.512   4.094   5.206 -0.4955  0.3083 -0.5851
 1850SOL    HW217013   4.564   3.981   5.127  0.3948 -1.0689  1.8373
 1851SOL     OW17014   2.330   4.025  13.772  0.6548 -0.0635 -0.0019
 1851SOL    HW117015   2.396   3.983  13.828  1.9742  0.6523 -1.0480
 1851SOL    HW217016   2.302   3.937  13.746 -2.1694  0.7519  0.3024
 1852SOL     OW17017   4.148   1.797  12.291 -0.4784  0.5390  0.3566
 1852SOL    HW117018   4.115   1.868  12.236  0.0737  0.5328  0.0197
 1852SOL    HW217019   4.110   1.720  12.249 -0.1738  0.9243 -0.6274
 1853SOL     OW17020   1.317   3.725  16.047 -0.2051 -0.4973 -0.8244
 1853SOL    HW117021   1.310   3.633  16.072 -0.0127 -0.3801 -0.3490
 1853SOL    HW217022   1.228   3.742  16.014 -1.0344  1.0931  2.2076
 1854SOL     OW17023   4.377   0.812   1.858 -0.4392 -0.1127  0.3999
 1854SOL    HW117024   4.365   0.795   1.764  0.6490  0.1609  0.2167
 1854SOL    HW217025   4.458   0.764   1.875 -0.7430  0.0206  2.2071
 1855SOL     OW17026   2.434   2.230   9.628  0.2799  0.2877 -0.0331
 1855SOL    HW117027   2.435   2.205   9.536 -0.3862 -0.5123  0.1812
 1855SOL    HW217028   2.373   2.163   9.659  0.9328 -0.9057 -1.3513
 1856SOL     OW17029   4.066   3.219   5.358  0.3416 -0.2653  0.1342
 1856SOL    HW117030   3.972   3.213   5.342  0.0950  0.5197  1.2948
 1856SOL    HW217031   4.075   3.179   5.444  3.5210 -1.0944 -0.5823
 1857SOL     OW17032   1.066   0.451   1.731  0.6043 -0.2326  0.0260
 1857SOL    HW117033   1.017   0.372   1.708  0.5452  0.1684 -1.1759
 1857SOL    HW217034   1.085   0.423   1.821  0.3009 -0.1495  0.1162
 1858SOL     OW17035   2.706   3.285   1.950  0.4355  0.2620 -0.5191
 1858SOL    HW117036   2.742   3.361   1.905  0.3588 -0.0020 -1.0344
 1858SOL    HW217037   2.623   3.286   1.901 -0.2643 -0.6310  0.6398
 1859SOL     OW17038   4.463   2.609   4.234  0.8143 -0.0791 -0.2391
 1859SOL    HW117039   4.408   2.681   4.267 -0.6029 -0.6840 -1.2592
 1859SOL    HW217040   4.507   2.570   4.309  1.2762  1.9032  0.5242
 1860SOL     OW17041   2.075   3.249   9.775 -0.7738  0.4107 -0.2159
 1860SOL    HW117042   2.066   3.344   9.787  2.5675  0.9090 -1.6535
 1860SOL    HW217043   2.167   3.241   9.752 -0.5217  0.2062  0.8535
 1861SOL     OW17044   0.640   2.184  10.261 -0.6898  0.6354  0.3083
 1861SOL    HW117045   0.720   2.145  10.225 -0.9910  1.5246 -1.3046
 1861SOL    HW217046   0.572   2.164  10.197 -0.2006  1.1479 -0.3693
 1862SOL     OW17047   3.831   3.946   7.439 -0.3815 -0.3846 -0.0531
 1862SOL    HW117048   3.905   3.966   7.382 -1.3161 -0.8466 -1.4209
 1862SOL    HW217049   3.764   3.925   7.375 -0.2290 -1.3478  0.1027
 1863SOL     OW17050   3.198   0.643   3.749  0.3549 -0.0107  0.1581
 1863SOL    HW117051   3.114   0.598   3.752 -0.5288  1.6789  0.5169
 1863SOL    HW217052   3.221   0.629   3.657 -1.4253 -0.7743 -0.1719
 1864SOL     OW17053   4.474   0.554  16.804 -0.2284 -0.0271 -0.5264
 1864SOL    HW117054   4.486   0.494  16.878  0.8786  1.4501  0.4907
 1864SOL    HW217055   4.558   0.600  16.807 -0.4821  0.4600 -0.9414
 1865SOL     OW17056   1.347   0.007   1.605 -0.2437  0.2622  0.1389
 1865SOL    HW117057   1.307   4.686   1.531 -1.0157 -1.8170  1.8529
 1865SOL    HW217058   1.359   0.100   1.582  3.1537 -0.0487  0.5696
 1866SOL     OW17059   0.208   2.261  15.110  0.4526 -1.3220 -0.0548
 1866SOL    HW117060   0.163   2.229  15.032  0.9090  0.4723 -1.0627
 1866SOL    HW217061   0.149   2.230  15.179 -3.3130 -0.4590 -2.8753
 1867SOL     OW17062   2.362   3.773  15.754  0.7456  0.1438  0.5166
 1867SOL    HW117063   2.316   3.822  15.686  0.8155  1.5759  1.5206
 1867SOL    HW217064   2.452   3.797  15.734  0.5711 -0.2765 -0.8205
 1868SOL     OW17065   1.482   1.739   6.732 -0.1928  0.4103  0.0686
 1868SOL    HW117066   1.544   1.761   6.662  0.0310 -0.0239  0.1320
 1868SOL    HW217067   1.545   1.738   6.805  0.7136  0.0841 -0.7245
 1869SOL     OW17068   3.423   3.590   8.609 -0.4792  0.1334 -0.0329
 1869SOL    HW117069   3.415   3.510   8.558  0.9302 -0.6115  0.9248
 1869SOL    HW217070   3.434   3.658   8.542 -1.7216  0.9689  0.5991
 1870SOL     OW17071   2.159   1.140   7.797 -0.5310 -0.2843  0.3177
 1870SOL    HW117072   2.146   1.208   7.864 -0.6605  0.8600 -0.8695
 1870SOL    HW217073   2.249   1.160   7.772 -0.7357  0.1113 -0.0965
 1871SOL     OW17074   1.266   0.221  10.506 -0.0139  0.7118 -0.7969
 1871SOL    HW117075   1.336   0.234  10.442  0.4584 -1.8183 -0.7980
 1871SOL    HW217076   1.267   0.127  10.491  2.1648  0.4248  1.0940
 1872SOL     OW17077   0.044   2.518  13.515  0.2131 -0.2148 -0.1313
 1872SOL    HW117078   4.719   2.513  13.597  0.1147  0.3834 -0.1555
 1872SOL    HW217079   4.707   2.569  13.462  2.2632  2.1712 -0.1822
 1873SOL     OW17080   2.026   0.402   4.349 -0.0603  0.1840  0.2128
 1873SOL    HW117081   2.072   0.336   4.297  0.9465  1.2636 -0.2588
 1873SOL    HW217082   2.007   0.363   4.434  0.0067  0.3882  0.3195
 1874SOL     OW17083   3.431   2.157   8.667 -0.5251 -0.3058 -0.3853
 1874SOL    HW117084   3.422   2.222   8.737  0.6821  0.1096 -0.6178
 1874SOL    HW217085   3.498   2.205   8.619 -0.3652  1.0703  1.1893
 1875SOL     OW17086   4.288   2.093  15.617 -0.1432 -0.4851 -0.5564
 1875SOL    HW117087   4.223   2.037  15.659 -0.6191  0.7865  0.3743
 1875SOL    HW217088   4.245   2.122  15.536  2.1811 -0.6792 -1.8598
 1876SOL     OW17089   4.224   4.140   1.279  0.5312  0.8788  0.0373
 1876SOL    HW117090   4.237   4.087   1.200 -1.3315  2.6814 -1.4744
 1876SOL    HW217091   4.128   4.137   1.273  0.6522 -0.1458 -1.3138
 1877SOL     OW17092   3.933   3.958   1.695  0.0856  0.1559 -0.0638
 1877SOL    HW117093   3.879   3.893   1.740 -0.5183 -0.6495 -1.9674
 1877SOL    HW217094   3.892   3.960   1.609 -0.8817  0.8016  0.4033
 1878SOL     OW17095   1.763   4.564   6.502 -0.2591  0.2680 -0.1007
 1878SOL    HW117096   1.725   4.605   6.425  1.9588  0.2965 -1.1747
 1878SOL    HW217097   1.700   4.555   6.574 -1.1287 -2.4966 -1.2236
 1879SOL     OW17098   4.398   0.190   1.175 -0.0929  0.2557  0.6205
 1879SOL    HW117099   4.434   0.276   1.197  0.3014  0.8466 -2.3253
 1879SOL    HW217100   4.401   0.196   1.079  2.8916 -3.3216  0.4993
 1880SOL     OW17101   0.016   4.060  12.161 -0.0503 -0.2522 -0.3894
 1880SOL    HW117102   0.090   4.038  12.105  0.0039 -0.1967 -0.3389
 1880SOL    HW217103   4.672   4.061  12.093  0.8476 -0.4125 -1.2804
 1881SOL     OW17104   3.817   2.700   4.167  0.3425 -0.2896  0.0819
 1881SOL    HW117105   3.736   2.652   4.186  1.2523 -1.5081  0.8872
 1881SOL    HW217106   3.883   2.655   4.219  0.9817 -1.1433 -1.4945
 1882SOL     OW17107   4.140   1.159   7.262  0.7909  0.0993  0.2016
 1882SOL    HW117108   4.166   1.078   7.216  2.8931 -0.2716  2.0711
 1882SOL    HW217109   4.216   1.209   7.290  1.3914 -0.1996 -0.8679
 1883SOL     OW17110   3.821   0.707   4.074  0.0688 -0.5356 -0.0948
 1883SOL    HW117111   3.739   0.662   4.055 -0.2204 -0.6031  1.3291
 1883SOL    HW217112   3.865   0.635   4.119  0.4570 -0.5716 -0.5288
 1884SOL     OW17113   2.750   3.736  17.068 -0.0312  0.3123  0.3303
 1884SOL    HW117114   2.742   3.823  17.108  0.3239  0.8475 -0.7489
 1884SOL    HW217115   2.669   3.736  17.015  1.1729 -0.0861 -1.5178
 1885SOL     OW17116   1.382   4.547  16.134  0.0535  0.0361  0.0198
 1885SOL    HW117117   1.357   4.498  16.056  0.4592 -0.8309  0.4421
 1885SOL    HW217118   1.476   4.545  16.117 -0.2715 -0.5968 -1.7732
 1886SOL     OW17119   4.163   1.535  10.136  0.0918  0.0270 -0.0306
 1886SOL    HW117120   4.091   1.506  10.193  1.6598 -5.4797 -0.8121
 1886SOL    HW217121   4.113   1.590  10.075  1.5300  1.3118 -0.0566
 1887SOL     OW17122   1.537   1.840   1.824 -0.4823  0.0410  0.1175
 1887SOL    HW117123   1.463   1.792   1.862  0.7699 -0.9991  1.2476
 1887SOL    HW217124   1.589   1.765   1.794 -2.6904 -0.5673 -2.2411
 1888SOL     OW17125   3.893   2.434  15.953  0.1631 -0.2448  0.2924
 1888SOL    HW117126   3.811   2.386  15.964  1.6235 -2.5606  1.0528
 1888SOL    HW217127   3.949   2.395  16.021 -2.0406 -0.6888  1.8432
 1889SOL     OW17128   4.098   2.188  14.090  0.4493 -0.1458  0.3498
 1889SOL    HW117129   4.030   2.209  14.026  0.8638  0.9134  0.2640
 1889SOL    HW217130   4.052   2.224  14.166  1.1038 -0.8921  1.1079
 1890SOL     OW17131   2.625   4.453  11.450 -0.0762 -0.0361  0.3045
 1890SOL    HW117132   2.623   4.424  11.541 -2.7878 -0.9149 -0.0270
 1890SOL    HW217133   2.653   4.371  11.411  0.5260 -0.1928  1.0755
 1891SOL     OW17134   4.091   3.529   6.260  0.4438 -0.0021 -0.3090
 1891SOL    HW117135   4.146   3.607   6.245  0.1838  0.7561  2.6832
 1891SOL    HW217136   4.044   3.530   6.177  1.0242  2.0240 -0.6237
 1892SOL     OW17137   2.490   4.527  15.545  0.4030 -0.3083 -0.5396
 1892SOL    HW117138   2.498   4.432  15.529 -0.3969 -0.5071  0.2576
 1892SOL    HW217139   2.401   4.531  15.579  0.4711  0.5345 -0.4595
 1893SOL     OW17140   3.369   2.507   8.642 -0.2561 -0.3115  0.4714
 1893SOL    HW117141   3.292   2.565   8.646 -0.9035 -1.0745 -0.9281
 1893SOL    HW217142   3.353   2.461   8.560  0.3493  0.3846 -0.0353
 1894SOL     OW17143   0.904   4.225   3.041 -0.2933 -0.2617 -0.0744
 1894SOL    HW117144   0.825   4.266   3.007  0.4125  1.3039  0.1707
 1894SOL    HW217145   0.956   4.303   3.022 -1.7127  0.5670 -0.5639
 1895SOL     OW17146   2.655   2.242   5.503 -0.1963 -0.4141 -0.0527
 1895SOL    HW117147   2.563   2.217   5.511  0.7936 -2.9154  3.5361
 1895SOL    HW217148   2.690   2.158   5.473 -1.4896 -0.8521 -0.3182
 1896SOL     OW17149   2.862   0.004  10.897  0.5015 -0.1366  0.8684
 1896SOL    HW117150   2.770   0.020  10.917  0.2967  0.5216 -0.5966
 1896SOL    HW217151   2.844   4.672  10.822  1.6645  2.3820 -1.2825
 1897SOL     OW17152   0.612   3.692   8.308 -0.0340 -0.3202  0.5772
 1897SOL    HW117153   0.601   3.720   8.218 -1.0434 -1.3711  0.3740
 1897SOL    HW217154   0.530   3.722   8.347 -0.8257 -0.2232 -1.2072
 1898SOL     OW17155   1.160   2.060  17.683  0.5535 -0.6676  0.1044
 1898SOL    HW117156   1.135   2.145  17.648 -0.5577 -1.1610 -0.2849
 1898SOL    HW217157   1.086   2.043   0.043 -1.3031  0.1425 -2.0582
 1899SOL     OW17158   1.805   3.011   3.754 -0.0397 -0.1104 -0.3972
 1899SOL    HW117159   1.856   2.936   3.725  1.6750  0.1242  1.9511
 1899SOL    HW217160   1.836   3.077   3.692 -0.5039  1.7750  1.3660
 1900SOL     OW17161   4.644   4.601  12.843 -0.1341  0.5892 -0.7071
 1900SOL    HW117162   4.554   4.634  12.842 -0.1188  0.6808  1.0124
 1900SOL    HW217163   4.693   4.682  12.857 -0.1934  0.4692  0.2119
 1901SOL     OW17164   3.521   3.970   5.568 -0.0755  0.4344  0.1346
 1901SOL    HW117165   3.448   3.910   5.581 -0.9888  1.0650 -1.9865
 1901SOL    HW217166   3.480   4.056   5.580 -0.1330  0.1213  2.2164
 1902SOL     OW17167   1.990   1.206  10.162 -0.1981 -0.1820  0.6354
 1902SOL    HW117168   1.952   1.158  10.235  1.1458 -0.9415  0.8310
 1902SOL    HW217169   1.907   1.229  10.120  0.1211  1.1036  0.7229
 1903SOL     OW17170   3.323   2.275   7.149 -0.0628  0.3623 -0.4864
 1903SOL    HW117171   3.386   2.207   7.173 -0.9117  0.1784  1.2325
 1903SOL    HW217172   3.370   2.338   7.095 -0.4187  0.6001 -0.5230
 1904SOL     OW17173   0.647   0.585  17.105 -0.5294 -0.0065 -0.2924
 1904SOL    HW117174   0.607   0.593  17.192 -0.4943 -0.8366 -0.2040
 1904SOL    HW217175   0.649   0.680  17.090  1.5951  0.0920  0.6603
 1905SOL     OW17176   1.768   1.866   4.995 -0.1033 -0.0600 -0.1956
 1905SOL    HW117177   1.734   1.908   5.075 -0.0948  0.7908 -0.6337
 1905SOL    HW217178   1.863   1.878   5.006 -0.2278  0.5094  0.2737
 1906SOL     OW17179   4.594   2.615  13.348 -0.3032 -0.2452 -0.3185
 1906SOL    HW117180   4.661   2.677  13.321 -0.3663 -1.0033 -2.2037
 1906SOL    HW217181   4.515   2.662  13.376 -0.9691 -0.2001 -2.2543
 1907SOL     OW17182   1.512   0.453   9.181 -0.0896  0.1065  0.3041
 1907SOL    HW117183   1.445   0.400   9.225  0.8387  0.1373  1.7582
 1907SOL    HW217184   1.577   0.387   9.154  0.6978  0.5734  1.0557
 1908SOL     OW17185   4.175   4.270   7.480 -0.0300  0.0342  0.3676
 1908SOL    HW117186   4.112   4.238   7.545  0.1453  1.1489  1.0941
 1908SOL    HW217187   4.206   4.348   7.527 -0.1037  0.7031 -0.6856
 1909SOL     OW17188   0.340   4.004   6.663  0.1289  0.3601  0.0178
 1909SOL    HW117189   0.318   4.058   6.738 -2.6911 -0.6698 -0.0771
 1909SOL    HW217190   0.418   4.044   6.623  0.1689 -1.2839 -1.5477
 1910SOL     OW17191   4.066   2.930   7.439 -0.0915 -0.1133  0.6807
 1910SOL    HW117192   4.116   2.876   7.378 -0.5238 -0.2446  0.4363
 1910SOL    HW217193   4.120   2.990   7.489  0.2403 -1.6698  2.1748
 1911SOL     OW17194   1.634   4.105   0.611 -0.3857 -0.2145 -0.3100
 1911SOL    HW117195   1.726   4.110   0.637 -0.7813  0.4094  0.9958
 1911SOL    HW217196   1.639   4.013   0.587  0.0442  0.0760 -1.3426
 1912SOL     OW17197   2.168   0.182   6.704  0.7770  0.6088 -0.0586
 1912SOL    HW117198   2.225   0.117   6.663  0.4029 -0.3481  0.9567
 1912SOL    HW217199   2.082   0.147   6.682  1.1527 -1.1484  1.2949
 1913SOL     OW17200   3.490   4.628  10.650 -0.4159  0.7684 -0.1409
 1913SOL    HW117201   3.550   4.603  10.580  0.6046  1.6734  0.4210
 1913SOL    HW217202   3.545   4.621  10.728 -2.8631 -1.8648  1.3551
 1914SOL     OW17203   4.209   4.247   6.914 -0.0447  0.5715  0.4006
 1914SOL    HW117204   4.225   4.172   6.971 -1.4928 -0.9058 -1.1729
 1914SOL    HW217205   4.116   4.236   6.899  0.1257  1.4660 -1.2964
 1915SOL     OW17206   4.318   2.416   1.665 -0.6481  0.4039 -0.1119
 1915SOL    HW117207   4.328   2.373   1.750 -3.7588  1.5752  0.8196
 1915SOL    HW217208   4.239   2.470   1.665  0.2035  1.6671 -1.8024
 1916SOL     OW17209   1.336   0.506   7.679 -0.1385  0.2879 -0.7284
 1916SOL    HW117210   1.355   0.597   7.702  2.9386 -0.4582 -0.2732
 1916SOL    HW217211   1.419   0.484   7.636  0.4242  4.9556 -1.9779
 1917SOL     OW17212   1.052   0.977   4.759  0.5792 -0.0892  0.3747
 1917SOL    HW117213   0.996   0.984   4.681  1.2169 -1.6324 -0.2367
 1917SOL    HW217214   1.112   1.050   4.743  1.2305 -0.7100 -0.0131
 1918SOL     OW17215   4.476   3.190   1.351  0.5247 -0.4854 -0.2329
 1918SOL    HW117216   4.534   3.240   1.408 -2.6032  1.9545  0.8131
 1918SOL    HW217217   4.474   3.232   1.265  0.6047  0.2500  0.1284
 1919SOL     OW17218   3.088   1.805   5.004  0.0728  0.0495 -0.5874
 1919SOL    HW117219   3.063   1.730   4.951  3.9880 -2.6528  1.3840
 1919SOL    HW217220   3.142   1.845   4.935  1.2523  0.5449  0.6218
 1920SOL     OW17221   2.443   0.474   1.122 -0.4470 -0.0095 -0.7637
 1920SOL    HW117222   2.484   0.508   1.202 -2.0085 -0.8917  0.3983
 1920SOL    HW217223   2.518   0.423   1.092 -1.4185 -1.9703  0.1692
 1921SOL     OW17224   2.084   2.098   4.402 -0.5354 -0.4135 -0.2142
 1921SOL    HW117225   2.024   2.077   4.474  1.6716 -0.1950  1.6763
 1921SOL    HW217226   2.138   2.168   4.438 -0.2194 -0.5806 -0.3695
 1922SOL     OW17227   3.292   0.576  13.781  0.0171  0.1729 -0.3316
 1922SOL    HW117228   3.205   0.579  13.741  0.0091 -1.3164 -0.4458
 1922SOL    HW217229   3.309   0.482  13.793  1.6907  0.5690  0.3671
 1923SOL     OW17230   3.805   1.997   7.924 -0.2043 -0.2341  0.0730
 1923SOL    HW117231   3.783   1.905   7.911 -1.6055  0.2056 -0.7973
 1923SOL    HW217232   3.755   2.036   7.851 -1.5904 -0.7444  0.7465
 1924SOL     OW17233   3.889   2.697   4.857 -0.0066 -0.1284  0.3811
 1924SOL    HW117234   3.984   2.703   4.846 -0.0758 -0.4383 -0.3321
 1924SOL    HW217235   3.884   2.677   4.951 -0.9461  0.6825  0.5047
 1925SOL     OW17236   3.784   3.762   4.371 -0.2754 -0.7690 -0.2895
 1925SOL    HW117237   3.754   3.795   4.287  0.8476  2.0896  0.4137
 1925SOL    HW217238   3.856   3.823   4.387 -1.1065  0.5651 -1.6352
 1926SOL     OW17239   3.812   2.483   6.754  1.0452  0.1946  0.2626
 1926SOL    HW117240   3.727   2.480   6.709 -0.0161 -0.4817  2.2998
 1926SOL    HW217241   3.861   2.549   6.706 -0.9255  1.4826  0.0108
 1927SOL     OW17242   2.516   2.754   3.385  0.1898  0.3352  0.5397
 1927SOL    HW117243   2.456   2.683   3.406 -1.3293  0.8891 -1.9678
 1927SOL    HW217244   2.479   2.796   3.307  2.3658  1.9544  0.3700
 1928SOL     OW17245   2.872   0.062  16.739  0.1121 -0.5649  0.1953
 1928SOL    HW117246   2.885   0.003  16.813 -0.6233 -1.0192 -0.0379
 1928SOL    HW217247   2.941   0.046  16.674  0.0226  2.2715 -0.5730
 1929SOL     OW17248   2.662   2.858   7.210  0.0853  0.1772 -0.7536
 1929SOL    HW117249   2.694   2.769   7.195 -0.4674 -0.0916 -0.3395
 1929SOL    HW217250   2.575   2.849   7.170  0.6543 -1.4016 -1.6568
 1930SOL     OW17251   4.288   2.533  17.532  0.0242 -0.6670 -0.3707
 1930SOL    HW117252   4.197   2.553  17.555  0.5868  1.8894 -0.4040
 1930SOL    HW217253   4.309   2.610  17.480 -0.6106 -0.4749 -0.3472
 1931SOL     OW17254   3.214   2.388   5.482  0.9039  0.1368  0.6661
 1931SOL    HW117255   3.167   2.358   5.560 -1.3808  0.8177 -0.4245
 1931SOL    HW217256   3.156   2.374   5.407 -1.2261 -0.6037  2.4440
 1932SOL     OW17257   3.366   3.853   4.599  0.1408 -0.0948  0.0562
 1932SOL    HW117258   3.451   3.851   4.643  0.1576  1.5828  0.0988
 1932SOL    HW217259   3.306   3.814   4.663 -0.1681 -1.1055 -0.8661
 1933SOL     OW17260   3.110   1.425   0.315  0.1179 -0.1445 -0.5902
 1933SOL    HW117261   3.117   1.371   0.394 -1.1584  0.3734 -0.1198
 1933SOL    HW217262   3.046   1.494   0.331  0.7690  0.7979 -2.0693
 1934SOL     OW17263   1.948   1.972   9.016  0.3351 -0.1213  0.2033
 1934SOL    HW117264   1.979   1.896   9.065  1.4508  1.7994  2.4639
 1934SOL    HW217265   2.013   2.039   9.038  1.4921 -0.2189 -2.8806
 1935SOL     OW17266   3.564   0.339   8.409 -0.2277  0.1759  0.5081
 1935SOL    HW117267   3.626   0.307   8.343 -1.4619 -0.2996 -0.4293
 1935SOL    HW217268   3.483   0.330   8.360 -0.3248 -1.5830  0.9839
 1936SOL     OW17269   2.665   2.339   3.532  0.8069 -0.2379  0.1540
 1936SOL    HW117270   2.702   2.307   3.450  1.7145 -0.1863  0.5427
 1936SOL    HW217271   2.592   2.278   3.543 -0.7227  1.7547  1.1817
 1937SOL     OW17272   2.284   1.556  14.134 -0.5009 -0.6165 -0.3923
 1937SOL    HW117273   2.228   1.561  14.211 -0.6438  1.3240 -0.6120
 1937SOL    HW217274   2.333   1.638  14.137 -0.8520 -0.4162 -0.1259
 1938SOL     OW17275   4.644   2.228  13.660 -0.0615  0.1558  0.0014
 1938SOL    HW117276   4.617   2.249  13.749  0.0523 -0.7607  0.2572
 1938SOL    HW217277   4.562   2.249  13.616 -0.6072 -3.2818 -0.6206
 1939SOL     OW17278   2.855   3.841   3.770 -0.6971 -0.4722 -0.1184
 1939SOL    HW117279   2.900   3.786   3.834  0.2407  2.0794  1.3869
 1939SOL    HW217280   2.777   3.788   3.754 -0.0511 -0.7134 -2.5943
 1940SOL     OW17281   4.402   4.363  12.753 -0.4549 -0.0880  0.4565
 1940SOL    HW117282   4.427   4.454  12.768  0.4102 -0.4148  1.0198
 1940SOL    HW217283   4.461   4.339  12.682  0.7739  1.2182  1.0228
 1941SOL     OW17284   1.578   0.602   4.888 -0.2834  0.0742  0.3801
 1941SOL    HW117285   1.655   0.549   4.910 -1.3181 -0.6321  2.3319
 1941SOL    HW217286   1.620   0.683   4.859 -0.5466 -0.5212 -1.6175
 1942SOL     OW17287   2.563   1.862   3.480  0.1094  0.2542 -0.2822
 1942SOL    HW117288   2.574   1.780   3.432 -1.8223 -1.0034  1.4502
 1942SOL    HW217289   2.484   1.894   3.436  1.4277  1.9533 -1.4342
 1943SOL     OW17290   0.522   2.981   2.726  0.3060 -0.4329  0.5408
 1943SOL    HW117291   0.470   2.953   2.650  2.0212  2.6650 -1.7462
 1943SOL    HW217292   0.549   3.068   2.696 -0.2458 -0.0922  1.0457
 1944SOL     OW17293   1.885   2.271   3.515 -0.2421 -0.1737 -0.2378
 1944SOL    HW117294   1.950   2.330   3.552 -2.9065  3.1714 -0.9411
 1944SOL    HW217295   1.903   2.297   3.425 -1.2033 -0.9785 -0.6636
 1945SOL     OW17296   4.070   0.061   4.782 -0.9876  0.1954 -0.3057
 1945SOL    HW117297   4.107   0.024   4.862  0.4736  1.1324 -0.5260
 1945SOL    HW217298   4.140   0.127   4.771 -1.3684  0.8962  1.5072
 1946SOL     OW17299   2.770   2.648   1.354  0.5733 -0.4785  0.3745
 1946SOL    HW117300   2.686   2.639   1.398  0.1468  0.6573 -0.2368
 1946SOL    HW217301   2.790   2.555   1.343 -0.6804 -0.6103 -0.7819
 1947SOL     OW17302   4.171   2.294   5.763  0.3855 -0.0293  0.0594
 1947SOL    HW117303   4.170   2.213   5.712  1.0011 -1.2890  2.0322
 1947SOL    HW217304   4.094   2.291   5.820  1.4042 -1.4284  1.3595
 1948SOL     OW17305   0.126   3.620  11.806  0.0383  0.4717  0.1599
 1948SOL    HW117306   0.192   3.566  11.850  0.8572 -0.0399 -1.6531
 1948SOL    HW217307   0.185   3.683  11.765  0.1805  1.1706  1.4401
 1949SOL     OW17308   1.722   3.423   6.026 -0.1206  0.0928  0.1458
 1949SOL    HW117309   1.727   3.498   5.966  1.1235 -1.3330 -1.5344
 1949SOL    HW217310   1.660   3.455   6.092 -1.0413 -0.4757 -0.4486
 1950SOL     OW17311   3.457   0.011   8.211  0.0127  0.0242 -0.3493
 1950SOL    HW117312   3.534   0.064   8.191  2.9492 -4.4702 -0.9565
 1950SOL    HW217313   3.402   0.073   8.259  1.0291  1.1137 -0.6173
 1951SOL     OW17314   3.210   4.460  11.217 -0.0511 -0.3975  0.0286
 1951SOL    HW117315   3.281   4.440  11.156 -1.1665 -0.9440 -1.0837
 1951SOL    HW217316   3.180   4.373  11.243 -1.8599 -0.1964 -1.3840
 1952SOL     OW17317   3.698   0.920   5.785 -0.1796  0.3486  0.0442
 1952SOL    HW117318   3.687   1.014   5.770 -2.8679  0.0267 -0.0413
 1952SOL    HW217319   3.685   0.892   5.694 -2.6430 -2.2622  1.2092
 1953SOL     OW17320   3.311   2.318   2.495  0.2853 -0.0489 -0.3288
 1953SOL    HW117321   3.216   2.330   2.486  0.4233  1.5461  0.3655
 1953SOL    HW217322   3.308   2.247   2.560 -0.0198 -0.1365 -0.4372
 1954SOL     OW17323   4.613   4.339   6.828  0.1317 -0.3601 -1.0986
 1954SOL    HW117324   4.673   4.359   6.756  0.2853  1.0660 -0.5750
 1954SOL    HW217325   4.532   4.335   6.776 -0.2134  0.1906 -0.6098
 1955SOL     OW17326   1.601   0.820   5.435  0.2980  0.2690 -0.2114
 1955SOL    HW117327   1.571   0.730   5.448  0.0545  0.3497 -0.2031
 1955SOL    HW217328   1.594   0.822   5.339  1.9335  1.3327 -0.2934
 1956SOL     OW17329   4.502   3.837   0.976  0.0860 -0.0352 -0.1748
 1956SOL    HW117330   4.453   3.863   1.054  0.1202 -0.6434  0.0470
 1956SOL    HW217331   4.594   3.848   1.001  0.1752 -0.5815 -0.2592
 1957SOL     OW17332   0.895   1.466  13.406  0.6004 -0.1393  0.0339
 1957SOL    HW117333   0.919   1.474  13.313 -2.7240 -0.4112 -0.8309
 1957SOL    HW217334   0.801   1.468  13.386  0.4126 -0.4058  0.9239
 1958SOL     OW17335   1.214   3.778   4.779  0.0624  0.4892  0.2146
 1958SOL    HW117336   1.121   3.787   4.759  0.0746  0.9274  0.3637
 1958SOL    HW217337   1.206   3.701   4.837  2.9835  1.0791  1.3913
 1959SOL     OW17338   3.776   0.786   7.062 -0.1019  0.2502  0.4908
 1959SOL    HW117339   3.686   0.818   7.070 -0.9189 -1.4690 -1.6841
 1959SOL    HW217340   3.813   0.859   7.013  0.4209  0.6539  1.4957
 1960SOL     OW17341   4.643   0.146  13.819  0.4697 -0.5107 -0.0140
 1960SOL    HW117342   4.721   0.194  13.848  1.5736 -0.7323 -2.5837
 1960SOL    HW217343   4.611   0.207  13.752  0.7767  2.1148  2.2157
 1961SOL     OW17344   1.294   0.160  14.301 -0.0312 -0.1104  0.0852
 1961SOL    HW117345   1.380   0.187  14.334  0.6649 -0.3737 -1.4928
 1961SOL    HW217346   1.313   0.076  14.260  0.2460 -0.8504  1.7430
 1962SOL     OW17347   4.712   1.435  17.657 -0.2772  0.3344  0.1347
 1962SOL    HW117348   0.007   1.354   0.005  0.3795  2.0041  2.8200
 1962SOL    HW217349   4.719   1.405  17.566 -0.6247  1.6879 -0.3391
 1963SOL     OW17350   1.083   4.229   8.714 -0.2938  0.3997  0.1658
 1963SOL    HW117351   1.105   4.303   8.770 -0.4984  0.6007 -0.0192
 1963SOL    HW217352   1.156   4.167   8.721 -0.4646  0.3810  1.6308
 1964SOL     OW17353   1.393   4.489   8.892 -0.2387 -0.1585  0.2699
 1964SOL    HW117354   1.478   4.515   8.857 -0.3654  1.0800  0.8888
 1964SOL    HW217355   1.351   4.573   8.912  0.7488  0.8706 -1.9972
 1965SOL     OW17356   0.898   3.048   5.956  0.1133  0.2642 -0.3266
 1965SOL    HW117357   0.950   3.124   5.984 -1.8837  0.8953  1.6752
 1965SOL    HW217358   0.852   3.076   5.876  1.4726 -1.9042 -1.8650
 1966SOL     OW17359   3.097   1.339  15.879  0.0878  0.0852  0.1573
 1966SOL    HW117360   3.144   1.264  15.844 -1.3168 -2.0061  2.7849
 1966SOL    HW217361   3.148   1.413  15.846 -0.8281  0.6957  0.0936
 1967SOL     OW17362   2.384   4.225   5.493 -0.9000  0.3376  0.2147
 1967SOL    HW117363   2.328   4.189   5.424 -2.1272  1.8351  0.4253
 1967SOL    HW217364   2.379   4.158   5.562 -1.7811  0.3988  0.2098
 1968SOL     OW17365   3.375   2.630   7.561  0.1071  0.8876  0.2483
 1968SOL    HW117366   3.450   2.682   7.590 -0.2559  2.0314 -0.8368
 1968SOL    HW217367   3.301   2.686   7.584 -0.0330  0.2568  1.3324
 1969SOL     OW17368   3.465   2.950   1.225  0.8866  0.3283 -0.2406
 1969SOL    HW117369   3.462   3.046   1.226 -0.6475  0.2778 -0.1752
 1969SOL    HW217370   3.376   2.923   1.202  0.6165  0.6144  0.4643
 1970SOL     OW17371   0.421   1.414   6.401  0.2114 -0.0100  0.3393
 1970SOL    HW117372   0.329   1.422   6.428 -0.2534 -0.6171 -1.0342
 1970SOL    HW217373   0.454   1.350   6.463 -0.8701  1.3283  2.3151
 1971SOL     OW17374   2.749   2.932   3.363  0.6565  0.2741 -0.0243
 1971SOL    HW117375   2.730   3.012   3.413 -0.7102 -1.6280  2.4901
 1971SOL    HW217376   2.674   2.877   3.385 -0.4424  1.6300 -0.3875
 1972SOL     OW17377   0.083   1.037   4.745 -0.0214  0.4025 -0.0166
 1972SOL    HW117378   0.040   1.056   4.829  1.6720  1.8964  0.5061
 1972SOL    HW217379   0.142   0.965   4.768 -2.4808 -1.2844  1.1278
 1973SOL     OW17380   2.127   0.613   2.700 -0.1581 -0.2807  0.1627
 1973SOL    HW117381   2.213   0.633   2.663 -1.0656 -0.6806 -2.2254
 1973SOL    HW217382   2.118   0.518   2.688  0.6938 -0.0686 -2.2692
 1974SOL     OW17383   1.090   0.307   4.741 -0.0275  0.1846 -0.1159
 1974SOL    HW117384   1.101   0.326   4.648  0.6890  1.7601  0.2851
 1974SOL    HW217385   1.165   0.253   4.766  0.1384 -0.3287 -1.7511
 1975SOL     OW17386   1.248   0.101   6.828 -0.1380  0.0293 -0.4747
 1975SOL    HW117387   1.179   0.083   6.765 -0.5821  1.4622 -0.3875
 1975SOL    HW217388   1.294   0.166   6.776  1.2682 -1.3653 -0.9915
 1976SOL     OW17389   0.731   4.624   2.866 -0.1694  0.1922 -0.8119
 1976SOL    HW117390   0.728   4.706   2.915 -0.7574 -0.1830 -0.2280
 1976SOL    HW217391   0.752   4.636   2.773 -1.7809  2.3863 -0.8979
 1977SOL     OW17392   3.848   1.456   6.093 -0.7219 -0.1040 -0.0168
 1977SOL    HW117393   3.864   1.370   6.131 -0.8778 -0.4814 -0.7905
 1977SOL    HW217394   3.775   1.432   6.035 -1.8001  1.6541  0.6095
 1978SOL     OW17395   4.099   3.160   5.635  1.3313 -0.6632  0.7154
 1978SOL    HW117396   4.018   3.172   5.684  1.9088  0.2160  1.4727
 1978SOL    HW217397   4.157   3.143   5.709  1.8692 -1.0969  0.2016
 1979SOL     OW17398   2.547   0.826   7.519  0.3769  0.4597 -0.0057
 1979SOL    HW117399   2.625   0.774   7.500  0.4796 -0.0187  1.7678
 1979SOL    HW217400   2.558   0.840   7.613 -2.0227 -1.6205  0.5951
 1980SOL     OW17401   3.680   1.694   6.641  0.3402 -0.1277  0.2765
 1980SOL    HW117402   3.753   1.633   6.627  0.8965  0.5521  0.1720
 1980SOL    HW217403   3.722   1.777   6.617 -0.9384  0.6807  0.8620
 1981SOL     OW17404   3.245   1.766  15.514  0.1346  0.5216  0.0589
 1981SOL    HW117405   3.266   1.857  15.492  0.8694  0.1747 -0.6894
 1981SOL    HW217406   3.318   1.721  15.472 -1.5121  0.0406 -2.2828
 1982SOL     OW17407   1.922   3.554  13.431 -0.2645  0.5205  0.0077
 1982SOL    HW117408   1.917   3.473  13.380 -1.0289 -1.2593  2.8949
 1982SOL    HW217409   2.015   3.558  13.452  0.0198 -3.3687 -0.5325
 1983SOL     OW17410   4.440   4.338   8.501 -0.1510 -0.1505  0.1000
 1983SOL    HW117411   4.502   4.278   8.460  0.6273 -0.0669  1.1574
 1983SOL    HW217412   4.461   4.318   8.592 -1.7238 -1.6034  0.1550
 1984SOL     OW17413   0.459   3.784   6.552  0.1836  0.8733  0.1824
 1984SOL    HW117414   0.405   3.852   6.594 -0.2995  0.6648 -0.0985
 1984SOL    HW217415   0.540   3.783   6.603 -0.8505 -2.2474  1.7034
 1985SOL     OW17416   0.215   4.579   5.687  0.0293  0.3240 -0.3111
 1985SOL    HW117417   0.303   4.546   5.668  0.2832  0.4730  0.6001
 1985SOL    HW217418   0.159   4.502   5.691 -0.0280  0.4452  1.2190
 1986SOL     OW17419   0.971   4.554   7.442  0.1173 -0.1860 -0.1403
 1986SOL    HW117420   0.961   4.534   7.535  0.2597 -0.2941 -0.1477
 1986SOL    HW217421   0.941   4.479   7.392 -1.8483 -1.1943  2.5878
 1987SOL     OW17422   1.968   4.498   6.341 -0.4208 -0.1174 -0.8370
 1987SOL    HW117423   2.048   4.518   6.390 -2.3181  4.1327  0.4338
 1987SOL    HW217424   1.913   4.525   6.414 -1.1241 -1.3991 -0.9005
 1988SOL     OW17425   3.633   3.478   8.830  0.3527  0.5906 -0.0353
 1988SOL    HW117426   3.580   3.508   8.757 -1.4514 -0.5162  0.8250
 1988SOL    HW217427   3.723   3.472   8.797 -0.1309 -0.6493 -1.1506
 1989SOL     OW17428   0.778   4.398   3.727 -0.0313  0.1104 -0.0558
 1989SOL    HW117429   0.736   4.343   3.662  0.9057 -0.4559 -0.1794
 1989SOL    HW217430   0.846   4.444   3.677  0.3754 -0.6873 -0.2418
 1990SOL     OW17431   1.205   1.251   2.537 -0.0553  0.3155  0.3389
 1990SOL    HW117432   1.203   1.163   2.499  1.3002  0.1413  0.6919
 1990SOL    HW217433   1.113   1.249   2.562 -0.0230  1.8286  0.5519
 1991SOL     OW17434   2.731   1.425  13.480 -0.2762  0.1859  0.9886
 1991SOL    HW117435   2.759   1.514  13.458  1.5170 -0.5675  0.1680
 1991SOL    HW217436   2.646   1.448  13.516 -1.0964 -1.4935  0.0969
 1992SOL     OW17437   3.188   3.260   5.122  0.0146 -0.2395 -0.5419
 1992SOL    HW117438   3.113   3.314   5.098  0.6585  1.9371  2.3425
 1992SOL    HW217439   3.147   3.181   5.157  0.0998  0.0687  0.2316
 1993SOL     OW17440   1.294   0.989   3.889 -1.1097  0.0115  0.1616
 1993SOL    HW117441   1.351   1.051   3.934 -0.3647 -0.3800 -0.2567
 1993SOL    HW217442   1.307   0.919   3.953 -0.2962  0.4114  0.4292
 1994SOL     OW17443   0.332   3.030   8.272  0.2887 -0.1021 -0.5405
 1994SOL    HW117444   0.305   2.995   8.357  1.7730 -3.2244 -1.3466
 1994SOL    HW217445   0.414   3.079   8.286  0.3862 -0.4128 -0.0291
 1995SOL     OW17446   4.572   0.684   0.454 -0.0203  0.3245  0.1087
 1995SOL    HW117447   4.657   0.701   0.495  0.5665 -0.4084 -0.8172
 1995SOL    HW217448   4.522   0.766   0.454  0.2790  0.5032 -0.7228
 1996SOL     OW17449   1.162   3.064   4.718  0.5211 -0.5199  0.1710
 1996SOL    HW117450   1.083   3.114   4.696  0.1683 -1.8258 -1.5536
 1996SOL    HW217451   1.154   2.978   4.677  0.3004 -0.5471  0.2756
 1997SOL     OW17452   4.126   1.303   6.031 -0.1871 -0.0591  0.3118
 1997SOL    HW117453   4.082   1.298   6.116  0.4938 -0.7918  0.6259
 1997SOL    HW217454   4.063   1.257   5.976 -0.7415 -0.5806  1.3799
 1998SOL     OW17455   0.388   0.528   3.159  0.0828 -0.1877  0.1093
 1998SOL    HW117456   0.317   0.523   3.223 -1.3852  0.8053 -1.4591
 1998SOL    HW217457   0.431   0.445   3.180  0.9372  0.3971  0.6779
 1999SOL     OW17458   4.148   3.904   0.730 -0.1447  0.1648  0.2344
 1999SOL    HW117459   4.232   3.864   0.755  0.5435  0.6653 -1.2527
 1999SOL    HW217460   4.130   3.863   0.645 -2.3205  0.4133  0.5946
 2000SOL     OW17461   1.617   3.164   0.717 -0.3633  0.3668 -0.6778
 2000SOL    HW117462   1.673   3.142   0.792  0.3679  1.6807 -0.8352
 2000SOL    HW217463   1.537   3.178   0.769  0.5743 -1.9266  1.4226
 2001SOL     OW17464   2.709   1.076  15.257  0.3676 -0.9140 -0.0651
 2001SOL    HW117465   2.777   1.135  15.291  0.5633 -1.3891  0.3710
 2001SOL    HW217466   2.698   1.107  15.167 -2.4126 -0.5471  0.4072
 2002SOL     OW17467   1.009   2.389   8.696  0.4791  0.1021 -0.3134
 2002SOL    HW117468   0.918   2.415   8.709  0.5275 -0.8929  1.9671
 2002SOL    HW217469   1.038   2.433   8.616 -0.0712 -1.2473 -1.2398
 2003SOL     OW17470   1.997   0.132   1.394  0.3871 -0.2724  0.6177
 2003SOL    HW117471   2.045   0.150   1.474 -1.6229  3.2995  1.0174
 2003SOL    HW217472   1.991   0.219   1.355 -2.3036 -0.5501  0.3735
 2004SOL     OW17473   2.615   2.848  16.500  0.3046  0.1586 -0.6336
 2004SOL    HW117474   2.531   2.891  16.481  0.0938  0.6014  1.2709
 2004SOL    HW217475   2.669   2.927  16.504 -1.0835  1.1326 -0.8682
 2005SOL     OW17476   4.245   2.595   5.982  0.5652  0.2681  0.7193
 2005SOL    HW117477   4.239   2.689   5.965  0.8902  0.2655  0.5909
 2005SOL    HW217478   4.167   2.565   5.936  1.1551  1.2685 -0.9299
 2006SOL     OW17479   2.559   3.712   3.770  0.0278 -0.8707 -0.4662
 2006SOL    HW117480   2.468   3.693   3.748  0.1402 -2.3070  0.3287
 2006SOL    HW217481   2.582   3.759   3.690 -1.7527  0.9057  0.0965
 2007SOL     OW17482   2.432   1.047   9.064 -0.0580  0.1052  0.3578
 2007SOL    HW117483   2.373   1.068   9.137 -1.5471 -1.3767 -0.4040
 2007SOL    HW217484   2.420   0.953   9.049  1.7450 -0.2378  1.0431
 2008SOL     OW17485   4.309   2.932  15.103 -0.0190  0.5847 -0.0948
 2008SOL    HW117486   4.372   2.879  15.054 -3.2880 -1.3330 -2.2883
 2008SOL    HW217487   4.232   2.917  15.048  1.1677 -0.7059 -1.4332
 2009SOL     OW17488   2.782   3.165   6.142  0.4020  0.2705 -0.1749
 2009SOL    HW117489   2.842   3.205   6.079  1.1740 -0.9424 -0.2186
 2009SOL    HW217490   2.715   3.232   6.132  0.8441  0.6945 -0.3031
 2010SOL     OW17491   4.250   3.891   7.548 -0.1165  0.5551 -0.3772
 2010SOL    HW117492   4.282   3.888   7.459  1.3116  0.4179  0.1498
 2010SOL    HW217493   4.233   3.983   7.568  0.1329  0.9632 -2.0791
 2011SOL     OW17494   3.543   3.860   1.448  0.1518  0.1468 -0.0130
 2011SOL    HW117495   3.555   3.879   1.541 -1.2486  1.4223 -0.0940
 2011SOL    HW217496   3.554   3.765   1.439  1.3070  0.3536 -0.7689
 2012SOL     OW17497   3.061   3.338  17.473 -0.0575 -0.7756  0.0838
 2012SOL    HW117498   3.053   3.430  17.446  2.5417 -1.0590 -1.6952
 2012SOL    HW217499   2.976   3.337  17.517 -0.7203 -2.5190 -1.2596
 2013SOL     OW17500   3.996   2.766   6.168 -0.0187 -0.2309  0.5407
 2013SOL    HW117501   4.031   2.855   6.167  1.5944 -0.8833 -0.6761
 2013SOL    HW217502   4.030   2.734   6.085 -0.3109  0.6103  0.0918
 2014SOL     OW17503   1.677   1.720   8.577  0.0655 -0.0478 -0.0844
 2014SOL    HW117504   1.610   1.663   8.615  0.6925 -1.4127 -1.0332
 2014SOL    HW217505   1.734   1.735   8.652 -0.2929  1.7240 -0.1520
 2015SOL     OW17506   1.258   2.165   8.877 -0.1823 -0.0662 -0.1769
 2015SOL    HW117507   1.226   2.146   8.788  0.1146  0.7684 -0.4513
 2015SOL    HW217508   1.338   2.113   8.866 -0.7942 -0.7949 -1.1954
 2016SOL     OW17509   2.393   4.210   6.713 -0.2700 -0.1388 -0.2967
 2016SOL    HW117510   2.441   4.139   6.669  0.7880  0.4083 -0.0081
 2016SOL    HW217511   2.430   4.208   6.801  1.2139 -2.8046 -0.9834
 2017SOL     OW17512   3.213   0.373   4.677  0.0400 -0.1115 -0.2974
 2017SOL    HW117513   3.214   0.399   4.585 -2.3848 -0.6433 -0.4551
 2017SOL    HW217514   3.270   0.296   4.674  1.5756  0.9483  1.2713
 2018SOL     OW17515   1.361   1.137   9.458 -0.3582  0.0020  0.4993
 2018SOL    HW117516   1.304   1.129   9.535 -0.0286 -0.1993  0.7266
 2018SOL    HW217517   1.408   1.054   9.464 -1.1079 -0.5826 -1.9159
 2019SOL     OW17518   1.590   1.384   3.842  0.4355 -0.4294 -0.2836
 2019SOL    HW117519   1.685   1.373   3.846  0.6251  0.3859 -2.3232
 2019SOL    HW217520   1.565   1.313   3.783  0.5669  0.0219 -0.8864
 2020SOL     OW17521   2.401   0.734   1.823  0.1534 -0.2266  0.0891
 2020SOL    HW117522   2.475   0.699   1.873  1.0813  0.9085 -0.4844
 2020SOL    HW217523   2.430   0.713   1.735 -3.3544 -0.9455 -0.9007
 2021SOL     OW17524   2.185   2.285   4.570 -0.0787  0.1268 -0.4567
 2021SOL    HW117525   2.172   2.252   4.659 -2.2839 -1.1481 -1.2613
 2021SOL    HW217526   2.178   2.380   4.580 -1.1428  0.1092 -0.9803
 2022SOL     OW17527   0.593   1.603  15.809 -0.8091 -0.2060  0.6100
 2022SOL    HW117528   0.584   1.518  15.765  0.8523  0.8159 -1.7274
 2022SOL    HW217529   0.510   1.645  15.787  0.5700  2.2282  0.1121
 2023SOL     OW17530   1.220   4.400  12.889 -0.3800  0.2551 -0.2729
 2023SOL    HW117531   1.221   4.494  12.873 -3.2209  0.1505 -1.0088
 2023SOL    HW217532   1.235   4.399  12.984 -3.8353 -0.2291  0.2530
 2024SOL     OW17533   0.833   2.374   5.842 -0.0408 -0.2142 -0.0650
 2024SOL    HW117534   0.875   2.363   5.756  0.0980  1.6286 -0.2266
 2024SOL    HW217535   0.798   2.285   5.852  0.7432 -0.6381 -1.0448
 2025SOL     OW17536   3.529   0.690   7.442  0.3890  0.2617  0.6284
 2025SOL    HW117537   3.566   0.636   7.372 -0.7509 -1.2991  1.2124
 2025SOL    HW217538   3.584   0.768   7.448  1.5743 -0.4614 -0.7310
 2026SOL     OW17539   2.793   3.329   4.760 -0.2713 -0.6782  0.0853
 2026SOL    HW117540   2.721   3.270   4.738  0.1498 -0.5132 -1.7446
 2026SOL    HW217541   2.756   3.412   4.732 -1.1769 -1.8697 -2.2093
 2027SOL     OW17542   2.935   1.842   5.920  0.1207 -0.2956 -0.1256
 2027SOL    HW117543   2.907   1.767   5.971  1.7061  0.4242  1.8004
 2027SOL    HW217544   2.853   1.892   5.921 -0.0770 -0.6193 -0.3072
 2028SOL     OW17545   4.627   1.710   7.288  0.0153 -0.2518  0.1340
 2028SOL    HW117546   4.545   1.708   7.337 -0.4985 -2.4770 -0.8393
 2028SOL    HW217547   4.679   1.662   7.353 -0.2717  0.4836  0.9024
 2029SOL     OW17548   0.499   3.169  10.412  0.2159  0.3690  0.3708
 2029SOL    HW117549   0.568   3.141  10.352 -1.5163 -0.1891 -1.3772
 2029SOL    HW217550   0.429   3.200  10.354  0.0721 -2.5225 -0.9748
 2030SOL     OW17551   1.171   1.627   5.875 -0.3651  1.2246  0.0445
 2030SOL    HW117552   1.205   1.708   5.837  0.2109  0.6450 -0.6709
 2030SOL    HW217553   1.193   1.646   5.967  0.5353  0.3157  0.0180
 2031SOL     OW17554   0.846   0.538   2.615 -0.1243  0.1132  0.1977
 2031SOL    HW117555   0.891   0.612   2.656 -2.9329  1.4315  0.8891
 2031SOL    HW217556   0.768   0.582   2.582  0.5819  1.3532  0.2027
 2032SOL     OW17557   4.691   4.600   2.806 -0.5434 -0.0494  0.0618
 2032SOL    HW117558   4.722   4.575   2.893  0.1016 -1.5380 -0.6034
 2032SOL    HW217559   0.037   4.646   2.760 -1.9242  0.4017 -1.6284
 2033SOL     OW17560   3.373   1.557   8.496  0.2409 -0.0587 -0.5385
 2033SOL    HW117561   3.375   1.567   8.400 -2.2059  1.8477 -0.3838
 2033SOL    HW217562   3.418   1.637   8.524  0.4512  0.2588 -1.7802
 2034SOL     OW17563   4.033   4.083   6.062 -0.1896 -0.6656 -0.0572
 2034SOL    HW117564   4.021   4.143   6.136  1.6127 -2.8162  1.9580
 2034SOL    HW217565   3.955   4.094   6.007  2.7963  3.5885 -3.4402
 2035SOL     OW17566   4.590   4.651   4.306  0.1590 -0.5231  0.6560
 2035SOL    HW117567   4.530   4.634   4.234 -1.3168  1.0985  1.4972
 2035SOL    HW217568   4.551   4.618   4.387  0.9106 -0.8091  0.9056
 2036SOL     OW17569   2.357   0.333  14.283  0.1141  0.0636 -0.0686
 2036SOL    HW117570   2.310   0.325  14.200  1.1101 -2.5508 -0.3433
 2036SOL    HW217571   2.376   0.427  14.285  0.1063  0.0343  1.1510
 2037SOL     OW17572   2.174   2.755   4.838  0.0976 -0.7161 -0.0220
 2037SOL    HW117573   2.219   2.801   4.910 -1.5770  0.1104  0.4787
 2037SOL    HW217574   2.123   2.826   4.802 -0.1591 -0.1389  1.4815
 2038SOL     OW17575   1.256   3.901   4.529 -0.2901 -0.0624  0.4409
 2038SOL    HW117576   1.264   3.862   4.616 -0.5646 -2.3354 -0.5650
 2038SOL    HW217577   1.347   3.899   4.498 -1.0046 -0.6265 -1.6498
 2039SOL     OW17578   1.422   4.529  14.356  0.0576  0.4815  0.6218
 2039SOL    HW117579   1.437   4.439  14.328 -0.6281 -0.1617  2.3042
 2039SOL    HW217580   1.398   4.566  14.272 -0.6568  0.3022  0.7508
 2040SOL     OW17581   0.094   2.789   6.478  0.2924 -0.5508 -0.0301
 2040SOL    HW117582   0.084   2.700   6.446 -2.2775  0.7797 -2.8571
 2040SOL    HW217583   0.178   2.806   6.436  1.5852 -1.7942  2.0468
 2041SOL     OW17584   4.581   2.173   7.757 -0.6093  0.5546 -0.1534
 2041SOL    HW117585   4.540   2.185   7.843  1.0684  1.6907  0.4832
 2041SOL    HW217586   4.508   2.130   7.713 -0.3873  1.2749 -1.2265
 2042SOL     OW17587   0.532   2.143  10.590 -0.3138  0.5617  0.6702
 2042SOL    HW117588   0.457   2.103  10.633 -2.1521  1.1793 -1.9494
 2042SOL    HW217589   0.509   2.235  10.605  1.0567  0.6937  1.9951
 2043SOL     OW17590   1.591   3.728  11.773 -0.6439 -0.7060  0.2416
 2043SOL    HW117591   1.498   3.741  11.757 -0.2703  1.6017 -0.0589
 2043SOL    HW217592   1.611   3.659  11.711  0.9278 -2.1266  2.3173
 2044SOL     OW17593   4.498   2.493  16.055 -0.4521 -0.0531  0.3737
 2044SOL    HW117594   4.430   2.456  16.111 -2.3401  1.9486 -0.5649
 2044SOL    HW217595   4.442   2.563  16.020 -1.2162  0.0466  1.7845
 2045SOL     OW17596   4.593   0.851   2.225  0.0003  0.4912  0.0200
 2045SOL    HW117597   4.659   0.899   2.275  0.0418 -2.6080  2.9382
 2045SOL    HW217598   4.648   0.844   2.148 -1.3389  0.8744 -0.9736
 2046SOL     OW17599   1.030   0.084   9.060 -0.2410  0.4541  0.2599
 2046SOL    HW117600   1.023   0.154   8.995  0.1122  1.1040  0.9244
 2046SOL    HW217601   0.966   0.115   9.124 -2.2886  0.0371 -1.5773
 2047SOL     OW17602   4.682   4.332  16.877 -0.4701 -0.4448 -0.1390
 2047SOL    HW117603   0.033   4.313  16.820  0.0006  0.0160  0.3261
 2047SOL    HW217604   4.693   4.425  16.897  0.4857 -1.0904  2.3377
 2048SOL     OW17605   3.934   4.567   6.913  0.4762  0.0333 -0.3152
 2048SOL    HW117606   3.874   4.494   6.926 -0.0088  0.5658  0.4587
 2048SOL    HW217607   3.868   4.636   6.906  1.6718  1.4455  2.4300
 2049SOL     OW17608   3.182   3.206   8.084 -0.3126 -0.1679  0.0421
 2049SOL    HW117609   3.094   3.189   8.049  0.3482 -3.4070 -0.0448
 2049SOL    HW217610   3.240   3.185   8.011  0.7572 -0.4853  0.9905
 2050SOL     OW17611   0.343   2.360   7.799 -0.8795  0.0274 -0.4952
 2050SOL    HW117612   0.255   2.363   7.838 -0.5219 -1.5320  0.4218
 2050SOL    HW217613   0.353   2.448   7.762  1.8103  0.5276  1.4220
 2051SOL     OW17614   3.464   1.622  15.433 -0.0236  0.1873 -0.6106
 2051SOL    HW117615   3.539   1.645  15.379  0.9828 -0.2145  0.5942
 2051SOL    HW217616   3.494   1.538  15.469  0.1822 -0.0921 -1.4517
 2052SOL     OW17617   4.511   1.736   5.956  0.2713  0.4959 -0.0352
 2052SOL    HW117618   4.477   1.809   6.008 -0.5802  0.2708 -0.2606
 2052SOL    HW217619   4.451   1.730   5.882  2.0306 -1.5260 -1.2921
 2053SOL     OW17620   0.365   3.126   9.684  1.2029  0.2552  0.0672
 2053SOL    HW117621   0.453   3.120   9.721  1.2131 -0.0357 -0.0116
 2053SOL    HW217622   0.385   3.133   9.591 -0.6937  1.6374 -0.2470
 2054SOL     OW17623   4.662   3.610   0.462 -0.4275  0.0928 -0.1007
 2054SOL    HW117624   4.662   3.686   0.405 -0.9502 -0.6922 -1.1514
 2054SOL    HW217625   0.027   3.603   0.495 -0.7948 -1.6464  0.5394
 2055SOL     OW17626   1.674   0.926   4.540  0.0276  0.4762  0.2239
 2055SOL    HW117627   1.632   1.008   4.514 -0.5697  0.0469 -0.1612
 2055SOL    HW217628   1.658   0.922   4.634  2.5260 -0.1805  0.6239
 2056SOL     OW17629   2.623   2.248   1.721 -0.6959  0.0932 -0.7280
 2056SOL    HW117630   2.614   2.201   1.638  1.9635  1.3146 -1.6959
 2056SOL    HW217631   2.594   2.176   1.777  2.0391 -0.2422  0.2685
 2057SOL     OW17632   0.229   4.165  13.300  0.0819  0.3523  0.2677
 2057SOL    HW117633   0.296   4.099  13.280 -0.0007  0.4278 -0.2708
 2057SOL    HW217634   0.153   4.110  13.319 -0.4680  0.2846 -2.1503
 2058SOL     OW17635   4.508   1.497   7.510 -0.1824 -0.7710 -0.5786
 2058SOL    HW117636   4.444   1.565   7.493  0.0412 -0.4544 -0.1489
 2058SOL    HW217637   4.573   1.547   7.559 -1.2745  0.3068 -0.2358
 2059SOL     OW17638   1.212   3.957   5.884 -0.5715 -0.4281 -0.2107
 2059SOL    HW117639   1.243   3.900   5.954  1.4332 -1.8735 -2.2815
 2059SOL    HW217640   1.277   4.028   5.883 -1.8439  0.7481 -0.3390
 2060SOL     OW17641   4.229   0.300   6.482  0.0540 -0.2412  0.3718
 2060SOL    HW117642   4.168   0.358   6.526 -0.6137 -2.7138  2.6934
 2060SOL    HW217643   4.176   0.253   6.418  2.8590 -1.7963 -0.8327
 2061SOL     OW17644   0.313   0.700   4.210 -0.5326 -0.3106 -0.0584
 2061SOL    HW117645   0.236   0.755   4.223  0.3951  0.7588  1.0237
 2061SOL    HW217646   0.286   0.632   4.271 -1.6591  0.0480 -0.1695
 2062SOL     OW17647   2.998   4.240   8.619 -0.0452 -0.3243  0.3940
 2062SOL    HW117648   3.019   4.209   8.531 -0.0313  0.0206  0.2763
 2062SOL    HW217649   2.939   4.168   8.642 -0.6607  0.2028  0.4888
 2063SOL     OW17650   3.480   1.579   3.804 -0.1458  0.3502 -0.1188
 2063SOL    HW117651   3.451   1.663   3.770  1.5096  0.9792  0.0292
 2063SOL    HW217652   3.417   1.552   3.871  0.3095  1.1470  0.6224
 2064SOL     OW17653   3.966   2.893  15.977 -0.6178 -0.1349 -0.2472
 2064SOL    HW117654   3.981   2.880  15.883 -0.6637  0.7150 -0.3660
 2064SOL    HW217655   3.877   2.859  15.981 -1.3593  1.7275 -1.1654
 2065SOL     OW17656   4.682   2.850   7.727  0.2153 -0.4905 -0.3868
 2065SOL    HW117657   0.036   2.821   7.680  0.5129 -1.8067  0.9182
 2065SOL    HW217658   4.708   2.937   7.756 -0.1407 -0.0856 -1.2824
 2066SOL     OW17659   2.399   0.082   6.953  0.4135  0.4716 -0.0734
 2066SOL    HW117660   2.474   0.131   6.921  1.5735  0.2049  2.2427
 2066SOL    HW217661   2.348   0.064   6.874 -1.2880  0.5718  0.9836
 2067SOL     OW17662   0.605   0.442   0.131 -0.0825 -0.6457  0.2278
 2067SOL    HW117663   0.633   0.516   0.184  2.9592 -1.8218  0.3008
 2067SOL    HW217664   0.623   0.473   0.042  0.9917 -0.7643  0.3944
 2068SOL     OW17665   1.724   1.598   3.171  0.0821 -1.0321 -0.1986
 2068SOL    HW117666   1.630   1.583   3.170  0.0545 -0.9739  1.4362
 2068SOL    HW217667   1.752   1.587   3.081  1.4099  0.0233  0.0781
 2069SOL     OW17668   1.924   3.411   8.906 -0.2324 -0.1624  0.0432
 2069SOL    HW117669   1.849   3.449   8.951 -1.0619  0.7704 -2.1789
 2069SOL    HW217670   1.876   3.378   8.830  0.7729  0.7021 -0.9645
 2070SOL     OW17671   1.518   0.583  16.170  0.1966 -0.3750  0.5351
 2070SOL    HW117672   1.513   0.644  16.243 -0.6146  0.7718 -0.4923
 2070SOL    HW217673   1.465   0.637  16.112  0.1961  0.6206  1.4770
 2071SOL     OW17674   1.096   0.209   3.026 -0.0496  0.6767  0.0181
 2071SOL    HW117675   1.064   0.241   3.110 -1.4273  0.0242 -0.2511
 2071SOL    HW217676   1.165   0.270   3.000  1.4456 -0.7228  0.7088
 2072SOL     OW17677   1.281   2.784  13.424 -0.6187 -0.0837  0.1555
 2072SOL    HW117678   1.218   2.818  13.361  1.6801 -1.0348 -2.6521
 2072SOL    HW217679   1.251   2.815  13.510 -3.4178  2.7560 -1.8533
 2073SOL     OW17680   4.649   0.272   4.139 -0.1957 -0.8252  0.4583
 2073SOL    HW117681   4.645   0.367   4.153  0.4191 -0.6098 -0.8496
 2073SOL    HW217682   4.568   0.242   4.181 -2.6969  1.2065 -2.8919
 2074SOL     OW17683   3.017   1.060  11.841  0.0528 -0.3795  0.4686
 2074SOL    HW117684   3.069   1.024  11.912 -0.7917 -0.4640  1.0364
 2074SOL    HW217685   2.958   0.989  11.815 -1.9511  0.7067  2.0706
 2075SOL     OW17686   0.532   2.304   5.925  0.2823 -0.3004 -0.0834
 2075SOL    HW117687   0.579   2.276   6.003 -2.0137  0.0762  1.4289
 2075SOL    HW217688   0.574   2.388   5.906 -1.2375  0.3575 -0.4986
 2076SOL     OW17689   2.055   3.875   8.054  0.0587  0.1811  0.3502
 2076SOL    HW117690   1.985   3.932   8.023 -1.9449 -1.8649  1.1480
 2076SOL    HW217691   2.056   3.888   8.149  0.1360 -3.8422  0.9097
 2077SOL     OW17692   0.558   1.903   4.468 -0.3122 -0.0024  0.1195
 2077SOL    HW117693   0.554   1.843   4.543  0.6150 -0.5389 -0.2772
 2077SOL    HW217694   0.488   1.871   4.411 -0.8781  0.1414  0.7253
 2078SOL     OW17695   1.876   2.230   4.235  0.1216  0.2405 -0.3828
 2078SOL    HW117696   1.940   2.159   4.247 -1.1317 -0.6468  0.9222
 2078SOL    HW217697   1.818   2.232   4.310  1.1032  0.4079  0.3719
 2079SOL     OW17698   1.330   3.457   3.873  0.0244 -0.0372  0.1995
 2079SOL    HW117699   1.237   3.478   3.860  0.2277  0.1022 -1.0293
 2079SOL    HW217700   1.331   3.377   3.820  1.2678 -1.3223  2.1473
 2080SOL     OW17701   3.937   0.973   4.901 -0.2265 -0.1827 -0.1138
 2080SOL    HW117702   3.886   0.897   4.871  0.2103 -0.4475 -0.1913
 2080SOL    HW217703   4.013   0.935   4.946  0.5725  1.7421  0.1405
 2081SOL     OW17704   0.680   3.953  12.737 -0.5019  0.4353  0.4069
 2081SOL    HW117705   0.626   4.024  12.772  0.1034  0.6734  0.8647
 2081SOL    HW217706   0.612   3.890  12.714 -0.7586  0.9625 -0.2570
 2082SOL     OW17707   3.821   4.036   2.483  0.3068 -0.1361 -0.2637
 2082SOL    HW117708   3.795   4.121   2.516  2.9966  0.3513  0.6069
 2082SOL    HW217709   3.905   4.026   2.529 -0.8391 -1.7404  1.4791
 2083SOL     OW17710   0.818   4.570  11.112 -0.2134 -0.6992 -0.5712
 2083SOL    HW117711   0.867   4.580  11.030 -0.3984  0.6300 -0.5196
 2083SOL    HW217712   0.838   4.653  11.157  2.3373 -1.7245  0.1908
 2084SOL     OW17713   4.591   3.291  16.831  0.1091 -0.0652 -0.4487
 2084SOL    HW117714   4.515   3.344  16.854  0.2231 -0.4970  0.9133
 2084SOL    HW217715   4.559   3.242  16.755  0.3276 -0.2947 -0.3935
 2085SOL     OW17716   3.664   3.550   9.092  0.2170  0.6301 -0.6692
 2085SOL    HW117717   3.683   3.628   9.040  1.5683 -0.5008 -1.8734
 2085SOL    HW217718   3.662   3.478   9.029 -2.2065  0.4385 -0.3617
 2086SOL     OW17719   2.111   4.672   3.513  0.2512 -0.0654  0.6599
 2086SOL    HW117720   2.023   4.686   3.479  0.8244 -0.9066 -1.1839
 2086SOL    HW217721   2.122   4.579   3.496 -1.0669 -0.1475  0.2583
 2087SOL     OW17722   2.687   3.033   7.011 -0.5063 -0.0011  0.5036
 2087SOL    HW117723   2.745   2.982   6.955 -0.7446  0.8017 -0.4748
 2087SOL    HW217724   2.691   2.986   7.094 -1.1867 -1.0963 -0.0763
 2088SOL     OW17725   3.037   2.235   6.784  0.0734  0.3188  0.1184
 2088SOL    HW117726   2.968   2.251   6.849 -0.5102 -1.8037  0.0058
 2088SOL    HW217727   3.107   2.300   6.795  0.8212 -0.5650  0.5971
 2089SOL     OW17728   3.805   1.739  12.264 -0.5760  0.1791 -0.6164
 2089SOL    HW117729   3.762   1.654  12.268 -2.0390  0.9591  1.1397
 2089SOL    HW217730   3.789   1.772  12.353 -1.2897 -0.6286 -0.4507
 2090SOL     OW17731   1.471   1.045   8.635  0.5713  0.7456 -0.7439
 2090SOL    HW117732   1.507   0.967   8.677 -0.9873 -0.2936 -1.3584
 2090SOL    HW217733   1.548   1.090   8.600  0.4253  1.3136 -0.3514
 2091SOL     OW17734   1.309   3.366   4.859  0.9812 -0.2348 -0.3156
 2091SOL    HW117735   1.245   3.430   4.890  0.8510 -0.4992 -0.0395
 2091SOL    HW217736   1.313   3.391   4.767 -1.7824 -1.5294 -0.7782
 2092SOL     OW17737   0.046   4.470   8.166 -0.3038  0.1443  0.4822
 2092SOL    HW117738   0.049   4.440   8.076 -0.1244  2.0753 -0.1544
 2092SOL    HW217739   0.114   4.537   8.173  0.8358 -1.1666  2.0924
 2093SOL     OW17740   4.621   0.978   5.576  0.4475  0.3384  0.2452
 2093SOL    HW117741   4.660   0.970   5.663  2.0558  0.0816 -0.4804
 2093SOL    HW217742   4.651   1.064   5.548 -0.6333  0.7263  0.2825
 2094SOL     OW17743   2.494   2.110   8.649 -0.2758  0.0117  0.4673
 2094SOL    HW117744   2.513   2.073   8.735 -1.0002 -0.7155  0.3156
 2094SOL    HW217745   2.564   2.169   8.624  0.4079  0.6209  3.7656
 2095SOL     OW17746   0.583   0.206   7.562 -0.1179  0.4043 -0.1854
 2095SOL    HW117747   0.620   0.128   7.605 -0.1549  0.0784 -0.7508
 2095SOL    HW217748   0.613   0.201   7.471 -0.7173 -2.4745 -0.2369
 2096SOL     OW17749   0.817   0.506   3.058  0.2779 -0.7633 -0.2503
 2096SOL    HW117750   0.754   0.438   3.035 -0.9036  0.7131 -1.3981
 2096SOL    HW217751   0.759   0.568   3.103  0.6146  0.3032 -1.3058
 2097SOL     OW17752   2.133   1.352   4.566 -0.3869 -0.4591  0.4228
 2097SOL    HW117753   2.117   1.446   4.557  0.7921 -0.5292 -2.4468
 2097SOL    HW217754   2.227   1.343   4.579  0.0614  2.6986 -0.7374
 2098SOL     OW17755   4.696   3.168   2.345 -0.5915  0.0629  0.3223
 2098SOL    HW117756   0.018   3.143   2.425  1.6898  0.6823 -0.8030
 2098SOL    HW217757   4.626   3.104   2.356 -1.4284  1.0616  0.8772
 2099SOL     OW17758   0.412   0.122  17.440  0.7379 -0.2563 -0.6878
 2099SOL    HW117759   0.449   0.038  17.413 -0.3871 -1.1149  0.4638
 2099SOL    HW217760   0.482   0.159  17.494  1.7624 -1.6330 -1.0686
 2100SOL     OW17761   0.460   0.294  15.050  0.2021  0.2716  0.3935
 2100SOL    HW117762   0.396   0.353  15.090 -0.9621 -1.2119  0.7020
 2100SOL    HW217763   0.515   0.349  14.994 -1.8070  0.6561 -1.1997
 2101SOL     OW17764   0.199   1.695  13.377 -0.3343 -0.0476  0.4556
 2101SOL    HW117765   0.151   1.622  13.416  0.4410  0.7990  2.9924
 2101SOL    HW217766   0.227   1.650  13.297 -3.4288  0.8997 -1.1792
 2102SOL     OW17767   2.595   4.025   6.550 -0.1013 -0.2340  0.6811
 2102SOL    HW117768   2.681   3.983   6.546  0.1934  0.5246 -1.3166
 2102SOL    HW217769   2.591   4.064   6.462  1.1929 -3.9455 -1.0223
 2103SOL     OW17770   1.819   3.433   2.117  0.0186  0.2736 -0.0716
 2103SOL    HW117771   1.745   3.400   2.168 -2.4383 -1.4593 -4.7523
 2103SOL    HW217772   1.778   3.514   2.088  1.2459  0.5145 -1.1430
 2104SOL     OW17773   3.937   1.330  13.933  0.3534  0.1553  0.3775
 2104SOL    HW117774   3.874   1.282  13.879  0.7315 -0.0094  0.0775
 2104SOL    HW217775   3.977   1.387  13.868 -2.6684 -0.9195 -2.4604
 2105SOL     OW17776   2.400   4.708   7.619  0.5062  0.0586 -0.0690
 2105SOL    HW117777   2.326   0.021   7.666  0.5805 -0.4527  0.4451
 2105SOL    HW217778   2.362   4.631   7.576 -1.0162  0.6911  0.1538
 2106SOL     OW17779   1.265   2.239   7.342 -0.1314  0.4712  0.1174
 2106SOL    HW117780   1.264   2.287   7.425 -2.1127  0.7179 -0.0445
 2106SOL    HW217781   1.256   2.148   7.372  1.2723  0.3916  0.2918
 2107SOL     OW17782   3.870   1.749   6.087 -0.8964  0.1360  0.3460
 2107SOL    HW117783   3.822   1.666   6.095 -1.4902  0.6889  2.4851
 2107SOL    HW217784   3.922   1.756   6.167  0.3617  0.0161 -0.4640
 2108SOL     OW17785   1.929   2.912   5.120  0.2302  0.0989 -0.1469
 2108SOL    HW117786   1.925   2.820   5.092 -0.7934  0.7704 -2.2477
 2108SOL    HW217787   1.951   2.956   5.038  0.4071 -1.2866 -0.8519
 2109SOL     OW17788   0.683   1.332   3.890  0.5353 -0.6422  0.3375
 2109SOL    HW117789   0.745   1.396   3.927  3.6965 -2.3491 -1.9887
 2109SOL    HW217790   0.607   1.387   3.872  0.2281 -0.1971  2.8825
 2110SOL     OW17791   3.681   1.419   9.806 -0.2874 -0.7460  0.1259
 2110SOL    HW117792   3.654   1.344   9.860  2.1361 -0.8383  1.1880
 2110SOL    HW217793   3.736   1.373   9.743 -1.6627 -0.5854 -1.2013
 2111SOL     OW17794   0.643   3.465   5.665  0.3635  0.0245 -0.0065
 2111SOL    HW117795   0.599   3.391   5.621  1.8831  0.3699 -2.1127
 2111SOL    HW217796   0.733   3.436   5.650  0.3415 -0.0726  0.0460
 2112SOL     OW17797   4.402   2.438   5.804 -0.6197  0.1597 -0.4131
 2112SOL    HW117798   4.329   2.377   5.789  1.4056 -1.9034 -1.9419
 2112SOL    HW217799   4.364   2.485   5.878 -0.6483  2.2948 -1.7935
 2113SOL     OW17800   0.101   0.656   9.214  0.1434 -0.6181  0.9259
 2113SOL    HW117801   0.030   0.665   9.276 -2.1193 -1.8550 -1.4614
 2113SOL    HW217802   0.079   0.714   9.141  2.0133  1.1312  1.7377
 2114SOL     OW17803   1.521   1.967   7.604  0.5695  0.5069 -0.0791
 2114SOL    HW117804   1.549   1.959   7.695 -0.1115  1.7347  0.2428
 2114SOL    HW217805   1.602   1.945   7.559  1.0560  1.8118  0.1558
 2115SOL     OW17806   2.606   3.346   2.977  0.7682  0.1156 -0.1418
 2115SOL    HW117807   2.533   3.398   3.009 -0.4608 -0.9077 -1.2863
 2115SOL    HW217808   2.571   3.316   2.893 -0.3386 -2.6960  1.2994
 2116SOL     OW17809   4.109   2.683  13.245 -0.3280 -0.1028 -0.4370
 2116SOL    HW117810   4.125   2.645  13.159 -0.9284 -2.1523  0.3675
 2116SOL    HW217811   4.056   2.760  13.223  1.3349  0.4938 -2.3791
 2117SOL     OW17812   3.982   2.569  13.473  0.0263  0.1768  0.6737
 2117SOL    HW117813   3.891   2.551  13.448  0.3303 -1.5137  0.7821
 2117SOL    HW217814   4.006   2.627  13.400 -0.3333 -0.8097 -0.2331
 2118SOL     OW17815   2.727   3.679   6.994  0.2194  0.5414 -0.6178
 2118SOL    HW117816   2.770   3.756   7.032 -0.5529  1.2500 -1.2004
 2118SOL    HW217817   2.796   3.648   6.935 -0.2441 -0.6576 -0.5168
 2119SOL     OW17818   3.584   4.115   4.800  0.5600 -0.6624 -0.0718
 2119SOL    HW117819   3.666   4.066   4.807  0.4422 -0.9302 -0.5510
 2119SOL    HW217820   3.592   4.195   4.852  2.7343  0.8086 -2.6385
 2120SOL     OW17821   1.720   0.353   3.807  0.6927  0.0683 -0.0573
 2120SOL    HW117822   1.697   0.324   3.719 -0.7438  0.3150  0.2346
 2120SOL    HW217823   1.785   0.418   3.779  0.2266  0.0701 -1.1121
 2121SOL     OW17824   1.562   2.020   1.094  0.1384  0.3628 -0.4280
 2121SOL    HW117825   1.568   2.100   1.146  4.1334  0.3955 -0.9784
 2121SOL    HW217826   1.492   1.962   1.126  1.2304  0.4736  2.1547
 2122SOL     OW17827   2.908   1.483   3.591 -0.1314 -0.0848 -0.1362
 2122SOL    HW117828   2.968   1.558   3.590 -2.2206  1.6062  0.3173
 2122SOL    HW217829   2.835   1.525   3.637 -0.3005  0.6432 -1.0702
 2123SOL     OW17830   4.666   2.672  12.584 -0.4541  0.0159  0.1195
 2123SOL    HW117831   4.723   2.710  12.651  1.2345 -2.6558  0.1944
 2123SOL    HW217832   4.711   2.696  12.503 -2.2492  0.3379 -0.7864
 2124SOL     OW17833   0.199   1.377   4.917 -0.3729 -0.0719 -0.0823
 2124SOL    HW117834   0.269   1.365   4.982 -0.4820 -0.3733 -0.0201
 2124SOL    HW217835   0.194   1.470   4.895 -2.2883 -0.3324 -0.7130
 2125SOL     OW17836   0.359   4.422  14.658 -0.0579 -0.3732 -0.0556
 2125SOL    HW117837   0.391   4.362  14.591 -1.2350 -1.3771  0.2873
 2125SOL    HW217838   0.278   4.463  14.627  1.2727  3.3753  1.3733
 2126SOL     OW17839   0.216   3.780   5.482 -0.1803 -0.7453  0.3209
 2126SOL    HW117840   0.152   3.710   5.497 -0.8772 -0.1752  0.0118
 2126SOL    HW217841   0.255   3.750   5.400 -0.7619 -0.1847 -0.1620
 2127SOL     OW17842   0.431   3.997  17.307 -0.5781 -0.1934 -0.1722
 2127SOL    HW117843   0.449   4.014  17.215  2.1445  1.4126  0.6878
 2127SOL    HW217844   0.426   4.086  17.341 -3.3581 -0.2840 -0.3470
 2128SOL     OW17845   4.112   0.928   4.651 -0.0648  0.4152 -0.1236
 2128SOL    HW117846   4.026   0.913   4.691 -0.4888 -0.3603 -1.3136
 2128SOL    HW217847   4.103   0.897   4.561  0.7958  1.6623 -0.6351
 2129SOL     OW17848   0.044   4.366  15.329 -0.2577  0.2676  0.3309
 2129SOL    HW117849   0.100   4.293  15.353 -2.9478 -1.7313  0.5436
 2129SOL    HW217850   0.105   4.440  15.326  0.1384  0.0282  2.5864
 2130SOL     OW17851   3.361   0.494   9.278 -0.4133  0.0984 -0.1575
 2130SOL    HW117852   3.362   0.399   9.279 -1.0047  0.0999  1.4612
 2130SOL    HW217853   3.419   0.516   9.205 -1.9938  2.5638 -0.6651
 2131SOL     OW17854   1.562   3.184  12.209  0.0430 -0.2032  0.3207
 2131SOL    HW117855   1.635   3.128  12.233  0.4457 -0.4848 -1.5377
 2131SOL    HW217856   1.530   3.206  12.296 -0.9195 -1.4540  0.2769
 2132SOL     OW17857   3.480   4.685   3.799  0.3477 -0.1509  0.3734
 2132SOL    HW117858   3.511   4.595   3.815 -0.3482 -0.2200  1.3408
 2132SOL    HW217859   3.419   4.691   3.873  2.7649  1.0348  2.2884
 2133SOL     OW17860   3.181   3.531   7.218  0.7074 -0.1675 -0.1847
 2133SOL    HW117861   3.175   3.615   7.174 -2.3070 -0.3469 -0.1430
 2133SOL    HW217862   3.120   3.482   7.163  1.7306 -1.9005  0.2106
 2134SOL     OW17863   1.806   3.383  13.625 -0.1258 -0.7402 -0.3734
 2134SOL    HW117864   1.841   3.466  13.591 -0.2954 -1.0742 -1.3372
 2134SOL    HW217865   1.856   3.333  13.561  1.9168  2.3266 -1.2028
 2135SOL     OW17866   3.892   4.132  16.813 -0.0305 -0.2881 -0.1414
 2135SOL    HW117867   3.948   4.090  16.878 -1.7601  1.8522  2.7354
 2135SOL    HW217868   3.880   4.062  16.749  1.4020 -0.4733 -0.2060
 2136SOL     OW17869   0.851   3.237   8.227 -0.0805  0.3009  0.5441
 2136SOL    HW117870   0.874   3.157   8.275 -0.9663 -0.6338 -0.6152
 2136SOL    HW217871   0.940   3.268   8.209 -0.4206  2.1125  1.9103
 2137SOL     OW17872   4.303   1.494   8.446  0.6816 -0.1317  0.1499
 2137SOL    HW117873   4.289   1.556   8.517 -0.9586 -1.6895  1.2085
 2137SOL    HW217874   4.251   1.538   8.378 -0.2281  1.4218  1.8556
 2138SOL     OW17875   0.074   2.150  14.896  0.1455  0.6945 -1.0348
 2138SOL    HW117876   0.045   2.185  14.811 -1.7489 -1.8770 -1.4693
 2138SOL    HW217877   4.722   2.093  14.910  0.4744  0.4131 -0.3892
 2139SOL     OW17878   3.763   2.478   9.345  0.2770 -0.1482  0.1567
 2139SOL    HW117879   3.802   2.401   9.303  1.0675  0.2389  0.1897
 2139SOL    HW217880   3.777   2.545   9.278 -1.3701  2.8857  2.8389
 2140SOL     OW17881   3.423   0.485   6.537 -0.1255  0.1902  0.5380
 2140SOL    HW117882   3.433   0.538   6.458  1.8129  0.5765  1.0486
 2140SOL    HW217883   3.331   0.458   6.543  0.3686 -1.5237  0.4310
 2141SOL     OW17884   4.027   3.924   7.271 -0.2369 -0.1853  0.4611
 2141SOL    HW117885   4.118   3.912   7.299 -0.0856  3.4235  1.4720
 2141SOL    HW217886   4.018   3.844   7.219 -0.0538 -1.1932  1.9721
 2142SOL     OW17887   4.242   3.436  17.661 -0.0408 -0.1729 -0.0257
 2142SOL    HW117888   4.225   3.479  17.577 -0.8507 -0.1086  0.1646
 2142SOL    HW217889   4.249   3.346  17.629 -2.3354 -0.1109 -0.7003
 2143SOL     OW17890   4.554   3.379  10.182 -0.0626 -0.2482 -0.6058
 2143SOL    HW117891   4.522   3.387  10.092 -1.4571  1.8855  0.0758
 2143SOL    HW217892   4.642   3.416  10.186 -0.1913  0.1100 -1.0199
 2144SOL     OW17893   0.566   2.934  13.732  0.3532 -0.1457 -0.9509
 2144SOL    HW117894   0.617   2.885  13.667  0.1486  0.3412 -1.4767
 2144SOL    HW217895   0.513   2.997  13.684  1.8847  2.6090  0.8819
 2145SOL     OW17896   3.939   1.497   4.570 -0.1537  0.1624 -0.9860
 2145SOL    HW117897   3.873   1.433   4.597  0.0741  0.1383 -0.4976
 2145SOL    HW217898   3.973   1.523   4.655  0.6968 -1.0084 -0.9717
 2146SOL     OW17899   2.824   0.462   2.981  0.4774 -0.1407  0.7979
 2146SOL    HW117900   2.853   0.394   3.042 -1.6381 -0.4197  1.4781
 2146SOL    HW217901   2.770   0.405   2.927  3.5763 -1.2586 -1.1298
 2147SOL     OW17902   1.523   3.760   4.174  0.3609  0.1890  0.2201
 2147SOL    HW117903   1.572   3.743   4.254  0.6951  0.2134  0.0182
 2147SOL    HW217904   1.494   3.851   4.184 -1.2949 -0.4018  0.9174
 2148SOL     OW17905   3.279   2.550   1.667 -0.1748 -0.0103  0.4106
 2148SOL    HW117906   3.289   2.631   1.617 -0.1977 -0.8071 -0.8787
 2148SOL    HW217907   3.201   2.515   1.624  0.5087 -0.3565 -0.5224
 2149SOL     OW17908   1.047   4.664   3.482 -0.3495 -0.3197  0.0864
 2149SOL    HW117909   0.952   4.665   3.472 -0.4608  1.1381  1.0680
 2149SOL    HW217910   1.069   0.004   3.550  1.3938  1.3669 -2.0502
 2150SOL     OW17911   0.923   3.444   5.272 -0.5115 -0.8410 -0.1609
 2150SOL    HW117912   0.859   3.423   5.205  1.3754 -1.3649 -1.8068
 2150SOL    HW217913   0.944   3.363   5.318 -1.2831 -0.6538  0.5094
 2151SOL     OW17914   2.388   2.378  11.959 -0.2573 -0.2462 -0.1515
 2151SOL    HW117915   2.355   2.464  11.932 -1.5574 -1.5225 -2.5789
 2151SOL    HW217916   2.307   2.332  11.939  0.2043 -1.2042  0.2026
 2152SOL     OW17917   2.798   3.456  10.992  0.8635 -0.4781 -0.3729
 2152SOL    HW117918   2.786   3.479  10.899  1.7276  0.6542 -0.2125
 2152SOL    HW217919   2.894   3.459  10.986  0.7516  0.7062 -1.6814
 2153SOL     OW17920   0.405   1.087   8.136 -0.5481 -0.0295 -0.2039
 2153SOL    HW117921   0.343   1.106   8.207 -0.3109  4.1308 -1.1244
 2153SOL    HW217922   0.337   1.082   8.070  1.5242 -0.3607 -2.3173
 2154SOL     OW17923   0.478   2.438  16.075 -0.0679  0.3873  0.4270
 2154SOL    HW117924   0.486   2.484  15.991 -2.5475 -1.8856 -1.0480
 2154SOL    HW217925   0.478   2.349  16.040  0.0072  0.3634  0.4886
 2155SOL     OW17926   3.272   3.241   2.870  0.1689 -0.6532  0.2323
 2155SOL    HW117927   3.232   3.156   2.885  0.0244 -0.7612 -0.7670
 2155SOL    HW217928   3.230   3.269   2.788  0.7746  0.5346  0.3158
 2156SOL     OW17929   0.470   1.639   3.612  0.4101  0.5231  0.0452
 2156SOL    HW117930   0.403   1.615   3.549 -0.0324 -1.3909  1.2672
 2156SOL    HW217931   0.502   1.728   3.592 -0.9214  1.5904  2.6537
 2157SOL     OW17932   0.909   3.932   2.325  0.5044  0.1889 -0.8047
 2157SOL    HW117933   0.898   3.840   2.348 -2.3260  0.7951  0.1496
 2157SOL    HW217934   1.005   3.940   2.326  0.6788 -2.1679  3.0306
 2158SOL     OW17935   2.810   0.964  12.733 -0.1853  0.1766 -0.1383
 2158SOL    HW117936   2.765   1.036  12.688  0.1987 -0.5291 -1.6279
 2158SOL    HW217937   2.846   1.009  12.810  4.2756  0.3927 -2.3908
 2159SOL     OW17938   0.465   1.976  16.939  0.2204  0.2183  0.8740
 2159SOL    HW117939   0.428   1.918  17.005 -0.5978  1.3647  1.4266
 2159SOL    HW217940   0.471   2.052  16.997  0.6599 -0.7147  2.0611
 2160SOL     OW17941   1.511   0.628   7.036 -0.4390 -0.3512  0.3074
 2160SOL    HW117942   1.539   0.677   6.959  2.0464 -3.3897 -0.7357
 2160SOL    HW217943   1.587   0.656   7.088 -0.5450  3.4545 -1.6268
 2161SOL     OW17944   0.340   4.256   3.649  0.0670 -0.2503  0.0242
 2161SOL    HW117945   0.272   4.193   3.628  1.0517 -1.0996 -0.6556
 2161SOL    HW217946   0.296   4.322   3.702  0.5750 -1.0098  1.3691
 2162SOL     OW17947   2.420   2.806   3.133  0.0035  0.1076 -0.1544
 2162SOL    HW117948   2.508   2.772   3.121 -0.9089 -2.5366  0.8028
 2162SOL    HW217949   2.411   2.861   3.054  0.4497  1.9692  1.0887
 2163SOL     OW17950   1.051   3.484   7.652  0.2255 -0.1073  0.0324
 2163SOL    HW117951   1.055   3.579   7.639 -2.1481  0.0046  0.0918
 2163SOL    HW217952   0.962   3.482   7.688  0.4057  2.3278  0.6404
 2164SOL     OW17953   0.716   0.731  15.377  0.3053  0.0761 -0.1965
 2164SOL    HW117954   0.746   0.679  15.302  1.4129 -0.6868  0.7886
 2164SOL    HW217955   0.765   0.813  15.364  1.0129  0.0405  2.3903
 2165SOL     OW17956   4.532   0.213  14.166  0.5446  0.0202 -0.1029
 2165SOL    HW117957   4.572   0.126  14.156 -3.1100 -1.6099 -0.9077
 2165SOL    HW217958   4.601   0.269  14.131 -0.5927  1.0670 -0.6753
 2166SOL     OW17959   2.624   0.610   9.280  0.3405 -0.6352  0.0563
 2166SOL    HW117960   2.620   0.665   9.358  0.3773  1.1362 -1.2088
 2166SOL    HW217961   2.705   0.651   9.251  0.2971 -1.0729 -0.6884
 2167SOL     OW17962   1.187   4.254   4.150 -0.0404 -0.0047 -0.0973
 2167SOL    HW117963   1.185   4.349   4.156  1.6261  0.0860 -1.0305
 2167SOL    HW217964   1.275   4.231   4.178  0.1287 -0.5529 -1.0611
 2168SOL     OW17965   4.102   3.275  16.914  0.1995 -0.3755  0.0018
 2168SOL    HW117966   4.136   3.261  16.825 -0.4962 -2.9484  0.1359
 2168SOL    HW217967   4.124   3.190  16.952  0.5510 -0.1558  0.2851
 2169SOL     OW17968   1.924   3.432   8.604  0.3194 -0.1918  0.4091
 2169SOL    HW117969   1.858   3.501   8.614 -1.2564 -1.4262 -1.4640
 2169SOL    HW217970   1.884   3.351   8.635 -1.0259 -0.1576 -1.2486
 2170SOL     OW17971   3.360   3.463   7.421  0.0923  0.0839 -0.4290
 2170SOL    HW117972   3.423   3.404   7.380 -0.1042  1.8825 -3.3159
 2170SOL    HW217973   3.319   3.501   7.344  1.0880  0.0408 -0.9802
 2171SOL     OW17974   0.648   2.876  16.583  0.2560 -0.4290  0.3348
 2171SOL    HW117975   0.598   2.796  16.599  1.1925 -1.2229 -0.5961
 2171SOL    HW217976   0.633   2.930  16.660 -1.9628 -2.0691  1.0442
 2172SOL     OW17977   0.496   0.698  13.138 -0.3492 -0.4246 -0.0555
 2172SOL    HW117978   0.412   0.741  13.124  0.2127  0.7382  0.1749
 2172SOL    HW217979   0.525   0.690  13.047  0.8560  0.6951  0.2352
 2173SOL     OW17980   2.640   3.472   4.994 -0.0005  0.2490 -0.2248
 2173SOL    HW117981   2.680   3.559   4.996  1.2024 -0.2802 -1.1087
 2173SOL    HW217982   2.626   3.461   4.900  0.4553 -0.8615 -0.1735
 2174SOL     OW17983   0.473   3.097   9.392  0.7889  0.3842 -0.3215
 2174SOL    HW117984   0.539   3.082   9.324 -0.4593  0.8028 -1.6427
 2174SOL    HW217985   0.459   3.191   9.384 -0.6685  0.3293  1.5450
 2175SOL     OW17986   3.551   4.546   6.684  0.4254 -0.1317  0.1093
 2175SOL    HW117987   3.515   4.623   6.729 -0.8540 -0.4082 -0.4454
 2175SOL    HW217988   3.480   4.483   6.683  1.7910 -1.6305 -1.2501
 2176SOL     OW17989   2.730   1.389  15.132 -0.1791 -0.0682  0.1624
 2176SOL    HW117990   2.782   1.469  15.126 -3.5045  2.0217 -0.9626
 2176SOL    HW217991   2.765   1.358  15.215  0.4677 -0.0391 -0.1032
 2177SOL     OW17992   3.493   0.180   7.901 -0.5569 -0.6512  0.1633
 2177SOL    HW117993   3.425   0.223   7.953 -0.8218 -0.8540 -0.0142
 2177SOL    HW217994   3.567   0.241   7.901  0.7357 -2.2328  2.0120
 2178SOL     OW17995   3.073   3.183   1.908 -0.3554 -0.6690 -0.1832
 2178SOL    HW117996   3.021   3.142   1.977  1.8439 -3.1932 -0.0366
 2178SOL    HW217997   3.155   3.134   1.897  0.2920  0.6743 -1.3288
 2179SOL     OW17998   1.879   2.042   8.765  0.2732  0.1904  0.5527
 2179SOL    HW117999   1.785   2.037   8.746  0.0849  0.2779  1.4594
 2179SOL    HW218000   1.875   2.079   8.853  3.2342  0.8991  0.3700
 2180SOL     OW18001   0.283   1.992   3.123 -0.2005  0.0890  0.5047
 2180SOL    HW118002   0.369   1.963   3.154  1.0759  2.2781 -0.9220
 2180SOL    HW218003   0.254   1.911   3.082  0.9621  0.7672 -1.6807
 2181SOL     OW18004   0.485   1.514   8.200 -0.2669  0.8060  0.3338
 2181SOL    HW118005   0.525   1.487   8.283  1.7453 -1.3341 -1.3522
 2181SOL    HW218006   0.395   1.494   8.223 -0.2891 -1.2952 -1.5962
 2182SOL     OW18007   3.305   1.243   6.175  0.2315 -0.0426 -0.6159
 2182SOL    HW118008   3.385   1.219   6.129  0.6013 -2.2240  1.1538
 2182SOL    HW218009   3.250   1.167   6.155 -1.3556  1.1468 -0.7045
 2183SOL     OW18010   0.238   0.788  13.481 -0.1325  0.0356  0.7452
 2183SOL    HW118011   0.304   0.741  13.532 -0.0358 -0.2584  0.3437
 2183SOL    HW218012   0.235   0.871  13.530  2.5284 -0.4175  1.7002
 2184SOL     OW18013   1.680   1.673  15.002  0.2414 -0.2024 -0.0621
 2184SOL    HW118014   1.651   1.669  14.911 -0.1367 -0.8653  0.0903
 2184SOL    HW218015   1.602   1.700  15.051 -0.0232 -2.1879  0.6032
 2185SOL     OW18016   0.180   1.775   7.280  0.0346  0.2952 -0.1498
 2185SOL    HW118017   0.086   1.785   7.266 -0.2949 -0.2887  1.6547
 2185SOL    HW218018   0.206   1.850   7.226 -2.8942  0.0442 -1.9178
 2186SOL     OW18019   0.354   2.128  14.368  0.0767 -0.1792  0.1067
 2186SOL    HW118020   0.313   2.212  14.350  0.0535 -0.2388 -0.1128
 2186SOL    HW218021   0.282   2.090  14.420 -0.5025  0.7705 -0.0165
 2187SOL     OW18022   4.462   2.585   0.145  0.7263  0.0208 -0.3949
 2187SOL    HW118023   4.379   2.629   0.159  1.3149  1.7379 -2.2826
 2187SOL    HW218024   4.519   2.661   0.154  0.4464  0.0434  1.1270
 2188SOL     OW18025   3.751   0.333   3.595 -0.1935 -0.0498  0.2931
 2188SOL    HW118026   3.684   0.293   3.539  0.6750 -0.4569 -0.4472
 2188SOL    HW218027   3.804   0.375   3.528  0.1659 -0.9368  0.0283
 2189SOL     OW18028   2.451   1.144   9.416  0.3205 -0.2576 -0.3619
 2189SOL    HW118029   2.434   1.210   9.483  2.4703  1.0062 -1.0693
 2189SOL    HW218030   2.538   1.167   9.385  0.3464 -0.3600 -0.3669
 2190SOL     OW18031   4.434   0.781   1.559 -0.0092 -0.1090  0.0417
 2190SOL    HW118032   4.388   0.730   1.492  0.7797 -2.3455  1.2234
 2190SOL    HW218033   4.527   0.774   1.539 -0.2559  3.8430 -2.5786
 2191SOL     OW18034   4.532   2.819   0.996  0.1858 -0.8750  0.3858
 2191SOL    HW118035   4.485   2.901   0.979  1.0081 -0.6591 -0.8068
 2191SOL    HW218036   4.458   2.764   1.024 -0.0565 -1.0697 -0.6177
 2192SOL     OW18037   0.670   3.534   4.853  0.0078  0.1399  0.7028
 2192SOL    HW118038   0.652   3.605   4.792 -0.7449  0.0906  0.8669
 2192SOL    HW218039   0.678   3.456   4.798  0.3446 -0.3996  1.5148
 2193SOL     OW18040   3.345   2.894  17.680 -0.2715  0.5083  1.0492
 2193SOL    HW118041   3.304   2.821   0.028  0.7662  0.0137  1.2111
 2193SOL    HW218042   3.268   2.947  17.661 -0.0692  0.1577 -0.8316
 2194SOL     OW18043   3.067   0.841   0.119 -0.1348  0.3368 -0.1612
 2194SOL    HW118044   3.133   0.899   0.159 -0.5854  0.8567 -0.1686
 2194SOL    HW218045   3.070   0.771   0.184 -0.0701  0.5976  0.1173
 2195SOL     OW18046   2.320   2.886  13.728  0.5966  0.4388  0.1949
 2195SOL    HW118047   2.267   2.875  13.649  0.1578 -0.0043  0.5491
 2195SOL    HW218048   2.265   2.954  13.767  0.8862  1.1516 -0.6258
 2196SOL     OW18049   0.770   1.226   3.167 -0.3283 -0.1103 -0.2669
 2196SOL    HW118050   0.690   1.193   3.208 -1.9300  1.4970 -2.1078
 2196SOL    HW218051   0.761   1.194   3.077  0.8935 -0.9644 -0.0913
 2197SOL     OW18052   3.398   2.321   1.833  0.3152 -0.2775 -0.2443
 2197SOL    HW118053   3.467   2.296   1.771  0.5282  0.2485 -0.2219
 2197SOL    HW218054   3.353   2.387   1.780  0.8433 -0.3004 -0.7182
 2198SOL     OW18055   0.582   0.936   6.589 -0.1762  0.5494  0.2771
 2198SOL    HW118056   0.655   0.894   6.543 -0.3761  0.1474  0.3315
 2198SOL    HW218057   0.549   0.863   6.641  2.4748 -0.3725  0.6488
 2199SOL     OW18058   1.368   4.199   6.586 -0.2263  0.0073  0.2789
 2199SOL    HW118059   1.391   4.125   6.642 -0.9585 -1.9373 -1.9969
 2199SOL    HW218060   1.286   4.167   6.549  1.9385 -5.9039  0.5659
 2200SOL     OW18061   3.101   3.608  17.334 -0.0812 -0.0520  0.4959
 2200SOL    HW118062   3.153   3.659  17.396  0.8370  1.7111 -1.7034
 2200SOL    HW218063   3.064   3.674  17.275  1.0243 -0.6707 -0.9081
 2201SOL     OW18064   0.921   4.704   1.667 -0.2276 -0.1867  0.7244
 2201SOL    HW118065   0.980   0.028   1.608 -0.9273 -0.8779 -0.5374
 2201SOL    HW218066   0.873   4.643   1.611 -0.2740  1.1511 -0.7187
 2202SOL     OW18067   0.724   3.213   8.899 -0.0174  0.3994 -0.4774
 2202SOL    HW118068   0.743   3.230   8.991  1.6867 -0.9991 -0.5872
 2202SOL    HW218069   0.720   3.305   8.870  1.2322  0.9296  1.0954
 2203SOL     OW18070   3.727   2.637   1.386 -0.0537 -0.3885  0.3573
 2203SOL    HW118071   3.762   2.578   1.452  1.8048  0.8814  0.4901
 2203SOL    HW218072   3.691   2.701   1.449 -0.0674  0.2942 -0.3425
 2204SOL     OW18073   1.586   1.281   6.107 -0.0353 -0.4045 -0.2040
 2204SOL    HW118074   1.666   1.236   6.079  1.1103  1.1599  0.5489
 2204SOL    HW218075   1.514   1.227   6.074 -1.0996  0.9003 -0.0531
 2205SOL     OW18076   3.957   0.671   8.527  0.4180 -0.4805  0.2295
 2205SOL    HW118077   4.025   0.738   8.533  0.3227 -0.1194 -2.9197
 2205SOL    HW218078   3.905   0.696   8.603 -1.8492 -2.5643 -0.6372
 2206SOL     OW18079   2.042   1.283   4.052 -0.7020  0.8410 -0.2178
 2206SOL    HW118080   2.037   1.321   4.140  0.6258 -3.3407  1.6685
 2206SOL    HW218081   1.995   1.200   4.064  0.9158 -0.1307 -0.6387
 2207SOL     OW18082   4.232   3.595   3.831  0.1297  0.3712  0.6747
 2207SOL    HW118083   4.213   3.576   3.923 -0.0294  1.2795  0.8324
 2207SOL    HW218084   4.167   3.664   3.816 -1.2289 -0.9983  0.2386
 2208SOL     OW18085   3.579   0.664  14.167 -1.1457  0.1863  0.1120
 2208SOL    HW118086   3.509   0.676  14.102 -2.3669  0.0087  1.3872
 2208SOL    HW218087   3.530   0.635  14.244 -1.7839  0.8964 -0.0301
 2209SOL     OW18088   1.827   2.597   5.262 -0.4930 -0.0852 -0.3069
 2209SOL    HW118089   1.757   2.613   5.199  0.3630  0.5138 -1.0977
 2209SOL    HW218090   1.894   2.598   5.194  1.1318 -0.3449  1.2834
 2210SOL     OW18091   1.450   2.856   5.680 -0.4049  0.5598  0.1773
 2210SOL    HW118092   1.454   2.760   5.673  0.3336  0.4727  1.6901
 2210SOL    HW218093   1.396   2.862   5.601  0.5972  1.1352 -0.4593
 2211SOL     OW18094   4.643   0.283   0.953  0.4779 -0.4787  0.2379
 2211SOL    HW118095   0.005   0.248   0.930  1.3005  1.1542  0.8682
 2211SOL    HW218096   4.659   0.334   1.032 -0.6446 -2.7992  1.9615
 2212SOL     OW18097   1.671   0.114   7.249  0.2038 -0.2813  0.6436
 2212SOL    HW118098   1.578   0.097   7.242  0.3526 -0.1168 -1.9432
 2212SOL    HW218099   1.705   0.079   7.167  0.4900  1.0818  0.1762
 2213SOL     OW18100   0.930   0.547   8.932 -0.1321  0.2911  0.7314
 2213SOL    HW118101   0.938   0.453   8.949 -0.0760 -0.6133 -4.1745
 2213SOL    HW218102   0.904   0.565   8.841 -0.0846  0.3607  0.7312
 2214SOL     OW18103   3.528   2.013   4.787  0.3191 -0.5701 -0.5503
 2214SOL    HW118104   3.504   2.076   4.720  0.1087 -0.5809 -0.4841
 2214SOL    HW218105   3.620   1.997   4.768  0.7536  1.3195 -0.0234
 2215SOL     OW18106   0.830   0.157   2.950 -0.4103 -0.9179  0.1597
 2215SOL    HW118107   0.874   0.182   2.868  0.6392 -0.9004  0.7239
 2215SOL    HW218108   0.899   0.149   3.016 -1.9623 -0.8894  1.7918
 2216SOL     OW18109   3.821   2.751   7.323  0.4613  0.4759  0.4306
 2216SOL    HW118110   3.768   2.764   7.402 -0.0558 -0.2140  0.1905
 2216SOL    HW218111   3.811   2.658   7.306 -0.2513  0.4341  1.0549
 2217SOL     OW18112   0.343   3.449   6.859  0.5945  0.7426  0.7264
 2217SOL    HW118113   0.291   3.474   6.936 -0.2042 -1.0682  0.7714
 2217SOL    HW218114   0.406   3.521   6.860  1.6256 -0.1507 -0.3539
 2218SOL     OW18115   2.134   0.471   0.790 -0.5471 -0.7158 -0.1719
 2218SOL    HW118116   2.156   0.537   0.856 -0.1477 -0.7915 -0.2288
 2218SOL    HW218117   2.129   0.389   0.840 -0.2343  0.8832  2.4745
 2219SOL     OW18118   1.889   0.801   3.977  0.2643 -0.3452 -0.1334
 2219SOL    HW118119   1.918   0.710   3.977 -2.1836 -1.1516 -0.9036
 2219SOL    HW218120   1.807   0.787   3.929 -0.4307  0.6692  0.7383
 2220SOL     OW18121   1.806   1.255   2.219  0.6627 -0.7080 -0.0252
 2220SOL    HW118122   1.810   1.266   2.124  0.2864 -3.0982 -0.3225
 2220SOL    HW218123   1.736   1.320   2.231  0.5867 -0.9685  0.9583
 2221SOL     OW18124   2.938   3.783   4.351 -0.5313  0.0198 -0.0938
 2221SOL    HW118125   2.943   3.879   4.344 -0.3872 -0.0913 -1.5842
 2221SOL    HW218126   3.028   3.771   4.320 -1.1000  0.0065 -1.7152
 2222SOL     OW18127   1.047   3.057   4.973  0.0408 -0.2096  0.0573
 2222SOL    HW118128   1.084   3.079   4.887 -0.5148  0.5220  0.0040
 2222SOL    HW218129   0.956   3.042   4.947 -0.5101  3.3479 -0.0283
 2223SOL     OW18130   1.593   0.612  13.237 -0.0955  0.1029  0.0535
 2223SOL    HW118131   1.564   0.659  13.159 -0.5778  0.3585  0.3901
 2223SOL    HW218132   1.678   0.656  13.237  0.9744 -1.9498  0.4707
 2224SOL     OW18133   0.041   4.444   7.493 -0.5125  0.5616 -0.5395
 2224SOL    HW118134   0.114   4.382   7.489 -1.7159 -0.9449  1.1883
 2224SOL    HW218135   4.689   4.390   7.512 -0.9009  0.1838 -3.1425
 2225SOL     OW18136   0.084   0.398   5.912 -0.0772  0.1419  0.4131
 2225SOL    HW118137   0.049   0.323   5.863 -1.0851  0.4732  0.6309
 2225SOL    HW218138   0.176   0.374   5.916  0.2324  0.7159 -2.9807
 2226SOL     OW18139   2.788   1.387  16.223 -0.3728  0.5069  0.6079
 2226SOL    HW118140   2.858   1.325  16.243  1.1199  1.5352 -1.3771
 2226SOL    HW218141   2.791   1.380  16.127 -2.2836  0.5930  0.5358
 2227SOL     OW18142   1.065   2.383   2.063 -1.1836 -0.0803 -0.2341
 2227SOL    HW118143   1.013   2.456   2.028 -3.1866 -1.2332  0.3627
 2227SOL    HW218144   1.115   2.434   2.127  2.8952 -1.8919 -2.0155
 2228SOL     OW18145   2.752   1.538   7.546 -0.4200  0.3425 -0.1140
 2228SOL    HW118146   2.789   1.464   7.496  0.0642 -2.0286  3.7538
 2228SOL    HW218147   2.668   1.500   7.572 -1.5910  2.4951 -0.7319
 2229SOL     OW18148   0.147   3.424   2.607 -0.2550 -0.0599 -0.0498
 2229SOL    HW118149   0.233   3.382   2.615 -0.1840  0.2128  0.6216
 2229SOL    HW218150   0.133   3.395   2.516  1.3734  0.6329 -0.5236
 2230SOL     OW18151   4.243   4.717   6.215  0.0462 -0.5252 -0.5245
 2230SOL    HW118152   4.170   0.043   6.253  1.3341  0.1599  1.0850
 2230SOL    HW218153   4.306   4.709   6.287  1.6301 -3.7997 -2.3138
 2231SOL     OW18154   0.899   4.443  12.659 -0.0389  0.0251  0.0576
 2231SOL    HW118155   0.886   4.385  12.584 -0.6942  1.7080 -1.1271
 2231SOL    HW218156   0.850   4.384  12.716  0.0848 -0.2377 -0.1111
 2232SOL     OW18157   1.347   2.987   7.058 -0.6095  0.0100  0.0638
 2232SOL    HW118158   1.434   2.951   7.044  0.1779  0.9659  2.5260
 2232SOL    HW218159   1.287   2.915   7.038 -1.2403  1.2035 -2.4114
 2233SOL     OW18160   2.173   3.152   5.878  0.7155 -0.2502  0.4850
 2233SOL    HW118161   2.174   3.057   5.863  1.5421 -0.3364  1.0959
 2233SOL    HW218162   2.107   3.162   5.946 -1.5350  1.2579 -1.8882
 2234SOL     OW18163   1.347   2.555  11.140 -0.2275 -0.0828 -0.7016
 2234SOL    HW118164   1.441   2.535  11.139 -0.3498 -0.7630  1.2121
 2234SOL    HW218165   1.350   2.627  11.204 -0.4788  0.2396 -1.0525
 2235SOL     OW18166   0.907   3.990   5.315  0.0294  0.1445 -0.3139
 2235SOL    HW118167   0.923   4.008   5.407 -1.5376 -0.8778  0.1643
 2235SOL    HW218168   0.889   4.079   5.285  0.1461 -0.0944 -1.1095
 2236SOL     OW18169   4.571   0.447  15.494  0.0650 -0.4190 -0.6696
 2236SOL    HW118170   4.515   0.522  15.475  1.4739  0.0805 -2.9251
 2236SOL    HW218171   4.549   0.389  15.420 -0.0246  0.0317 -0.9952
 2237SOL     OW18172   2.115   2.544  12.068  0.0163 -0.1865 -0.0997
 2237SOL    HW118173   2.188   2.577  12.121 -1.9187  0.9202  1.8812
 2237SOL    HW218174   2.044   2.588  12.117 -0.7651  0.3112 -1.6905
 2238SOL     OW18175   4.430   2.250   3.864 -0.6742 -0.5060 -0.5761
 2238SOL    HW118176   4.435   2.155   3.850 -0.1991 -0.6000  0.2036
 2238SOL    HW218177   4.452   2.253   3.957  1.5813  3.0377 -1.2258
 2239SOL     OW18178   2.541   4.202   1.846  0.0170  0.0748  0.3165
 2239SOL    HW118179   2.500   4.288   1.843  0.4171  0.1853 -1.7985
 2239SOL    HW218180   2.621   4.217   1.795  0.3490  1.4658  1.2427
 2240SOL     OW18181   0.514   4.494   3.538  0.1763 -0.6561 -0.5080
 2240SOL    HW118182   0.443   4.448   3.494  0.7465 -0.5609 -1.5230
 2240SOL    HW218183   0.461   4.518   3.614 -0.0657 -1.3907 -0.4481
 2241SOL     OW18184   1.392   2.634   3.472  0.1560  0.0500 -0.8275
 2241SOL    HW118185   1.430   2.570   3.413  2.7611  1.3632 -0.5760
 2241SOL    HW218186   1.468   2.682   3.505  0.2589 -1.4046  1.0383
 2242SOL     OW18187   3.644   2.382  11.220  0.4529  0.0323  0.0281
 2242SOL    HW118188   3.593   2.320  11.168 -2.0917  0.7871  1.6455
 2242SOL    HW218189   3.702   2.325  11.271  2.1250  0.2586 -1.6344
 2243SOL     OW18190   1.493   1.945   8.158  0.2959  0.0155 -0.5264
 2243SOL    HW118191   1.472   2.038   8.165 -0.3933 -0.2557  0.9836
 2243SOL    HW218192   1.553   1.935   8.232 -0.9767  1.8854  0.7347
 2244SOL     OW18193   0.813   4.355   7.015 -0.3243 -0.1414  0.2293
 2244SOL    HW118194   0.720   4.369   6.997 -0.1881  0.9706  0.3705
 2244SOL    HW218195   0.843   4.313   6.935  1.2183 -0.9542  1.2315
 2245SOL     OW18196   4.135   4.570   5.311  0.1774 -0.3445  0.0568
 2245SOL    HW118197   4.218   4.524   5.323  0.1331 -1.2239 -2.9595
 2245SOL    HW218198   4.157   4.644   5.367  1.3173 -1.6929  1.3956
 2246SOL     OW18199   3.507   4.037   8.225 -0.1480  0.0142  0.2069
 2246SOL    HW118200   3.574   4.071   8.165  0.5928  0.2851  1.1833
 2246SOL    HW218201   3.534   3.946   8.222 -0.1793  0.0142 -0.0912
 2247SOL     OW18202   3.922   0.455   4.107 -0.0417  0.5120  0.1648
 2247SOL    HW118203   3.899   0.462   4.014  3.2045  1.3747 -0.5622
 2247SOL    HW218204   3.925   0.362   4.128  0.7788  0.7372  1.0730
 2248SOL     OW18205   3.173   2.596   3.969  0.1479  0.3759 -0.2323
 2248SOL    HW118206   3.127   2.660   4.023  0.6985 -0.0164  0.7162
 2248SOL    HW218207   3.135   2.513   3.998 -0.8881 -0.4722 -4.0910
 2249SOL     OW18208   1.518   0.192   2.661  0.1231  0.4324 -0.1202
 2249SOL    HW118209   1.455   0.128   2.628  1.2809 -1.3476  1.1379
 2249SOL    HW218210   1.526   0.237   2.577 -1.7312 -0.1936 -0.6215
 2250SOL     OW18211   0.233   2.635   9.168  0.2856  0.0665 -0.0558
 2250SOL    HW118212   0.213   2.728   9.164 -2.0293 -0.4369 -0.4069
 2250SOL    HW218213   0.307   2.622   9.227 -0.5242  1.9923  1.3614
 2251SOL     OW18214   0.711   1.970  11.477 -0.0501  0.0365 -0.1773
 2251SOL    HW118215   0.772   1.939  11.410 -0.2869  0.5430 -0.6339
 2251SOL    HW218216   0.760   2.027  11.537 -0.8601 -0.4139  0.9013
 2252SOL     OW18217   2.180   4.554   7.315 -0.0295 -0.5142  0.4613
 2252SOL    HW118218   2.129   4.618   7.364 -2.7656 -3.4736  1.4808
 2252SOL    HW218219   2.245   4.537   7.383 -0.7884 -0.3120  1.2441
 2253SOL     OW18220   4.375   0.356  14.304  0.2557  0.0825 -0.0204
 2253SOL    HW118221   4.446   0.410  14.339  0.7380 -1.2450  1.0790
 2253SOL    HW218222   4.424   0.298  14.246  0.4518  1.1054 -0.8587
 2254SOL     OW18223   3.345   3.543   4.692  0.0733 -0.3214 -0.6268
 2254SOL    HW118224   3.411   3.593   4.644 -0.0221  0.6276  0.2314
 2254SOL    HW218225   3.313   3.505   4.610 -1.5200  1.0580 -0.6579
 2255SOL     OW18226   4.635   0.041   8.673  0.3344  1.0286 -0.3538
 2255SOL    HW118227   4.646   0.004   8.761 -0.2434 -1.0413 -1.1642
 2255SOL    HW218228   4.713   0.097   8.673  0.0557  1.4187 -1.5626
 2256SOL     OW18229   2.753   2.022  15.594 -0.9335  0.1136  0.4077
 2256SOL    HW118230   2.807   2.013  15.515 -0.8389 -0.0936  0.4959
 2256SOL    HW218231   2.813   1.990  15.662 -0.6155 -0.2194 -0.0276
 2257SOL     OW18232   2.236   3.714   7.246  0.0655 -0.2411  0.3138
 2257SOL    HW118233   2.230   3.760   7.162  1.2901 -0.5805  0.0396
 2257SOL    HW218234   2.328   3.696   7.262  1.1902  3.6071 -1.8700
 2258SOL     OW18235   3.219   4.014   2.753  0.6429 -0.3707  0.6722
 2258SOL    HW118236   3.198   3.988   2.663 -1.0171  1.5036  0.5121
 2258SOL    HW218237   3.255   3.930   2.780 -1.8275 -2.0179 -1.2825
 2259SOL     OW18238   1.952   3.514   6.755 -0.3180  0.4754 -0.1810
 2259SOL    HW118239   1.983   3.429   6.786 -0.4927 -0.4310 -2.4980
 2259SOL    HW218240   1.962   3.504   6.660 -1.5009 -2.3378 -0.0057
 2260SOL     OW18241   1.149   1.019   9.209  0.6142  0.5760 -0.5466
 2260SOL    HW118242   1.233   0.977   9.227  0.3716 -0.6823 -2.4244
 2260SOL    HW218243   1.168   1.104   9.250 -0.9091  0.0918  1.1556
 2261SOL     OW18244   1.705   3.794   1.625 -0.0306 -0.3172 -0.2115
 2261SOL    HW118245   1.617   3.818   1.655 -0.0609 -1.7687  0.8333
 2261SOL    HW218246   1.717   3.730   1.695  0.0559 -1.8139 -1.5843
 2262SOL     OW18247   0.137   1.876  13.163 -0.5694 -0.3356 -0.1630
 2262SOL    HW118248   0.160   1.786  13.185  2.8275  0.1336 -1.8111
 2262SOL    HW218249   0.221   1.919  13.174 -0.6197 -0.5951  1.1680
 2263SOL     OW18250   3.762   0.230   0.067  0.3659  0.7586  0.4363
 2263SOL    HW118251   3.688   0.236   0.007  0.2273 -0.1721  0.5143
 2263SOL    HW218252   3.784   0.137   0.068 -0.6575  0.5297  1.0791
 2264SOL     OW18253   4.233   1.356  11.513  0.7947 -0.5990 -0.1594
 2264SOL    HW118254   4.161   1.305  11.478  1.1358  0.3490 -2.2027
 2264SOL    HW218255   4.302   1.296  11.487  1.8597  0.4798  0.1379
 2265SOL     OW18256   0.291   1.750  12.538  0.2733  0.5231 -0.7564
 2265SOL    HW118257   0.310   1.665  12.578  1.1799  1.5894  1.0967
 2265SOL    HW218258   0.215   1.719  12.488  0.1467  1.3348 -1.0613
 2266SOL     OW18259   3.628   3.531   2.862 -0.5351 -0.2147  0.2741
 2266SOL    HW118260   3.594   3.442   2.861  1.4253 -0.9785  0.6163
 2266SOL    HW218261   3.555   3.584   2.829 -0.9604 -0.1042  1.4007
 2267SOL     OW18262   3.941   0.312   6.980 -0.0572 -0.1984  0.8702
 2267SOL    HW118263   3.997   0.250   6.933 -1.8067 -1.6328  0.6872
 2267SOL    HW218264   3.997   0.386   7.005  2.7877 -1.4537 -1.7628
 2268SOL     OW18265   4.679   4.599  10.966  0.2227  0.3452  0.0439
 2268SOL    HW118266   0.047   4.573  10.970  1.0788  2.8668 -3.1762
 2268SOL    HW218267   4.662   4.632  11.055  2.3015  0.4860  0.3771
 2269SOL     OW18268   0.140   0.340  15.004 -0.1280 -0.8078 -0.5050
 2269SOL    HW118269   0.132   0.250  15.033 -2.1850 -0.2162  0.7210
 2269SOL    HW218270   0.067   0.389  15.041  0.0659 -0.4393 -0.6037
 2270SOL     OW18271   2.436   1.568  15.971  0.0307 -0.6876  0.2041
 2270SOL    HW118272   2.350   1.528  15.983 -2.1163  3.8022 -0.3197
 2270SOL    HW218273   2.401   1.645  15.926 -0.1501 -0.6819  0.3559
 2271SOL     OW18274   2.170   0.715   4.892 -0.0013  0.8679 -0.5378
 2271SOL    HW118275   2.195   0.675   4.809  1.4875  0.5602  0.0744
 2271SOL    HW218276   2.078   0.722   4.864 -0.2503 -0.4815 -0.0750
 2272SOL     OW18277   1.396   4.289  16.252  0.0398 -0.0090 -0.6881
 2272SOL    HW118278   1.310   4.249  16.240  0.9981 -1.7005 -1.9027
 2272SOL    HW218279   1.377   4.382  16.236 -2.6245 -0.2099  1.2883
 2273SOL     OW18280   0.540   1.807  11.957  0.7564  0.6617 -0.0200
 2273SOL    HW118281   0.603   1.822  12.027  1.7776  0.3625 -0.8724
 2273SOL    HW218282   0.587   1.759  11.889 -0.0336  0.7881 -0.6632
 2274SOL     OW18283   2.663   1.915   9.521 -0.4371 -0.3846 -0.3932
 2274SOL    HW118284   2.750   1.901   9.557  0.4130  0.3909 -2.1546
 2274SOL    HW218285   2.692   1.954   9.438 -1.2184 -1.4899 -1.1908
 2275SOL     OW18286   2.306   4.482   8.746 -0.7516 -0.3843  0.4148
 2275SOL    HW118287   2.333   4.539   8.819  2.1201 -1.5300  0.2475
 2275SOL    HW218288   2.355   4.524   8.676  1.5050 -2.1532  0.9567
 2276SOL     OW18289   4.218   4.281   3.567 -0.1977 -0.3219 -0.4369
 2276SOL    HW118290   4.222   4.221   3.642 -0.7385  0.0507 -0.1158
 2276SOL    HW218291   4.216   4.366   3.610 -0.3857  0.3309 -1.7659
 2277SOL     OW18292   4.660   2.304   2.117  0.0836 -0.1457 -0.1995
 2277SOL    HW118293   4.605   2.296   2.039 -1.4573 -0.6383  0.9603
 2277SOL    HW218294   4.592   2.313   2.183  2.7093  1.5363  2.2278
 2278SOL     OW18295   1.300   4.110   2.202 -0.1578 -0.1331  0.1038
 2278SOL    HW118296   1.271   4.101   2.112  0.1715 -3.6864  0.3238
 2278SOL    HW218297   1.395   4.109   2.185 -0.1052 -3.2809  0.4753
 2279SOL     OW18298   0.648   1.897   5.064  0.1707  0.5146  0.0628
 2279SOL    HW118299   0.640   1.992   5.057 -0.2862  0.2889 -2.4142
 2279SOL    HW218300   0.659   1.893   5.159  0.8717  1.1781  0.0100
 2280SOL     OW18301   4.177   3.720   4.458 -0.6497 -0.0167  0.6486
 2280SOL    HW118302   4.238   3.726   4.531  1.6002  1.0329 -1.2890
 2280SOL    HW218303   4.095   3.690   4.495 -1.0493  0.7342  0.3781
 2281SOL     OW18304   0.638   1.964   3.430 -0.1927  0.2507  0.4411
 2281SOL    HW118305   0.588   1.904   3.374 -0.8574  0.9333  0.2951
 2281SOL    HW218306   0.570   2.000   3.486 -1.3075  1.5127 -1.7029
 2282SOL     OW18307   3.073   2.327   0.089 -0.1252 -0.5490 -0.0790
 2282SOL    HW118308   3.106   2.245   0.051  3.4568  0.9722 -0.2073
 2282SOL    HW218309   3.140   2.339   0.156  0.1693  0.3993 -0.5479
 2283SOL     OW18310   3.279   2.028   1.553  0.5371  0.0698 -0.3501
 2283SOL    HW118311   3.270   2.009   1.647 -1.8321  1.3238 -0.3080
 2283SOL    HW218312   3.293   2.123   1.552  0.2818  0.1376  1.4093
 2284SOL     OW18313   1.803   0.423   8.452  0.0637  0.4252  0.3149
 2284SOL    HW118314   1.711   0.423   8.425 -0.3352 -1.4478  1.7151
 2284SOL    HW218315   1.816   0.330   8.434 -0.6109  0.2478  0.7402
 2285SOL     OW18316   1.940   4.334   4.416  0.0834 -0.7834  0.3370
 2285SOL    HW118317   1.988   4.306   4.494 -0.0313  0.3356  0.8075
 2285SOL    HW218318   2.008   4.381   4.368  1.6327 -1.0822  2.2535
 2286SOL     OW18319   1.930   1.156   1.254 -0.0019  0.5527  0.4103
 2286SOL    HW118320   2.008   1.181   1.203  0.5492 -0.4902  0.7374
 2286SOL    HW218321   1.969   1.076   1.290 -0.9806 -0.3508 -0.5204
 2287SOL     OW18322   3.363   2.555   2.778  0.1953  0.6256  0.7165
 2287SOL    HW118323   3.371   2.459   2.779 -2.1525  0.4627  2.4480
 2287SOL    HW218324   3.446   2.576   2.822  1.2712  0.4536 -1.2123
 2288SOL     OW18325   0.041   0.938   3.346 -0.4679  0.7718 -0.1752
 2288SOL    HW118326   4.724   0.916   3.262 -1.4738  2.7967 -0.2094
 2288SOL    HW218327   0.132   0.941   3.318 -0.6993  0.2875 -0.9914
 2289SOL     OW18328   2.581   2.253  12.192 -0.3060  0.3292  0.1369
 2289SOL    HW118329   2.503   2.208  12.224  0.8444 -0.6134  1.6545
 2289SOL    HW218330   2.552   2.300  12.114 -3.5333  0.7044  1.5794
 2290SOL     OW18331   0.598   1.441   4.870  0.2624  0.3182  0.0642
 2290SOL    HW118332   0.631   1.531   4.860 -1.0940  0.9327  1.1261
 2290SOL    HW218333   0.679   1.390   4.872  0.4175  0.6287  1.4119
 2291SOL     OW18334   1.796   2.385   7.266  0.3653 -0.1722  0.4611
 2291SOL    HW118335   1.846   2.340   7.197  0.3760 -0.7681  0.8553
 2291SOL    HW218336   1.747   2.312   7.303 -0.3754  0.9607  1.7221
 2292SOL     OW18337   3.175   4.208   9.365  0.5866 -0.0698  0.1558
 2292SOL    HW118338   3.214   4.194   9.279  2.0105 -0.4690  0.8738
 2292SOL    HW218339   3.190   4.299   9.390  1.5547 -0.1093 -0.2890
 2293SOL     OW18340   4.119   2.312   6.648 -0.0361 -0.1029  0.8428
 2293SOL    HW118341   4.171   2.238   6.678 -0.4727 -0.0357  1.7638
 2293SOL    HW218342   4.099   2.287   6.558  0.9854  0.4470  0.4665
 2294SOL     OW18343   2.882   3.993   1.695  0.2764  0.3073 -0.4090
 2294SOL    HW118344   2.893   4.086   1.715  1.7480 -0.1903  1.1300
 2294SOL    HW218345   2.933   3.949   1.763 -0.9087 -1.5434 -0.7154
 2295SOL     OW18346   2.475   3.632  13.946 -0.1393 -0.3305 -0.5297
 2295SOL    HW118347   2.508   3.543  13.933 -1.7663 -0.7904 -1.4378
 2295SOL    HW218348   2.386   3.616  13.977  0.6901  0.3908  2.2969
 2296SOL     OW18349   3.205   2.109   2.655 -0.0338 -0.5776  0.0260
 2296SOL    HW118350   3.119   2.109   2.613 -0.6515  1.0774  1.2739
 2296SOL    HW218351   3.177   2.133   2.743  0.4268  0.1736 -0.0266
 2297SOL     OW18352   1.939   2.796  16.959  0.3945 -0.4430  0.7413
 2297SOL    HW118353   1.925   2.891  16.970  2.3804 -0.0198 -0.4445
 2297SOL    HW218354   1.887   2.754  17.027 -0.2856 -1.7067 -0.5720
 2298SOL     OW18355   2.076   3.909   3.015  0.1198  0.5816  0.1916
 2298SOL    HW118356   2.001   3.948   2.970 -1.0461  0.7843  2.2896
 2298SOL    HW218357   2.026   3.876   3.090  0.6906  0.3775  0.4806
 2299SOL     OW18358   3.739   1.742   1.960 -0.0996 -0.0139 -0.4191
 2299SOL    HW118359   3.738   1.792   1.878  3.8410 -0.2869 -0.6052
 2299SOL    HW218360   3.743   1.815   2.022 -0.5976 -1.5053  1.3866
 2300SOL     OW18361   1.581   0.449   7.552 -0.5334  0.5724 -0.3909
 2300SOL    HW118362   1.654   0.415   7.499  0.8927  1.4710  1.0223
 2300SOL    HW218363   1.531   0.507   7.495 -0.8787  0.0104 -0.6659
 2301SOL     OW18364   0.136   0.963   8.635 -0.3179  0.1218 -0.0301
 2301SOL    HW118365   0.115   0.961   8.541  3.1773  0.2409 -0.8249
 2301SOL    HW218366   0.132   0.868   8.649 -4.4731  0.3553  0.3557
 2302SOL     OW18367   1.123   4.251  15.430  0.0520 -0.3371 -0.2230
 2302SOL    HW118368   1.063   4.294  15.491 -0.5672  0.3191 -1.2838
 2302SOL    HW218369   1.176   4.206  15.495 -0.2387  0.3224  0.4752
 2303SOL     OW18370   2.486   2.555   4.032 -0.3085 -0.0614 -0.4781
 2303SOL    HW118371   2.413   2.540   3.971 -0.8201  0.7244 -0.0507
 2303SOL    HW218372   2.542   2.483   4.002  1.0719  1.7573 -2.2873
 2304SOL     OW18373   0.157   0.399   4.672 -0.1158  0.1676 -0.1172
 2304SOL    HW118374   0.159   0.485   4.629 -2.4273 -0.0258 -0.6081
 2304SOL    HW218375   0.066   0.382   4.696  0.4805  1.0433  2.6994
 2305SOL     OW18376   1.017   3.350   8.932  0.2351 -0.0843  0.0362
 2305SOL    HW118377   0.941   3.407   8.920 -0.3410 -0.6768  0.9502
 2305SOL    HW218378   1.074   3.404   8.986  1.3925 -1.8680  0.6077
 2306SOL     OW18379   3.134   3.495   0.056 -0.9354 -0.0332 -0.1393
 2306SOL    HW118380   3.201   3.496  17.685  0.5735 -2.1136  1.2701
 2306SOL    HW218381   3.135   3.403   0.081  2.7784  0.3804  1.3352
 2307SOL     OW18382   4.070   3.312  10.922 -0.2579 -1.0043  0.3274
 2307SOL    HW118383   4.005   3.320  10.853 -2.7354  2.1364  3.0354
 2307SOL    HW218384   4.153   3.313  10.873 -3.0691  1.3538 -4.3355
 2308SOL     OW18385   0.137   3.748  12.362 -0.4251  0.8080  0.2085
 2308SOL    HW118386   0.098   3.698  12.290 -0.6484 -0.3684  1.1348
 2308SOL    HW218387   0.230   3.750  12.339 -0.1010 -1.6865  1.2201
 2309SOL     OW18388   0.322   3.959   6.077 -0.1934 -0.1418  0.5529
 2309SOL    HW118389   0.268   3.914   6.012 -0.7153 -0.4970  1.2190
 2309SOL    HW218390   0.408   3.919   6.071 -0.9535 -1.5191 -1.1934
 2310SOL     OW18391   1.610   2.946   6.983  0.2127  0.5838  0.4006
 2310SOL    HW118392   1.660   2.867   7.000 -0.7978 -0.0781  0.3048
 2310SOL    HW218393   1.560   2.926   6.904 -0.4690  1.8165  0.5134
 2311SOL     OW18394   4.156   4.184   0.797  0.1422  0.3002  0.2407
 2311SOL    HW118395   4.174   4.093   0.773 -0.1995  0.4785 -0.6806
 2311SOL    HW218396   4.144   4.225   0.711 -2.3505 -1.7297 -0.3920
 2312SOL     OW18397   2.291   1.370   9.839 -0.2594  0.5468 -0.0377
 2312SOL    HW118398   2.260   1.301   9.898 -0.4269 -0.8634 -1.7730
 2312SOL    HW218399   2.355   1.414   9.895  0.4156  1.2808 -1.3856
 2313SOL     OW18400   0.714   2.468   7.264 -0.0312 -0.4350 -0.1199
 2313SOL    HW118401   0.705   2.499   7.174  0.9224  0.8950  0.2271
 2313SOL    HW218402   0.662   2.388   7.270  0.0291 -0.2967  2.1896
 2314SOL     OW18403   2.728   3.082   7.811  1.1457 -0.0940  0.4174
 2314SOL    HW118404   2.746   3.136   7.734 -1.0727  0.7421  0.5044
 2314SOL    HW218405   2.684   3.137   7.875  0.3188 -0.2921  0.0129
 2315SOL     OW18406   4.454   1.750   1.597 -0.2512  0.5415  0.5195
 2315SOL    HW118407   4.428   1.750   1.689  0.7501  1.3078  0.8043
 2315SOL    HW218408   4.514   1.825   1.603 -0.0027  0.2352  1.9857
 2316SOL     OW18409   3.074   1.554   9.318  0.4914 -0.3106 -0.2837
 2316SOL    HW118410   3.078   1.459   9.310  1.3998 -0.3677  0.7844
 2316SOL    HW218411   3.030   1.571   9.401  0.2429 -0.7584 -0.3260
 2317SOL     OW18412   4.456   3.176  16.586  0.2696  0.1264  0.6642
 2317SOL    HW118413   4.479   3.086  16.563 -4.1308 -0.5872 -0.8745
 2317SOL    HW218414   4.519   3.218  16.527 -0.3203  0.9685  0.6314
 2318SOL     OW18415   2.106   0.271   8.885  0.3118 -0.1927  0.5683
 2318SOL    HW118416   2.141   0.184   8.904  1.4501  0.0894 -0.2495
 2318SOL    HW218417   2.076   0.295   8.973 -2.7236  2.0190 -1.0752
 2319SOL     OW18418   3.348   1.478   9.169 -0.3577  0.2685 -0.1579
 2319SOL    HW118419   3.291   1.402   9.180  1.6712 -0.8574  2.3953
 2319SOL    HW218420   3.296   1.553   9.197 -0.5522  0.2745 -0.5238
 2320SOL     OW18421   4.008   3.034   2.090  0.7226 -0.4190 -0.1256
 2320SOL    HW118422   4.080   2.997   2.141  0.4809  0.5978  0.9317
 2320SOL    HW218423   4.027   2.979   2.014  0.6806 -1.4188  0.5928
 2321SOL     OW18424   0.643   1.095   8.276  0.0317  0.8205  0.5389
 2321SOL    HW118425   0.607   1.155   8.342 -0.3889  1.4426 -0.2694
 2321SOL    HW218426   0.587   1.113   8.201  1.3650 -2.3065 -1.1899
 2322SOL     OW18427   1.771   0.968  14.027  0.3091  0.1116 -0.1374
 2322SOL    HW118428   1.691   0.999  14.068  1.4750  0.5951  1.7752
 2322SOL    HW218429   1.780   0.882  14.066  0.4645  0.6495  1.0104
 2323SOL     OW18430   3.830   2.272   9.179  0.1049  0.3262 -0.4894
 2323SOL    HW118431   3.837   2.343   9.115 -0.6624  0.6658 -0.2102
 2323SOL    HW218432   3.829   2.192   9.127  1.7725  0.8603 -1.3169
 2324SOL     OW18433   2.213   1.192   3.832  0.6074 -0.0333 -0.2501
 2324SOL    HW118434   2.153   1.118   3.824 -1.1931  1.1454  2.4647
 2324SOL    HW218435   2.176   1.230   3.912  0.4511 -1.2334  0.2489
 2325SOL     OW18436   0.046   0.494   9.946 -0.4309  0.2895  0.0692
 2325SOL    HW118437   0.121   0.436   9.936 -2.5188 -2.9758  3.4012
 2325SOL    HW218438   0.030   0.478  10.039 -2.3336 -2.4874 -0.7328
 2326SOL     OW18439   2.484   4.636   8.583 -0.1636  0.1224 -0.3981
 2326SOL    HW118440   2.572   4.613   8.553  0.6337  0.1552  1.9516
 2326SOL    HW218441   2.480   0.004   8.558 -0.2134  0.3792  0.5608
 2327SOL     OW18442   4.486   3.330   1.105 -0.2230  0.0254  0.3367
 2327SOL    HW118443   4.570   3.316   1.062 -0.4695 -1.4849  0.3594
 2327SOL    HW218444   4.435   3.391   1.050  0.4566  0.2405 -0.0494
 2328SOL     OW18445   2.753   3.949   2.273  0.0794 -0.1625 -0.1359
 2328SOL    HW118446   2.771   3.986   2.359  0.9123  3.1675 -1.7373
 2328SOL    HW218447   2.671   3.905   2.297 -0.1765 -0.5532 -1.7216
 2329SOL     OW18448   0.668   2.935   3.408  0.5438 -0.3367 -0.1257
 2329SOL    HW118449   0.699   2.952   3.319  1.9792  0.0169  0.4477
 2329SOL    HW218450   0.573   2.944   3.413  0.5983  1.7690 -2.9376
 2330SOL     OW18451   2.787   3.815  10.807  0.4403  0.2923  0.5937
 2330SOL    HW118452   2.815   3.906  10.819  2.1442 -0.1725  0.0854
 2330SOL    HW218453   2.740   3.814  10.723  1.8834 -1.4404 -0.1888
 2331SOL     OW18454   0.034   4.689   0.368 -0.7912  0.2805 -0.6651
 2331SOL    HW118455   0.005   0.004   0.286 -0.8478 -0.1261 -0.8406
 2331SOL    HW218456   0.033   0.041   0.426 -1.9554 -0.3318  0.1175
 2332SOL     OW18457   3.687   4.298  16.783  0.1821  0.1584 -0.3493
 2332SOL    HW118458   3.768   4.248  16.773  0.3370  0.5524 -1.0944
 2332SOL    HW218459   3.635   4.241  16.839 -0.8192  1.3283 -0.0943
 2333SOL     OW18460   4.537   2.923  16.542  0.4717  0.1687 -0.1326
 2333SOL    HW118461   4.559   2.845  16.490  2.6307 -0.2453  1.4493
 2333SOL    HW218462   4.625   2.954  16.560  0.6042 -0.0136 -0.4640
 2334SOL     OW18463   3.114   1.928  12.516 -0.0585 -0.0272 -0.6120
 2334SOL    HW118464   3.176   1.989  12.476  1.5383 -0.8315  0.6003
 2334SOL    HW218465   3.076   1.988  12.580  2.9522  0.8567  0.3469
 2335SOL     OW18466   1.107   0.911  10.795 -0.1434 -0.1844 -0.0912
 2335SOL    HW118467   1.101   0.838  10.734  0.7997 -1.0760  0.8673
 2335SOL    HW218468   1.135   0.879  10.881  0.7020 -3.6156 -1.6493
 2336SOL     OW18469   3.753   1.954   2.131  0.2209 -0.0625  0.1545
 2336SOL    HW118470   3.736   2.035   2.082  2.7233  0.7414  0.6053
 2336SOL    HW218471   3.767   1.993   2.217  0.8029  1.3056 -0.5624
 2337SOL     OW18472   3.104   2.826   4.534  0.0943 -0.2499 -0.0913
 2337SOL    HW118473   3.173   2.820   4.600  0.0005  1.3022  0.1539
 2337SOL    HW218474   3.145   2.761   4.477  1.8386 -0.2506  1.1755
 2338SOL     OW18475   2.890   1.621   8.318  0.1342  0.3157  0.2372
 2338SOL    HW118476   2.981   1.649   8.309 -0.2165  1.5077  0.4226
 2338SOL    HW218477   2.894   1.569   8.398  2.8384 -0.5273 -0.4502
 2339SOL     OW18478   0.725   4.267  12.793 -0.2534  0.2744  0.3555
 2339SOL    HW118479   0.770   4.225  12.866 -1.8402 -0.4473  0.9101
 2339SOL    HW218480   0.661   4.209  12.753  1.2764 -1.1733 -0.0117
 2340SOL     OW18481   2.041   1.200   9.181  0.3572  0.4595 -0.3921
 2340SOL    HW118482   2.110   1.165   9.237  0.5148 -0.6671 -1.2857
 2340SOL    HW218483   2.093   1.243   9.114 -1.1460  0.7730 -1.3625
 2341SOL     OW18484   1.461   3.922  13.925  0.2017  0.1172  0.5276
 2341SOL    HW118485   1.445   3.928  13.831 -0.5224  3.7999  0.8827
 2341SOL    HW218486   1.397   3.857  13.955 -2.4405  1.6794 -1.7691
 2342SOL     OW18487   2.072   1.380   6.470 -0.3135  0.1027 -0.0125
 2342SOL    HW118488   2.006   1.426   6.522 -0.3555  1.3928 -1.2084
 2342SOL    HW218489   2.102   1.322   6.540 -2.5114  2.1283  2.6132
 2343SOL     OW18490   4.255   1.853   7.244 -0.0053  0.0924 -0.0296
 2343SOL    HW118491   4.273   1.878   7.154  1.4279 -0.2106  0.1789
 2343SOL    HW218492   4.160   1.868   7.246 -0.0849 -0.2035 -1.6480
 2344SOL     OW18493   0.610   3.380   3.101  0.6844  0.3292  0.0045
 2344SOL    HW118494   0.688   3.329   3.081  0.9274  0.6150  0.2067
 2344SOL    HW218495   0.647   3.466   3.082  0.4386  0.3748 -0.2623
 2345SOL     OW18496   1.175   2.786   6.598 -0.1251  0.2385 -0.2784
 2345SOL    HW118497   1.234   2.858   6.574 -0.2121  1.1392  2.1883
 2345SOL    HW218498   1.114   2.790   6.525  1.2154  0.0268 -1.4095
 2346SOL     OW18499   3.596   4.523   4.555 -0.4959 -0.2076  0.0544
 2346SOL    HW118500   3.608   4.432   4.528 -3.0461  0.0084 -1.9196
 2346SOL    HW218501   3.536   4.545   4.483 -3.1804  1.7039  2.8405
 2347SOL     OW18502   0.333   2.972   6.726 -0.1199 -0.9838 -0.1909
 2347SOL    HW118503   0.423   3.002   6.710 -0.5667  2.1124  3.2234
 2347SOL    HW218504   0.285   3.020   6.659  0.8903 -0.6302 -0.6661
 2348SOL     OW18505   2.689   0.424  15.845 -0.7985 -0.5212  0.1266
 2348SOL    HW118506   2.665   0.437  15.936 -0.6226  0.9282 -0.0322
 2348SOL    HW218507   2.778   0.393  15.862 -1.3510 -1.0538  2.0038
 2349SOL     OW18508   2.097   2.294   5.901 -0.0575 -0.7350 -0.0533
 2349SOL    HW118509   2.108   2.266   5.811  2.5032 -1.5775  0.5068
 2349SOL    HW218510   2.084   2.386   5.878  2.6636 -0.1645  0.6516
 2350SOL     OW18511   2.988   1.557   4.894 -0.2148 -0.3526 -0.5032
 2350SOL    HW118512   2.906   1.568   4.943  0.5234 -0.7996  0.8253
 2350SOL    HW218513   3.008   1.476   4.939  2.2855 -0.0921 -1.1832
 2351SOL     OW18514   3.322   3.392   7.699  0.0312 -0.0617  0.2531
 2351SOL    HW118515   3.269   3.315   7.715  2.1688 -1.7519 -0.8246
 2351SOL    HW218516   3.333   3.390   7.604  0.8151 -0.8008  0.3594
 2352SOL     OW18517   3.680   3.990  12.940 -0.1987  0.5026  0.2656
 2352SOL    HW118518   3.675   4.022  12.850  0.5064 -0.6247 -0.1751
 2352SOL    HW218519   3.762   4.035  12.961  0.3596  0.4505 -1.7685
 2353SOL     OW18520   0.013   2.912   3.085 -0.4176  0.1380 -0.2935
 2353SOL    HW118521   4.670   2.845   3.094  0.6687 -0.7530  0.9703
 2353SOL    HW218522   4.683   2.985   3.117 -0.1816  0.3931 -0.4729
 2354SOL     OW18523   0.708   3.547  16.707 -0.1040 -0.4480  0.0359
 2354SOL    HW118524   0.691   3.505  16.623  1.2241 -0.5424 -0.1842
 2354SOL    HW218525   0.718   3.471  16.763 -0.6196  0.6122  1.5641
 2355SOL     OW18526   1.098   4.411   3.536  0.0225 -0.2649 -0.0439
 2355SOL    HW118527   1.102   4.423   3.631 -1.1954  0.5764 -0.0981
 2355SOL    HW218528   1.078   4.504   3.521 -0.5172 -0.1113  1.6240
 2356SOL     OW18529   0.175   1.034   0.414  0.2989  0.2334  0.4362
 2356SOL    HW118530   0.099   0.982   0.387 -0.3399  0.7467  1.2352
 2356SOL    HW218531   0.143   1.082   0.490 -0.6475  1.2822 -0.6023
 2357SOL     OW18532   3.297   0.659   3.993  0.5048 -0.1270  0.3446
 2357SOL    HW118533   3.227   0.705   4.039 -0.2364 -0.5293 -0.3880
 2357SOL    HW218534   3.264   0.641   3.905  0.6462  1.4694 -0.0497
 2358SOL     OW18535   2.737   3.763  12.082 -0.9323 -0.2824 -0.6752
 2358SOL    HW118536   2.723   3.813  12.002  1.3700  0.3664 -0.6644
 2358SOL    HW218537   2.831   3.775  12.094 -1.6046  1.7652  2.3254
 2359SOL     OW18538   4.074   3.932   5.072  0.1373 -0.0537  0.1134
 2359SOL    HW118539   4.166   3.914   5.091  0.4058  1.8047  0.6148
 2359SOL    HW218540   4.072   3.903   4.981 -1.6576  2.8865 -0.7774
 2360SOL     OW18541   3.237   4.049   7.489 -0.0593  0.7023 -0.1421
 2360SOL    HW118542   3.256   4.027   7.580 -1.0191  0.0190 -0.1079
 2360SOL    HW218543   3.155   4.006   7.467 -1.0986  3.0845 -0.9569
 2361SOL     OW18544   4.103   3.105  14.048 -0.5217 -0.7705  0.1500
 2361SOL    HW118545   4.109   3.186  14.097  0.5740 -0.6942 -0.1115
 2361SOL    HW218546   4.027   3.128  13.994 -1.3519  0.0989  1.6736
 2362SOL     OW18547   2.120   1.579   0.158  0.2427  0.0733 -0.3295
 2362SOL    HW118548   2.172   1.567   0.238  0.7542 -4.6258 -1.3782
 2362SOL    HW218549   2.057   1.647   0.181  0.3745 -1.3462  4.4158
 2363SOL     OW18550   3.751   1.685   1.464 -0.1493 -0.5706  0.0997
 2363SOL    HW118551   3.709   1.771   1.461 -0.2015 -0.5453  1.2993
 2363SOL    HW218552   3.763   1.672   1.370 -1.8749 -1.6191  0.0373
 2364SOL     OW18553   3.331   0.250   8.302 -0.8293 -0.6272  0.4259
 2364SOL    HW118554   3.287   0.253   8.217 -2.0521  0.3866  1.1074
 2364SOL    HW218555   3.288   0.327   8.338  1.9675  1.3714 -0.5620
 2365SOL     OW18556   2.512   1.568   2.374 -0.2788 -0.3497  0.0487
 2365SOL    HW118557   2.462   1.514   2.435  2.0932  1.1401  3.2957
 2365SOL    HW218558   2.538   1.633   2.439  1.1156 -0.1766 -0.6819
 2366SOL     OW18559   0.399   4.593   5.222  0.1681  0.2633  0.0061
 2366SOL    HW118560   0.333   4.607   5.154 -0.0469  0.6008  0.2866
 2366SOL    HW218561   0.477   4.585   5.167 -1.6353  1.0984 -2.6869
 2367SOL     OW18562   4.441   4.516   4.500  0.3708  0.2893 -0.3862
 2367SOL    HW118563   4.369   4.454   4.513  0.7925  0.3301  2.2665
 2367SOL    HW218564   4.516   4.473   4.541 -0.6888 -0.6419  0.5805
 2368SOL     OW18565   2.684   1.173   3.971  0.0150  0.5370 -0.3566
 2368SOL    HW118566   2.721   1.252   3.932  2.4140 -1.3759 -2.0017
 2368SOL    HW218567   2.706   1.182   4.064 -0.0705 -1.0426 -0.1743
 2369SOL     OW18568   1.126   1.346  11.869 -0.1933  0.4268  0.1082
 2369SOL    HW118569   1.163   1.357  11.781  1.4052 -0.7244  0.6398
 2369SOL    HW218570   1.072   1.270  11.848 -1.4523  1.6679 -1.1833
 2370SOL     OW18571   2.682   1.317   7.407  0.5215 -0.2326  0.1743
 2370SOL    HW118572   2.643   1.256   7.344 -2.1898 -0.0616  1.6998
 2370SOL    HW218573   2.690   1.262   7.485 -3.1672 -1.4178 -0.3173
 2371SOL     OW18574   1.547   2.057   1.694  0.0059 -0.2996  0.0148
 2371SOL    HW118575   1.518   2.017   1.612  2.7479 -1.3106 -0.4820
 2371SOL    HW218576   1.544   1.988   1.760  0.3830 -0.1548  0.1855
 2372SOL     OW18577   0.079   0.972   2.314 -0.2239  0.4047  0.2130
 2372SOL    HW118578   0.142   1.044   2.307  0.6850 -0.3196  0.8713
 2372SOL    HW218579   0.122   0.907   2.259 -0.6620  1.7768 -1.7211
 2373SOL     OW18580   2.627   1.725  15.229  0.1932  0.1806  0.3608
 2373SOL    HW118581   2.648   1.702  15.139 -2.3843 -1.8581  0.2943
 2373SOL    HW218582   2.547   1.676  15.248  1.3391 -0.9945  2.2246
 2374SOL     OW18583   0.906   1.058  14.151 -0.1758  0.1006 -0.1750
 2374SOL    HW118584   0.982   1.116  14.144  1.0179 -1.2988  1.3411
 2374SOL    HW218585   0.909   1.036  14.244  0.6545 -0.6410 -0.3788
 2375SOL     OW18586   1.594   3.201   7.590  0.3822 -0.0991 -0.4944
 2375SOL    HW118587   1.630   3.152   7.664 -1.3891 -1.6417 -0.6358
 2375SOL    HW218588   1.669   3.196   7.532  0.7656 -0.3252  0.0231
 2376SOL     OW18589   3.700   2.073   9.445 -0.0277 -0.1546 -0.1050
 2376SOL    HW118590   3.787   2.108   9.424 -0.6344  1.0289 -0.6336
 2376SOL    HW218591   3.677   2.032   9.361  1.5200  1.0116 -1.0949
 2377SOL     OW18592   4.397   3.000   5.463 -0.4609 -0.0394 -0.1101
 2377SOL    HW118593   4.434   2.950   5.390 -2.4467  1.5453 -2.2046
 2377SOL    HW218594   4.321   2.944   5.478 -1.6151  1.2567 -1.1078
 2378SOL     OW18595   4.306   0.382   5.663 -0.5288  0.2050 -1.0225
 2378SOL    HW118596   4.294   0.423   5.577  2.4459 -0.9036 -1.9781
 2378SOL    HW218597   4.351   0.300   5.643  2.4340  2.0127 -1.7560
 2379SOL     OW18598   0.706   0.318   5.969 -0.1142  0.0612 -0.0034
 2379SOL    HW118599   0.772   0.378   5.934 -1.6203  0.8104 -1.6209
 2379SOL    HW218600   0.755   0.291   6.046  0.3049 -1.2504 -0.7189
 2380SOL     OW18601   2.977   3.114   0.368 -0.1264 -0.5895 -0.1083
 2380SOL    HW118602   2.990   3.020   0.381 -0.9038 -0.8860 -1.5672
 2380SOL    HW218603   2.927   3.139   0.446 -2.2562 -2.8011 -0.7545
 2381SOL     OW18604   2.205   4.277   0.507 -0.1387 -0.0576 -0.0808
 2381SOL    HW118605   2.114   4.292   0.482  0.0314 -0.8909 -1.2095
 2381SOL    HW218606   2.214   4.185   0.484  0.2966 -0.2369  0.8046
 2382SOL     OW18607   0.760   2.875   6.108  0.6034  0.0046  0.2260
 2382SOL    HW118608   0.800   2.927   6.039  0.9455  1.0986  1.2578
 2382SOL    HW218609   0.827   2.814   6.138  2.3011  1.3380 -0.9054
 2383SOL     OW18610   1.102   3.164  17.354  0.1037  0.4382 -0.2302
 2383SOL    HW118611   1.198   3.159  17.347  0.1139  1.4187 -0.8663
 2383SOL    HW218612   1.094   3.253  17.388 -0.2643 -0.2201  1.3784
 2384SOL     OW18613   0.599   1.729   6.474 -0.1652  0.1929  0.3289
 2384SOL    HW118614   0.564   1.744   6.561 -2.9971  1.3849 -1.0031
 2384SOL    HW218615   0.515   1.703   6.435 -0.6523  1.7333  0.3113
 2385SOL     OW18616   1.760   1.472   4.768 -0.3920  0.4498  0.2883
 2385SOL    HW118617   1.798   1.500   4.684 -2.6417  1.8164 -0.2626
 2385SOL    HW218618   1.804   1.387   4.759  0.3432  0.6777  1.8132
 2386SOL     OW18619   4.641   3.465   2.729  0.3840  0.1528  0.0110
 2386SOL    HW118620   0.005   3.453   2.693  1.1647 -0.2721  2.0776
 2386SOL    HW218621   4.613   3.554   2.709 -1.2801 -0.3569  0.0512
 2387SOL     OW18622   2.665   2.386   8.398 -0.1560 -0.0443 -0.1389
 2387SOL    HW118623   2.688   2.465   8.349  1.0994  1.6588  3.2322
 2387SOL    HW218624   2.695   2.311   8.347  0.2453  0.0621 -0.0580
 2388SOL     OW18625   3.677   2.341   1.311  0.0144  0.0172 -0.1434
 2388SOL    HW118626   3.758   2.390   1.321 -0.0202  0.4154 -1.8079
 2388SOL    HW218627   3.663   2.339   1.217  1.0958 -1.1243 -0.2625
 2389SOL     OW18628   0.670   3.435   8.418  0.2286 -0.6701  0.1587
 2389SOL    HW118629   0.646   3.527   8.408  2.1666 -0.3083 -1.0971
 2389SOL    HW218630   0.759   3.439   8.452 -0.1176  0.1372  0.9726
 2390SOL     OW18631   4.099   4.545   2.981  0.4831 -0.5892  0.7556
 2390SOL    HW118632   4.066   4.611   3.042  1.1972  1.5717 -1.1940
 2390SOL    HW218633   4.139   4.498   3.055 -0.7067 -1.9729  0.5303
 2391SOL     OW18634   1.618   2.581   6.253  0.2268  0.0543  0.3210
 2391SOL    HW118635   1.620   2.549   6.163 -0.4021  0.1252  0.2832
 2391SOL    HW218636   1.666   2.515   6.303 -1.5548 -1.9154 -0.5586
 2392SOL     OW18637   0.182   1.280   4.672  0.6046  0.0220 -0.5402
 2392SOL    HW118638   0.207   1.294   4.763  1.1863 -0.3936 -0.6349
 2392SOL    HW218639   0.135   1.198   4.687 -0.4730  0.7588  0.0426
 2393SOL     OW18640   1.353   0.417   3.123  0.0079  0.2244 -0.4749
 2393SOL    HW118641   1.409   0.408   3.046  0.8708  0.2976  0.1440
 2393SOL    HW218642   1.348   0.329   3.158 -2.1104  0.4346 -0.2409
 2394SOL     OW18643   0.912   2.862   3.901  0.3334 -0.4847 -0.1312
 2394SOL    HW118644   0.873   2.933   3.850 -0.3991 -1.6782 -1.2364
 2394SOL    HW218645   0.998   2.861   3.859  0.6285  0.2354  0.4554
 2395SOL     OW18646   2.126   2.574   7.436  0.2857 -0.4297  0.0942
 2395SOL    HW118647   2.078   2.525   7.503 -0.3649 -0.6974 -0.5627
 2395SOL    HW218648   2.048   2.618   7.402 -0.6495 -0.3823  2.3436
 2396SOL     OW18649   1.085   4.161   9.830  0.0537  0.1948 -0.0009
 2396SOL    HW118650   1.168   4.209   9.833 -0.1695  0.5160  0.9718
 2396SOL    HW218651   1.032   4.227   9.875 -0.0136  1.1091 -1.4316
 2397SOL     OW18652   4.242   0.282  14.754  0.3413  0.4115 -0.5316
 2397SOL    HW118653   4.218   0.248  14.668 -0.3782 -2.7528  0.9181
 2397SOL    HW218654   4.333   0.306  14.737  1.6870 -2.5767  2.2740
 2398SOL     OW18655   2.228   3.546  15.849  0.3149 -0.2920  0.6624
 2398SOL    HW118656   2.290   3.619  15.839  1.3652 -1.5062 -1.7211
 2398SOL    HW218657   2.152   3.590  15.886  1.1545  1.3716  0.4599
 2399SOL     OW18658   3.811   3.014   6.362  0.0810 -0.2049 -0.1455
 2399SOL    HW118659   3.873   3.038   6.430  0.6339  0.3241 -0.8383
 2399SOL    HW218660   3.809   3.091   6.305 -1.6314  0.4658  0.8252
 2400SOL     OW18661   4.304   2.089   1.692 -0.2695  0.3734  0.0125
 2400SOL    HW118662   4.300   2.094   1.787  0.6127  0.5676  0.0441
 2400SOL    HW218663   4.395   2.070   1.666 -0.8846 -1.8465 -0.5048
 2401SOL     OW18664   4.714   1.128  12.877 -0.5309  0.4405 -0.5853
 2401SOL    HW118665   4.703   1.195  12.945  1.9075 -0.4667  0.6899
 2401SOL    HW218666   0.081   1.154  12.865 -0.4205  0.7720  0.9345
 2402SOL     OW18667   2.729   2.724  10.809  0.6167 -0.2962 -0.4346
 2402SOL    HW118668   2.665   2.709  10.740  0.4184 -1.0173 -0.0893
 2402SOL    HW218669   2.709   2.818  10.817  0.4352 -0.3630 -0.0800
 2403SOL     OW18670   2.915   3.219   3.260  0.6257  0.4019 -0.3635
 2403SOL    HW118671   3.007   3.229   3.284  0.6334  0.4660 -0.4183
 2403SOL    HW218672   2.865   3.203   3.339 -1.1274 -1.6312 -1.8805
 2404SOL     OW18673   1.173   0.509   5.428 -0.4575 -0.4050  0.3158
 2404SOL    HW118674   1.216   0.461   5.357 -1.4357 -1.3951  0.3924
 2404SOL    HW218675   1.232   0.495   5.502 -0.7555 -0.2842  0.5753
 2405SOL     OW18676   4.485   1.654  13.666  0.1916  0.3379  0.0303
 2405SOL    HW118677   4.418   1.610  13.614  1.7347 -0.6839 -1.0767
 2405SOL    HW218678   4.524   1.715  13.603  0.7052  1.0946  1.0767
 2406SOL     OW18679   2.787   2.880   5.016  0.2655 -0.0194  0.5937
 2406SOL    HW118680   2.783   2.973   4.995 -1.1036 -0.2173 -0.0100
 2406SOL    HW218681   2.721   2.871   5.084 -1.3349  1.9371 -0.7415
 2407SOL     OW18682   1.795   0.819   1.105  0.2558  0.0491 -0.3589
 2407SOL    HW118683   1.743   0.824   1.025 -0.6713  0.7134  0.2907
 2407SOL    HW218684   1.877   0.781   1.074 -0.5963 -2.1277  0.0644
 2408SOL     OW18685   2.359   1.555   7.269 -0.3217  0.6203 -0.5406
 2408SOL    HW118686   2.449   1.551   7.234 -0.1423 -0.2350  0.0155
 2408SOL    HW218687   2.318   1.469   7.257  1.0197  0.3523 -3.2764
 2409SOL     OW18688   0.923   0.292  11.751  0.1657 -0.0695 -0.1469
 2409SOL    HW118689   0.956   0.224  11.810 -1.3367 -0.9848 -0.3720
 2409SOL    HW218690   0.935   0.362  11.815 -0.2994 -1.0630  1.0235
 2410SOL     OW18691   0.375   2.519   4.311 -0.1520 -0.2334 -0.4069
 2410SOL    HW118692   0.456   2.468   4.311  0.5267  0.8092  2.7617
 2410SOL    HW218693   0.362   2.540   4.219  0.1782 -1.5995 -0.7651
 2411SOL     OW18694   2.645   4.440  11.745 -0.2959 -0.2513  0.1160
 2411SOL    HW118695   2.730   4.439  11.789 -0.4135  1.3122  0.3569
 2411SOL    HW218696   2.581   4.473  11.808 -1.5896  1.7245 -2.2422
 2412SOL     OW18697   2.424   2.979   2.127  0.2310  0.2861  0.2028
 2412SOL    HW118698   2.418   3.003   2.219  0.6111 -0.6937  0.4857
 2412SOL    HW218699   2.329   2.962   2.122  0.4907 -1.0929 -0.3076
 2413SOL     OW18700   0.579   3.858  16.555 -0.3851 -0.3002  0.4461
 2413SOL    HW118701   0.618   3.796  16.493 -0.0879  0.1357  0.2037
 2413SOL    HW218702   0.483   3.850  16.550 -0.2543 -1.4104 -0.4670
 2414SOL     OW18703   0.622   3.270  10.648  0.4853  0.3354  0.2166
 2414SOL    HW118704   0.667   3.337  10.595  0.4664  0.4681  0.3702
 2414SOL    HW218705   0.554   3.245  10.585  0.5816 -1.0690  0.6903
 2415SOL     OW18706   2.091   3.843   0.424  0.3965 -0.3607  0.3914
 2415SOL    HW118707   2.185   3.839   0.445  0.3328  1.8942  1.1056
 2415SOL    HW218708   2.048   3.836   0.509 -0.4442  2.6454  0.2300
 2416SOL     OW18709   3.399   0.627   6.313  0.2496  0.1795  0.0095
 2416SOL    HW118710   3.412   0.722   6.310 -0.0596  0.2486  0.8683
 2416SOL    HW218711   3.328   0.619   6.248  0.2956 -1.3771  0.1491
 2417SOL     OW18712   1.527   0.259   8.597  0.1042 -0.1008 -0.0144
 2417SOL    HW118713   1.537   0.324   8.527  1.0763 -0.2502 -0.0122
 2417SOL    HW218714   1.442   0.221   8.577 -1.0683  0.8712  3.0557
 2418SOL     OW18715   3.110   0.584   2.184 -0.6298  0.2797  0.4731
 2418SOL    HW118716   3.202   0.581   2.157  0.2244  1.7970  3.1845
 2418SOL    HW218717   3.083   0.516   2.122  0.3790  0.5601 -0.2774
 2419SOL     OW18718   0.353   0.889   5.875  0.2850 -0.6609 -0.3732
 2419SOL    HW118719   0.300   0.809   5.868  0.3343 -0.6516 -0.9109
 2419SOL    HW218720   0.415   0.863   5.943 -0.5649 -0.9288  0.3059
 2420SOL     OW18721   2.611   2.944   4.624  0.5486  0.3305  0.4628
 2420SOL    HW118722   2.636   2.955   4.532  0.8794 -2.0994  0.2620
 2420SOL    HW218723   2.680   2.878   4.639  0.8371  0.2368 -1.3289
 2421SOL     OW18724   0.341   3.388   6.015 -0.3297 -0.0143  0.1319
 2421SOL    HW118725   0.389   3.326   5.960  0.5702  1.5677 -0.8739
 2421SOL    HW218726   0.408   3.456   6.022 -0.3432  0.0653 -0.4561
 2422SOL     OW18727   2.699   2.752   1.792 -0.1729  0.0059 -0.6217
 2422SOL    HW118728   2.636   2.680   1.797 -0.0350 -0.0200  0.7953
 2422SOL    HW218729   2.674   2.795   1.710 -2.2696 -0.0216  0.0018
 2423SOL     OW18730   3.800   1.499  13.555 -0.1678 -0.1702 -0.0168
 2423SOL    HW118731   3.779   1.406  13.548  1.8749 -0.7595  1.9042
 2423SOL    HW218732   3.772   1.503  13.647 -0.6900 -1.0240 -0.1412
 2424SOL     OW18733   0.077   0.752   0.588 -0.2353 -0.4772 -0.3335
 2424SOL    HW118734   0.079   0.664   0.624 -2.9353 -0.9405 -1.3266
 2424SOL    HW218735   0.169   0.777   0.581 -0.5209 -0.3968 -3.6971
 2425SOL     OW18736   0.325   1.534  10.651 -0.1981  0.0139  0.3796
 2425SOL    HW118737   0.388   1.597  10.686 -0.0408 -0.2114  0.4972
 2425SOL    HW218738   0.335   1.461  10.711  0.2964 -1.1438 -1.1163
 2426SOL     OW18739   2.750   3.714   5.018  0.5606  0.0892 -0.3702
 2426SOL    HW118740   2.842   3.736   5.000  0.4211  2.3741  1.7361
 2426SOL    HW218741   2.714   3.802   5.012  0.0611  0.0262  1.5288
 2427SOL     OW18742   2.623   1.368   1.832  0.1549 -0.3902 -0.1146
 2427SOL    HW118743   2.530   1.387   1.836  0.4953  1.2755 -0.1349
 2427SOL    HW218744   2.642   1.447   1.781 -1.3849 -0.7032 -1.1689
 2428SOL     OW18745   4.115   1.207   4.625  0.0702  0.5846 -0.6748
 2428SOL    HW118746   4.123   1.112   4.634 -0.4599  0.6475  0.4733
 2428SOL    HW218747   4.028   1.216   4.586 -0.7349  4.3184  1.9239
 2429SOL     OW18748   2.537   1.862   2.338  0.2943  0.2156 -0.1995
 2429SOL    HW118749   2.565   1.865   2.430 -0.5741  0.1038  0.0624
 2429SOL    HW218750   2.446   1.891   2.338  0.7175  1.5271  1.5634
 2430SOL     OW18751   3.854   1.299  14.882 -0.0665 -0.8685 -0.3227
 2430SOL    HW118752   3.813   1.284  14.797 -3.9593  0.9234  1.2309
 2430SOL    HW218753   3.927   1.358  14.861 -0.3635 -0.2037  0.5182
 2431SOL     OW18754   2.142   2.200  16.470  0.3401  0.1428 -0.3408
 2431SOL    HW118755   2.074   2.262  16.494 -0.1153 -0.7579  0.7253
 2431SOL    HW218756   2.191   2.196  16.552 -0.2597  0.2153  0.0154
 2432SOL     OW18757   1.789   3.493  16.583 -0.0147 -0.1166  0.0942
 2432SOL    HW118758   1.724   3.436  16.623 -0.1045 -0.6620 -0.8098
 2432SOL    HW218759   1.733   3.549  16.530  0.2538  0.4474  0.4101
 2433SOL     OW18760   3.165   2.511   5.066 -0.3892 -0.1774  0.2829
 2433SOL    HW118761   3.256   2.484   5.078 -0.3173 -0.7146 -1.4907
 2433SOL    HW218762   3.176   2.576   4.997  1.3854 -0.3015  0.4534
 2434SOL     OW18763   3.063   1.455   2.466 -0.2766 -0.4261 -0.8737
 2434SOL    HW118764   3.020   1.372   2.444 -0.9986 -0.5571  1.1098
 2434SOL    HW218765   3.126   1.418   2.528 -0.4654 -1.0930 -1.0758
 2435SOL     OW18766   2.739   2.774   9.245 -0.3692 -0.3916 -0.3060
 2435SOL    HW118767   2.791   2.847   9.279 -1.1550  0.2169 -0.4222
 2435SOL    HW218768   2.811   2.747   9.187  0.8616 -0.4142  1.2306
 2436SOL     OW18769   1.653   1.738  15.381  0.7583 -0.4123 -0.1722
 2436SOL    HW118770   1.649   1.644  15.366 -2.4346 -0.6820  2.1901
 2436SOL    HW218771   1.560   1.762  15.380  0.4913 -1.4726 -0.4543
 2437SOL     OW18772   3.988   2.419   6.291 -0.4792  0.1411  0.1524
 2437SOL    HW118773   4.006   2.370   6.211  1.9648  1.1088  0.1133
 2437SOL    HW218774   3.900   2.454   6.275 -0.1773  0.3688 -1.0023
 2438SOL     OW18775   1.289   3.134   1.035  0.3421 -0.4277  0.0026
 2438SOL    HW118776   1.364   3.186   1.005 -1.1540  1.1596 -1.0309
 2438SOL    HW218777   1.281   3.152   1.129  0.5151 -3.4940  0.5802
 2439SOL     OW18778   4.428   3.383   4.660 -0.2714 -0.4455 -0.6607
 2439SOL    HW118779   4.350   3.352   4.614 -1.4775 -1.2289  1.9193
 2439SOL    HW218780   4.412   3.475   4.637 -0.1185  0.3381  2.3773
 2440SOL     OW18781   2.807   2.205   1.976  0.5707 -0.1124  0.0580
 2440SOL    HW118782   2.725   2.162   1.951 -0.2816  1.2673  0.4463
 2440SOL    HW218783   2.853   2.132   2.017 -0.0665  0.2445  1.4211
 2441SOL     OW18784   1.864   1.681   7.859  0.4952  0.6088  0.5315
 2441SOL    HW118785   1.780   1.727   7.860  0.5186  0.6142  2.0171
 2441SOL    HW218786   1.922   1.756   7.873  0.7508  0.5090  0.0252
 2442SOL     OW18787   3.513   2.185   1.450 -0.0589  0.0020 -0.2828
 2442SOL    HW118788   3.436   2.235   1.421 -0.5027 -1.1849 -1.1591
 2442SOL    HW218789   3.581   2.217   1.391  0.6490 -2.2734 -0.6924
 2443SOL     OW18790   1.068   3.450   5.814  0.4407 -0.5853 -0.2003
 2443SOL    HW118791   1.151   3.478   5.777 -0.0702  1.2956  0.0924
 2443SOL    HW218792   1.016   3.530   5.807 -2.1191 -2.2113  0.1246
 2444SOL     OW18793   4.172   3.528   5.822  0.7195 -0.2392 -0.1201
 2444SOL    HW118794   4.228   3.455   5.796 -1.2038 -2.2807  1.5059
 2444SOL    HW218795   4.187   3.586   5.747 -1.8839 -0.0048 -0.4649
 2445SOL     OW18796   1.307   2.619   7.856  0.1281 -0.1645  0.3275
 2445SOL    HW118797   1.317   2.698   7.909  1.0690  0.8391 -1.3698
 2445SOL    HW218798   1.367   2.563   7.906 -2.6936 -3.2304  0.2987
 2446SOL     OW18799   3.689   2.483   7.344 -1.0688 -0.7164  0.0750
 2446SOL    HW118800   3.614   2.505   7.289 -0.2328  1.6005 -0.1258
 2446SOL    HW218801   3.729   2.418   7.287  0.3717 -1.1919  1.6242
 2447SOL     OW18802   1.133   3.958  10.017 -0.1259  0.0412  0.2127
 2447SOL    HW118803   1.107   4.026   9.956  2.6815  2.5209  1.8228
 2447SOL    HW218804   1.101   3.990  10.101  0.8847  0.9697  0.2342
 2448SOL     OW18805   2.757   1.688  10.320 -0.2736 -0.3284  0.1370
 2448SOL    HW118806   2.759   1.711  10.413  1.5934  1.0949 -0.2514
 2448SOL    HW218807   2.665   1.702  10.299 -0.8339 -0.4976  2.4756
 2449SOL     OW18808   0.534   4.009   4.780  0.2598 -0.1230  0.1780
 2449SOL    HW118809   0.598   3.940   4.798  0.6700  0.6423  1.6691
 2449SOL    HW218810   0.578   4.081   4.826 -0.1259  1.5785 -2.1212
 2450SOL     OW18811   4.416   1.418  10.366 -0.0396  0.4225  0.1539
 2450SOL    HW118812   4.341   1.457  10.411 -0.1460  1.2330 -0.7193
 2450SOL    HW218813   4.380   1.332  10.345  2.5468 -0.7175  0.4068
 2451SOL     OW18814   4.433   1.827  15.516  0.0704  0.5067 -0.9021
 2451SOL    HW118815   4.431   1.871  15.601 -2.2452  0.0659 -0.7248
 2451SOL    HW218816   4.356   1.855  15.466  0.0093 -0.7051 -1.4826
 2452SOL     OW18817   2.453   4.185   5.085 -0.2902  0.3822  0.2021
 2452SOL    HW118818   2.482   4.260   5.138 -0.0562  1.2576 -1.1518
 2452SOL    HW218819   2.466   4.213   4.994  1.2842  0.7542  0.5491
 2453SOL     OW18820   4.412   2.736  12.470 -0.3638  0.2850 -0.4715
 2453SOL    HW118821   4.431   2.677  12.398  0.9236 -0.2863  0.3272
 2453SOL    HW218822   4.496   2.742  12.516  0.4343 -2.6444 -1.5861
 2454SOL     OW18823   0.085   0.274  15.258 -0.2878 -0.7997  0.2801
 2454SOL    HW118824   0.041   0.331  15.321  0.1909  0.6476 -0.7106
 2454SOL    HW218825   0.173   0.311  15.257 -0.0065 -1.4707  0.1542
 2455SOL     OW18826   1.707   2.410   8.342  0.1110 -0.7626 -0.3041
 2455SOL    HW118827   1.755   2.429   8.423  2.3866 -2.7119 -1.2095
 2455SOL    HW218828   1.628   2.456   8.371 -0.1297 -2.1604  1.2949
 2456SOL     OW18829   0.966   4.430  13.256 -0.1024 -0.0076 -0.3244
 2456SOL    HW118830   0.995   4.381  13.179  2.5345  0.4678  0.3723
 2456SOL    HW218831   1.042   4.446  13.312 -1.1590  3.2318  0.1954
 2457SOL     OW18832   2.998   1.586   9.565  0.0475 -0.2438  0.4462
 2457SOL    HW118833   3.070   1.607   9.624  0.4510 -0.3682 -0.0089
 2457SOL    HW218834   2.945   1.532   9.624 -2.3330  1.1843 -0.3895
 2458SOL     OW18835   0.066   2.476   7.171  0.1433  0.0041 -0.0421
 2458SOL    HW118836   0.097   2.388   7.191  0.8499  0.4632  0.9283
 2458SOL    HW218837   4.703   2.455   7.137 -0.9128  1.5862  1.6444
 2459SOL     OW18838   3.709   0.311   5.432 -0.1372 -0.0774  0.2054
 2459SOL    HW118839   3.737   0.231   5.388 -2.1289  0.3937 -1.8910
 2459SOL    HW218840   3.779   0.328   5.495 -0.9491  0.3321  0.9958
 2460SOL     OW18841   4.547   3.082   6.283  0.2705 -0.1967 -0.0054
 2460SOL    HW118842   4.532   3.039   6.199 -0.4514  1.0563 -0.5123
 2460SOL    HW218843   4.638   3.109   6.270  0.4199 -0.1732  1.0306
 2461SOL     OW18844   4.548   4.674  16.903 -0.1219 -0.5411  0.1153
 2461SOL    HW118845   4.621   0.007  16.882 -0.0302 -0.9724 -0.7410
 2461SOL    HW218846   4.527   4.716  16.987 -1.3483  2.1748 -1.5791
 2462SOL     OW18847   0.791   2.540   8.753 -0.6050  0.3398 -0.0179
 2462SOL    HW118848   0.734   2.616   8.768  0.4831 -0.0935  6.4149
 2462SOL    HW218849   0.744   2.474   8.804  2.9162 -2.5925 -0.5756
 2463SOL     OW18850   1.699   3.700   7.386 -0.1724 -0.1849  0.0312
 2463SOL    HW118851   1.767   3.711   7.452 -0.1985 -1.7350  0.3155
 2463SOL    HW218852   1.619   3.723   7.434 -0.6861  0.5009 -1.1571
 2464SOL     OW18853   1.108   3.587   8.804  0.5953  0.6978 -0.1378
 2464SOL    HW118854   1.091   3.499   8.837  1.1494  2.0171  3.6226
 2464SOL    HW218855   1.066   3.641   8.870 -0.2578  1.4994 -1.3314
 2465SOL     OW18856   1.410   4.162  16.003 -0.2058 -0.6146 -0.3023
 2465SOL    HW118857   1.421   4.071  15.976 -1.2228 -0.7650 -0.2406
 2465SOL    HW218858   1.321   4.164  16.040 -0.6602 -1.7481 -1.3556
 2466SOL     OW18859   3.440   2.757   2.621 -0.1270  0.5104 -0.1487
 2466SOL    HW118860   3.388   2.681   2.646 -1.4252  1.2168 -0.7103
 2466SOL    HW218861   3.494   2.712   2.556  1.4790  1.5353  0.4656
 2467SOL     OW18862   2.988   0.497   7.529  0.4159  0.3270 -0.3316
 2467SOL    HW118863   3.001   0.454   7.444  0.5175  0.2409 -0.2714
 2467SOL    HW218864   3.078   0.508   7.558 -0.0654 -0.5076  1.4432
 2468SOL     OW18865   4.620   3.802  16.256  0.1571  0.0215 -0.2015
 2468SOL    HW118866   4.570   3.884  16.261 -1.8018 -1.1757 -0.3537
 2468SOL    HW218867   4.548   3.751  16.292  0.5064 -0.8402 -0.7079
 2469SOL     OW18868   3.426   3.332   0.864  0.0466 -0.0543 -0.7161
 2469SOL    HW118869   3.414   3.375   0.779 -0.1379 -0.5263 -0.9316
 2469SOL    HW218870   3.373   3.254   0.843 -1.4333  1.1416 -1.4168
 2470SOL     OW18871   4.608   4.676  15.607  0.2629 -0.3521  0.0749
 2470SOL    HW118872   4.571   0.018  15.667  3.5465  1.0132  0.5976
 2470SOL    HW218873   4.638   4.723  15.529  1.7028  0.2004  0.9559
 2471SOL     OW18874   2.750   3.955   4.695 -0.2093 -0.1763  0.8936
 2471SOL    HW118875   2.682   3.948   4.628  0.1577  3.9246  0.1303
 2471SOL    HW218876   2.711   3.947   4.782 -0.6492  2.9488  0.9945
 2472SOL     OW18877   1.175   2.848  14.857 -0.0789  0.0792 -0.1266
 2472SOL    HW118878   1.177   2.885  14.769  0.4269 -0.0007 -0.1475
 2472SOL    HW218879   1.086   2.870  14.884 -0.0956  1.3584 -1.2129
 2473SOL     OW18880   0.040   0.017  14.274 -0.0683 -0.2617 -0.1064
 2473SOL    HW118881   0.078   4.718  14.189 -0.2304  0.0810 -0.2704
 2473SOL    HW218882   0.081   4.672  14.326  0.8773  1.5027  1.4810
 2474SOL     OW18883   2.767   2.696   5.911  0.2258 -0.0629  0.2764
 2474SOL    HW118884   2.715   2.774   5.888  1.6821  1.2371  1.3418
 2474SOL    HW218885   2.769   2.645   5.830 -1.4815  0.5968 -0.1745
 2475SOL     OW18886   1.115   1.959  12.299 -0.1989 -0.3513 -0.4049
 2475SOL    HW118887   1.189   2.017  12.283  0.3002 -0.9336 -0.2043
 2475SOL    HW218888   1.038   1.997  12.256 -0.5450  0.5474  0.9846
 2476SOL     OW18889   4.032   1.796   2.832  0.1415  0.0017 -0.1206
 2476SOL    HW118890   4.065   1.711   2.863 -2.3508 -0.3376  1.5475
 2476SOL    HW218891   3.941   1.776   2.810 -0.7961  3.8167  0.3363
 2477SOL     OW18892   3.818   3.685  13.216  0.0930  0.1133 -0.0547
 2477SOL    HW118893   3.752   3.617  13.201  0.7741 -0.7982  1.0586
 2477SOL    HW218894   3.825   3.729  13.131  0.1889  0.4474  0.1238
 2478SOL     OW18895   3.808   3.264   5.282  0.4573  0.7277 -0.2764
 2478SOL    HW118896   3.746   3.280   5.210  1.2266  2.1278 -0.6396
 2478SOL    HW218897   3.846   3.351   5.296 -2.7532  2.6175 -3.4516
 2479SOL     OW18898   3.411   3.768   4.109 -0.5726 -0.5045  0.4394
 2479SOL    HW118899   3.345   3.710   4.069  2.6924 -1.5942 -3.3787
 2479SOL    HW218900   3.355   3.799   4.180 -0.3390 -0.1590  0.4715
 2480SOL     OW18901   2.914   3.236   1.692 -0.0589 -0.0217 -0.2130
 2480SOL    HW118902   2.876   3.317   1.725 -0.1915  0.0060 -0.4326
 2480SOL    HW218903   2.964   3.219   1.772  1.8152  2.4071 -0.8773
 2481SOL     OW18904   4.128   1.574   1.467 -0.3252  0.1820  0.4481
 2481SOL    HW118905   4.058   1.542   1.525  0.3022 -1.1302  0.4706
 2481SOL    HW218906   4.078   1.567   1.385 -0.8783  0.1760  0.7810
 2482SOL     OW18907   4.529   4.547   3.902  0.0689  0.0992 -0.3286
 2482SOL    HW118908   4.532   4.503   3.817  1.7072 -1.6192  0.6336
 2482SOL    HW218909   4.609   4.598   3.894  1.4401 -2.1705 -0.8573
 2483SOL     OW18910   2.475   1.569  12.105 -0.3641  0.1667 -0.0423
 2483SOL    HW118911   2.462   1.633  12.035 -0.1295  1.4218  1.0521
 2483SOL    HW218912   2.529   1.504  12.060 -0.3391  0.0725  0.1237
 2484SOL     OW18913   1.749   3.367   7.008  0.0829 -0.5793  0.5884
 2484SOL    HW118914   1.729   3.420   7.085 -0.8108  0.1126 -0.1199
 2484SOL    HW218915   1.746   3.280   7.049  0.8535 -0.1820  1.4911
 2485SOL     OW18916   3.137   1.323   9.534  0.5179 -0.4172 -0.2526
 2485SOL    HW118917   3.216   1.282   9.501  2.4751  3.7071 -0.7656
 2485SOL    HW218918   3.175   1.354   9.616 -1.7619 -0.0832  0.6833
 2486SOL     OW18919   0.689   4.619   0.939  0.0450  0.4391  0.5506
 2486SOL    HW118920   0.772   4.665   0.954 -0.1163  0.9946 -0.2445
 2486SOL    HW218921   0.665   4.594   1.028  0.9112 -0.0915  0.6349
 2487SOL     OW18922   0.695   4.562   5.442 -0.7967 -0.2513  0.1019
 2487SOL    HW118923   0.710   4.630   5.507  1.2102  1.5394 -2.2334
 2487SOL    HW218924   0.685   4.625   5.370 -0.3829  0.0367  0.2980
 2488SOL     OW18925   2.897   1.622  13.710 -0.2567  0.1272  0.3097
 2488SOL    HW118926   2.859   1.640  13.624 -1.8123 -0.8066  0.8051
 2488SOL    HW218927   2.822   1.637  13.768  0.5407 -1.3926  1.7452
 2489SOL     OW18928   3.249   0.551   5.388 -0.7517 -0.2225 -0.3950
 2489SOL    HW118929   3.165   0.572   5.348 -1.2920  0.0104  0.8621
 2489SOL    HW218930   3.257   0.457   5.369 -1.6996 -0.7189  1.6731
 2490SOL     OW18931   3.572   4.609   4.155 -0.1653 -0.0492 -0.7701
 2490SOL    HW118932   3.536   4.697   4.164 -0.9546 -0.3256 -1.3145
 2490SOL    HW218933   3.642   4.621   4.091 -0.5225  1.6930 -0.8258
 2491SOL     OW18934   3.930   1.314   3.013 -0.4408 -0.4583 -0.3252
 2491SOL    HW118935   3.914   1.220   3.004  2.6175 -1.1302  1.0979
 2491SOL    HW218936   3.997   1.301   3.081  0.6086 -0.5620 -1.3747
 2492SOL     OW18937   0.889   0.302   9.798 -0.4339  0.0958 -0.1450
 2492SOL    HW118938   0.796   0.318   9.816 -0.9307 -2.1916 -0.7860
 2492SOL    HW218939   0.895   0.335   9.708 -3.1076 -0.0961 -0.3948
 2493SOL     OW18940   4.484   1.614   5.238  0.2633 -0.8177 -0.3966
 2493SOL    HW118941   4.422   1.637   5.169  2.3869  1.4645 -1.5394
 2493SOL    HW218942   4.444   1.633   5.323  0.8803 -2.2421  0.2039
 2494SOL     OW18943   3.655   0.452   1.094 -0.1461 -0.1430  0.8949
 2494SOL    HW118944   3.687   0.529   1.141  2.8832  0.2776 -1.8602
 2494SOL    HW218945   3.567   0.475   1.062  0.8029  1.2798 -0.7061
 2495SOL     OW18946   3.097   1.862  11.522  0.0031 -0.2608 -0.2871
 2495SOL    HW118947   3.058   1.830  11.603  1.1230 -1.2806 -0.1609
 2495SOL    HW218948   3.079   1.956  11.518 -0.4899 -0.2020  2.9263
 2496SOL     OW18949   1.476   2.837   6.744 -0.3847 -0.2577 -0.6353
 2496SOL    HW118950   1.475   2.770   6.675  0.5733 -0.8229 -0.0999
 2496SOL    HW218951   1.392   2.819   6.787 -1.7816 -0.3519 -3.4111
 2497SOL     OW18952   3.402   3.650   9.201 -0.7924  0.1395  0.3077
 2497SOL    HW118953   3.464   3.601   9.146 -2.0733 -1.8599  0.6530
 2497SOL    HW218954   3.335   3.667   9.135  0.2187 -1.1959 -1.0627
 2498SOL     OW18955   4.616   2.726   8.198  0.0739  0.1665  0.3474
 2498SOL    HW118956   4.586   2.757   8.113 -1.1508  0.3179  0.8270
 2498SOL    HW218957   4.709   2.746   8.197  0.3650 -1.3440 -1.9883
 2499SOL     OW18958   0.251   2.255  12.054 -0.2447  0.2353  0.1989
 2499SOL    HW118959   0.179   2.198  12.082  0.5709 -0.1581  1.4896
 2499SOL    HW218960   0.323   2.193  12.064 -0.8025 -0.2069  1.4797
 2500SOL     OW18961   0.754   1.919   6.728  0.0753  0.1126 -0.4716
 2500SOL    HW118962   0.812   1.931   6.802  1.3546  0.8793 -1.6101
 2500SOL    HW218963   0.671   1.920   6.776 -0.1541  1.3009 -0.9021
 2501SOL     OW18964   4.041   1.571   7.096  0.3722 -0.4297  0.4472
 2501SOL    HW118965   4.079   1.524   7.171  1.1195  0.7426  0.8151
 2501SOL    HW218966   3.979   1.507   7.061 -0.1023  0.1950  0.1437
 2502SOL     OW18967   1.949   4.425   3.445 -0.7022 -0.2696  0.2940
 2502SOL    HW118968   1.934   4.486   3.373 -1.0706 -0.9411 -0.1855
 2502SOL    HW218969   2.032   4.384   3.419  0.9500  1.6045  2.5393
 2503SOL     OW18970   2.432   3.687  13.663  0.0591  0.4155 -0.0616
 2503SOL    HW118971   2.400   3.597  13.660  1.3915 -0.0740  0.5767
 2503SOL    HW218972   2.462   3.694  13.754  1.3668 -2.7209 -0.2694
 2504SOL     OW18973   0.622   2.214  12.900 -0.6190  0.3566 -0.2902
 2504SOL    HW118974   0.679   2.207  12.977 -0.1616 -0.4098 -0.6992
 2504SOL    HW218975   0.569   2.135  12.903 -0.7745  0.4907  0.6575
 2505SOL     OW18976   1.484   2.125   2.430 -0.3936  0.3860 -0.1241
 2505SOL    HW118977   1.401   2.171   2.415 -0.4044  0.2363 -0.5117
 2505SOL    HW218978   1.499   2.094   2.341  1.4236  0.3479  0.1968
 2506SOL     OW18979   1.531   3.939   7.002 -0.6541 -0.2205  0.0955
 2506SOL    HW118980   1.537   3.946   7.098  1.5341  2.5525 -0.2359
 2506SOL    HW218981   1.499   3.850   6.993 -0.2049 -0.2922 -0.7289
 2507SOL     OW18982   1.935   0.349   5.598 -0.5388 -0.0074  0.1695
 2507SOL    HW118983   1.999   0.393   5.542 -0.7696  0.7547  0.4899
 2507SOL    HW218984   1.861   0.351   5.537 -1.2101  1.5876  1.0257
 2508SOL     OW18985   4.590   2.118   7.440 -0.4168  0.3330 -0.4957
 2508SOL    HW118986   4.618   2.075   7.359  1.1100 -0.5790  0.5111
 2508SOL    HW218987   4.661   2.178   7.461  0.6260 -0.3846 -1.9269
 2509SOL     OW18988   4.347   2.515   1.390  0.0679  0.2615 -0.2013
 2509SOL    HW118989   4.326   2.581   1.456 -1.4243  0.8525 -1.2449
 2509SOL    HW218990   4.368   2.442   1.448 -1.4551 -0.9095 -1.1372
 2510SOL     OW18991   2.126   2.041  11.297  0.6314 -0.4309 -0.9017
 2510SOL    HW118992   2.048   2.058  11.350  1.0462 -3.1411  0.5243
 2510SOL    HW218993   2.116   1.946  11.295  1.9801 -0.6163  0.9727
 2511SOL     OW18994   4.294   3.578   2.896 -0.4296 -0.3940  0.7564
 2511SOL    HW118995   4.247   3.495   2.895  0.5159 -0.9369  0.0564
 2511SOL    HW218996   4.378   3.554   2.937  0.2693  0.8879  0.0789
 2512SOL     OW18997   2.522   4.013   0.773  0.1221 -0.4289  0.3208
 2512SOL    HW118998   2.586   4.023   0.842 -1.2417  0.4927  1.4401
 2512SOL    HW218999   2.453   4.001   0.838  0.1691 -3.3489 -0.1505
 2513SOL     OW19000   4.189   3.651   4.105  0.4824  0.3174  0.6831
 2513SOL    HW119001   4.206   3.745   4.097  2.2632  0.0835  1.5912
 2513SOL    HW219002   4.223   3.641   4.194  0.6302  1.7155  0.7779
 2514SOL     OW19003   1.540   2.686   7.190  0.6701  0.3204  0.2968
 2514SOL    HW119004   1.613   2.702   7.129 -0.8690  0.3664 -1.5145
 2514SOL    HW219005   1.552   2.771   7.232  2.7328  0.4717 -0.5762
 2515SOL     OW19006   2.604   3.474  11.185 -0.2475 -0.1082 -0.3969
 2515SOL    HW119007   2.677   3.452  11.128  0.7613  0.9221  0.4935
 2515SOL    HW219008   2.530   3.458  11.127 -0.5854  1.4639 -0.3995
 2516SOL     OW19009   3.352   1.469  13.905 -0.6038  0.5716  0.2416
 2516SOL    HW119010   3.442   1.437  13.894 -0.3285  2.0773 -1.9684
 2516SOL    HW219011   3.307   1.385  13.916  2.6858 -1.1972  0.2999
 2517SOL     OW19012   1.964   0.557   3.990  0.4112  0.3637 -0.0183
 2517SOL    HW119013   2.038   0.508   3.953  0.8288  1.1545 -0.2420
 2517SOL    HW219014   1.904   0.488   4.017 -1.4967  0.0326 -5.0561
 2518SOL     OW19015   3.322   3.241  17.071 -0.0072 -0.5213 -0.1313
 2518SOL    HW119016   3.358   3.171  17.126  1.6245  0.8757  0.5765
 2518SOL    HW219017   3.273   3.285  17.140  0.1146 -0.7662  0.1129
 2519SOL     OW19018   4.665   3.716   2.334  0.5626  0.0489  0.6562
 2519SOL    HW119019   4.677   3.790   2.394  3.0519 -0.0343  0.2471
 2519SOL    HW219020   0.012   3.731   2.272 -0.0036  2.6046  0.5982
 2520SOL     OW19021   2.626   0.468   5.023  0.0250  0.5947  0.2161
 2520SOL    HW119022   2.637   0.562   5.008  1.4371  0.2690 -0.8007
 2520SOL    HW219023   2.533   0.450   5.009  0.0215  0.0730  0.9310
 2521SOL     OW19024   1.355   1.913   5.533  0.1861  0.1964 -0.1679
 2521SOL    HW119025   1.408   1.992   5.539 -0.2235  0.2909  2.0961
 2521SOL    HW219026   1.424   1.848   5.521  0.0787 -0.0607  0.6559
 2522SOL     OW19027   0.660   3.927   3.886  0.0826 -0.4244 -0.3186
 2522SOL    HW119028   0.730   3.958   3.828  0.3559  1.7621  1.1705
 2522SOL    HW219029   0.619   4.013   3.901 -1.0671 -1.0393  0.0377
 2523SOL     OW19030   1.247   1.109   3.317  0.2677 -0.0001  0.1541
 2523SOL    HW119031   1.339   1.083   3.315  0.3843  0.5520 -1.5881
 2523SOL    HW219032   1.205   1.033   3.278  2.9571 -1.8384  0.8144
 2524SOL     OW19033   3.321   1.813   0.991 -0.0605 -0.0577  0.4747
 2524SOL    HW119034   3.322   1.736   1.048  1.7058 -0.5756 -0.2402
 2524SOL    HW219035   3.412   1.804   0.962 -0.3659 -0.6821 -0.2648
 2525SOL     OW19036   3.076   1.437   5.334 -0.1521 -0.1727 -0.5488
 2525SOL    HW119037   3.125   1.355   5.329  0.7519  0.5487 -3.4551
 2525SOL    HW219038   3.148   1.494   5.306 -1.2152  2.1108  1.3991
 2526SOL     OW19039   0.989   4.316   1.824  0.7514  0.0674  0.2408
 2526SOL    HW119040   0.901   4.324   1.787  0.8166 -0.4646 -0.0184
 2526SOL    HW219041   1.032   4.291   1.742 -1.4362 -1.1269 -0.5307
 2527SOL     OW19042   4.391   1.323   5.960  0.5444  0.8634  0.4047
 2527SOL    HW119043   4.421   1.381   6.031  0.4475  0.4255  0.8083
 2527SOL    HW219044   4.298   1.314   5.980  0.0197  2.3355 -1.4837
 2528SOL     OW19045   1.939   0.474  15.752 -0.1460  0.1726 -0.4110
 2528SOL    HW119046   2.001   0.494  15.822  0.3968  1.0915 -1.1585
 2528SOL    HW219047   1.992   0.486  15.673 -2.3942 -0.8142 -2.0727
 2529SOL     OW19048   3.929   2.443   1.416 -0.3639  0.6370 -0.1727
 2529SOL    HW119049   3.975   2.480   1.492 -2.9485  1.7527  0.8240
 2529SOL    HW219050   3.999   2.447   1.350  0.6445  0.2967  0.8633
 2530SOL     OW19051   4.264   3.126   5.057  0.5679 -0.1941 -0.4211
 2530SOL    HW119052   4.331   3.173   5.007 -1.3483  2.8108 -0.1939
 2530SOL    HW219053   4.243   3.187   5.128  0.8985  1.6517 -1.8779
 2531SOL     OW19054   4.605   2.185   8.419  0.2309 -0.2974 -0.6197
 2531SOL    HW119055   4.626   2.131   8.343 -0.1033 -0.0123 -0.9104
 2531SOL    HW219056   4.633   2.134   8.495 -0.8974 -0.1704 -0.1174
 2532SOL     OW19057   1.313   3.719   9.317  0.1767  0.1248  0.0507
 2532SOL    HW119058   1.326   3.808   9.284 -3.2760 -0.4438 -2.8108
 2532SOL    HW219059   1.398   3.677   9.307  0.2839  0.3561 -0.0165
 2533SOL     OW19060   3.601   3.223   8.161 -0.4557 -0.2770  0.1530
 2533SOL    HW119061   3.595   3.295   8.224  0.2254 -1.2427  1.3168
 2533SOL    HW219062   3.528   3.244   8.102 -1.1213 -0.0703  1.0402
 2534SOL     OW19063   1.818   3.599   2.890 -0.7219 -0.1659  0.4388
 2534SOL    HW119064   1.804   3.657   2.815  1.7170 -0.1665 -0.0198
 2534SOL    HW219065   1.770   3.640   2.962  0.1882  0.9322  0.4041
 2535SOL     OW19066   2.499   0.643  16.468 -0.1309 -0.3070 -0.0507
 2535SOL    HW119067   2.575   0.597  16.433 -0.2204  0.4777 -1.3010
 2535SOL    HW219068   2.516   0.634  16.562  0.0866  0.1932 -0.0401
 2536SOL     OW19069   2.761   3.395  16.967 -0.7463 -0.5109  0.0534
 2536SOL    HW119070   2.719   3.470  16.926 -1.2571 -1.9065 -2.0346
 2536SOL    HW219071   2.690   3.332  16.958 -0.1722 -0.8251 -2.3484
 2537SOL     OW19072   3.378   3.110   6.767 -0.3467  0.4095  0.0927
 2537SOL    HW119073   3.306   3.166   6.737 -0.9951 -0.2833  0.3607
 2537SOL    HW219074   3.408   3.166   6.838  0.2279  0.9021 -0.5352
 2538SOL     OW19075   3.388   0.249  14.838 -0.4932  0.8895  0.6283
 2538SOL    HW119076   3.304   0.205  14.823 -0.0833  0.5518 -0.6672
 2538SOL    HW219077   3.448   0.177  14.857 -0.2925  0.3997 -1.8049
 2539SOL     OW19078   1.340   2.577   4.396  0.4839  0.4479  0.4125
 2539SOL    HW119079   1.246   2.579   4.415  0.0088 -0.5277 -1.8341
 2539SOL    HW219080   1.343   2.568   4.301 -3.6554 -0.4042  0.3350
 2540SOL     OW19081   4.130   3.744   5.644 -0.6329  0.7777  0.0400
 2540SOL    HW119082   4.073   3.818   5.659  0.1930  0.6404  3.8050
 2540SOL    HW219083   4.113   3.711   5.555  1.2109 -2.5638  0.9143
 2541SOL     OW19084   2.412   4.488   9.005  0.3297  0.1067  0.5436
 2541SOL    HW119085   2.322   4.493   9.037  0.0759 -1.0086 -0.0284
 2541SOL    HW219086   2.452   4.515   9.088 -2.2957  1.4255  1.3893
 2542SOL     OW19087   1.508   0.616  17.383 -0.0533  0.1841 -0.4705
 2542SOL    HW119088   1.436   0.656  17.334  0.2184  0.1992 -0.8576
 2542SOL    HW219089   1.584   0.670  17.362  1.0770 -0.6612  1.4739
 2543SOL     OW19090   0.478   4.562   8.387  0.1469  0.0609 -0.1407
 2543SOL    HW119091   0.420   4.554   8.311 -0.0993  0.6381 -0.0130
 2543SOL    HW219092   0.527   4.481   8.371 -0.3332  0.1056 -1.8518
 2544SOL     OW19093   1.444   3.426   2.155  0.0161 -0.2874 -0.0437
 2544SOL    HW119094   1.356   3.416   2.118 -0.2131 -2.4448  1.1160
 2544SOL    HW219095   1.483   3.341   2.172 -1.3964 -1.1695 -1.1844
 2545SOL     OW19096   1.086   2.421   5.203  0.7332  0.0482 -0.0394
 2545SOL    HW119097   1.025   2.354   5.172  0.4389  0.4249 -0.2818
 2545SOL    HW219098   1.148   2.416   5.131  1.2380  0.1277  0.3850
 2546SOL     OW19099   3.492   4.205   3.902  0.3766  0.1846 -0.2621
 2546SOL    HW119100   3.419   4.257   3.869  0.9889  0.9384 -0.4243
 2546SOL    HW219101   3.453   4.160   3.977  1.0869 -0.8995 -0.5316
 2547SOL     OW19102   4.040   0.138   6.359  0.1785 -0.3735  0.8194
 2547SOL    HW119103   3.992   0.059   6.386  1.7054 -0.8638  2.0704
 2547SOL    HW219104   3.967   0.198   6.377  0.4060  0.5130 -1.1930
 2548SOL     OW19105   4.664   3.979  14.115 -0.0825  0.1869  0.2831
 2548SOL    HW119106   0.035   3.986  14.121 -0.0252  1.2064 -1.9180
 2548SOL    HW219107   4.622   4.063  14.135  0.1533 -0.3963  3.2330
 2549SOL     OW19108   0.700   4.586   1.325 -0.5523 -0.3197 -0.0792
 2549SOL    HW119109   0.735   4.661   1.278 -1.8554 -0.4964 -1.3415
 2549SOL    HW219110   0.612   4.587   1.288 -0.7127 -0.6825  0.2979
 2550SOL     OW19111   0.696   0.338  17.302  0.2729 -0.5883  0.3702
 2550SOL    HW119112   0.786   0.337  17.269 -0.8519 -2.5504 -2.6828
 2550SOL    HW219113   0.652   0.322  17.219  1.1650  1.1258 -0.4391
 2551SOL     OW19114   0.506   4.603   6.485  0.4989  0.5325 -0.3292
 2551SOL    HW119115   0.559   4.582   6.408 -2.8415 -2.0641 -1.9203
 2551SOL    HW219116   0.541   4.544   6.550 -2.0500  0.0547  0.5964
 2552SOL     OW19117   1.133   2.144   8.056  0.1427 -0.0687 -0.0019
 2552SOL    HW119118   1.058   2.198   8.031 -0.6163 -0.9710  0.2999
 2552SOL    HW219119   1.153   2.193   8.136 -0.5348 -1.1976  0.8614
 2553SOL     OW19120   0.793   0.747   5.105  0.0749  0.1530 -0.2293
 2553SOL    HW119121   0.846   0.822   5.077  0.1084 -0.5034 -1.9428
 2553SOL    HW219122   0.820   0.712   5.189 -1.9472  0.0643  0.3862
 2554SOL     OW19123   1.876   4.092   5.730  0.1289 -0.0626  0.7750
 2554SOL    HW119124   1.832   4.035   5.793 -0.1442 -1.1731 -0.4416
 2554SOL    HW219125   1.959   4.047   5.713  0.5947  0.7373  0.9136
 2555SOL     OW19126   2.894   4.175   4.099  0.4579 -0.2197 -0.1455
 2555SOL    HW119127   2.950   4.253   4.096  1.1984 -0.7845 -0.6873
 2555SOL    HW219128   2.867   4.163   4.008  3.6253 -0.0548 -1.0777
 2556SOL     OW19129   4.312   3.140  15.471  0.5848  0.0474 -0.7446
 2556SOL    HW119130   4.258   3.215  15.448  1.2079  0.6894 -0.1087
 2556SOL    HW219131   4.368   3.176  15.540 -0.3126  0.8549 -0.4499
 2557SOL     OW19132   3.997   3.144   8.609 -0.6968  0.3650 -0.2860
 2557SOL    HW119133   4.073   3.199   8.631 -0.6230 -0.5263  1.6949
 2557SOL    HW219134   4.029   3.121   8.521 -1.0617  0.4550 -0.4421
 2558SOL     OW19135   1.136   2.657   8.841 -0.2758  0.0612  0.1144
 2558SOL    HW119136   1.071   2.681   8.907  0.2733  2.1450 -0.1152
 2558SOL    HW219137   1.080   2.634   8.766  0.3690  0.2120 -0.4099
 2559SOL     OW19138   0.336   0.363   5.833 -1.0631  0.1004 -0.0962
 2559SOL    HW119139   0.315   0.452   5.805 -0.7730  0.3233  0.3920
 2559SOL    HW219140   0.356   0.326   5.747 -3.3265 -0.5283 -0.3579
 2560SOL     OW19141   4.479   2.729   6.177 -0.0376 -0.7451  0.9289
 2560SOL    HW119142   4.535   2.793   6.133  0.6957 -0.7019  1.9116
 2560SOL    HW219143   4.460   2.771   6.262 -0.8273  0.2245  0.2799
 2561SOL     OW19144   4.446   2.988   9.109 -0.5636  0.7125  0.1414
 2561SOL    HW119145   4.508   3.029   9.049  0.0750 -0.3318  0.0924
 2561SOL    HW219146   4.380   2.960   9.045  0.1185  0.2005 -0.3274
 2562SOL     OW19147   0.487   0.455   2.710 -0.0592 -0.1169 -0.3098
 2562SOL    HW119148   0.402   0.438   2.671 -0.6481  0.9276  0.5127
 2562SOL    HW219149   0.485   0.390   2.780 -0.5189 -1.4605 -1.5823
 2563SOL     OW19150   4.363   3.956   6.779  0.0856 -0.4679 -0.4036
 2563SOL    HW119151   4.432   4.016   6.809  0.9555 -1.3698 -0.5799
 2563SOL    HW219152   4.300   3.996   6.838  0.7203 -0.2472  0.1293
 2564SOL     OW19153   3.750   1.171   3.677 -0.2720  0.0757  0.2651
 2564SOL    HW119154   3.674   1.224   3.702  0.5217  1.5730 -0.5222
 2564SOL    HW219155   3.739   1.081   3.706  0.6687 -0.2833 -0.5261
 2565SOL     OW19156   0.436   0.012   4.679 -0.5516  0.3946  0.2702
 2565SOL    HW119157   0.364   0.062   4.641 -0.9291  0.5512  1.1894
 2565SOL    HW219158   0.489   0.083   4.717  1.8817 -0.7983 -0.8892
 2566SOL     OW19159   2.281   4.611   9.754 -0.0381  0.0634 -0.0573
 2566SOL    HW119160   2.270   4.565   9.671 -0.2764 -0.3240  0.1867
 2566SOL    HW219161   2.326   4.687   9.718 -0.2768 -0.2142 -0.9206
 2567SOL     OW19162   1.171   1.285   9.338 -0.1339 -0.4644 -0.3575
 2567SOL    HW119163   1.255   1.251   9.369  0.6127  1.0052 -0.7587
 2567SOL    HW219164   1.142   1.327   9.419 -0.9392  1.2219 -1.5239
 2568SOL     OW19165   3.542   2.707   5.222 -0.1447 -0.0235 -0.5682
 2568SOL    HW119166   3.489   2.660   5.286  1.3644 -0.1710  0.5577
 2568SOL    HW219167   3.497   2.790   5.207 -1.1922 -0.5617 -0.4462
 2569SOL     OW19168   4.523   4.502   9.377 -0.3502 -0.0026 -0.0753
 2569SOL    HW119169   4.429   4.513   9.365 -0.3959  0.9267  1.1601
 2569SOL    HW219170   4.546   4.505   9.284  0.1450  0.7623  0.0759
 2570SOL     OW19171   3.107   1.081   6.466 -0.0058 -0.1010 -0.3961
 2570SOL    HW119172   3.200   1.065   6.483 -0.4235 -0.5388  1.5779
 2570SOL    HW219173   3.084   1.062   6.557  1.8665  3.5027  0.8154
 2571SOL     OW19174   3.084   1.418  13.675  0.4551 -0.4346  0.5126
 2571SOL    HW119175   3.031   1.492  13.705  0.3500  0.2533 -1.3308
 2571SOL    HW219176   3.143   1.439  13.602 -1.7369 -1.3793 -1.5389
 2572SOL     OW19177   3.266   1.009   4.644  0.2949 -0.4449  0.3990
 2572SOL    HW119178   3.236   0.935   4.696 -0.6011 -0.2948  0.1088
 2572SOL    HW219179   3.355   0.985   4.669  1.1852  1.6378 -0.7534
 2573SOL     OW19180   3.405   2.613   3.465  0.2188  0.2770  0.4298
 2573SOL    HW119181   3.466   2.541   3.481  0.5124  0.1923 -1.0631
 2573SOL    HW219182   3.343   2.599   3.537  0.2290 -1.2674  0.1316
 2574SOL     OW19183   1.282   1.582   4.600 -0.0383 -0.0431 -0.4365
 2574SOL    HW119184   1.187   1.577   4.597 -0.1567  1.9787  0.6641
 2574SOL    HW219185   1.287   1.596   4.694  1.2090 -0.0502 -0.5002
 2575SOL     OW19186   4.514   3.746  15.649 -0.5908  0.1998 -0.1227
 2575SOL    HW119187   4.487   3.662  15.612 -0.3491  0.4974 -0.9758
 2575SOL    HW219188   4.497   3.735  15.743 -0.7372 -1.6941 -0.3671
 2576SOL     OW19189   1.457   4.500   4.277  0.1757 -0.8126 -0.7423
 2576SOL    HW119190   1.553   4.500   4.269  0.0677 -2.8100 -1.9123
 2576SOL    HW219191   1.439   4.529   4.188 -2.2664 -0.1165 -0.0278
 2577SOL     OW19192   3.176   2.633   4.819 -0.3423 -0.3718  0.2945
 2577SOL    HW119193   3.150   2.546   4.790 -0.2245 -1.0202  2.1290
 2577SOL    HW219194   3.244   2.649   4.752  0.5635 -3.6558  0.4308
 2578SOL     OW19195   1.559   2.999   5.228  0.0883 -0.0965  0.4970
 2578SOL    HW119196   1.536   2.907   5.217  1.4322 -0.5653  1.6030
 2578SOL    HW219197   1.478   3.046   5.246  0.8234  1.2135  0.3478
 2579SOL     OW19198   1.170   3.876   8.066  0.2373  0.4572  0.1403
 2579SOL    HW119199   1.088   3.831   8.089 -0.0469  0.4692 -0.8517
 2579SOL    HW219200   1.129   3.949   8.019 -1.7669  0.4427  1.8488
 2580SOL     OW19201   1.511   1.024   3.271  0.3749  0.2628  0.6691
 2580SOL    HW119202   1.596   1.061   3.293  0.9310 -0.5657 -0.0442
 2580SOL    HW219203   1.520   1.016   3.176  0.4553  2.5821  0.4897
 2581SOL     OW19204   3.666   3.805  16.582  0.0331  0.2765 -0.2897
 2581SOL    HW119205   3.692   3.728  16.631 -0.4994 -0.0601 -0.5372
 2581SOL    HW219206   3.743   3.860  16.567 -1.9348  3.6730  1.8192
 2582SOL     OW19207   1.279   2.630   7.417 -0.1248  0.4967  0.1991
 2582SOL    HW119208   1.300   2.684   7.493 -0.5502  0.3432  0.4285
 2582SOL    HW219209   1.186   2.611   7.428 -0.0298  1.2981  2.3300
 2583SOL     OW19210   2.637   1.666   9.627 -0.4723  0.6418  0.1720
 2583SOL    HW119211   2.710   1.673   9.689 -0.7042  2.6108  0.2156
 2583SOL    HW219212   2.614   1.759   9.620 -0.0429  0.8251  1.2410
 2584SOL     OW19213   2.134   2.153   5.198 -0.0305 -0.1112  0.3404
 2584SOL    HW119214   2.108   2.171   5.289 -3.2793 -3.2474  0.0412
 2584SOL    HW219215   2.209   2.213   5.202  0.3072 -0.3961 -1.9261
 2585SOL     OW19216   3.289   0.883   6.155 -0.2078 -0.2007 -0.2338
 2585SOL    HW119217   3.285   0.831   6.075  1.2248 -0.9453  0.1726
 2585SOL    HW219218   3.207   0.932   6.159 -0.7344 -1.0178 -1.0136
 2586SOL     OW19219   0.663   1.993   7.309  0.6175  0.2930 -0.6136
 2586SOL    HW119220   0.743   1.963   7.353  0.5167  1.7078  0.5242
 2586SOL    HW219221   0.620   1.910   7.285  1.7415 -0.0133 -1.5615
 2587SOL     OW19222   3.022   1.079  11.006 -0.5643 -0.6616 -0.1830
 2587SOL    HW119223   3.039   0.991  11.040  3.2966  1.1460  2.6440
 2587SOL    HW219224   2.991   1.116  11.088  2.1732 -0.2895  0.7031
 2588SOL     OW19225   3.553   2.701   2.388 -0.1902  0.0892  0.0070
 2588SOL    HW119226   3.480   2.713   2.327 -1.4067 -1.2580  1.2013
 2588SOL    HW219227   3.569   2.607   2.385  2.4990  0.5663 -0.7796
 2589SOL     OW19228   3.134   1.696   1.536  0.5959 -0.0049  0.4075
 2589SOL    HW119229   3.115   1.633   1.606 -1.4789  0.6159  0.3731
 2589SOL    HW219230   3.222   1.668   1.511  0.5670  0.7545 -0.5273
 2590SOL     OW19231   3.647   3.208   3.656 -0.3555  0.3523 -0.0871
 2590SOL    HW119232   3.726   3.155   3.664  0.1297  0.8238 -1.9688
 2590SOL    HW219233   3.675   3.291   3.694  2.4764 -0.5143 -0.2844
 2591SOL     OW19234   2.903   3.659   4.597 -0.0399  0.0023  0.0499
 2591SOL    HW119235   2.892   3.698   4.510  0.1036 -0.6476 -0.2665
 2591SOL    HW219236   2.952   3.727   4.642 -0.0677  0.2292 -0.2594
 2592SOL     OW19237   0.727   1.586   3.509  0.5430  0.3337 -0.1925
 2592SOL    HW119238   0.651   1.550   3.554  0.6031  2.2483  1.4504
 2592SOL    HW219239   0.717   1.558   3.419  0.5871 -0.6464  0.1103
 2593SOL     OW19240   0.308   4.723   4.100 -0.7206 -0.2779 -0.0866
 2593SOL    HW119241   0.304   0.090   4.129 -1.5906 -0.0850 -0.8246
 2593SOL    HW219242   0.270   4.674   4.172 -0.7513 -1.9838 -1.2499
 2594SOL     OW19243   3.578   2.817   0.636  0.0524  0.0241 -0.3860
 2594SOL    HW119244   3.610   2.901   0.602 -0.6492 -0.5229 -2.4084
 2594SOL    HW219245   3.567   2.827   0.731  4.0412 -3.4045  0.4111
 2595SOL     OW19246   4.132   2.087   5.574 -0.6753  0.3920 -0.4350
 2595SOL    HW119247   4.217   2.102   5.532 -0.5324 -2.1361 -1.0527
 2595SOL    HW219248   4.080   2.061   5.499 -0.4742 -0.0654 -0.4166
 2596SOL     OW19249   3.626   1.166   3.932 -0.2849 -0.2848 -0.8740
 2596SOL    HW119250   3.714   1.179   3.967 -0.0698  2.7431 -2.5452
 2596SOL    HW219251   3.620   1.071   3.917  2.6223 -0.4831 -0.8213
 2597SOL     OW19252   0.014   0.529  10.211 -0.1664 -0.1285  0.3839
 2597SOL    HW119253   4.689   0.600  10.253  0.4001  0.3010  0.3177
 2597SOL    HW219254   4.701   0.454  10.258  1.3887 -1.6989 -0.9082
 2598SOL     OW19255   1.430   1.886   2.995  0.1018 -0.1680  0.4407
 2598SOL    HW119256   1.380   1.813   3.032 -1.5387  0.6810 -0.0904
 2598SOL    HW219257   1.383   1.964   3.025 -1.6861 -0.5086 -1.5293
 2599SOL     OW19258   3.673   1.436   6.780  0.4341  0.6024 -0.0630
 2599SOL    HW119259   3.684   1.399   6.693 -0.1304  0.3166 -0.0121
 2599SOL    HW219260   3.648   1.525   6.756 -0.6232  0.3290  0.0433
 2600SOL     OW19261   4.134   2.678   2.692 -0.4055  0.3721  0.4151
 2600SOL    HW119262   4.075   2.707   2.622  0.3374 -0.6080 -0.6228
 2600SOL    HW219263   4.160   2.595   2.652  0.7237  1.7414 -1.6979
 2601SOL     OW19264   2.491   3.330   4.012 -0.1785 -0.3798 -0.1945
 2601SOL    HW119265   2.527   3.411   4.046 -0.0877 -0.2470 -0.6151
 2601SOL    HW219266   2.399   3.347   4.033 -0.5325  0.8536 -2.7698
 2602SOL     OW19267   2.804   4.082  10.903 -0.1880  0.0409 -0.0592
 2602SOL    HW119268   2.823   4.176  10.907 -1.4341  0.4676 -3.4525
 2602SOL    HW219269   2.712   4.077  10.930  0.4834 -0.9545  2.0455
 2603SOL     OW19270   0.854   4.221   4.323 -0.0905  0.3689 -0.8968
 2603SOL    HW119271   0.823   4.265   4.244 -0.3414 -0.3433 -1.1915
 2603SOL    HW219272   0.912   4.291   4.352  0.5041 -0.5369  0.0937
 2604SOL     OW19273   4.477   4.102   1.884 -0.0557 -0.2342 -0.2982
 2604SOL    HW119274   4.455   4.027   1.828 -0.2869 -2.0270  2.1992
 2604SOL    HW219275   4.570   4.113   1.864 -0.4214  2.5289 -0.4568
 2605SOL     OW19276   4.022   0.907  11.318  0.4195 -0.1885  0.0092
 2605SOL    HW119277   4.039   0.968  11.246  2.3449 -0.2577  0.3952
 2605SOL    HW219278   3.975   0.839  11.270  0.2271  1.5260 -2.2121
 2606SOL     OW19279   0.937   2.968   7.639  0.2755 -0.3724  0.2920
 2606SOL    HW119280   1.009   2.990   7.699  0.5454 -0.8844  0.1551
 2606SOL    HW219281   0.922   2.880   7.672  2.3557 -0.8240  0.0603
 2607SOL     OW19282   1.299   0.483  15.237  0.0586  0.8199 -0.2324
 2607SOL    HW119283   1.251   0.531  15.304  0.7212 -0.4805  1.1567
 2607SOL    HW219284   1.228   0.460  15.177  1.2304 -0.0851 -1.2580
 2608SOL     OW19285   3.790   2.638   8.175 -0.0837 -0.3544  0.6159
 2608SOL    HW119286   3.784   2.725   8.214  1.4973 -0.4785  1.1528
 2608SOL    HW219287   3.730   2.652   8.102  2.3644 -0.6809 -1.4669
 2609SOL     OW19288   4.642   2.612   5.123  0.1852 -0.1861  0.0902
 2609SOL    HW119289   4.627   2.532   5.074 -0.1865  0.3369 -0.6527
 2609SOL    HW219290   4.591   2.603   5.204  0.0061 -2.0348 -0.2400
 2610SOL     OW19291   1.602   0.820   0.246 -0.0596 -0.2943  0.4532
 2610SOL    HW119292   1.611   0.803   0.340 -1.7871  1.3761  0.9149
 2610SOL    HW219293   1.558   0.905   0.244  0.8221  0.1250 -1.4088
 2611SOL     OW19294   1.933   4.425   3.048  0.0217 -0.2011 -0.0482
 2611SOL    HW119295   2.008   4.366   3.044 -0.1417 -0.1746 -3.0196
 2611SOL    HW219296   1.888   4.401   2.967  0.5272 -0.5493 -0.2219
 2612SOL     OW19297   3.698   1.148   6.357  0.3292  0.5927  0.0556
 2612SOL    HW119298   3.633   1.078   6.351  2.5012 -1.3241 -1.2370
 2612SOL    HW219299   3.712   1.171   6.449  0.0483  0.1996  0.1992
 2613SOL     OW19300   1.817   1.967   3.572 -1.0091  0.1907  0.0521
 2613SOL    HW119301   1.769   1.886   3.556  1.8105 -0.8578 -3.1607
 2613SOL    HW219302   1.764   2.030   3.522 -1.2024  1.2840  1.6507
 2614SOL     OW19303   4.689   1.676  15.468  0.6433 -0.1136  0.7928
 2614SOL    HW119304   4.598   1.704  15.476  0.3958 -0.2663 -1.5912
 2614SOL    HW219305   4.711   1.642  15.555 -3.6820  1.2487  2.4134
 2615SOL     OW19306   2.927   1.036   3.945 -0.2370 -0.0128 -0.3508
 2615SOL    HW119307   2.884   0.980   4.010  1.8283 -2.2272 -0.8646
 2615SOL    HW219308   2.842   1.068   3.917 -0.1196 -1.4405 -2.4017
 2616SOL     OW19309   4.084   1.650   7.645 -0.1761  0.0606 -0.0627
 2616SOL    HW119310   4.059   1.732   7.604  1.2607  0.7664  0.4834
 2616SOL    HW219311   4.143   1.692   7.707  2.9341 -2.6738 -1.1536
 2617SOL     OW19312   2.052   2.985   8.129 -0.1023  0.0779  0.6921
 2617SOL    HW119313   2.114   2.943   8.189 -0.1057 -0.0284  0.6214
 2617SOL    HW219314   1.992   3.021   8.193 -1.8355 -0.4620 -0.6330
 2618SOL     OW19315   2.690   4.626  12.452  0.7116 -0.5408 -1.3483
 2618SOL    HW119316   2.763   4.656  12.506 -0.1996 -1.9284  0.6926
 2618SOL    HW219317   2.684   4.705  12.399  1.6875 -0.1341 -0.8548
 2619SOL     OW19318   0.275   4.423   3.398  0.2682 -0.0160 -0.0140
 2619SOL    HW119319   0.271   4.334   3.433  0.0353  0.7737  1.9570
 2619SOL    HW219320   0.215   4.465   3.459  0.8901 -0.4918  0.9195
 2620SOL     OW19321   2.018   2.102   6.437  0.2286 -0.1215  0.7372
 2620SOL    HW119322   2.008   2.148   6.520 -1.8453 -0.6779  0.8025
 2620SOL    HW219323   2.101   2.135   6.405 -0.4943 -1.5900 -2.7001
 2621SOL     OW19324   1.601   3.105   3.047  0.1818 -0.2979 -0.5511
 2621SOL    HW119325   1.562   3.181   3.005 -0.6855 -0.3211  0.2252
 2621SOL    HW219326   1.596   3.117   3.142 -2.7754 -0.8078 -0.6437
 2622SOL     OW19327   3.216   1.739  10.429  0.0548 -0.2404 -0.2887
 2622SOL    HW119328   3.140   1.789  10.399 -0.5630 -0.6600  0.5847
 2622SOL    HW219329   3.186   1.716  10.517  0.4299  1.0806  0.1810
 2623SOL     OW19330   0.762   2.205   7.624  0.0251  0.0470 -0.0233
 2623SOL    HW119331   0.700   2.245   7.562  1.3114  1.2010 -0.5568
 2623SOL    HW219332   0.724   2.123   7.656 -0.4240  0.5693  0.7819
 2624SOL     OW19333   3.413   4.379   5.427 -0.2582  0.0957 -0.2134
 2624SOL    HW119334   3.491   4.346   5.382  0.9584 -0.0566  2.0291
 2624SOL    HW219335   3.371   4.434   5.360 -0.3453  0.1242 -0.1355
 2625SOL     OW19336   4.426   0.886   7.158 -0.3556 -0.0248  0.0159
 2625SOL    HW119337   4.416   0.834   7.238 -1.4732 -1.4271 -1.0081
 2625SOL    HW219338   4.505   0.937   7.174 -0.4860  0.0132  0.5427
 2626SOL     OW19339   4.164   0.563   3.038 -0.1450 -0.6399 -0.4292
 2626SOL    HW119340   4.205   0.646   3.017 -1.0185  0.0937  0.7264
 2626SOL    HW219341   4.108   0.576   3.115  0.9511  0.2431  0.2145
 2627SOL     OW19342   3.895   3.442   6.715 -0.2064  0.3394 -0.6171
 2627SOL    HW119343   3.829   3.386   6.676  0.0260 -0.2611 -0.1482
 2627SOL    HW219344   3.953   3.459   6.641 -0.3956 -1.4248 -1.1594
 2628SOL     OW19345   2.059   2.098   2.131  0.1456 -0.2135  0.0503
 2628SOL    HW119346   1.986   2.072   2.076 -0.5998 -1.2534  1.5228
 2628SOL    HW219347   2.061   2.033   2.202  1.8015 -0.0303  0.1828
 2629SOL     OW19348   0.834   2.869   9.250  0.4939  0.1522 -0.6979
 2629SOL    HW119349   0.846   2.860   9.155  0.4505 -0.4503 -0.6464
 2629SOL    HW219350   0.786   2.950   9.261 -1.5881 -1.3626  1.3784
 2630SOL     OW19351   1.600   4.067   4.168  0.2096 -0.2538 -0.8661
 2630SOL    HW119352   1.542   4.132   4.209  0.8342  0.0019 -0.3936
 2630SOL    HW219353   1.677   4.077   4.224 -1.2949 -0.1453  1.2056
 2631SOL     OW19354   2.180   3.273  10.905 -0.4110 -0.5097  0.1127
 2631SOL    HW119355   2.242   3.203  10.927  0.7714  0.8823  1.2700
 2631SOL    HW219356   2.118   3.222  10.853 -1.7139  1.5395 -0.3184
 2632SOL     OW19357   0.679   2.715   4.322  0.2692  0.1045  0.1772
 2632SOL    HW119358   0.718   2.744   4.405  0.3930 -1.4389  0.6518
 2632SOL    HW219359   0.639   2.799   4.302  0.0873 -0.3669 -1.4075
 2633SOL     OW19360   4.711   1.588   3.397  0.2104  0.3122 -0.0504
 2633SOL    HW119361   4.650   1.524   3.434 -0.6310  1.6376  0.8398
 2633SOL    HW219362   0.037   1.612   3.475  0.5681 -1.1860  0.1742
 2634SOL     OW19363   4.040   0.951   6.559 -0.3272  0.4182  0.2989
 2634SOL    HW119364   4.061   0.894   6.484  1.5742 -0.4204  1.4811
 2634SOL    HW219365   3.995   0.889   6.616 -0.0479 -2.0980 -2.1819
 2635SOL     OW19366   2.318   0.804   9.706  0.1800 -0.4866 -0.0135
 2635SOL    HW119367   2.365   0.724   9.731 -1.1121 -0.2742  3.0220
 2635SOL    HW219368   2.228   0.772   9.701 -0.1853  0.5998 -0.3287
 2636SOL     OW19369   4.217   1.625   6.130  0.4372 -0.3649 -0.4976
 2636SOL    HW119370   4.268   1.670   6.196  1.4012 -1.0345 -0.7948
 2636SOL    HW219371   4.232   1.531   6.138  0.0591 -0.3798  0.0741
 2637SOL     OW19372   3.904   1.050   3.027 -0.3870 -0.3686  0.2703
 2637SOL    HW119373   3.988   1.011   3.051  0.9689  2.6678  0.4975
 2637SOL    HW219374   3.901   1.038   2.932  1.3829 -0.1472  0.1851
 2638SOL     OW19375   0.875   4.594   6.813  0.3960 -0.1167 -0.1921
 2638SOL    HW119376   0.823   4.518   6.840  0.0673  0.3218  0.3755
 2638SOL    HW219377   0.832   4.626   6.734  0.6314  0.1276 -0.2196
 2639SOL     OW19378   1.624   4.040   2.703 -0.0946  0.2731  0.4747
 2639SOL    HW119379   1.599   4.123   2.743 -2.3782 -0.3234  0.2854
 2639SOL    HW219380   1.592   4.060   2.615 -0.8168  1.6360  1.0317
 2640SOL     OW19381   2.832   0.755   4.582  0.5445  0.3989 -0.0549
 2640SOL    HW119382   2.869   0.747   4.670 -2.5564  0.6280  1.2947
 2640SOL    HW219383   2.874   0.678   4.545 -0.2401  0.1865 -0.5010
 2641SOL     OW19384   0.620   3.851  14.762  0.2604  0.2595 -0.2044
 2641SOL    HW119385   0.665   3.826  14.843 -0.6032 -1.5028 -0.2726
 2641SOL    HW219386   0.581   3.934  14.787  1.1458  1.1307 -1.7464
 2642SOL     OW19387   4.546   0.166   7.341  0.5695 -0.5438  0.0597
 2642SOL    HW119388   4.571   0.130   7.256 -0.1848  0.5788 -0.6314
 2642SOL    HW219389   4.469   0.115   7.368 -0.1077  0.5621  0.2519
 2643SOL     OW19390   0.802   0.765   6.105  0.0255  0.2037 -0.5574
 2643SOL    HW119391   0.828   0.698   6.168  1.1852 -0.0620 -1.3096
 2643SOL    HW219392   0.863   0.838   6.116 -0.8290  0.9162 -0.5059
 2644SOL     OW19393   2.434   3.629  11.374  0.3453 -0.0574 -0.6779
 2644SOL    HW119394   2.391   3.555  11.331 -0.2096 -0.7252  1.0479
 2644SOL    HW219395   2.526   3.607  11.357  0.2355  0.1818 -1.6102
 2645SOL     OW19396   3.491   0.956  14.007  0.6950 -0.1162  0.5024
 2645SOL    HW119397   3.457   0.866  14.009  1.2222 -0.2679  3.0611
 2645SOL    HW219398   3.408   1.002  14.017 -0.7625 -2.4726 -0.7483
 2646SOL     OW19399   3.499   0.863   3.183 -0.0541  0.0052  0.0204
 2646SOL    HW119400   3.408   0.838   3.165 -0.7764  1.5570  1.5625
 2646SOL    HW219401   3.554   0.785   3.175  0.5562  0.3093  1.2597
 2647SOL     OW19402   4.565   1.869   6.600 -0.0462 -0.1939  0.7448
 2647SOL    HW119403   4.617   1.896   6.524 -3.8611  0.3611 -1.6515
 2647SOL    HW219404   4.562   1.773   6.591 -0.8244 -0.1768  0.8387
 2648SOL     OW19405   0.364   2.810  12.527  0.1926  0.3911 -0.0309
 2648SOL    HW119406   0.406   2.764  12.600 -0.0467 -2.2828 -1.5773
 2648SOL    HW219407   0.281   2.847  12.558 -0.8479 -0.2669 -2.0603
 2649SOL     OW19408   2.571   3.208   4.699  0.6047 -0.5372  0.0462
 2649SOL    HW119409   2.585   3.119   4.667  0.7409  0.1777 -1.8962
 2649SOL    HW219410   2.501   3.231   4.638  1.3951  0.3505 -0.5250
 2650SOL     OW19411   2.767   2.211  12.394 -0.2988 -0.0806 -0.2505
 2650SOL    HW119412   2.718   2.232  12.314  0.9037  0.0235 -0.9577
 2650SOL    HW219413   2.825   2.287  12.394 -0.1624 -0.1865  1.3378
 2651SOL     OW19414   4.698   1.470   7.844  0.3726  0.2173 -0.0657
 2651SOL    HW119415   0.021   1.511   7.917  0.5208 -0.6168  0.3148
 2651SOL    HW219416   4.690   1.375   7.859  0.5624  0.5482  2.1702
 2652SOL     OW19417   1.910   0.226   0.696  0.1115  0.0855 -0.3943
 2652SOL    HW119418   1.952   0.223   0.610  1.6232  1.2339  0.2932
 2652SOL    HW219419   1.821   0.210   0.662 -0.0772  0.0716  0.1147
 2653SOL     OW19420   3.146   0.161   9.094  0.4728  0.5547 -0.0499
 2653SOL    HW119421   3.061   0.205   9.093 -0.7065 -1.6555  1.7078
 2653SOL    HW219422   3.131   0.094   9.161  2.5828 -0.0246 -0.1538
 2654SOL     OW19423   3.374   1.674   1.251  0.5198 -0.0269  0.1712
 2654SOL    HW119424   3.320   1.750   1.270 -0.3197 -0.4651 -0.4329
 2654SOL    HW219425   3.405   1.650   1.338 -0.7560 -2.4339 -0.0322
 2655SOL     OW19426   1.716   3.894   6.697 -0.9695  0.5113 -0.0595
 2655SOL    HW119427   1.689   3.821   6.641 -2.4318  0.4685  0.7061
 2655SOL    HW219428   1.762   3.952   6.635  1.9548 -2.6787 -0.8204
 2656SOL     OW19429   2.399   1.198   3.332 -0.0387  0.8199  0.7250
 2656SOL    HW119430   2.370   1.232   3.416 -1.4745 -1.3448  1.1043
 2656SOL    HW219431   2.454   1.267   3.295  0.7194 -0.0172  0.2909
 2657SOL     OW19432   1.931   0.543   6.878  0.0626 -0.4676 -0.5085
 2657SOL    HW119433   1.948   0.622   6.827 -0.2693 -0.6800 -0.9528
 2657SOL    HW219434   2.012   0.515   6.919  0.3632 -0.0405 -0.8193
 2658SOL     OW19435   0.680   3.408  12.538  0.0326 -0.5549 -0.3885
 2658SOL    HW119436   0.768   3.393  12.503 -0.5001  1.5157 -2.6131
 2658SOL    HW219437   0.693   3.358  12.618  0.3003  0.3599  0.1481
 2659SOL     OW19438   0.156   3.549  12.806  0.9699 -0.0919 -0.3268
 2659SOL    HW119439   0.064   3.526  12.820  1.7312 -2.1965  1.3296
 2659SOL    HW219440   0.208   3.491  12.862  0.7873  1.3088  1.2867
 2660SOL     OW19441   2.936   2.232  14.751 -0.1057  0.0375  0.3713
 2660SOL    HW119442   2.938   2.242  14.655  1.2350 -1.0107  0.2882
 2660SOL    HW219443   2.930   2.137  14.751 -2.0993  0.1567 -0.4128
 2661SOL     OW19444   4.188   3.522   2.621 -0.0713  0.6243  0.2762
 2661SOL    HW119445   4.212   3.566   2.540 -2.8596  1.2665 -0.1870
 2661SOL    HW219446   4.258   3.556   2.677  0.0077  0.0834  0.5113
 2662SOL     OW19447   2.286   2.456   9.041 -0.3402 -0.1456  0.1214
 2662SOL    HW119448   2.256   2.493   9.125  1.6842 -2.9727  2.0903
 2662SOL    HW219449   2.322   2.371   9.067 -1.5999 -0.6535  0.2327
 2663SOL     OW19450   0.799   1.776   3.730  0.4803  0.0844  0.0065
 2663SOL    HW119451   0.816   1.691   3.689 -1.6886  0.5384 -1.8543
 2663SOL    HW219452   0.822   1.836   3.660  3.3373  1.1542  1.8966
 2664SOL     OW19453   2.362   2.990   5.511 -0.0348  0.1488  0.3261
 2664SOL    HW119454   2.279   3.007   5.555  0.3493 -0.9285  1.4723
 2664SOL    HW219455   2.338   3.017   5.423 -2.0604 -2.0255  0.2185
 2665SOL     OW19456   0.937   2.665   5.137 -0.3247  0.4245  1.0858
 2665SOL    HW119457   0.974   2.591   5.186 -1.3087 -1.1246 -0.5144
 2665SOL    HW219458   0.856   2.629   5.099  0.0477  2.2756 -1.4497
 2666SOL     OW19459   2.523   2.674   7.842 -0.0440 -0.3564 -0.4251
 2666SOL    HW119460   2.448   2.726   7.813  1.0951  2.4865  1.8356
 2666SOL    HW219461   2.511   2.587   7.803  0.8001 -0.8584  0.4535
 2667SOL     OW19462   2.959   0.495   4.736  0.1902 -0.1639  0.2482
 2667SOL    HW119463   2.990   0.541   4.814 -1.0671  1.4836 -0.2180
 2667SOL    HW219464   3.042   0.475   4.691  0.8443 -0.6587  1.6670
 2668SOL     OW19465   2.493   1.589  13.106  0.3488 -0.4217  0.1026
 2668SOL    HW119466   2.577   1.544  13.118 -0.6641 -2.3708 -0.0835
 2668SOL    HW219467   2.488   1.595  13.010  3.6223  0.9725  0.0291
 2669SOL     OW19468   2.400   0.031   3.415 -0.0808  0.5197  0.2954
 2669SOL    HW119469   2.321   4.723   3.459 -0.0322  0.4258  0.3138
 2669SOL    HW219470   2.363   0.105   3.367 -0.9795 -0.0547  0.0954
 2670SOL     OW19471   4.618   1.045  12.587  0.3059 -0.1036 -0.2620
 2670SOL    HW119472   4.526   1.021  12.590  0.3498 -0.1560  1.0814
 2670SOL    HW219473   4.609   1.113  12.654 -0.7981 -0.1487 -0.3714
 2671SOL     OW19474   1.480   0.142   2.156 -0.2101 -0.1733  0.1049
 2671SOL    HW119475   1.539   0.067   2.146 -0.0456 -0.3745  2.6711
 2671SOL    HW219476   1.519   0.208   2.098 -0.7588 -0.0637 -0.1452
 2672SOL     OW19477   2.178   0.287   4.145  0.1183  0.9376  0.2453
 2672SOL    HW119478   2.126   0.308   4.068  0.9219 -1.7226 -1.0230
 2672SOL    HW219479   2.188   0.192   4.152 -0.0915  0.7980 -1.4434
 2673SOL     OW19480   0.366   4.539   7.646  0.1351 -0.1980  0.2309
 2673SOL    HW119481   0.312   4.472   7.605  0.6312 -0.7708  0.5122
 2673SOL    HW219482   0.317   4.614   7.612 -0.2909 -0.6984 -0.2480
 2674SOL     OW19483   4.010   2.338   1.008  0.2594  0.2355 -0.0093
 2674SOL    HW119484   3.987   2.401   0.939 -0.6894  1.3086  1.2902
 2674SOL    HW219485   4.061   2.397   1.063 -0.2478  1.5706 -0.9527
 2675SOL     OW19486   0.485   2.914   0.906 -0.2338  1.6796 -0.3350
 2675SOL    HW119487   0.495   2.973   0.981 -2.1519 -0.3699  1.5210
 2675SOL    HW219488   0.550   2.946   0.843 -1.0008  1.7437 -1.0955
 2676SOL     OW19489   2.775   3.597   2.545  0.3708  0.4923 -0.2274
 2676SOL    HW119490   2.717   3.622   2.473  1.2129  3.1227 -0.0132
 2676SOL    HW219491   2.718   3.593   2.622 -1.7170  0.6017 -1.7759
 2677SOL     OW19492   1.342   0.116   3.164  0.2206 -0.5978 -0.5134
 2677SOL    HW119493   1.406   0.096   3.096  1.4614 -0.0146  0.4814
 2677SOL    HW219494   1.338   0.033   3.211  0.3877 -0.4471 -0.2315
 2678SOL     OW19495   2.359   1.281   6.185  0.7267  0.1915 -0.1454
 2678SOL    HW119496   2.346   1.348   6.252  0.0706 -1.5116  1.4318
 2678SOL    HW219497   2.454   1.274   6.191  0.7149 -1.1666 -1.6093
 2679SOL     OW19498   2.519   0.512   4.543  0.5738 -0.1294 -0.8941
 2679SOL    HW119499   2.543   0.600   4.571 -1.0319 -0.3656  1.2594
 2679SOL    HW219500   2.435   0.532   4.501  0.2824  0.1852 -0.1656
 2680SOL     OW19501   2.784   4.579  15.491 -0.0278 -0.7092 -0.1302
 2680SOL    HW119502   2.797   4.644  15.561  0.4125  0.3295 -1.1790
 2680SOL    HW219503   2.688   4.576  15.482 -0.0745 -0.1295  0.1448
 2681SOL     OW19504   3.762   1.147   9.006  0.1973  0.0469 -0.8135
 2681SOL    HW119505   3.706   1.086   9.053 -1.5616  0.0619 -2.8909
 2681SOL    HW219506   3.746   1.227   9.055  0.6917 -0.5488  0.3195
 2682SOL     OW19507   3.452   0.881   7.657 -0.2522  0.2979 -0.2839
 2682SOL    HW119508   3.543   0.859   7.677 -1.2854 -2.1304  1.8236
 2682SOL    HW219509   3.421   0.898   7.745  1.7989  3.7505 -0.2531
 2683SOL     OW19510   2.135   0.938   1.391 -0.3993  0.8488  0.4385
 2683SOL    HW119511   2.068   0.871   1.377  2.3736 -1.9261  0.5352
 2683SOL    HW219512   2.131   0.942   1.486  3.1101 -1.6772  0.7165
 2684SOL     OW19513   2.339   3.023   2.987  0.1833  0.5307 -1.0488
 2684SOL    HW119514   2.259   3.076   2.991  1.2012  1.7708  2.2212
 2684SOL    HW219515   2.393   3.060   3.056  0.7120 -2.2199 -0.0034
 2685SOL     OW19516   0.851   1.059   7.358  0.2273 -0.4758 -0.0141
 2685SOL    HW119517   0.888   1.066   7.446 -2.6952 -1.1580  1.2441
 2685SOL    HW219518   0.776   1.002   7.374  1.3240 -1.7659  0.5302
 2686SOL     OW19519   0.575   3.794   1.986  0.7681  0.4340  1.1094
 2686SOL    HW119520   0.596   3.801   1.893 -2.7442 -1.0577  0.1818
 2686SOL    HW219521   0.556   3.701   1.995  0.1974  0.4390 -0.0560
 2687SOL     OW19522   1.414   2.135   5.347 -0.1125 -0.1111  0.5551
 2687SOL    HW119523   1.455   2.060   5.305  1.1982  0.9428 -0.0137
 2687SOL    HW219524   1.335   2.148   5.294 -0.0562 -2.8534 -0.1877
 2688SOL     OW19525   0.630   2.679   6.892 -0.4891 -0.1859 -0.4171
 2688SOL    HW119526   0.611   2.592   6.857  1.8925 -0.5496 -0.8058
 2688SOL    HW219527   0.634   2.722   6.806  1.5782 -0.9569 -0.6839
 2689SOL     OW19528   2.561   0.943   8.346  0.7541 -0.1369 -0.4072
 2689SOL    HW119529   2.558   0.892   8.427 -2.1730  0.2557 -0.2450
 2689SOL    HW219530   2.605   1.020   8.384  0.3557 -0.4814  0.7638
 2690SOL     OW19531   0.814   1.364   7.415 -0.1465  0.7021 -0.0205
 2690SOL    HW119532   0.757   1.291   7.391  2.1223 -2.1774  3.3527
 2690SOL    HW219533   0.899   1.330   7.388 -1.3567 -1.0511 -1.6616
 2691SOL     OW19534   2.800   3.302   0.707 -0.1036  0.3507 -0.0454
 2691SOL    HW119535   2.854   3.264   0.777 -3.3485 -1.1012  1.6541
 2691SOL    HW219536   2.769   3.385   0.743 -1.3832  0.2461 -0.9157
 2692SOL     OW19537   3.398   3.298   8.918  0.7619 -0.5064 -0.2841
 2692SOL    HW119538   3.455   3.220   8.916  0.0389 -0.9605 -2.9601
 2692SOL    HW219539   3.465   3.365   8.926  1.3930 -1.1263 -0.3356
 2693SOL     OW19540   4.509   4.667   8.452 -0.8208  0.2082 -0.6099
 2693SOL    HW119541   4.446   4.612   8.499 -2.0481  0.7315 -1.6519
 2693SOL    HW219542   4.551   4.707   8.528 -2.1643 -1.5439  1.0733
 2694SOL     OW19543   2.349   2.590   5.649  0.2322  0.4014  0.1570
 2694SOL    HW119544   2.392   2.672   5.671  1.5469  0.1129 -1.3555
 2694SOL    HW219545   2.424   2.529   5.648 -0.5398 -0.5204 -1.4489
 2695SOL     OW19546   3.820   0.909   2.379  0.5636 -0.4755 -0.0772
 2695SOL    HW119547   3.891   0.863   2.423  1.0920  1.0611  0.6542
 2695SOL    HW219548   3.864   0.928   2.296  0.6077 -2.8111 -0.6000
 2696SOL     OW19549   2.642   2.957   5.848  0.3723 -0.0152  0.0906
 2696SOL    HW119550   2.609   3.044   5.870 -0.7411 -0.0400 -1.5093
 2696SOL    HW219551   2.561   2.910   5.829  1.2305 -1.7485  0.7142
 2697SOL     OW19552   3.265   1.765   4.195 -0.3153  0.0346 -0.2769
 2697SOL    HW119553   3.356   1.739   4.208 -0.2491  0.4173  0.0317
 2697SOL    HW219554   3.237   1.687   4.148 -1.5235 -1.3279  2.6750
 2698SOL     OW19555   1.025   3.924   5.029 -1.0437  0.0684 -0.2452
 2698SOL    HW119556   1.014   3.848   4.972 -1.9957 -1.6480  2.2488
 2698SOL    HW219557   1.031   4.000   4.971 -1.9936  0.0724 -0.3501
 2699SOL     OW19558   1.975   1.460   7.431 -0.4749  0.2734  0.2470
 2699SOL    HW119559   2.028   1.398   7.382 -1.4411  0.4775 -1.0810
 2699SOL    HW219560   2.011   1.469   7.519 -0.1637 -1.4852  0.3027
 2700SOL     OW19561   2.146   0.623   9.164  0.1822 -0.1295 -0.6493
 2700SOL    HW119562   2.142   0.650   9.072  1.7916 -0.8212 -0.9207
 2700SOL    HW219563   2.122   0.530   9.156  0.2513 -0.0707 -1.6177
 2701SOL     OW19564   3.048   0.851   7.228 -0.0159  0.1585 -0.6137
 2701SOL    HW119565   3.072   0.943   7.234  0.8479 -0.1809  1.2869
 2701SOL    HW219566   3.122   0.819   7.280 -0.5472 -0.4208 -0.2144
 2702SOL     OW19567   3.954   2.175   7.611 -0.1725  0.3670  0.2556
 2702SOL    HW119568   3.884   2.237   7.591  2.6956  3.0645 -1.4950
 2702SOL    HW219569   3.975   2.197   7.702 -0.9779  2.9408 -0.1705
 2703SOL     OW19570   2.081   1.457   6.202 -0.5329 -0.3833  0.1746
 2703SOL    HW119571   1.990   1.485   6.199 -0.2967  0.3542 -0.1929
 2703SOL    HW219572   2.084   1.430   6.294  2.3749  2.0575  0.8331
 2704SOL     OW19573   4.076   2.052   4.407 -0.5539 -0.1270  0.3339
 2704SOL    HW119574   4.076   2.001   4.325 -0.5865 -1.5973  1.2531
 2704SOL    HW219575   4.040   1.985   4.465  0.9881 -2.3308 -1.2157
 2705SOL     OW19576   4.585   2.559   3.589 -0.3039  0.3940  0.1402
 2705SOL    HW119577   4.603   2.529   3.500 -0.3902 -2.2751  1.0019
 2705SOL    HW219578   4.664   2.606   3.617  0.1553 -0.1287 -0.2834
 2706SOL     OW19579   2.181   1.925  10.959 -0.3566  0.4515 -0.5792
 2706SOL    HW119580   2.104   1.970  10.995 -0.5024 -1.2627  1.2369
 2706SOL    HW219581   2.155   1.834  10.971  0.6734  0.0596 -1.3075
 2707SOL     OW19582   0.722   0.283   0.343  0.1720 -0.0509 -0.2780
 2707SOL    HW119583   0.789   0.343   0.311  1.7474 -1.7758 -0.2022
 2707SOL    HW219584   0.657   0.318   0.282 -1.4598 -0.5583  1.1355
 2708SOL     OW19585   4.527   4.153   3.188 -0.0078 -0.5091  0.3158
 2708SOL    HW119586   4.606   4.104   3.168  0.0454 -0.1705 -0.2771
 2708SOL    HW219587   4.533   4.229   3.131  0.6187 -0.8911 -0.1196
 2709SOL     OW19588   4.067   2.562   1.614  0.2637  0.7442  0.1254
 2709SOL    HW119589   4.036   2.651   1.599  0.4918  1.1548  2.1411
 2709SOL    HW219590   4.065   2.562   1.709  3.8432 -1.1270  0.2303
 2710SOL     OW19591   2.139   3.055  10.723 -0.2826 -0.3958 -0.0190
 2710SOL    HW119592   2.065   3.045  10.783 -0.5266 -3.0520 -0.7426
 2710SOL    HW219593   2.125   2.987  10.656 -1.1116 -1.0489  0.8131
 2711SOL     OW19594   3.925   3.608   1.101 -0.0798 -0.8189  0.5555
 2711SOL    HW119595   3.988   3.665   1.144 -1.0678  1.7921 -1.4382
 2711SOL    HW219596   3.895   3.654   1.023  1.4167 -2.8449 -1.1857
 2712SOL     OW19597   3.978   3.902  10.147 -0.2789 -0.1509 -0.2316
 2712SOL    HW119598   3.987   3.976  10.207 -1.6094  1.9141 -2.5996
 2712SOL    HW219599   3.947   3.830  10.203 -1.0233  1.1651  1.0561
 2713SOL     OW19600   3.859   2.275   3.439  0.1385  0.5357 -0.8322
 2713SOL    HW119601   3.905   2.327   3.505 -0.4854 -0.8250  0.6975
 2713SOL    HW219602   3.877   2.185   3.469  0.0866  1.1497  1.0711
 2714SOL     OW19603   2.801   0.460  12.812 -0.4959 -0.4231 -0.7386
 2714SOL    HW119604   2.836   0.439  12.725  0.7822 -0.2660 -0.2614
 2714SOL    HW219605   2.833   0.547  12.836 -1.4916 -0.5896  1.1417
 2715SOL     OW19606   1.791   3.195  14.065  0.0139  0.4731  0.1172
 2715SOL    HW119607   1.777   3.192  13.971 -0.6801 -0.0066  0.2399
 2715SOL    HW219608   1.771   3.289  14.073  1.6363  0.7400  1.0675
 2716SOL     OW19609   2.992   3.110   4.535  0.0611 -0.1787 -0.0008
 2716SOL    HW119610   2.951   3.087   4.619 -2.5274  1.0925 -0.9186
 2716SOL    HW219611   3.057   3.041   4.523 -0.8628 -1.0787  0.1372
 2717SOL     OW19612   1.079   4.249   2.337 -0.0396 -0.0825  0.8263
 2717SOL    HW119613   1.146   4.244   2.269 -1.9019 -2.3467 -0.8435
 2717SOL    HW219614   1.004   4.274   2.283 -1.0457 -3.3539  0.6784
 2718SOL     OW19615   3.961   4.718   5.142  0.5690  0.3469 -0.3284
 2718SOL    HW119616   4.029   0.001   5.075  1.4356 -1.0756  0.3984
 2718SOL    HW219617   4.007   4.688   5.220  2.2832 -0.2251 -1.5636
 2719SOL     OW19618   0.456   3.869  15.034  0.1707  0.9116 -0.3509
 2719SOL    HW119619   0.524   3.801  15.032 -0.8037  0.0117 -3.2023
 2719SOL    HW219620   0.380   3.816  15.060  1.8238 -0.4435  1.7671
 2720SOL     OW19621   1.694   0.364   4.365  0.1919 -0.0183  0.5385
 2720SOL    HW119622   1.606   0.353   4.331  0.7738 -0.1271 -0.9083
 2720SOL    HW219623   1.680   0.427   4.436  0.0814 -1.1508  1.5271
 2721SOL     OW19624   3.934   2.788  11.640 -0.9127  0.4947  0.0882
 2721SOL    HW119625   3.871   2.817  11.574  0.5205  3.8153  0.1817
 2721SOL    HW219626   3.870   2.740  11.693  0.4608  0.7734  1.9925
 2722SOL     OW19627   4.420   1.591   6.494 -0.0622  0.1212  0.5813
 2722SOL    HW119628   4.339   1.557   6.532 -0.3913 -2.1992 -2.1935
 2722SOL    HW219629   4.487   1.556   6.553  1.3076  1.3671 -0.2409
 2723SOL     OW19630   4.579   1.395   8.437  0.2113  0.2454  0.0081
 2723SOL    HW119631   4.605   1.359   8.522  0.0772  1.9948  0.7975
 2723SOL    HW219632   4.495   1.439   8.449  1.0224  1.7058  0.2856
 2724SOL     OW19633   2.638   0.083   4.680 -0.0842 -0.5580  0.0936
 2724SOL    HW119634   2.692   0.153   4.717 -2.3491  0.6935  1.0221
 2724SOL    HW219635   2.561   0.136   4.659 -0.6874 -1.0261  1.1124
 2725SOL     OW19636   0.051   2.845   5.030 -0.3167 -0.0699  0.7592
 2725SOL    HW119637   0.018   2.755   5.025  1.1831 -0.5036 -1.2321
 2725SOL    HW219638   4.691   2.887   5.009 -0.8185 -0.3081  2.3270
 2726SOL     OW19639   0.380   2.837   2.215  0.4522  0.2702 -0.0739
 2726SOL    HW119640   0.432   2.819   2.137  2.4375  1.7124  0.9220
 2726SOL    HW219641   0.315   2.900   2.183  0.6200  0.5229  0.0861
 2727SOL     OW19642   2.143   4.712  12.546  0.0993  0.5236  0.4081
 2727SOL    HW119643   2.150   4.696  12.451 -1.9591  0.1434  0.3121
 2727SOL    HW219644   2.236   4.703  12.564  0.8406  0.7152 -3.2590
 2728SOL     OW19645   0.850   0.417  12.519  0.2918 -0.1974  0.1689
 2728SOL    HW119646   0.801   0.372  12.450 -3.1927  2.2207  1.0547
 2728SOL    HW219647   0.901   0.347  12.560 -2.4360 -1.3634  1.5555
 2729SOL     OW19648   3.988   1.629   9.117  0.3458  0.3580  0.1293
 2729SOL    HW119649   3.894   1.644   9.121  0.2148 -0.5297  0.3023
 2729SOL    HW219650   3.994   1.565   9.188  0.3846  0.4943  0.2508
 2730SOL     OW19651   1.794   2.008   8.028  0.3322  0.2626 -0.6588
 2730SOL    HW119652   1.865   1.995   8.090  0.3364 -1.5110 -1.0533
 2730SOL    HW219653   1.768   2.099   8.042 -1.9478 -0.5189  0.1651
 2731SOL     OW19654   2.388   2.538   7.484 -0.4817 -0.0210  0.3502
 2731SOL    HW119655   2.294   2.546   7.464 -0.9770 -2.0207  1.9072
 2731SOL    HW219656   2.420   2.537   7.393 -0.0857 -1.4377  0.5006
 2732SOL     OW19657   4.721   4.093   4.362 -0.2146 -0.0742 -0.5921
 2732SOL    HW119658   4.649   4.099   4.425 -0.4452  0.2834 -0.8959
 2732SOL    HW219659   0.064   4.097   4.431 -1.5531 -0.2891  0.7349
 2733SOL     OW19660   4.133   0.238  15.214 -0.1945  0.3723 -0.1112
 2733SOL    HW119661   4.136   0.275  15.126 -1.8456  1.1352  0.1514
 2733SOL    HW219662   4.166   0.317  15.255 -0.1192 -0.1468  0.8261
 2734SOL     OW19663   2.662   2.258   9.415 -0.7009 -0.4761  0.3429
 2734SOL    HW119664   2.570   2.247   9.389 -0.1944 -1.2105 -1.1696
 2734SOL    HW219665   2.695   2.272   9.326 -1.5267 -1.5061 -0.1192
 2735SOL     OW19666   2.875   0.194  14.716  0.1367  0.1774 -0.8643
 2735SOL    HW119667   2.873   0.284  14.749 -1.3261 -0.7814  1.7124
 2735SOL    HW219668   2.830   0.209  14.633 -0.3074 -2.7907 -1.1534
 2736SOL     OW19669   1.604   4.018   8.963 -0.5830  0.0932 -0.1315
 2736SOL    HW119670   1.552   4.007   9.042 -3.2116 -1.6580 -2.1132
 2736SOL    HW219671   1.563   4.097   8.928 -2.3932 -0.9194 -0.3065
 2737SOL     OW19672   2.623   2.348   9.753  0.0932 -0.5541  0.1940
 2737SOL    HW119673   2.552   2.306   9.704  0.3397 -1.2104  0.4020
 2737SOL    HW219674   2.636   2.272   9.810  1.0590 -1.7926 -1.6776
 2738SOL     OW19675   4.599   1.966   0.165  0.2482 -0.1400 -0.4588
 2738SOL    HW119676   4.667   1.909   0.131 -0.0530 -1.0568  0.4827
 2738SOL    HW219677   4.575   1.927   0.249 -1.1007 -0.1886 -0.8706
 2739SOL     OW19678   4.294   0.195  12.279  0.0276  0.3427 -0.2998
 2739SOL    HW119679   4.374   0.228  12.239  0.0346  1.5331  0.6958
 2739SOL    HW219680   4.250   0.180  12.196  0.0376 -0.2199 -0.2077
 2740SOL     OW19681   0.354   0.037   3.758 -0.2174 -0.4107  0.4517
 2740SOL    HW119682   0.330   0.128   3.774  0.6452  0.0184 -0.7056
 2740SOL    HW219683   0.305   4.722   3.830  0.1784 -2.7775 -0.5531
 2741SOL     OW19684   1.787   0.771   6.265 -0.5852  0.4418 -0.5239
 2741SOL    HW119685   1.784   0.730   6.179  0.4829 -0.6625 -0.0360
 2741SOL    HW219686   1.881   0.785   6.272 -0.6592  0.4546  0.4602
 2742SOL     OW19687   2.002   4.517  11.630 -0.3803 -0.3618 -0.2045
 2742SOL    HW119688   1.959   4.594  11.667 -1.0408  0.1505 -2.0576
 2742SOL    HW219689   1.993   4.544  11.538  1.7396 -0.5971 -0.4753
 2743SOL     OW19690   2.856   1.226   9.267 -0.1839 -0.0127  0.4229
 2743SOL    HW119691   2.776   1.277   9.278 -0.1878 -0.2691  1.5319
 2743SOL    HW219692   2.822   1.139   9.245 -1.5807  0.0634  2.3306
 2744SOL     OW19693   1.252   0.714   8.824  0.1241 -0.0840 -0.9837
 2744SOL    HW119694   1.180   0.665   8.787  0.8439 -1.4887 -0.5197
 2744SOL    HW219695   1.251   0.796   8.774 -2.3395  1.3806  1.4375
 2745SOL     OW19696   4.263   4.547  13.739 -0.0834  0.0750 -0.0168
 2745SOL    HW119697   4.338   4.580  13.788 -0.1720  2.2388 -1.3472
 2745SOL    HW219698   4.264   4.590  13.654 -0.5867 -0.9962 -0.5561
 2746SOL     OW19699   0.855   0.229   8.121 -0.0580  0.1093 -0.5510
 2746SOL    HW119700   0.789   0.247   8.188 -0.4873  0.3882 -1.0406
 2746SOL    HW219701   0.846   0.315   8.080 -0.3189  0.6869  0.7055
 2747SOL     OW19702   4.474   3.182  15.235  0.4796  0.5280  0.4589
 2747SOL    HW119703   4.517   3.218  15.157  1.7600 -0.9764  0.4718
 2747SOL    HW219704   4.382   3.206  15.226 -0.0993 -1.9571 -0.2925
 2748SOL     OW19705   2.673   0.599  10.195 -0.6319  0.9264  0.1680
 2748SOL    HW119706   2.717   0.516  10.178  0.2485  1.0655  1.8283
 2748SOL    HW219707   2.660   0.586  10.289  1.7741 -0.7234  0.2795
 2749SOL     OW19708   3.712   2.626   4.558 -0.1095  0.0328  0.2904
 2749SOL    HW119709   3.637   2.586   4.514 -0.2332  0.0172  0.5129
 2749SOL    HW219710   3.676   2.664   4.639 -1.2318  0.6855 -0.5226
 2750SOL     OW19711   2.808   1.667  13.453  0.3217  0.1592  0.2891
 2750SOL    HW119712   2.893   1.669  13.409 -0.0746 -3.5471 -0.6782
 2750SOL    HW219713   2.767   1.750  13.428 -0.8276 -1.0489 -1.8322
 2751SOL     OW19714   3.884   0.354   7.918  0.1202  0.3489  0.1953
 2751SOL    HW119715   3.951   0.422   7.911  0.0463  0.4636  0.6703
 2751SOL    HW219716   3.861   0.369   8.009 -3.4655 -2.8397 -0.2176
 2752SOL     OW19717   3.429   0.905   3.946 -0.4498  0.3981  0.0774
 2752SOL    HW119718   3.395   0.816   3.946 -0.2569  0.3062 -2.4849
 2752SOL    HW219719   3.392   0.949   3.869 -0.3979  1.8170  0.8593
 2753SOL     OW19720   0.295   0.762   7.645  0.2709 -0.2813 -0.8127
 2753SOL    HW119721   0.285   0.667   7.638 -0.1031 -0.1963 -1.4758
 2753SOL    HW219722   0.256   0.799   7.566  2.6130  0.9673 -1.3707
 2754SOL     OW19723   3.643   3.655   2.115 -0.0280  0.6156  0.1389
 2754SOL    HW119724   3.714   3.718   2.109  0.3974  0.3531  2.1196
 2754SOL    HW219725   3.681   3.568   2.122  0.2155  0.6502 -0.7940
 2755SOL     OW19726   0.751   0.435   7.708 -0.3181  0.4717 -0.1921
 2755SOL    HW119727   0.675   0.385   7.677 -1.7788  1.1521  2.2513
 2755SOL    HW219728   0.714   0.462   7.792 -0.4409  1.8850 -0.7060
 2756SOL     OW19729   1.358   1.005   2.975  0.0576  0.3472 -0.1340
 2756SOL    HW119730   1.305   1.038   2.902  0.5375 -0.2493 -0.7505
 2756SOL    HW219731   1.448   1.019   2.946  0.3851  0.4354  0.9258
 2757SOL     OW19732   2.522   2.347   3.776 -0.0326  0.1715  0.3272
 2757SOL    HW119733   2.564   2.268   3.811 -1.9711 -0.1261  1.9834
 2757SOL    HW219734   2.581   2.378   3.707 -1.0494  1.2842 -0.0479
 2758SOL     OW19735   3.379   1.455   1.698 -0.2919 -0.5584  0.2256
 2758SOL    HW119736   3.292   1.422   1.721 -0.3119 -0.1054  0.7829
 2758SOL    HW219737   3.415   1.450   1.787 -2.1148  0.0715  0.9840
 2759SOL     OW19738   0.107   1.884   0.063  0.3949 -0.3091 -0.0563
 2759SOL    HW119739   0.109   1.825  17.687 -1.3897 -0.9133  0.3669
 2759SOL    HW219740   0.172   1.952   0.044  0.2111 -1.0696 -3.3664
 2760SOL     OW19741   1.264   1.682   3.068 -0.0319 -0.3192 -0.5070
 2760SOL    HW119742   1.178   1.647   3.046  0.1237 -1.5171  0.7879
 2760SOL    HW219743   1.244   1.729   3.149 -1.1418  2.8918 -2.6257
 2761SOL     OW19744   3.738   3.957   2.230 -0.2678 -0.3735  0.1689
 2761SOL    HW119745   3.774   3.943   2.318 -0.4094  0.0735  0.2994
 2761SOL    HW219746   3.793   3.903   2.173 -0.6247  0.9262 -1.4202
 2762SOL     OW19747   4.126   3.772  16.172 -0.0379 -0.0289 -0.2593
 2762SOL    HW119748   4.073   3.692  16.178 -0.2419  0.1850  0.8868
 2762SOL    HW219749   4.118   3.801  16.082 -3.2083  0.6080  0.2387
 2763SOL     OW19750   2.363   2.291   5.186  0.2736 -0.3372 -0.1442
 2763SOL    HW119751   2.447   2.300   5.141 -0.1523 -2.6294 -1.3773
 2763SOL    HW219752   2.348   2.380   5.218 -0.6588 -1.1816  1.8010
 2764SOL     OW19753   1.924   0.095  10.110  0.0654  0.5631  0.3572
 2764SOL    HW119754   1.978   0.126  10.182  2.1613 -0.7770 -0.6571
 2764SOL    HW219755   1.968   0.013  10.089 -1.7362 -0.2485 -0.2892
 2765SOL     OW19756   1.794   2.759  13.894 -0.7144 -0.0124 -0.4764
 2765SOL    HW119757   1.821   2.845  13.860 -0.0417  0.1817  0.5227
 2765SOL    HW219758   1.857   2.704  13.848 -1.0478  0.8115 -1.9049
 2766SOL     OW19759   2.102   1.785  13.481 -0.6564 -0.3976  0.1769
 2766SOL    HW119760   2.067   1.751  13.564 -1.1911 -3.3148 -1.2483
 2766SOL    HW219761   2.045   1.732  13.425 -0.4384 -1.8094  1.2793
 2767SOL     OW19762   0.131   1.826  10.551  0.4867 -0.2194  0.0051
 2767SOL    HW119763   0.157   1.894  10.613 -1.2221  0.8352 -0.4455
 2767SOL    HW219764   0.214   1.794  10.515 -0.6297 -1.2550 -1.6610
 2768SOL     OW19765   0.498   1.187   3.232 -0.0306 -0.2248 -0.2900
 2768SOL    HW119766   0.404   1.176   3.218  0.1840 -0.2318 -1.6303
 2768SOL    HW219767   0.499   1.182   3.328 -0.8178 -0.8753 -0.3136
 2769SOL     OW19768   4.326   2.791  16.685 -0.4433  0.0755  0.6954
 2769SOL    HW119769   4.383   2.845  16.630  1.5533 -1.7166  1.0414
 2769SOL    HW219770   4.239   2.819  16.655  0.2063  0.8731 -0.4626
 2770SOL     OW19771   1.536   0.257   8.875  0.0305 -0.2075 -0.4704
 2770SOL    HW119772   1.530   0.174   8.922 -0.2562  0.5336  0.7962
 2770SOL    HW219773   1.529   0.227   8.785 -2.2023  0.2276 -0.4376
 2771SOL     OW19774   4.003   0.414   8.206 -0.5381 -0.6569 -0.1714
 2771SOL    HW119775   4.041   0.335   8.168  0.2620 -0.3808  0.0513
 2771SOL    HW219776   4.026   0.412   8.299  1.7452  0.9510 -0.7058
 2772SOL     OW19777   0.080   2.681   7.365 -0.3775 -0.3173  0.1195
 2772SOL    HW119778   0.090   2.618   7.294  1.6591 -0.6990  0.7562
 2772SOL    HW219779   4.713   2.664   7.390 -1.4256  3.1212 -1.2837
 2773SOL     OW19780   2.237   3.642   6.856 -0.1653 -0.0109 -0.0789
 2773SOL    HW119781   2.162   3.635   6.914 -0.5341  1.2024 -0.4019
 2773SOL    HW219782   2.211   3.721   6.808 -1.4587  0.3449  1.2271
 2774SOL     OW19783   3.815   4.410  17.240 -0.4280 -0.2151  0.9460
 2774SOL    HW119784   3.814   4.444  17.150  1.7028  1.8127  1.6812
 2774SOL    HW219785   3.832   4.316  17.238 -1.1975 -0.3053 -1.2066
 2775SOL     OW19786   3.603   1.236  10.472 -0.4450 -0.4511  0.0502
 2775SOL    HW119787   3.518   1.280  10.462  0.2681  0.0199 -4.0296
 2775SOL    HW219788   3.613   1.251  10.566 -0.4257 -1.3774  0.1912
 2776SOL     OW19789   0.673   4.379   8.338  0.4623  0.0677 -0.4000
 2776SOL    HW119790   0.713   4.328   8.267  1.3612  0.1533  0.0367
 2776SOL    HW219791   0.706   4.332   8.415 -3.2661 -2.4919 -0.3568
 2777SOL     OW19792   2.824   3.434   0.113  0.3770  0.1123 -0.3408
 2777SOL    HW119793   2.905   3.471   0.077  0.2878  1.3540  0.7222
 2777SOL    HW219794   2.831   3.348   0.072 -0.3110 -0.4344  0.7013
 2778SOL     OW19795   0.270   4.000   1.565  0.2983 -0.5112 -0.4673
 2778SOL    HW119796   0.199   4.043   1.517 -1.0968 -1.9664  0.2939
 2778SOL    HW219797   0.335   4.070   1.560  0.6130 -0.8447 -1.0601
 2779SOL     OW19798   2.599   1.932   5.273  0.4331 -0.0426 -0.1017
 2779SOL    HW119799   2.679   1.938   5.325 -1.1379 -2.3414  2.5922
 2779SOL    HW219800   2.609   1.996   5.203 -1.6027 -1.8359 -2.0498
 2780SOL     OW19801   1.419   0.081  16.009  0.6925 -0.5827 -0.2005
 2780SOL    HW119802   1.458   0.134  16.079 -1.0731  0.8012 -0.2524
 2780SOL    HW219803   1.406   0.001  16.061 -1.8511 -1.7274 -2.6087
 2781SOL     OW19804   0.457   2.072  12.100  0.3922  0.1066  0.2310
 2781SOL    HW119805   0.488   2.010  12.034  0.7140 -0.2811  0.7524
 2781SOL    HW219806   0.428   2.013  12.169 -1.0642 -1.0450 -1.3903
 2782SOL     OW19807   2.169   1.564  15.037  0.5391  0.1403  0.7778
 2782SOL    HW119808   2.210   1.588  15.121 -0.3488  0.9619  0.9634
 2782SOL    HW219809   2.112   1.640  15.027  1.6424  0.8329 -0.1984
 2783SOL     OW19810   0.561   3.069   6.291 -0.4638  0.0319 -0.3138
 2783SOL    HW119811   0.489   3.058   6.229 -1.6212 -2.2404  1.4161
 2783SOL    HW219812   0.626   3.003   6.268  0.3000  0.1400  1.5903
 2784SOL     OW19813   2.245   2.205  17.123  0.1088 -0.1302  0.7091
 2784SOL    HW119814   2.262   2.164  17.039 -2.2462 -0.6749  0.5013
 2784SOL    HW219815   2.170   2.262  17.106 -1.3331 -2.1281  0.3967
 2785SOL     OW19816   1.108   2.887  17.207  0.1168  0.2471 -0.0390
 2785SOL    HW119817   1.074   2.877  17.118  2.6099  1.1707 -1.1000
 2785SOL    HW219818   1.115   2.982  17.206 -1.6060  0.3625 -0.6250
 2786SOL     OW19819   2.452   0.171   2.918 -0.2516 -0.1543 -0.4675
 2786SOL    HW119820   2.391   0.204   2.852 -0.8105  2.7054  1.4594
 2786SOL    HW219821   2.442   0.079   2.896 -1.2514 -0.2716  0.4715
 2787SOL     OW19822   2.280   1.304   2.157 -0.3342 -0.0361 -0.0967
 2787SOL    HW119823   2.271   1.282   2.250 -0.0787  0.9885  0.1680
 2787SOL    HW219824   2.234   1.388   2.153  0.3949  0.4394  1.1746
 2788SOL     OW19825   1.410   0.068   7.740 -0.6575 -0.0245 -0.5070
 2788SOL    HW119826   1.361   0.143   7.775 -1.0638  0.7052 -2.6094
 2788SOL    HW219827   1.354   0.046   7.665  0.5253 -1.1389 -1.0557
 2789SOL     OW19828   2.046   0.492   3.167 -0.3470 -0.8085 -0.4702
 2789SOL    HW119829   2.093   0.432   3.109  1.8839  1.1486 -0.7110
 2789SOL    HW219830   2.054   0.572   3.116 -1.4907 -1.5310 -1.7573
 2790SOL     OW19831   4.211   2.638   5.298 -0.0262 -0.1137  0.2345
 2790SOL    HW119832   4.194   2.730   5.279  1.2121 -0.5125 -2.8317
 2790SOL    HW219833   4.200   2.604   5.209 -2.0987 -0.3623  0.5863
 2791SOL     OW19834   1.790   1.033   5.537 -0.0275  0.3842  0.0082
 2791SOL    HW119835   1.717   0.974   5.517  0.0728 -0.0184  0.8241
 2791SOL    HW219836   1.757   1.110   5.492 -0.4179  0.8798  1.1402
 2792SOL     OW19837   3.357   3.894   4.910 -0.3462  0.1026 -0.5575
 2792SOL    HW119838   3.325   3.911   4.999  2.4438 -0.6659  0.6072
 2792SOL    HW219839   3.398   3.979   4.896  0.8864 -0.4776 -0.4919
 2793SOL     OW19840   2.314   0.765   7.379  0.0791 -0.2636 -0.2194
 2793SOL    HW119841   2.393   0.770   7.434 -0.4289  0.3504  0.4648
 2793SOL    HW219842   2.248   0.814   7.429  0.7962  1.3506 -0.8538
 2794SOL     OW19843   0.188   1.416   4.047  0.6978 -0.1768  0.5508
 2794SOL    HW119844   0.216   1.483   4.109 -1.6477  1.5517 -0.2945
 2794SOL    HW219845   0.214   1.338   4.096  0.0092 -0.0305  1.1371
 2795SOL     OW19846   0.000   0.235   9.296  0.4436 -0.3639 -0.5473
 2795SOL    HW119847   4.663   0.252   9.368  1.7164  0.4726  0.3400
 2795SOL    HW219848   4.672   0.249   9.217  1.0623 -0.3699 -0.9563
 2796SOL     OW19849   0.964   2.410   7.390 -0.7007  0.4078 -0.2868
 2796SOL    HW119850   0.872   2.426   7.368 -0.2016 -0.4108 -2.9039
 2796SOL    HW219851   1.012   2.473   7.336 -3.2108  0.3987 -2.5458
 2797SOL     OW19852   3.207   0.468  17.305 -0.6791  0.6975  0.5841
 2797SOL    HW119853   3.208   0.551  17.257  1.5105  0.2513 -0.1465
 2797SOL    HW219854   3.201   0.414  17.226  0.5599  2.2323 -0.5538
 2798SOL     OW19855   1.595   2.217   7.343 -0.2516  0.6552 -1.0485
 2798SOL    HW119856   1.581   2.159   7.418 -0.5452  2.5992  0.4063
 2798SOL    HW219857   1.540   2.295   7.348 -1.1680  0.0461 -1.8156
 2799SOL     OW19858   2.400   4.316  11.183 -0.2746  0.0245 -0.6594
 2799SOL    HW119859   2.344   4.388  11.211  1.4766  0.7823  0.8514
 2799SOL    HW219860   2.387   4.251  11.253 -2.6265 -0.0030 -1.1396
 2800SOL     OW19861   0.564   3.783   7.453 -0.8448  0.1997 -1.0935
 2800SOL    HW119862   0.505   3.816   7.521  1.0491  0.4961  0.4084
 2800SOL    HW219863   0.541   3.691   7.458 -0.7761  0.2473  0.1348
 2801SOL     OW19864   1.807   2.209   5.113  0.1666 -0.2027 -0.2128
 2801SOL    HW119865   1.808   2.132   5.170 -1.8487 -1.4095 -1.7811
 2801SOL    HW219866   1.724   2.194   5.067 -0.1195 -2.8538  1.1474
 2802SOL     OW19867   4.133   3.377   5.138  0.3615 -0.1373 -0.5740
 2802SOL    HW119868   4.119   3.310   5.205  1.3313 -0.4360 -0.6719
 2802SOL    HW219869   4.203   3.430   5.176  0.8101 -0.9318 -0.3078
 2803SOL     OW19870   0.578   1.822  12.741  0.4063  0.4851 -0.2662
 2803SOL    HW119871   0.658   1.772  12.725  1.1375  1.9281 -1.1182
 2803SOL    HW219872   0.509   1.765  12.708  1.7748 -1.1003 -0.4048
 2804SOL     OW19873   1.998   4.541   6.090  0.2602 -0.0098  0.3823
 2804SOL    HW119874   2.087   4.509   6.074 -0.2377 -2.3225  2.1065
 2804SOL    HW219875   1.988   4.536   6.185 -1.0121 -0.0447  0.2561
 2805SOL     OW19876   4.523   2.612   0.408  0.4878 -0.0081 -0.3562
 2805SOL    HW119877   4.584   2.686   0.412  1.7068 -1.0954  1.1678
 2805SOL    HW219878   4.522   2.600   0.313 -2.2910 -0.7124 -0.2264
 2806SOL     OW19879   0.782   1.097  15.667  0.0295  0.5118  0.0715
 2806SOL    HW119880   0.829   1.128  15.589 -0.7041 -0.6180 -0.8056
 2806SOL    HW219881   0.714   1.043  15.628  2.6941 -1.7820 -1.4001
 2807SOL     OW19882   2.100   1.890   7.916 -0.1166  0.5496 -0.8284
 2807SOL    HW119883   2.082   1.936   7.999  0.1570  1.0844 -1.0670
 2807SOL    HW219884   2.181   1.934   7.891 -0.3147  1.7681  0.6328
 2808SOL     OW19885   3.008   2.386   3.448 -0.3899 -0.3466  0.2895
 2808SOL    HW119886   2.912   2.389   3.444 -0.3229 -1.6750 -2.3343
 2808SOL    HW219887   3.021   2.422   3.535 -1.4974  2.0897 -0.5632
 2809SOL     OW19888   3.966   0.308   8.851  0.3503  0.0824 -0.1193
 2809SOL    HW119889   3.976   0.336   8.942  0.2783  0.4467 -0.2261
 2809SOL    HW219890   4.048   0.333   8.809  2.0605 -0.2590  2.9582
 2810SOL     OW19891   4.463   0.922   8.258  0.0749  0.2942  0.3469
 2810SOL    HW119892   4.377   0.913   8.217 -0.2892  0.2787  1.1219
 2810SOL    HW219893   4.510   0.969   8.189  0.8178 -0.2475  0.4764
 2811SOL     OW19894   0.315   4.697   0.405  0.9618 -0.1453 -0.1038
 2811SOL    HW119895   0.334   0.019   0.323  1.1769  1.6215  0.9251
 2811SOL    HW219896   0.223   4.674   0.397  1.1181  0.4020 -3.5059
 2812SOL     OW19897   0.029   2.307  10.714 -0.0175 -0.5022 -0.0843
 2812SOL    HW119898   0.088   2.371  10.753  0.3594 -1.1283  0.3792
 2812SOL    HW219899   4.707   2.273  10.790 -1.5465  1.1910 -0.2672
 2813SOL     OW19900   2.670   0.672   6.906 -0.0427 -0.0363  0.7453
 2813SOL    HW119901   2.706   0.738   6.847 -1.3983 -0.4244 -0.5216
 2813SOL    HW219902   2.668   0.718   6.989  0.7513 -0.5718  1.0616
 2814SOL     OW19903   1.423   3.327  11.068  0.2457 -0.0354  0.2339
 2814SOL    HW119904   1.432   3.253  11.008  0.4516  0.7842 -0.7511
 2814SOL    HW219905   1.486   3.292  11.130 -1.4172  0.2798  2.0838
 2815SOL     OW19906   2.544   3.367  12.038  0.1181  0.6433 -0.2160
 2815SOL    HW119907   2.511   3.452  12.009 -2.5015 -0.7549 -1.3252
 2815SOL    HW219908   2.522   3.320  11.958 -2.1832 -0.4051  1.0586
 2816SOL     OW19909   4.136   1.916   6.204  0.8722  1.0484 -0.3800
 2816SOL    HW119910   4.216   1.891   6.250  0.7128 -0.0778 -0.6957
 2816SOL    HW219911   4.175   1.948   6.123 -0.2490  2.3756 -0.3849
 2817SOL     OW19912   2.340   4.221  11.841 -0.0105 -0.4320  0.0301
 2817SOL    HW119913   2.249   4.243  11.821  0.5266  1.7314 -0.0260
 2817SOL    HW219914   2.381   4.307  11.851 -1.4809  0.3716 -0.9104
 2818SOL     OW19915   0.897   1.714   5.636  0.6963  0.2524  0.7187
 2818SOL    HW119916   0.975   1.703   5.581 -1.1785 -0.8033 -1.7393
 2818SOL    HW219917   0.904   1.806   5.663  1.8077 -0.1479  1.7701
 2819SOL     OW19918   2.644   0.183   7.873 -0.4518  0.3365  0.0951
 2819SOL    HW119919   2.696   0.244   7.820 -0.6087 -0.8441 -1.4089
 2819SOL    HW219920   2.558   0.225   7.874 -0.0236  1.2106  0.3925
 2820SOL     OW19921   1.484   2.361  10.876 -0.0735 -0.3648 -0.0778
 2820SOL    HW119922   1.437   2.433  10.919  0.4737 -0.7056  1.1103
 2820SOL    HW219923   1.431   2.354  10.797  0.7935  2.0710 -0.9018
 2821SOL     OW19924   0.780   0.772   4.320 -0.0410 -0.0027 -0.5677
 2821SOL    HW119925   0.873   0.760   4.298  0.0941  1.8472 -1.0779
 2821SOL    HW219926   0.769   0.866   4.306 -2.1275  0.0437  1.3549
 2822SOL     OW19927   4.603   0.977   4.203  0.6203  0.2562 -0.6352
 2822SOL    HW119928   4.572   0.992   4.292  0.6807  0.0471 -0.5776
 2822SOL    HW219929   4.524   0.969   4.148  0.4971  2.2183 -0.7181
 2823SOL     OW19930   2.371   3.577   5.650 -0.3020  0.0176 -0.1309
 2823SOL    HW119931   2.308   3.514   5.684 -1.8276  0.7204 -1.6926
 2823SOL    HW219932   2.352   3.648   5.711 -3.1378 -1.6491  0.9135
 2824SOL     OW19933   2.308   0.671  10.028  0.1744 -0.0815  0.0332
 2824SOL    HW119934   2.373   0.741  10.032 -2.0407  1.9503 -0.0345
 2824SOL    HW219935   2.335   0.608   9.961  1.6779 -0.3568  0.8831
 2825SOL     OW19936   1.291   4.106  11.625  0.0777 -0.2060 -0.0429
 2825SOL    HW119937   1.339   4.033  11.663  0.2205 -0.4257 -0.6474
 2825SOL    HW219938   1.302   4.092  11.531  0.8933 -2.7207  0.4401
 2826SOL     OW19939   2.418   1.411  13.524 -0.5681 -0.1590  0.4388
 2826SOL    HW119940   2.368   1.450  13.596  2.6472  3.4206  0.7192
 2826SOL    HW219941   2.403   1.472  13.452  2.7381  0.0200 -0.0996
 2827SOL     OW19942   0.125   3.123   4.276 -0.6103  0.3584  0.0625
 2827SOL    HW119943   0.129   3.035   4.238 -2.6151 -0.5780  2.0103
 2827SOL    HW219944   0.216   3.144   4.300  0.0825 -0.9867 -1.3823
 2828SOL     OW19945   0.224   1.416   2.238 -0.0929 -0.1399  0.1388
 2828SOL    HW119946   0.221   1.446   2.329  0.6581  0.6078 -0.0827
 2828SOL    HW219947   0.200   1.499   2.198  2.1975 -0.1172 -1.2228
 2829SOL     OW19948   4.459   0.880  11.619  0.3389 -0.4439 -0.5675
 2829SOL    HW119949   4.439   0.939  11.546  0.2157 -1.3775 -1.2912
 2829SOL    HW219950   4.534   0.830  11.588  1.3739  1.3522 -1.0012
 2830SOL     OW19951   2.358   3.701   4.608 -0.4149  0.0829 -0.3904
 2830SOL    HW119952   2.272   3.740   4.598  0.3670  1.5414 -1.3920
 2830SOL    HW219953   2.353   3.611   4.576 -2.5671 -0.2608  0.9195
 2831SOL     OW19954   3.807   3.401   5.592  0.0808 -0.4171  0.0258
 2831SOL    HW119955   3.785   3.464   5.661  2.0655  0.4960 -0.1634
 2831SOL    HW219956   3.812   3.314   5.631 -2.6176  0.2716  1.8918
 2832SOL     OW19957   0.046   4.164   1.510 -0.0002  0.3100 -0.6477
 2832SOL    HW119958   0.003   4.215   1.579  1.9947 -3.0438  3.1045
 2832SOL    HW219959   4.698   4.124   1.461  0.6856 -0.6138 -0.8951
 2833SOL     OW19960   1.342   0.008   2.573 -0.0842  0.8613 -0.0718
 2833SOL    HW119961   1.300   0.071   2.514  0.0916  1.3571  0.3249
 2833SOL    HW219962   1.258   4.693   2.592  0.1830  0.9853  1.3946
 2834SOL     OW19963   1.731   4.197   7.790  0.7575  0.0370 -0.1161
 2834SOL    HW119964   1.759   4.217   7.701  0.6721 -1.2773 -0.4409
 2834SOL    HW219965   1.638   4.177   7.788  0.4873  1.4895 -1.5269
 2835SOL     OW19966   2.968   2.159   7.743  0.4870 -0.2025  0.3224
 2835SOL    HW119967   2.941   2.200   7.825 -0.1766  0.4491 -0.2205
 2835SOL    HW219968   2.895   2.180   7.685  2.7842  1.1243 -2.1104
 2836SOL     OW19969   3.972   2.101   6.308  0.0330  1.0091  0.5066
 2836SOL    HW119970   4.015   2.021   6.278 -3.7863 -1.4403  1.5106
 2836SOL    HW219971   4.018   2.164   6.251  0.3016  0.8370  0.5350
 2837SOL     OW19972   1.023   0.887   3.924  0.1437 -0.3919  0.1847
 2837SOL    HW119973   1.046   0.795   3.939 -1.7081 -0.3475  3.3976
 2837SOL    HW219974   1.107   0.931   3.912  0.0860  0.0511  1.3910
 2838SOL     OW19975   2.119   4.160   2.239 -0.3172  0.1979 -0.1272
 2838SOL    HW119976   2.027   4.133   2.233 -0.3861  0.3083  0.3599
 2838SOL    HW219977   2.159   4.120   2.316 -0.0507 -1.6650 -1.2303
 2839SOL     OW19978   0.737   3.518   7.084 -0.4449 -0.0203  0.1823
 2839SOL    HW119979   0.818   3.555   7.119 -0.5080  0.4746 -0.1866
 2839SOL    HW219980   0.671   3.561   7.137 -0.5884  1.1468 -0.9332
 2840SOL     OW19981   0.025   2.007   4.644 -0.1883 -0.3400  0.0293
 2840SOL    HW119982   0.084   1.983   4.573  0.4289  1.0001  0.0817
 2840SOL    HW219983   0.093   2.040   4.703 -0.6760 -0.4455  0.6536
 2841SOL     OW19984   2.756   2.826   0.290 -0.3598  0.0900 -0.1826
 2841SOL    HW119985   2.785   2.863   0.207  0.0744 -0.0716 -0.1024
 2841SOL    HW219986   2.678   2.778   0.264  0.1259 -2.3352  2.8801
 2842SOL     OW19987   1.090   1.100   8.523  0.2040  0.0162 -0.3703
 2842SOL    HW119988   1.106   1.194   8.522 -0.8129  0.1709 -2.0701
 2842SOL    HW219989   1.049   1.081   8.438  2.3423 -0.0665 -1.3976
 2843SOL     OW19990   0.051   2.861   7.148 -0.5661 -0.4303 -0.8436
 2843SOL    HW119991   4.682   2.842   7.138 -0.7349  0.8246 -1.6372
 2843SOL    HW219992   0.069   2.790   7.210 -0.6424 -0.8621 -1.3160
 2844SOL     OW19993   1.080   4.653   2.623  0.9106 -0.5797  0.8945
 2844SOL    HW119994   0.989   4.681   2.617  1.5731  1.4778  0.4202
 2844SOL    HW219995   1.078   4.582   2.686  1.0113 -0.4858  1.0029
 2845SOL     OW19996   4.293   4.462   4.042 -0.6473  0.2178  0.2688
 2845SOL    HW119997   4.267   4.382   3.997 -0.4428 -0.0646  0.6437
 2845SOL    HW219998   4.384   4.463   4.013 -1.0379  1.2267 -0.9042
 2846SOL     OW19999   3.808   3.878   7.731  0.4193 -0.2777  0.1190
 2846SOL    HW120000   3.811   3.918   7.643  0.4250 -0.9814 -0.2015
 2846SOL    HW220001   3.741   3.924   7.780 -0.0830  0.5087 -1.2951
 2847SOL     OW20002   3.820   0.257  12.883  0.0952  0.3116 -0.3826
 2847SOL    HW120003   3.837   0.218  12.798  0.8903 -0.9927  0.3790
 2847SOL    HW220004   3.794   0.184  12.939  2.6179 -0.0055  0.4016
 2848SOL     OW20005   2.389   1.369  16.532 -0.5438 -0.0174  0.2898
 2848SOL    HW120006   2.347   1.441  16.580 -0.1517  0.3222  0.1192
 2848SOL    HW220007   2.471   1.361  16.580  1.3729 -0.8747 -3.1522
 2849SOL     OW20008   1.516   0.562   5.442  0.0142 -0.7854  0.1241
 2849SOL    HW120009   1.469   0.553   5.525  1.2825 -1.8560  0.7168
 2849SOL    HW220010   1.555   0.475   5.449  0.0086 -0.7323  0.7851
 2850SOL     OW20011   0.576   4.213   2.358  0.0115 -0.0065  0.9563
 2850SOL    HW120012   0.540   4.286   2.308 -0.6836 -1.1327 -0.1871
 2850SOL    HW220013   0.611   4.262   2.433  1.3814  1.8781 -0.9239
 2851SOL     OW20014   4.354   3.016   4.620 -0.0453  0.0405  0.1526
 2851SOL    HW120015   4.289   3.070   4.666  0.9557  1.4230 -0.0541
 2851SOL    HW220016   4.293   2.950   4.588  1.5357 -1.5268  0.3726
 2852SOL     OW20017   2.367   0.381   5.031 -0.1904  0.3240 -0.0574
 2852SOL    HW120018   2.317   0.396   4.951 -0.2266 -1.8441 -0.4451
 2852SOL    HW220019   2.312   0.309   5.062  0.2491 -1.1407 -2.6446
 2853SOL     OW20020   2.474   2.693   2.828  0.1904 -0.2262 -0.1828
 2853SOL    HW120021   2.425   2.695   2.746 -0.4147  0.0591  0.1864
 2853SOL    HW220022   2.558   2.735   2.806  0.7412 -1.3436 -0.2377
 2854SOL     OW20023   0.740   2.949  15.707  0.2522  0.3804 -0.6216
 2854SOL    HW120024   0.791   2.934  15.628 -0.2311  1.3328 -1.1072
 2854SOL    HW220025   0.786   2.895  15.772  0.3688 -0.6183 -1.5351
 2855SOL     OW20026   4.252   3.526   4.866 -0.0278 -0.0808 -0.0277
 2855SOL    HW120027   4.320   3.472   4.826 -0.7976 -0.1205 -1.2525
 2855SOL    HW220028   4.172   3.479   4.843  0.5025 -1.0259  0.0513
 2856SOL     OW20029   1.600   0.721   3.236  0.0670 -0.0829 -0.2005
 2856SOL    HW120030   1.657   0.691   3.306  0.7427  0.0413 -0.6922
 2856SOL    HW220031   1.533   0.767   3.286  0.4496  1.7342 -1.3685
 2857SOL     OW20032   0.905   2.740   7.795  0.2387 -0.1432  0.2609
 2857SOL    HW120033   0.956   2.712   7.871 -1.0429  1.1786  1.6110
 2857SOL    HW220034   0.914   2.658   7.748 -0.0797  0.9538 -1.7165
 2858SOL     OW20035   4.643   0.187   6.368  0.1936  0.4913 -0.1133
 2858SOL    HW120036   4.581   0.243   6.415  0.1623  0.4906 -0.1533
 2858SOL    HW220037   4.703   0.166   6.439 -0.2847 -3.8037 -0.9585
 2859SOL     OW20038   4.510   2.101  15.408 -0.2588 -0.1543  0.4604
 2859SOL    HW120039   4.547   2.031  15.354 -1.8564 -0.4624 -0.2343
 2859SOL    HW220040   4.444   2.057  15.461 -0.3219 -0.2949  0.2665
 2860SOL     OW20041   0.843   3.125  14.654 -0.2253 -0.1707  0.0183
 2860SOL    HW120042   0.748   3.124  14.668  0.0910 -2.5552  2.0389
 2860SOL    HW220043   0.853   3.030  14.643 -0.0008 -0.2894  1.3449
 2861SOL     OW20044   3.364   4.069   6.581 -0.0120 -0.0802 -0.4643
 2861SOL    HW120045   3.393   4.066   6.489 -2.4187 -0.0334 -1.2169
 2861SOL    HW220046   3.362   4.165   6.591 -0.2270 -0.2218  0.7276
 2862SOL     OW20047   0.102   4.543   4.215 -0.5444 -0.0639 -0.0139
 2862SOL    HW120048   0.103   4.537   4.120 -0.6383  0.4682 -0.0451
 2862SOL    HW220049   0.020   4.589   4.230 -1.3230 -1.2571 -0.5934
 2863SOL     OW20050   2.218   3.336   4.036  0.3454  0.8032 -0.0729
 2863SOL    HW120051   2.168   3.330   3.955 -0.2841  0.6038  0.3305
 2863SOL    HW220052   2.153   3.320   4.105 -0.1015  1.8279 -0.2484
 2864SOL     OW20053   4.297   0.630   4.983 -0.1164 -0.1896  0.6395
 2864SOL    HW120054   4.389   0.640   5.007  0.3604  1.9962 -2.0916
 2864SOL    HW220055   4.293   0.664   4.893 -2.3327  1.2891  1.3041
 2865SOL     OW20056   0.844   4.261   5.884  0.6325 -0.4785  0.4266
 2865SOL    HW120057   0.823   4.168   5.897  0.3492 -0.4753 -0.0040
 2865SOL    HW220058   0.889   4.254   5.800  2.1183  1.3503  1.0758
 2866SOL     OW20059   0.253   0.159   9.294  0.0576  0.1270 -0.9503
 2866SOL    HW120060   0.303   0.237   9.272 -1.6756  1.3308 -0.6533
 2866SOL    HW220061   0.162   0.185   9.308  0.2339  1.0565 -1.5095
 2867SOL     OW20062   4.047   2.853  17.134 -0.0763 -0.6874  0.3067
 2867SOL    HW120063   4.095   2.804  17.068  0.6220  1.3436 -0.7052
 2867SOL    HW220064   3.957   2.821  17.136 -0.9689  1.7003 -1.5203
 2868SOL     OW20065   0.528   1.885   8.299  0.6279 -0.0985  0.0041
 2868SOL    HW120066   0.501   1.817   8.360  0.9784  1.5875  2.0199
 2868SOL    HW220067   0.623   1.876   8.302  0.6492  0.2036  0.2354
 2869SOL     OW20068   3.271   0.852   9.053  0.5713  0.6369 -0.1852
 2869SOL    HW120069   3.270   0.760   9.026 -2.3611  0.4275  0.6475
 2869SOL    HW220070   3.345   0.855   9.114  0.0350 -1.9166  0.5841
 2870SOL     OW20071   2.694   2.248   6.532  0.5142 -0.7510 -0.1919
 2870SOL    HW120072   2.702   2.224   6.440 -0.1830  0.0976 -0.4797
 2870SOL    HW220073   2.785   2.271   6.553  0.2398  0.9789 -0.8803
 2871SOL     OW20074   3.621   3.758   0.775  0.2486 -0.4810  0.0327
 2871SOL    HW120075   3.534   3.795   0.789  0.8296  1.4501 -1.4632
 2871SOL    HW220076   3.669   3.791   0.851 -0.7436  0.8834  0.0585
 2872SOL     OW20077   4.001   2.269  10.265  0.4082 -0.0008  0.3054
 2872SOL    HW120078   4.054   2.192  10.286  0.8915 -0.1373 -1.3860
 2872SOL    HW220079   3.944   2.277  10.341  0.8165  1.6366  0.4247
 2873SOL     OW20080   0.019   2.981   8.360 -0.4236  0.0781 -0.0385
 2873SOL    HW120081   0.071   2.942   8.430 -0.3984  0.1520 -0.0168
 2873SOL    HW220082   4.659   2.946   8.389  1.0754 -2.6824  0.9917
 2874SOL     OW20083   2.315   1.138   2.361  0.4647  0.8514 -0.1393
 2874SOL    HW120084   2.406   1.118   2.383  0.6412  1.6664 -0.0923
 2874SOL    HW220085   2.278   1.106   2.443  1.3987  1.5148  0.5572
 2875SOL     OW20086   4.238   3.920   9.781 -0.0136  0.0821 -0.1412
 2875SOL    HW120087   4.302   3.984   9.748 -0.6950  0.5167 -0.6145
 2875SOL    HW220088   4.273   3.888   9.864  0.7192 -0.7162 -0.7437
 2876SOL     OW20089   0.751   3.893  10.718 -0.0632  0.3113  0.1613
 2876SOL    HW120090   0.807   3.899  10.795  1.8909  0.1527 -1.2485
 2876SOL    HW220091   0.695   3.970  10.728  2.0420  1.8376  0.1788
 2877SOL     OW20092   1.602   4.715  14.460 -0.5110 -0.1793  0.4124
 2877SOL    HW120093   1.587   4.723  14.366  0.5618  0.4438  0.2966
 2877SOL    HW220094   1.564   4.628  14.476  0.7031 -0.9790 -1.0149
 2878SOL     OW20095   2.525   1.345  16.125 -0.1029  0.4766  0.4390
 2878SOL    HW120096   2.595   1.350  16.190 -0.1984 -3.0793  0.8051
 2878SOL    HW220097   2.527   1.425  16.071 -2.1375  0.3437  0.1764
 2879SOL     OW20098   4.271   0.660   3.682  0.1028  0.2956 -0.3778
 2879SOL    HW120099   4.214   0.677   3.757 -0.7486 -2.7037 -0.3615
 2879SOL    HW220100   4.327   0.589   3.712  0.3185 -0.1494 -1.8239
 2880SOL     OW20101   4.487   0.404   6.496  0.3246  0.0717 -0.0152
 2880SOL    HW120102   4.413   0.350   6.469 -1.1630  1.8391  0.5257
 2880SOL    HW220103   4.450   0.491   6.483 -0.4157 -0.4059 -1.1806
 2881SOL     OW20104   4.237   0.691   2.726  0.0299  0.1209 -0.4166
 2881SOL    HW120105   4.275   0.736   2.801 -4.2292 -1.0044  2.4746
 2881SOL    HW220106   4.315   0.652   2.687 -1.0169 -0.5482 -1.8527
 2882SOL     OW20107   1.893   1.175   8.314 -0.1212 -0.4045 -0.6044
 2882SOL    HW120108   1.950   1.154   8.240  2.2727 -1.2184  1.4817
 2882SOL    HW220109   1.945   1.245   8.352  0.7964 -0.8383 -1.0502
 2883SOL     OW20110   1.043   0.157  15.216  0.9095 -0.3745 -0.0678
 2883SOL    HW120111   1.042   0.116  15.130  1.4704 -0.0670 -0.2248
 2883SOL    HW220112   0.988   0.233  15.198 -0.2014 -0.3911  3.1895
 2884SOL     OW20113   0.865   2.842   8.961  0.1636 -0.4294  0.3703
 2884SOL    HW120114   0.796   2.814   8.901  0.0907 -0.1165  0.3056
 2884SOL    HW220115   0.904   2.921   8.922 -0.4950  1.3825  3.3593
 2885SOL     OW20116   3.857   4.100   7.159  0.0602  0.1248  0.6593
 2885SOL    HW120117   3.913   4.041   7.210 -0.6623 -0.4475  0.7780
 2885SOL    HW220118   3.876   4.184   7.202  2.4739 -0.1365  0.1035
 2886SOL     OW20119   0.611   3.872   3.557 -0.1037 -0.6525  0.2385
 2886SOL    HW120120   0.705   3.887   3.544 -0.1573 -0.0804  0.4850
 2886SOL    HW220121   0.594   3.917   3.640 -0.8652 -2.8157  1.2367
 2887SOL     OW20122   2.830   4.658   5.696  0.0459  0.4150 -0.4614
 2887SOL    HW120123   2.776   4.669   5.774  1.1173 -1.1255  0.4959
 2887SOL    HW220124   2.791   0.007   5.648  0.0275 -0.0311 -1.1095
 2888SOL     OW20125   4.108   3.087   4.718  0.1639 -0.0384 -0.0158
 2888SOL    HW120126   4.055   3.095   4.797 -0.9690 -0.1693 -0.7752
 2888SOL    HW220127   4.044   3.122   4.657  1.4906  2.5482  0.0581
 2889SOL     OW20128   1.067   2.592   4.509  0.3942 -0.0176  0.2924
 2889SOL    HW120129   1.050   2.685   4.523 -2.0110 -0.0689 -2.3480
 2889SOL    HW220130   0.984   2.560   4.473 -0.4301  0.8126  1.4603
 2890SOL     OW20131   0.959   1.501   3.160 -0.5623 -0.1550 -0.0547
 2890SOL    HW120132   0.995   1.413   3.159 -0.2020 -0.0048 -0.1701
 2890SOL    HW220133   1.006   1.542   3.233  0.8724 -0.8150 -0.6276
 2891SOL     OW20134   3.608   2.924   1.483 -0.0232 -0.2495  0.9158
 2891SOL    HW120135   3.684   2.979   1.466 -1.2900  0.7790 -1.4174
 2891SOL    HW220136   3.559   2.950   1.405 -1.4798  1.5864  2.4303
 2892SOL     OW20137   2.187   2.464  11.689  0.5585 -1.0307  0.2525
 2892SOL    HW120138   2.146   2.404  11.752  2.3259 -1.9583  0.5365
 2892SOL    HW220139   2.173   2.411  11.610  0.8039 -0.3573 -0.2331
 2893SOL     OW20140   4.235   4.501  10.966  0.0355 -1.0120  0.4220
 2893SOL    HW120141   4.255   4.442  11.038  0.1696  1.6151  2.5102
 2893SOL    HW220142   4.156   4.459  10.930 -1.6391  1.3354  1.4303
 2894SOL     OW20143   0.896   1.101   0.451  0.2176  0.3262  0.0043
 2894SOL    HW120144   0.850   1.078   0.531  2.3538 -1.1425  0.8178
 2894SOL    HW220145   0.885   1.028   0.389  0.3452 -1.1741  1.7518
 2895SOL     OW20146   1.100   1.412  17.628  0.6674 -0.3288 -0.1826
 2895SOL    HW120147   1.096   1.321  17.657  0.0035 -0.6714 -1.3358
 2895SOL    HW220148   1.032   1.453  17.682  0.6916  0.8077 -0.9980
 2896SOL     OW20149   0.218   1.082   7.101 -0.0524 -0.0853 -0.4354
 2896SOL    HW120150   0.266   1.041   7.029 -0.9908 -1.4372 -0.3020
 2896SOL    HW220151   0.280   1.077   7.173  0.1409 -3.1562 -0.7995
 2897SOL     OW20152   3.639   1.724  17.360 -0.4771 -0.3288  0.1084
 2897SOL    HW120153   3.664   1.686  17.444 -0.2113 -0.1722  0.1003
 2897SOL    HW220154   3.552   1.761  17.369 -0.7044 -0.0334 -3.1963
 2898SOL     OW20155   0.416   1.245   1.628 -0.0378  0.2037 -0.0239
 2898SOL    HW120156   0.458   1.300   1.695 -0.1013 -1.6949  1.5855
 2898SOL    HW220157   0.464   1.267   1.548  0.9872  1.0822  0.8337
 2899SOL     OW20158   3.965   4.501   3.928 -0.3020  0.2808 -0.7943
 2899SOL    HW120159   4.023   4.475   4.000  0.8086  1.0002 -1.4241
 2899SOL    HW220160   3.937   4.416   3.892 -1.7630  0.1032  0.7658
 2900SOL     OW20161   0.808   0.099   9.230 -0.1908  0.0902  0.2291
 2900SOL    HW120162   0.713   0.104   9.239 -0.1082  2.3176 -0.2063
 2900SOL    HW220163   0.825   0.020   9.281  0.9105  0.4704  0.4587
 2901SOL     OW20164   1.024   1.397   5.852  0.1535  0.5239 -0.0780
 2901SOL    HW120165   1.071   1.477   5.831 -1.2697  0.6501 -2.8082
 2901SOL    HW220166   0.998   1.385   5.761  0.9579 -0.4566 -0.1713
 2902SOL     OW20167   4.022   0.296   2.742 -0.0631 -0.5185  0.6865
 2902SOL    HW120168   3.941   0.280   2.790  0.3509  2.6154  2.4482
 2902SOL    HW220169   4.069   0.213   2.753  1.6533  0.1255 -1.8874
 2903SOL     OW20170   3.159   0.283   7.669  0.2150 -0.4253 -0.2716
 2903SOL    HW120171   3.127   0.237   7.591 -0.0573  1.3484 -1.2132
 2903SOL    HW220172   3.247   0.253   7.692  0.2176 -1.6428 -1.8873
 2904SOL     OW20173   1.352   1.858   0.057 -0.4593 -0.6027 -0.2637
 2904SOL    HW120174   1.322   1.778   0.014 -2.1001 -0.1069 -0.0459
 2904SOL    HW220175   1.289   1.922   0.023  2.0049  1.8087 -0.2268
 2905SOL     OW20176   2.226   2.505   3.202 -0.2701  0.1272 -0.4623
 2905SOL    HW120177   2.183   2.571   3.148 -0.7938  0.5187  0.4509
 2905SOL    HW220178   2.319   2.522   3.184  0.5651 -0.1246  3.5798
 2906SOL     OW20179   3.303   1.698   1.884  0.5193  0.4204 -0.3049
 2906SOL    HW120180   3.231   1.652   1.928  0.8512  0.8842  0.7409
 2906SOL    HW220181   3.259   1.743   1.813 -0.0431 -0.1176 -0.2971
 2907SOL     OW20182   3.854   4.471   2.765 -0.2830 -0.1191  0.1341
 2907SOL    HW120183   3.876   4.503   2.853  1.5076  3.6101 -1.6754
 2907SOL    HW220184   3.943   4.452   2.737 -1.1847 -0.3907 -2.5007
 2908SOL     OW20185   2.893   2.686  12.809 -0.3341  0.5888 -0.4490
 2908SOL    HW120186   2.959   2.681  12.878 -1.0327  0.5333  0.2180
 2908SOL    HW220187   2.948   2.666  12.733  0.3478  2.1112 -0.3360
 2909SOL     OW20188   4.651   3.407   4.519 -0.2385 -0.2663 -0.9956
 2909SOL    HW120189   4.575   3.388   4.573  1.5125 -0.8722  1.2206
 2909SOL    HW220190   4.648   3.340   4.451 -0.9718 -0.7121 -0.5105
 2910SOL     OW20191   4.019   3.143  14.364  0.1302  0.6357 -0.2144
 2910SOL    HW120192   4.013   3.234  14.334  0.6106  1.8252  3.2583
 2910SOL    HW220193   4.113   3.129  14.370 -0.0858 -1.1742 -1.3191
 2911SOL     OW20194   1.172   0.926   7.609 -0.0084 -0.3036 -0.1205
 2911SOL    HW120195   1.161   0.831   7.612 -2.8177  0.0897  2.2013
 2911SOL    HW220196   1.156   0.949   7.518 -0.0410 -2.6654 -0.7192
 2912SOL     OW20197   3.564   1.728   8.649  0.0283 -0.1640 -0.1463
 2912SOL    HW120198   3.655   1.753   8.638  0.3052 -0.2414  2.0665
 2912SOL    HW220199   3.568   1.647   8.700 -0.4297  0.0879  0.2977
 2913SOL     OW20200   0.272   2.089   8.700  0.3635  0.6235  0.2606
 2913SOL    HW120201   0.334   2.144   8.651  0.0509  0.9771  0.2623
 2913SOL    HW220202   0.188   2.109   8.659  0.0137  1.8079  1.5480
 2914SOL     OW20203   1.860   2.035   7.736  0.2460 -0.3052 -0.0293
 2914SOL    HW120204   1.860   1.999   7.825 -0.0542 -2.3789 -0.8704
 2914SOL    HW220205   1.939   2.088   7.742 -0.9570  1.4589  0.3314
 2915SOL     OW20206   0.096   2.998   1.690  0.5431 -0.0030 -0.3726
 2915SOL    HW120207   0.030   2.983   1.623 -0.4266 -1.0352  0.8399
 2915SOL    HW220208   0.140   2.913   1.694 -0.5790 -0.5982 -0.7753
 2916SOL     OW20209   0.667   1.788  11.700  0.0073  0.1735  0.4754
 2916SOL    HW120210   0.663   1.847  11.625 -1.0445 -0.1622  0.2697
 2916SOL    HW220211   0.761   1.796  11.715 -0.1581  0.2050  1.5101
 2917SOL     OW20212   2.610   4.584   7.447 -0.8472 -0.2952 -0.2612
 2917SOL    HW120213   2.693   4.601   7.493 -1.5048  2.2578  0.0029
 2917SOL    HW220214   2.548   4.630   7.503 -0.1432 -1.1637  1.2233
 2918SOL     OW20215   2.467   4.095  16.604  0.3222  0.1238  0.2651
 2918SOL    HW120216   2.432   4.015  16.564 -0.4807  0.5661  0.0919
 2918SOL    HW220217   2.462   4.158  16.532  0.8539  0.7971  0.8348
 2919SOL     OW20218   0.292   1.908   5.429  0.4919  0.2360 -0.1958
 2919SOL    HW120219   0.216   1.942   5.381 -2.3662 -3.2371  1.8616
 2919SOL    HW220220   0.243   1.842   5.478 -0.0432 -0.9694 -2.3389
 2920SOL     OW20221   1.200   1.598   7.972  0.2897 -0.0323  0.1866
 2920SOL    HW120222   1.163   1.686   7.969  0.0085 -0.1712 -0.4081
 2920SOL    HW220223   1.294   1.616   7.969  0.2457  0.1348 -0.2937
 2921SOL     OW20224   0.241   3.100   5.799  0.2450 -0.0469 -0.2001
 2921SOL    HW120225   0.331   3.133   5.795  1.1424 -2.1294  2.9215
 2921SOL    HW220226   0.228   3.078   5.707  0.9828  2.2370 -0.8557
 2922SOL     OW20227   3.071   1.583   7.778 -0.0830 -0.2466  0.3039
 2922SOL    HW120228   3.122   1.641   7.721  0.5800 -1.0524  0.0704
 2922SOL    HW220229   3.060   1.510   7.718 -0.0254 -0.7820  0.9363
 2923SOL     OW20230   3.717   2.746   9.453  0.4228 -0.2967  0.1269
 2923SOL    HW120231   3.742   2.809   9.386 -0.8717  1.6182  1.4294
 2923SOL    HW220232   3.740   2.805   9.525 -0.9466 -0.2211  0.5213
 2924SOL     OW20233   2.638   4.642  10.457 -0.4076  0.0893  0.0903
 2924SOL    HW120234   2.625   4.713  10.393  1.3513  0.3295 -0.0143
 2924SOL    HW220235   2.702   4.681  10.517  0.9811  0.5539 -1.6719
 2925SOL     OW20236   3.864   1.154  16.202  0.7023 -0.1679  0.3758
 2925SOL    HW120237   3.880   1.061  16.218 -0.7583 -0.0210  2.7414
 2925SOL    HW220238   3.769   1.144  16.197  0.9900 -1.6552 -1.7593
 2926SOL     OW20239   1.688   1.873   4.248  0.3246  0.3686  0.4216
 2926SOL    HW120240   1.744   1.877   4.171 -2.0073  0.7207 -1.2652
 2926SOL    HW220241   1.611   1.918   4.213  1.5006  1.7966 -0.3247
 2927SOL     OW20242   0.952   4.323  11.158 -0.6751  0.2182 -0.0557
 2927SOL    HW120243   0.967   4.323  11.253  0.3853 -1.0467 -0.2313
 2927SOL    HW220244   0.959   4.414  11.129 -0.9459  0.3148  0.1832
 2928SOL     OW20245   1.586   4.455   3.757  0.1006  0.0707 -0.5941
 2928SOL    HW120246   1.644   4.435   3.683  0.7143  0.3209 -0.1824
 2928SOL    HW220247   1.528   4.380   3.757  0.7442 -0.4192  0.2766
 2929SOL     OW20248   1.950   2.617   4.547  0.7027 -0.2944 -0.3167
 2929SOL    HW120249   2.039   2.589   4.568  1.6419  1.1093 -2.4398
 2929SOL    HW220250   1.960   2.684   4.479  0.0641  0.9253  0.7930
 2930SOL     OW20251   1.676   2.603   6.729  0.1471  0.0093 -0.1051
 2930SOL    HW120252   1.696   2.572   6.818 -1.9057 -1.9573 -0.3239
 2930SOL    HW220253   1.596   2.552   6.720  0.2316  0.3982 -2.8552
 2931SOL     OW20254   4.488   2.629  16.882 -0.1595  0.3481  0.0315
 2931SOL    HW120255   4.422   2.662  16.822 -0.0461  2.6400  1.1721
 2931SOL    HW220256   4.570   2.638  16.834 -0.8145  0.1837 -1.1084
 2932SOL     OW20257   0.904   2.578   1.994 -0.2590 -0.0333  0.3579
 2932SOL    HW120258   0.823   2.581   1.943  0.2908 -3.5423 -0.7370
 2932SOL    HW220259   0.944   2.662   1.973  1.2965 -1.0295 -0.6661
 2933SOL     OW20260   0.020   3.929   5.118 -0.4440  0.1220  0.7826
 2933SOL    HW120261   0.017   3.834   5.109  1.0703  0.2924 -1.6099
 2933SOL    HW220262   0.071   3.951   5.040 -0.4065  0.9994  1.0475
 2934SOL     OW20263   2.745   0.545   6.662  0.3692 -0.1873  0.8870
 2934SOL    HW120264   2.684   0.580   6.726 -2.3287  0.7266 -2.1636
 2934SOL    HW220265   2.785   0.629   6.639 -1.2776 -0.1954 -1.9681
 2935SOL     OW20266   2.619   3.020   5.250  0.0287 -0.6085 -0.2131
 2935SOL    HW120267   2.638   2.928   5.230 -0.2324 -0.7983  0.4174
 2935SOL    HW220268   2.579   3.053   5.169 -1.2164 -0.4867  0.4653
 2936SOL     OW20269   2.836   0.252   4.293 -0.1186 -0.3827  0.2563
 2936SOL    HW120270   2.813   0.332   4.341 -1.9038 -1.3417  0.9606
 2936SOL    HW220271   2.890   0.209   4.359  1.3144 -2.1556 -2.0690
 2937SOL     OW20272   3.582   2.097   7.189  0.4302 -0.0421  0.8194
 2937SOL    HW120273   3.631   2.017   7.166  0.7761 -0.2515  2.3143
 2937SOL    HW220274   3.634   2.158   7.136 -0.1726 -0.4841 -0.2815
 2938SOL     OW20275   4.101   2.166   8.826 -0.3470 -0.8997  0.4843
 2938SOL    HW120276   4.191   2.135   8.825  0.5674  1.7779  1.0542
 2938SOL    HW220277   4.115   2.259   8.842 -1.7930 -0.6115  0.1201
 2939SOL     OW20278   2.981   3.281   5.994 -0.9202 -0.4527  0.7103
 2939SOL    HW120279   3.072   3.295   6.020 -0.2379 -0.9673 -1.3278
 2939SOL    HW220280   2.972   3.351   5.929  0.7042 -0.0021  0.9590
 2940SOL     OW20281   4.201   0.762   8.776 -0.4600  0.5706 -0.4090
 2940SOL    HW120282   4.140   0.747   8.848 -1.0029 -0.0677 -0.9873
 2940SOL    HW220283   4.241   0.679   8.750  0.5773  1.3612 -1.3354
 2941SOL     OW20284   0.578   1.341   8.000  0.5233  0.0657 -0.0815
 2941SOL    HW120285   0.557   1.407   8.067 -1.3279 -0.3679 -0.2410
 2941SOL    HW220286   0.523   1.266   8.020  1.2850 -0.1051  1.3941
 2942SOL     OW20287   0.012   3.088  10.895  0.6630 -0.1991 -0.1614
 2942SOL    HW120288   0.073   3.156  10.868 -0.0171  0.2678 -0.5099
 2942SOL    HW220289   4.722   3.045  10.810 -3.3102  1.4231 -0.3146
 2943SOL     OW20290   2.016   2.613   5.065  0.3498  0.3112  0.5580
 2943SOL    HW120291   2.070   2.625   4.987  0.3714 -0.5462  0.4408
 2943SOL    HW220292   2.018   2.518   5.075 -1.7445  0.4802  2.5686
 2944SOL     OW20293   0.166   0.098   5.564  0.3343 -0.0340 -0.3596
 2944SOL    HW120294   0.202   0.022   5.609  0.9074 -1.3399 -2.9650
 2944SOL    HW220295   0.177   0.087   5.469  1.4976  1.9035 -0.4653
 2945SOL     OW20296   3.094   4.556   6.190 -0.2376  0.0875 -0.3024
 2945SOL    HW120297   3.027   4.624   6.197  0.3595  0.3901  2.2840
 2945SOL    HW220298   3.039   4.488   6.227  0.2979  0.3495  0.9898
 2946SOL     OW20299   1.461   4.279   8.288  0.2733  0.0588  1.0275
 2946SOL    HW120300   1.380   4.274   8.338 -0.4781 -1.7421 -0.3475
 2946SOL    HW220301   1.521   4.318   8.351  0.0522  1.4852  0.3410
 2947SOL     OW20302   4.455   3.272   8.262  0.3017  0.1970 -0.5410
 2947SOL    HW120303   4.535   3.224   8.241  0.9999  1.0902  0.0855
 2947SOL    HW220304   4.382   3.211   8.253 -0.1578  0.8130 -0.9555
 2948SOL     OW20305   2.516   2.724   8.124  0.4191  0.1358 -0.8241
 2948SOL    HW120306   2.547   2.693   8.038 -0.4779 -1.4681 -0.5723
 2948SOL    HW220307   2.581   2.681   8.180 -1.2613 -1.6412 -0.2549
 2949SOL     OW20308   3.819   3.054   5.966 -0.3709 -0.1774  0.0942
 2949SOL    HW120309   3.745   3.049   6.027 -0.9928  3.9113 -0.3316
 2949SOL    HW220310   3.872   3.122   6.010  0.1240 -0.0648 -0.6811
 2950SOL     OW20311   2.212   2.164   6.887  0.7598  0.5888  0.3767
 2950SOL    HW120312   2.291   2.113   6.872  1.0468  0.2300  3.1260
 2950SOL    HW220313   2.226   2.194   6.977 -0.8657 -0.8016  1.1085
 2951SOL     OW20314   3.938   0.743  17.201 -0.5582 -0.2692  0.2805
 2951SOL    HW120315   4.021   0.786  17.219 -1.6413  1.9477  0.0435
 2951SOL    HW220316   3.904   0.714  17.286 -0.9675 -1.7487 -0.3843
 2952SOL     OW20317   3.416   1.545   8.882 -0.3797  0.1110  0.0604
 2952SOL    HW120318   3.391   1.533   8.974 -1.1908 -2.4853 -0.5249
 2952SOL    HW220319   3.359   1.617   8.852 -1.1087 -0.6091 -0.2920
 2953SOL     OW20320   4.271   4.295  14.528 -0.4941  0.0053  0.3177
 2953SOL    HW120321   4.305   4.368  14.580  0.2627 -0.5346  0.5863
 2953SOL    HW220322   4.217   4.334  14.460  0.1414 -0.8741 -0.6793
 2954SOL     OW20323   1.473   3.230  16.023  0.0793  0.2403  0.6112
 2954SOL    HW120324   1.421   3.272  15.954 -0.9155 -2.5534 -0.3773
 2954SOL    HW220325   1.554   3.218  15.975 -0.2538 -0.7331  0.2897
 2955SOL     OW20326   0.418   4.561   4.461 -0.4623 -0.3441 -0.5022
 2955SOL    HW120327   0.444   4.635   4.407  1.4332 -0.9874 -0.4446
 2955SOL    HW220328   0.396   4.604   4.544 -1.8009 -0.7461 -0.6424
 2956SOL     OW20329   1.364   3.289   7.976 -0.0700  0.0791 -0.1644
 2956SOL    HW120330   1.446   3.332   7.950  0.9675 -1.3602  0.6561
 2956SOL    HW220331   1.334   3.349   8.043 -1.5680 -2.6902  1.6514
 2957SOL     OW20332   2.830   3.254   4.207  0.5894 -0.2906  0.0897
 2957SOL    HW120333   2.811   3.161   4.218  3.3455 -0.6952  1.3241
 2957SOL    HW220334   2.770   3.294   4.269 -1.4222 -1.8777 -0.8032
 2958SOL     OW20335   1.724   3.727   8.107  0.4334 -0.4209  0.0650
 2958SOL    HW120336   1.788   3.677   8.057 -1.8154  1.2802 -4.5002
 2958SOL    HW220337   1.775   3.784   8.164  0.2672 -0.1647 -0.0429
 2959SOL     OW20338   4.027   3.366   1.057 -0.1198 -0.0317 -0.0241
 2959SOL    HW120339   3.972   3.443   1.069 -0.0187  0.4018 -2.4475
 2959SOL    HW220340   4.015   3.317   1.139 -3.2593  1.7741  0.6090
 2960SOL     OW20341   1.549   3.117   3.741 -0.1240  0.1204 -0.0357
 2960SOL    HW120342   1.642   3.096   3.733  0.5788  2.6924  1.1760
 2960SOL    HW220343   1.510   3.034   3.768  0.7521 -0.5650 -0.8838
 2961SOL     OW20344   0.217   0.571   8.848  0.2158 -0.0758 -0.2098
 2961SOL    HW120345   0.185   0.567   8.938  0.8157 -0.8731 -0.0213
 2961SOL    HW220346   0.265   0.490   8.826  0.1289 -0.3580  0.6348
 2962SOL     OW20347   4.509   1.228   3.160  0.5940 -0.0215  0.1827
 2962SOL    HW120348   4.580   1.177   3.199  0.8144  0.0572 -0.1157
 2962SOL    HW220349   4.456   1.250   3.237  0.9209 -1.4038  0.7909
 2963SOL     OW20350   1.369   3.774   2.164 -0.1071 -0.2489 -0.4128
 2963SOL    HW120351   1.344   3.732   2.081  0.1420 -2.1283  0.4607
 2963SOL    HW220352   1.336   3.863   2.152  3.4130  1.0623 -0.2796
 2964SOL     OW20353   2.516   1.232   8.779 -0.5276 -0.4644  0.0671
 2964SOL    HW120354   2.577   1.200   8.846 -0.5607  0.2873  0.4647
 2964SOL    HW220355   2.526   1.327   8.792  0.0720 -0.4568 -0.4490
 2965SOL     OW20356   0.871   1.882   2.945 -0.0535 -0.2235 -0.5377
 2965SOL    HW120357   0.894   1.974   2.933  1.9196 -0.4154  1.7845
 2965SOL    HW220358   0.777   1.880   2.928  0.1360 -1.4987 -1.4476
 2966SOL     OW20359   3.032   1.570   3.985 -0.5622  0.1799  0.1534
 2966SOL    HW120360   3.033   1.566   4.081 -2.7347  0.2294  0.1869
 2966SOL    HW220361   3.122   1.545   3.963 -0.2309 -0.1498  1.8867
 2967SOL     OW20362   1.479   3.614  10.030  0.3583 -0.3367  0.1050
 2967SOL    HW120363   1.537   3.680  10.067  0.9963 -1.7925  1.7368
 2967SOL    HW220364   1.434   3.668   9.965 -1.2292 -1.1367  0.5542
 2968SOL     OW20365   4.687   1.197   2.420  0.0012 -0.5132 -0.3612
 2968SOL    HW120366   4.632   1.236   2.351  0.6163 -0.4603 -0.8261
 2968SOL    HW220367   4.707   1.114   2.377  0.5857  0.2619 -1.5763
 2969SOL     OW20368   3.194   0.878   0.512 -0.8689 -0.6359  0.0995
 2969SOL    HW120369   3.218   0.811   0.449 -0.7948 -2.3325  1.9240
 2969SOL    HW220370   3.282   0.900   0.545 -1.3617  1.3928  0.0344
 2970SOL     OW20371   0.025   4.468   8.440 -0.5155 -0.0705 -0.1769
 2970SOL    HW120372   0.044   4.439   8.351  2.3305  1.1133  0.0544
 2970SOL    HW220373   4.665   4.506   8.416 -0.7799 -0.4260  0.1787
 2971SOL     OW20374   1.766   0.007   5.078 -0.2206  0.6997  0.3119
 2971SOL    HW120375   1.720   4.671   5.018  0.9238 -0.4139  0.5533
 2971SOL    HW220376   1.846   4.681   5.092 -0.8922 -1.0643 -2.0914
 2972SOL     OW20377   2.145   2.421  16.796 -0.6100  0.2388  0.0577
 2972SOL    HW120378   2.162   2.327  16.802 -0.4502  0.2952  0.4564
 2972SOL    HW220379   2.228   2.460  16.767  0.2177 -1.0687  0.6690
 2973SOL     OW20380   2.949   1.956  14.691 -0.1139  0.3786 -0.1841
 2973SOL    HW120381   2.887   1.925  14.624  1.2781  0.1187 -1.3486
 2973SOL    HW220382   3.010   1.883  14.679 -0.9878 -0.3556 -0.1984
 2974SOL     OW20383   2.757   1.653   9.366  0.7749  0.2833 -0.0313
 2974SOL    HW120384   2.727   1.662   9.457  1.8243 -1.6604  0.5232
 2974SOL    HW220385   2.722   1.733   9.327  1.8670 -0.2146 -2.0121
 2975SOL     OW20386   4.331   2.007   6.568  0.3497  0.3292  0.1301
 2975SOL    HW120387   4.413   1.959   6.582  1.4883  2.3303  0.3897
 2975SOL    HW220388   4.365   2.095   6.552 -1.2462  0.7921 -0.7380
 2976SOL     OW20389   2.472   3.113   4.995 -0.0782  0.5152  0.0343
 2976SOL    HW120390   2.494   3.183   4.934 -1.5721  0.8603 -0.1222
 2976SOL    HW220391   2.406   3.163   5.043 -0.6437  0.7278 -0.9648
 2977SOL     OW20392   0.726   0.018   4.292 -0.9888 -0.2784  0.2651
 2977SOL    HW120393   0.723   0.108   4.259 -0.5225  0.9019  3.4976
 2977SOL    HW220394   0.644   0.007   4.340 -0.1940  1.6289  2.0310
 2978SOL     OW20395   3.665   4.697   6.942 -0.2827  0.2093 -0.1421
 2978SOL    HW120396   3.637   4.722   7.030 -1.2653 -1.9464  0.1573
 2978SOL    HW220397   3.600   0.007   6.881  0.3976  1.4974 -0.1581
 2979SOL     OW20398   4.659   0.554  14.660 -0.1964 -0.6421  0.2441
 2979SOL    HW120399   4.627   0.533  14.573  0.8140 -0.4454 -0.1748
 2979SOL    HW220400   0.017   0.587  14.623  0.8152 -1.9358  1.3255
 2980SOL     OW20401   0.593   3.797   9.647  0.3307 -0.2315  0.1949
 2980SOL    HW120402   0.602   3.707   9.677  0.0679 -0.1549  0.5043
 2980SOL    HW220403   0.669   3.832   9.694 -0.0651  2.0099 -0.7899
 2981SOL     OW20404   2.372   1.634  13.345 -0.4485 -0.5283 -0.0456
 2981SOL    HW120405   2.292   1.610  13.299 -0.5166  1.5629 -1.0034
 2981SOL    HW220406   2.441   1.615  13.282 -1.9210  2.3856 -2.5323
 2982SOL     OW20407   1.620   1.393   7.957  0.1470  0.4397  0.4149
 2982SOL    HW120408   1.637   1.340   8.035 -2.1826 -1.5353 -0.4002
 2982SOL    HW220409   1.587   1.463   8.013 -3.7760  0.6209 -2.1509
 2983SOL     OW20410   0.493   1.970   9.173  0.0832 -0.2613 -0.5111
 2983SOL    HW120411   0.483   1.876   9.182  0.0585 -0.2716 -0.6460
 2983SOL    HW220412   0.400   1.991   9.185 -0.0226 -0.9856 -0.1268
 2984SOL     OW20413   1.554   3.065  13.691 -0.3193  0.3271  0.1391
 2984SOL    HW120414   1.599   3.045  13.609  0.7205  0.7757  0.6015
 2984SOL    HW220415   1.616   3.121  13.739 -0.8386  0.1341  1.0286
 2985SOL     OW20416   1.671   2.630   8.970 -0.1033 -0.4880  0.0885
 2985SOL    HW120417   1.624   2.689   8.912 -0.7766  0.6882  1.8419
 2985SOL    HW220418   1.591   2.585   8.996 -0.8116  0.8883  0.2433
 2986SOL     OW20419   3.036   0.378   6.301 -0.4667  0.4931  0.9464
 2986SOL    HW120420   3.023   0.467   6.333 -2.0102  0.3472  0.7570
 2986SOL    HW220421   2.951   0.353   6.263  0.9998 -0.8931 -1.3815
 2987SOL     OW20422   0.563   1.495   8.914 -0.2446 -0.8772  0.0859
 2987SOL    HW120423   0.533   1.521   9.001  3.3469  1.0569  0.7558
 2987SOL    HW220424   0.550   1.402   8.929 -0.6681 -0.8367 -0.0354
 2988SOL     OW20425   0.764   1.198   8.659  0.5087 -0.0707  0.2419
 2988SOL    HW120426   0.826   1.149   8.713  1.5269 -0.1108 -0.9663
 2988SOL    HW220427   0.786   1.289   8.680  1.3953 -0.3999  0.7481
 2989SOL     OW20428   0.082   4.417   0.315 -0.6140  0.5026  0.6682
 2989SOL    HW120429   0.056   4.502   0.352  4.4493  2.4856 -0.2580
 2989SOL    HW220430   4.717   4.384   0.325 -0.8808  0.6405 -1.3897
 2990SOL     OW20431   1.476   0.889   9.514 -0.1790 -0.0974 -0.0109
 2990SOL    HW120432   1.477   0.797   9.489  1.3332  0.2460 -1.1723
 2990SOL    HW220433   1.536   0.876   9.587 -0.3036 -1.6104 -0.1813
 2991SOL     OW20434   1.612   2.526  11.196  0.2904  0.2576 -0.1323
 2991SOL    HW120435   1.629   2.544  11.289 -1.7964 -1.4084  0.5690
 2991SOL    HW220436   1.701   2.508  11.165 -0.1028  2.6901 -2.6450
 2992SOL     OW20437   0.939   3.226  16.336 -0.1102  0.2885 -0.7911
 2992SOL    HW120438   0.891   3.286  16.279 -0.5531 -0.9391 -1.7006
 2992SOL    HW220439   0.868   3.164  16.353 -0.3652  0.7547 -0.1514
 2993SOL     OW20440   0.383   0.552  14.589 -0.1341  0.5839  0.3700
 2993SOL    HW120441   0.292   0.559  14.562  0.4607 -1.9199 -2.3433
 2993SOL    HW220442   0.369   0.527  14.680 -3.0362 -1.9168 -0.7527
 2994SOL     OW20443   1.459   2.385   3.900  0.4306  0.9052 -0.3181
 2994SOL    HW120444   1.423   2.357   3.815 -2.3772 -0.8308  1.4639
 2994SOL    HW220445   1.383   2.390   3.957  1.4729  3.0549  0.8524
 2995SOL     OW20446   0.380   4.264   6.080  0.3979 -0.4955  0.2464
 2995SOL    HW120447   0.425   4.221   6.153 -1.4616 -0.5576  1.3573
 2995SOL    HW220448   0.291   4.229   6.080  0.4649 -0.6996 -2.6861
 2996SOL     OW20449   2.981   1.852  10.373 -0.1601 -0.2443  0.0105
 2996SOL    HW120450   2.909   1.913  10.386  0.4063  0.3504  0.3352
 2996SOL    HW220451   2.938   1.790  10.314 -1.8088 -1.3685  2.3699
 2997SOL     OW20452   1.263   2.286   7.618 -0.0002  0.3499  0.1739
 2997SOL    HW120453   1.187   2.229   7.603  0.1215  0.2362 -0.0218
 2997SOL    HW220454   1.308   2.234   7.684  1.8892  1.1633 -0.4621
 2998SOL     OW20455   1.032   2.235  16.165 -0.0242 -0.2399  0.0153
 2998SOL    HW120456   1.101   2.288  16.126 -1.2024  0.3432 -1.3061
 2998SOL    HW220457   0.956   2.233  16.106 -2.2091 -1.8855  2.9065
 2999SOL     OW20458   3.562   0.666   8.789  0.6826  0.2239  0.0282
 2999SOL    HW120459   3.483   0.719   8.800  1.4010  1.0214  1.2566
 2999SOL    HW220460   3.631   0.725   8.760  0.8647  1.4155  2.8901
 3000SOL     OW20461   4.591   0.890   7.758  0.2126  0.0185 -0.1857
 3000SOL    HW120462   4.674   0.897   7.805 -0.4433 -0.2519  1.0061
 3000SOL    HW220463   4.613   0.918   7.669 -0.0100 -0.3505 -0.3590
 3001SOL     OW20464   0.457   2.214   8.112  0.1783  0.0198  0.8643
 3001SOL    HW120465   0.448   2.152   8.040 -1.8805 -0.5895  1.6385
 3001SOL    HW220466   0.536   2.177   8.150  1.0052  1.4502  0.5455
 3002SOL     OW20467   3.888   2.191   6.738 -0.5701 -0.3038 -0.2767
 3002SOL    HW120468   3.812   2.244   6.766  0.9566  1.1516  1.1239
 3002SOL    HW220469   3.951   2.262   6.723  0.9722 -0.8539  3.6533
 3003SOL     OW20470   2.848   2.151   0.203 -0.6849 -0.2570  0.5071
 3003SOL    HW120471   2.888   2.216   0.146 -2.3964 -0.3060 -0.7348
 3003SOL    HW220472   2.819   2.086   0.139 -3.9838  2.3228 -0.5744
 3004SOL     OW20473   2.382   3.029  16.493 -0.5299 -0.2431  0.4889
 3004SOL    HW120474   2.365   3.094  16.425  2.1387 -0.7165 -0.6068
 3004SOL    HW220475   2.345   3.068  16.573 -2.6027 -0.3882 -0.3833
 3005SOL     OW20476   3.450   0.270   7.629 -0.1996 -0.2153  0.2414
 3005SOL    HW120477   3.492   0.293   7.546  1.2818 -0.7266  0.8515
 3005SOL    HW220478   3.473   0.178   7.644 -0.3922  0.0489  2.1586
 3006SOL     OW20479   4.531   4.035   5.532  0.8739 -0.3176  0.0986
 3006SOL    HW120480   4.456   4.028   5.592  1.0736  0.5284  0.4449
 3006SOL    HW220481   4.601   4.020   5.595  4.6669  1.7448 -3.6510
 3007SOL     OW20482   3.949   4.217   4.459 -0.0447  0.1688 -0.1765
 3007SOL    HW120483   3.924   4.127   4.438 -1.1332  0.2874  0.6113
 3007SOL    HW220484   3.861   4.234   4.492 -0.0887 -0.1467 -0.1319
 3008SOL     OW20485   2.396   2.212   9.336  0.1546  0.8903 -0.0535
 3008SOL    HW120486   2.398   2.193   9.243  0.9809 -0.3599  0.2346
 3008SOL    HW220487   2.308   2.183   9.360  0.6534  0.0393  0.7303
 3009SOL     OW20488   2.617   1.519   8.232  0.0464 -0.5323 -0.4940
 3009SOL    HW120489   2.587   1.441   8.280 -0.4591  1.6823  2.7453
 3009SOL    HW220490   2.707   1.529   8.263 -0.0756 -0.9612  0.0129
 3010SOL     OW20491   1.496   0.012   5.405  0.8150 -0.4207  0.4989
 3010SOL    HW120492   1.561   0.060   5.353  0.0760  1.1424  1.0172
 3010SOL    HW220493   1.528   4.647   5.397  0.1050 -0.7550  1.4499
 3011SOL     OW20494   0.703   1.709   6.140  0.2262  0.5202 -0.0740
 3011SOL    HW120495   0.776   1.656   6.110 -0.0592  1.3808 -2.2865
 3011SOL    HW220496   0.667   1.657   6.212 -0.9655  1.0099 -0.3020
 3012SOL     OW20497   2.291   0.961   8.695  0.4147  0.2434  0.3824
 3012SOL    HW120498   2.368   0.918   8.732  0.0118 -1.1581 -0.3821
 3012SOL    HW220499   2.267   0.906   8.620  1.7338 -0.2053  0.3001
 3013SOL     OW20500   3.033   4.071  11.042  0.3063  0.2252 -0.9936
 3013SOL    HW120501   2.967   4.081  10.973  0.7365 -0.3246 -1.4881
 3013SOL    HW220502   3.017   3.978  11.057 -0.8561  0.6824  0.5531
 3014SOL     OW20503   0.649   4.508  14.511 -0.5213  0.0237 -0.7216
 3014SOL    HW120504   0.697   4.430  14.539  0.7243  0.8730 -0.4290
 3014SOL    HW220505   0.726   4.563  14.495  1.7100 -2.8794  0.0917
 3015SOL     OW20506   4.343   2.433   5.523  0.7298 -0.4256 -0.2217
 3015SOL    HW120507   4.282   2.495   5.562 -1.3588 -2.0735 -0.8333
 3015SOL    HW220508   4.402   2.429   5.598  0.9701  1.8029 -0.2909
 3016SOL     OW20509   4.431   2.612   4.616  0.2729  0.2702 -0.2208
 3016SOL    HW120510   4.395   2.525   4.633 -1.6992  0.9841 -0.7346
 3016SOL    HW220511   4.355   2.656   4.580  0.0085 -1.1747 -1.4532
 3017SOL     OW20512   3.591   1.929  12.199 -0.5542  0.7019 -0.2082
 3017SOL    HW120513   3.681   1.899  12.188 -0.0894  2.2218 -0.6427
 3017SOL    HW220514   3.585   1.970  12.113  0.4697  0.9057 -0.1800
 3018SOL     OW20515   1.019   3.729   3.091  0.7076 -0.2166  0.5981
 3018SOL    HW120516   0.970   3.793   3.143  1.1630 -1.9428  3.1156
 3018SOL    HW220517   1.042   3.773   3.009  0.7299 -2.4183 -0.5791
 3019SOL     OW20518   2.525   3.953   4.536  0.1517 -0.5987  0.2807
 3019SOL    HW120519   2.472   3.874   4.534  0.1455 -0.5895  0.0946
 3019SOL    HW220520   2.547   3.965   4.444 -2.5383  0.7738 -0.2016
 3020SOL     OW20521   2.270   0.036   8.878 -0.3179  0.0137 -0.2491
 3020SOL    HW120522   2.358   0.067   8.898 -0.5916  0.8071 -0.2977
 3020SOL    HW220523   2.244   4.701   8.949  0.7935 -0.1865 -0.0067
 3021SOL     OW20524   3.804   3.029   7.830 -0.2645  0.3700 -0.2171
 3021SOL    HW120525   3.871   3.060   7.891 -1.8980  1.6719  0.9172
 3021SOL    HW220526   3.834   2.943   7.801 -0.8967  0.0842 -0.0121
 3022SOL     OW20527   3.444   3.322  13.663  0.0210  0.2431  0.0855
 3022SOL    HW120528   3.522   3.336  13.716 -0.2362  0.0200  0.5204
 3022SOL    HW220529   3.425   3.416  13.660 -2.1614 -0.1050  4.5199
 3023SOL     OW20530   2.628   0.310   9.032 -0.1580 -0.2714 -0.1981
 3023SOL    HW120531   2.566   0.356   9.087 -0.9590 -0.7541 -0.6964
 3023SOL    HW220532   2.627   0.356   8.947 -1.8497  0.1367  0.0587
 3024SOL     OW20533   3.543   2.455   4.417  0.1684 -0.5800 -0.4629
 3024SOL    HW120534   3.587   2.380   4.458  1.2856 -0.2435 -1.0322
 3024SOL    HW220535   3.590   2.459   4.334  0.6295  0.9233 -0.1414
 3025SOL     OW20536   3.289   0.760   9.402 -0.2771 -0.2149  0.0052
 3025SOL    HW120537   3.281   0.669   9.371 -1.0902 -0.0757 -0.2004
 3025SOL    HW220538   3.359   0.795   9.347  1.0302 -0.6138  1.4119
 3026SOL     OW20539   3.247   0.877   3.448 -0.2496 -0.4987  0.6862
 3026SOL    HW120540   3.256   0.895   3.542  2.7390 -1.6072  0.5977
 3026SOL    HW220541   3.323   0.918   3.408 -0.2708 -0.1632  0.9918
 3027SOL     OW20542   4.478   3.433  16.205 -0.2579  0.1367  0.0206
 3027SOL    HW120543   4.571   3.437  16.183 -0.3528  0.6916 -0.2636
 3027SOL    HW220544   4.443   3.435  16.116  1.6448 -0.4626 -0.7270
 3028SOL     OW20545   4.410   3.341   5.781 -0.5372  0.2835  0.2256
 3028SOL    HW120546   4.471   3.274   5.751 -0.9342 -0.6533  1.5025
 3028SOL    HW220547   4.465   3.382   5.847  0.9303  0.5805 -1.1874
 3029SOL     OW20548   0.417   1.396   6.992 -0.0891 -0.5008  0.5243
 3029SOL    HW120549   0.512   1.414   6.989 -0.1552 -0.5600 -1.9215
 3029SOL    HW220550   0.385   1.483   7.017  2.6484  0.9741 -0.9449
 3030SOL     OW20551   3.705   4.329   4.265  0.4051 -0.0216  0.5687
 3030SOL    HW120552   3.640   4.384   4.222 -2.7804 -1.9954  2.8668
 3030SOL    HW220553   3.680   4.239   4.244 -1.2525  0.6267 -0.2152
 3031SOL     OW20554   2.243   4.129   1.965  0.0218 -0.0255 -0.1582
 3031SOL    HW120555   2.215   4.135   2.056  1.0718  1.8785  0.0420
 3031SOL    HW220556   2.335   4.108   1.979  0.0838  2.3538  2.9881
 3032SOL     OW20557   3.561   4.628   4.806 -0.1702 -0.7919 -0.7421
 3032SOL    HW120558   3.601   4.575   4.737  0.8112 -1.2689  0.1959
 3032SOL    HW220559   3.542   4.705   4.752  1.6327  0.7236  0.7713
 3033SOL     OW20560   1.541   0.313  16.101  0.2376 -0.3611 -0.2358
 3033SOL    HW120561   1.538   0.407  16.120 -0.7562 -0.7018  1.3457
 3033SOL    HW220562   1.605   0.316  16.030  0.8969 -0.4182  0.3529
 3034SOL     OW20563   1.665   0.617   9.794  0.1335 -0.2107  0.7398
 3034SOL    HW120564   1.697   0.612   9.884  2.8136 -1.7176 -0.3259
 3034SOL    HW220565   1.596   0.551   9.800  0.6073 -0.6432  1.4507
 3035SOL     OW20566   2.469   2.953   7.700  0.2860 -0.3568  0.8004
 3035SOL    HW120567   2.512   2.997   7.627 -0.5985 -2.0775 -0.7505
 3035SOL    HW220568   2.540   2.950   7.764  2.1248 -0.2673 -1.2184
 3036SOL     OW20569   1.700   4.486  11.240 -0.0170  0.0127  0.5356
 3036SOL    HW120570   1.720   4.552  11.173 -1.2493 -0.6897 -0.5219
 3036SOL    HW220571   1.693   4.542  11.317  2.0583  1.4902 -0.3452
 3037SOL     OW20572   4.671   1.569   4.282 -0.1156  0.0810 -0.0774
 3037SOL    HW120573   4.588   1.552   4.238 -0.9786  0.6325  1.3667
 3037SOL    HW220574   4.659   1.662   4.300  0.1973 -0.0185  0.6341
 3038SOL     OW20575   3.663   3.175   7.092  0.1365  0.2274  0.1941
 3038SOL    HW120576   3.642   3.098   7.039 -1.1245 -0.3911  1.5787
 3038SOL    HW220577   3.748   3.147   7.126 -0.6754 -1.9214  0.4297
 3039SOL     OW20578   0.089   2.047   7.739  0.4681 -0.2938 -0.2096
 3039SOL    HW120579   0.012   2.103   7.745  1.1457  0.5678  0.3146
 3039SOL    HW220580   0.057   1.961   7.768  0.5961 -0.0735  0.5698
 3040SOL     OW20581   0.747   0.451  17.573 -0.3019 -0.3374  0.1851
 3040SOL    HW120582   0.743   0.404  17.490 -1.7372  0.6115 -0.2754
 3040SOL    HW220583   0.748   0.543  17.545  0.9863 -0.4925 -0.2906
 3041SOL     OW20584   0.416   2.540   6.344  0.5830 -0.6811 -0.1002
 3041SOL    HW120585   0.411   2.564   6.252  1.5513  0.0288  0.0244
 3041SOL    HW220586   0.485   2.598   6.378 -1.0039  1.3082 -0.2606
 3042SOL     OW20587   1.861   3.249  12.587 -0.0872 -0.2610  0.4953
 3042SOL    HW120588   1.782   3.249  12.641 -0.1982 -1.6647  0.3360
 3042SOL    HW220589   1.897   3.335  12.605  0.4474 -0.5216  0.6532
 3043SOL     OW20590   0.889   1.473   3.980  0.8416  0.0739 -0.1358
 3043SOL    HW120591   0.970   1.436   3.945 -0.6847 -0.5029 -3.0321
 3043SOL    HW220592   0.918   1.564   3.992 -1.2891  0.5524  1.4437
 3044SOL     OW20593   1.056   2.182   2.237  0.0809  0.1760  0.0510
 3044SOL    HW120594   1.062   2.253   2.173 -1.0964 -1.9849 -2.4446
 3044SOL    HW220595   0.966   2.203   2.260  0.6569  0.8813  1.6652
 3045SOL     OW20596   4.259   1.523   2.540  0.1030 -0.3973  0.4015
 3045SOL    HW120597   4.275   1.505   2.448  1.8700 -0.6551  0.7582
 3045SOL    HW220598   4.350   1.506   2.566 -0.0784 -1.2340  0.4889
 3046SOL     OW20599   0.569   2.223   0.594  0.0127 -0.3987 -0.6818
 3046SOL    HW120600   0.546   2.245   0.684  0.2355  1.0446 -0.9794
 3046SOL    HW220601   0.496   2.263   0.547  0.7405  0.3161 -1.2231
 3047SOL     OW20602   4.353   1.976   8.578 -0.3646  0.4813 -0.7459
 3047SOL    HW120603   4.311   2.037   8.518  0.7089 -0.3101 -2.2875
 3047SOL    HW220604   4.358   2.023   8.662  1.0688 -0.0834 -0.5123
 3048SOL     OW20605   3.526   1.277   8.767 -0.0453  0.6744 -0.0727
 3048SOL    HW120606   3.469   1.341   8.808  0.4731  0.4397  1.0249
 3048SOL    HW220607   3.589   1.264   8.838 -0.8323  0.7675  0.6491
 3049SOL     OW20608   3.131   0.714  14.148  0.4028 -0.0428  0.0994
 3049SOL    HW120609   3.061   0.773  14.121 -0.4097 -0.7234  0.7083
 3049SOL    HW220610   3.144   0.740  14.239  0.0380  0.5315 -0.0102
 3050SOL     OW20611   3.879   3.985   0.204  0.2378 -0.5187  0.1724
 3050SOL    HW120612   3.901   3.902   0.162  0.4346 -0.1828 -0.3894
 3050SOL    HW220613   3.790   3.971   0.234  0.6386 -3.2987  0.0623
 3051SOL     OW20614   2.086   4.257  11.637  0.5770  0.1734 -0.1198
 3051SOL    HW120615   2.044   4.341  11.653 -0.9423  0.1079 -3.8075
 3051SOL    HW220616   2.160   4.294  11.588 -1.9454  2.8771 -1.8765
 3052SOL     OW20617   2.763   0.306   4.832  0.1167  0.2804  0.4357
 3052SOL    HW120618   2.799   0.375   4.777 -0.9102  0.7077  0.2987
 3052SOL    HW220619   2.732   0.348   4.912 -0.6279  3.4344 -1.5194
 3053SOL     OW20620   1.740   1.605   4.291  0.8445  0.8278 -0.1308
 3053SOL    HW120621   1.721   1.687   4.244 -1.7031  1.1261  1.4183
 3053SOL    HW220622   1.651   1.575   4.306 -0.2214  2.5557 -2.9776
 3054SOL     OW20623   3.791   4.418   9.984  0.5383 -0.2582 -0.1512
 3054SOL    HW120624   3.773   4.407  10.078  0.1316 -3.5536 -0.6002
 3054SOL    HW220625   3.738   4.348   9.946 -2.4390  0.3085  2.8979
 3055SOL     OW20626   3.852   1.794  17.036  0.1399  0.2905 -0.4363
 3055SOL    HW120627   3.911   1.840  16.976 -0.9486  0.9808 -0.9685
 3055SOL    HW220628   3.851   1.849  17.114  0.9300  2.6137 -2.0557
 3056SOL     OW20629   0.080   2.027  12.167  0.6919  0.1535  0.0697
 3056SOL    HW120630   0.092   2.114  12.205  2.5173  0.1754 -0.5427
 3056SOL    HW220631   0.148   1.982  12.217 -0.5230 -2.2953 -0.5222
 3057SOL     OW20632   4.312   0.529   8.530 -0.3513  0.4437  0.1342
 3057SOL    HW120633   4.333   0.514   8.438 -1.5020 -1.8930  0.2548
 3057SOL    HW220634   4.388   0.583   8.555  0.1462 -1.7403  3.4135
 3058SOL     OW20635   3.428   3.675   1.153 -0.0618  0.2430  0.6804
 3058SOL    HW120636   3.448   3.582   1.145  0.5764  0.3537  0.9375
 3058SOL    HW220637   3.382   3.684   1.237 -1.8786  0.0727 -0.3014
 3059SOL     OW20638   2.329   1.211   8.086 -0.7039 -0.1150 -0.4069
 3059SOL    HW120639   2.265   1.278   8.061 -0.0777 -0.2942 -2.4613
 3059SOL    HW220640   2.375   1.206   8.003  1.9302 -0.5331  1.0786
 3060SOL     OW20641   2.529   4.672   4.338 -0.3526  0.1910 -0.4026
 3060SOL    HW120642   2.615   4.640   4.367 -0.6951  1.6604  2.2263
 3060SOL    HW220643   2.489   4.585   4.330  2.6924 -1.2369  0.0202
 3061SOL     OW20644   3.867   3.034   7.263  0.2325  0.4545  0.0842
 3061SOL    HW120645   3.820   2.951   7.270 -1.1192  1.0908 -1.5150
 3061SOL    HW220646   3.937   3.026   7.327  1.2482 -1.5521 -1.2624
 3062SOL     OW20647   2.121   4.371   4.191  0.6994 -0.3429  0.5440
 3062SOL    HW120648   2.073   4.324   4.122  3.2663 -2.6888  0.3484
 3062SOL    HW220649   2.168   4.301   4.236  2.7084  1.3605  1.0914
 3063SOL     OW20650   1.633   3.837   0.501  0.7232  0.3083  0.5221
 3063SOL    HW120651   1.704   3.808   0.557 -0.8055 -1.1539  1.7030
 3063SOL    HW220652   1.634   3.784   0.422 -1.0194  3.4060 -1.6057
 3064SOL     OW20653   4.227   3.388   5.539  0.3923 -0.3873  0.4979
 3064SOL    HW120654   4.167   3.314   5.532  0.2703 -0.3305  0.9358
 3064SOL    HW220655   4.277   3.371   5.619  1.6284 -1.5408 -0.5000
 3065SOL     OW20656   2.313   4.640   1.991 -0.2821 -0.3889  0.4395
 3065SOL    HW120657   2.328   4.558   1.944  0.3975  0.9735 -1.7291
 3065SOL    HW220658   2.278   4.596   2.068 -2.6647  1.8228  0.6093
 3066SOL     OW20659   2.202   0.069   8.592 -0.0128 -0.8698  0.1390
 3066SOL    HW120660   2.214   0.054   8.685  1.0377 -0.1839  0.1204
 3066SOL    HW220661   2.183   4.705   8.562  0.0477 -1.1264  0.8594
 3067SOL     OW20662   4.067   1.205   3.436 -0.1565 -0.5966  0.3376
 3067SOL    HW120663   4.147   1.153   3.448  1.3262  1.1658 -1.8556
 3067SOL    HW220664   4.093   1.292   3.467 -0.5434 -0.3545 -0.0272
 3068SOL     OW20665   0.027   3.840   9.680 -0.0429  0.1397  0.1361
 3068SOL    HW120666   4.674   3.893   9.700  0.9052  0.4139  3.0540
 3068SOL    HW220667   0.048   3.882   9.597  1.5551 -0.7709  0.0635
 3069SOL     OW20668   0.945   3.410  17.505 -0.3431  0.0354 -0.1177
 3069SOL    HW120669   0.880   3.465  17.549 -1.5759  0.4172 -2.4153
 3069SOL    HW220670   0.934   3.440  17.415  1.3980  0.9324 -0.0324
 3070SOL     OW20671   0.325   0.348  12.477 -0.0825 -0.6075  0.3560
 3070SOL    HW120672   0.387   0.420  12.491  1.6561 -1.8519 -0.9843
 3070SOL    HW220673   0.339   0.295  12.556 -0.9595 -0.6010  0.5137
 3071SOL     OW20674   3.890   1.049  10.014 -0.5534  0.4379 -0.1236
 3071SOL    HW120675   3.946   1.073   9.940  0.1967  1.7998  0.8966
 3071SOL    HW220676   3.922   1.108  10.082  1.5883 -0.4141 -0.3955
 3072SOL     OW20677   1.727   4.008   9.302  0.0614 -0.5127 -0.3836
 3072SOL    HW120678   1.798   4.008   9.367  0.4666 -1.9278 -0.8141
 3072SOL    HW220679   1.768   4.052   9.228  0.0271 -0.5634 -0.4332
 3073SOL     OW20680   3.032   3.781   3.987 -0.2441 -0.0755 -0.2753
 3073SOL    HW120681   3.107   3.727   4.011  0.6873  2.2199  2.0773
 3073SOL    HW220682   2.959   3.729   4.021 -0.8068 -0.1072 -1.5551
 3074SOL     OW20683   4.561   4.181  14.245  0.7175 -0.0362  0.0195
 3074SOL    HW120684   4.612   4.258  14.218  1.3698 -0.8706 -1.1443
 3074SOL    HW220685   4.557   4.200  14.338 -1.1233  0.2402 -0.1143
 3075SOL     OW20686   3.154   1.104   7.278 -0.1676  0.6430 -0.0395
 3075SOL    HW120687   3.228   1.077   7.332 -0.1145  1.2987  0.2229
 3075SOL    HW220688   3.154   1.190   7.320 -1.7150  0.2313  0.7999
 3076SOL     OW20689   2.512   2.692   0.807  0.3111  0.6667  0.2765
 3076SOL    HW120690   2.418   2.701   0.789 -0.1186 -1.9720  1.1299
 3076SOL    HW220691   2.557   2.773   0.783 -1.2673  1.3451 -0.3933
 3077SOL     OW20692   4.677   1.823   4.862  0.7611 -0.1461  0.6625
 3077SOL    HW120693   4.642   1.887   4.923  4.2277  3.6255 -1.3205
 3077SOL    HW220694   4.697   1.881   4.789 -1.4582  1.4390  1.3224
 3078SOL     OW20695   1.976   0.808   8.736  0.1876  0.0990  0.1306
 3078SOL    HW120696   1.948   0.880   8.678  0.0907 -1.3365 -1.5964
 3078SOL    HW220697   1.958   0.736   8.676  1.2261  0.7345 -0.9604
 3079SOL     OW20698   1.888   2.911  14.678  0.1130 -0.2533  0.2048
 3079SOL    HW120699   1.982   2.925  14.669  0.0340  1.0530  1.4267
 3079SOL    HW220700   1.862   2.888  14.588  0.8110 -1.2599  0.2553
 3080SOL     OW20701   1.221   0.201   3.404  0.1088 -0.2730 -0.3700
 3080SOL    HW120702   1.275   0.191   3.325  0.8198  0.1377  0.0608
 3080SOL    HW220703   1.133   0.185   3.370 -0.7532 -0.6910  2.0568
 3081SOL     OW20704   0.713   1.953   7.724 -0.2840  0.5179  0.3711
 3081SOL    HW120705   0.762   1.871   7.719  0.0494  0.6930  0.8303
 3081SOL    HW220706   0.625   1.915   7.729  1.0600 -2.6683 -0.4298
 3082SOL     OW20707   0.097   3.778   2.825  0.1358 -0.6427 -0.1294
 3082SOL    HW120708   0.102   3.742   2.737 -1.6596 -0.8518 -0.1601
 3082SOL    HW220709   0.083   3.870   2.804 -0.2194 -0.5722  0.4225
 3083SOL     OW20710   3.055   3.679   2.542  0.2274 -0.2473 -0.2695
 3083SOL    HW120711   3.071   3.676   2.448  2.3090 -0.5664  0.1067
 3083SOL    HW220712   2.960   3.664   2.545  0.0935  0.3395 -1.9470
 3084SOL     OW20713   3.621   1.179  14.996 -0.1252  0.2199 -0.6171
 3084SOL    HW120714   3.640   1.093  14.958 -0.8766 -1.3857  2.6761
 3084SOL    HW220715   3.695   1.229  14.962  0.0960  1.2608  1.3854
 3085SOL     OW20716   1.146   2.694   8.506 -0.5786 -0.3681  0.5596
 3085SOL    HW120717   1.113   2.782   8.526 -1.1343 -1.3278  3.8034
 3085SOL    HW220718   1.223   2.713   8.452 -0.9941  0.9237  0.4236
 3086SOL     OW20719   1.457   4.604   3.452 -0.5348 -0.1895 -0.0818
 3086SOL    HW120720   1.519   4.656   3.401 -0.1697  0.0488  0.5955
 3086SOL    HW220721   1.493   4.518   3.432 -0.6164 -0.5184  1.1670
 3087SOL     OW20722   3.653   3.750  11.632 -0.1805  0.4194 -0.3206
 3087SOL    HW120723   3.559   3.737  11.644  0.1738 -2.0000 -0.2006
 3087SOL    HW220724   3.682   3.659  11.630  1.2431  0.9262 -2.6913
 3088SOL     OW20725   0.468   0.934   7.753  0.0954  0.0418  0.1980
 3088SOL    HW120726   0.410   1.007   7.732 -0.8725 -1.3089 -1.7932
 3088SOL    HW220727   0.422   0.858   7.719  3.1017 -0.3080 -3.0718
 3089SOL     OW20728   0.906   2.836  15.920  0.6584 -0.3638  0.2424
 3089SOL    HW120729   0.945   2.774  15.982  1.6506 -1.9244 -1.9359
 3089SOL    HW220730   0.965   2.909  15.938 -1.7868  1.7190 -0.1799
 3090SOL     OW20731   0.905   0.460   5.887  0.3630  0.0826  0.2429
 3090SOL    HW120732   0.900   0.429   5.797  0.6234 -1.3711  0.7258
 3090SOL    HW220733   0.987   0.510   5.889  0.1200  0.5431 -1.9071
 3091SOL     OW20734   3.946   3.715   6.467 -0.6158  0.1232  0.4879
 3091SOL    HW120735   4.002   3.647   6.428 -2.5975 -0.8471 -0.6745
 3091SOL    HW220736   3.991   3.737   6.548  1.4647 -2.6006  0.0736
 3092SOL     OW20737   0.345   0.107   7.871 -0.0468  0.0337 -0.0513
 3092SOL    HW120738   0.279   0.044   7.900  1.9996 -2.5130 -0.8027
 3092SOL    HW220739   0.387   0.115   7.957 -0.8138  0.9846  0.2282
 3093SOL     OW20740   2.237   1.680   6.154 -0.4024 -0.1803  0.2140
 3093SOL    HW120741   2.201   1.593   6.171  1.3667 -0.9712 -0.0794
 3093SOL    HW220742   2.223   1.723   6.238  0.0103 -2.8079  1.6484
 3094SOL     OW20743   0.323   0.902   3.302  0.0330  0.0034 -0.1837
 3094SOL    HW120744   0.394   0.964   3.313  0.1916  0.0016 -1.1964
 3094SOL    HW220745   0.352   0.839   3.368  2.2207  0.7063 -0.4791
 3095SOL     OW20746   2.560   1.423   3.177  0.1574  0.2643 -0.5037
 3095SOL    HW120747   2.535   1.429   3.084  1.6987 -0.3347 -0.9634
 3095SOL    HW220748   2.655   1.422   3.170  0.1930  0.4032  0.0062
 3096SOL     OW20749   2.328   2.173   4.863  0.6123  0.0544 -0.2565
 3096SOL    HW120750   2.373   2.257   4.857  0.5414  0.1464  0.4958
 3096SOL    HW220751   2.303   2.183   4.954 -1.2103  0.3011 -0.7915
 3097SOL     OW20752   1.386   4.216   0.613  0.1934 -0.2497 -0.2506
 3097SOL    HW120753   1.469   4.168   0.607  0.4345  0.0719  0.5233
 3097SOL    HW220754   1.336   4.193   0.535 -1.7007  0.9408  0.6187
 3098SOL     OW20755   2.167   3.940   9.327  0.5584 -1.3298 -0.1310
 3098SOL    HW120756   2.194   3.857   9.366 -2.4249 -1.1822  2.2866
 3098SOL    HW220757   2.159   3.998   9.403 -0.1106 -1.9636  0.2835
 3099SOL     OW20758   4.654   2.051   5.023  0.0646 -0.1873  0.8536
 3099SOL    HW120759   4.629   2.052   5.115 -1.8061  1.0383  0.3338
 3099SOL    HW220760   0.024   2.039   5.025 -0.2304 -2.1027  2.7156
 3100SOL     OW20761   0.992   0.519   1.175  0.6580  0.3983 -0.3157
 3100SOL    HW120762   0.939   0.531   1.253 -0.8891  1.2464 -1.4811
 3100SOL    HW220763   0.926   0.507   1.106  2.1177 -0.7131 -1.5402
 3101SOL     OW20764   1.245   2.684   5.812 -0.0768 -0.0568 -0.1037
 3101SOL    HW120765   1.160   2.704   5.773 -0.0454 -0.9279 -0.6231
 3101SOL    HW220766   1.207   2.636   5.887  0.6191 -1.6246 -0.7552
 3102SOL     OW20767   3.728   2.678   1.683 -0.0037  0.0117  0.1252
 3102SOL    HW120768   3.712   2.603   1.741  2.6731  0.0803  0.9677
 3102SOL    HW220769   3.677   2.752   1.715 -2.1014 -1.2648 -0.2742
 3103SOL     OW20770   1.248   3.362   6.507  0.1784 -0.7440  0.3424
 3103SOL    HW120771   1.220   3.429   6.444 -1.3638 -0.8969  0.8772
 3103SOL    HW220772   1.164   3.335   6.544 -0.2747 -0.0675 -0.1778
 3104SOL     OW20773   3.841   0.786   9.038 -0.3981 -0.4256 -0.4646
 3104SOL    HW120774   3.778   0.844   9.080 -0.1337  0.0004 -0.6559
 3104SOL    HW220775   3.827   0.694   9.061 -1.0791 -1.0225 -3.2263
 3105SOL     OW20776   2.186   0.941   3.390  1.1192  0.2441 -0.6234
 3105SOL    HW120777   2.205   0.996   3.314 -1.6168  0.5552 -1.0769
 3105SOL    HW220778   2.100   0.976   3.410  0.7872 -1.1759  0.4267
 3106SOL     OW20779   4.452   1.208  11.406 -0.0281 -0.0525 -0.2562
 3106SOL    HW120780   4.490   1.150  11.341  0.4176  0.0705 -0.1008
 3106SOL    HW220781   4.491   1.293  11.385  1.7865 -0.5236  1.2504
 3107SOL     OW20782   1.179   3.040   5.867 -0.4581  0.5241  0.0787
 3107SOL    HW120783   1.162   3.027   5.774 -0.6439  0.1017  0.1757
 3107SOL    HW220784   1.101   3.006   5.910 -0.6373 -0.5685 -1.1089
 3108SOL     OW20785   0.074   3.031   6.010 -0.6074 -0.1289  0.2174
 3108SOL    HW120786   0.127   3.072   5.942 -3.3448  0.2181 -1.7263
 3108SOL    HW220787   0.091   2.939   5.988  0.4942 -0.3645  2.0211
 3109SOL     OW20788   0.027   2.769  17.055  0.6532  0.1747  0.0742
 3109SOL    HW120789   0.007   2.678  17.075  3.6215 -0.0577  2.0070
 3109SOL    HW220790   0.028   2.764  16.959  0.3384  0.6071  0.0521
 3110SOL     OW20791   1.894   2.029   1.850  0.2790  0.4206  0.0172
 3110SOL    HW120792   1.863   1.952   1.898  0.7888  1.6861  2.3890
 3110SOL    HW220793   1.981   2.001   1.820 -0.4959 -1.3720 -0.5565
 3111SOL     OW20794   1.384   4.129   3.411 -0.1118 -0.2715 -0.3376
 3111SOL    HW120795   1.350   4.135   3.322 -0.1580 -1.5082 -0.4049
 3111SOL    HW220796   1.462   4.074   3.401  0.2793 -0.0200  1.3086
 3112SOL     OW20797   0.336   4.153  12.469  0.1484 -0.4432 -0.1044
 3112SOL    HW120798   0.263   4.091  12.459  0.3919 -0.8347  0.5340
 3112SOL    HW220799   0.301   4.219  12.529  0.1359 -0.4567 -0.0968
 3113SOL     OW20800   0.547   1.236   0.159  0.5503  0.1756  0.5313
 3113SOL    HW120801   0.500   1.212   0.239 -0.0055 -0.7264 -0.0604
 3113SOL    HW220802   0.481   1.294   0.122  0.7274  0.6890  1.0258
 3114SOL     OW20803   3.638   3.445  11.282  0.1663 -0.2555 -0.0552
 3114SOL    HW120804   3.615   3.457  11.374 -0.7048 -1.0199 -0.1735
 3114SOL    HW220805   3.732   3.433  11.299  0.3546  1.9444  0.3953
 3115SOL     OW20806   2.202   0.839   8.442  0.8954 -0.5220  0.5351
 3115SOL    HW120807   2.250   0.758   8.421 -0.4330 -1.2499  0.3403
 3115SOL    HW220808   2.230   0.902   8.376 -2.1677 -0.6892 -0.9221
 3116SOL     OW20809   4.486   2.901   7.521 -0.0111 -0.7195  0.3273
 3116SOL    HW120810   4.503   2.813   7.489  0.2270  0.3818 -2.6301
 3116SOL    HW220811   4.553   2.903   7.589 -0.0749  3.5381  0.2539
 3117SOL     OW20812   4.629   1.249   7.488 -0.6525  0.8182 -0.4971
 3117SOL    HW120813   4.555   1.309   7.478  2.3762  4.5512 -0.5738
 3117SOL    HW220814   4.702   1.310   7.476  0.2218  0.0501  0.9062
 3118SOL     OW20815   2.072   1.002   5.620  0.0267 -0.3772  0.6418
 3118SOL    HW120816   2.077   0.951   5.701  0.8389 -2.7318 -0.8946
 3118SOL    HW220817   1.980   1.028   5.613  0.2021  0.3306  1.0084
 3119SOL     OW20818   2.406   1.231   4.853  0.0001 -0.1292 -0.1646
 3119SOL    HW120819   2.408   1.285   4.932  2.6387  1.1017 -1.0906
 3119SOL    HW220820   2.394   1.304   4.792  0.5634 -0.7548 -1.0285
 3120SOL     OW20821   3.285   2.679   8.994 -0.0953 -0.0011  0.0999
 3120SOL    HW120822   3.338   2.600   9.001  0.0529  0.1057  0.1830
 3120SOL    HW220823   3.328   2.731   9.061  3.2197 -1.1327 -1.1572
 3121SOL     OW20824   4.284   0.776  10.775  0.2165 -0.3219  0.0045
 3121SOL    HW120825   4.246   0.859  10.745 -0.9088 -0.5099  0.9004
 3121SOL    HW220826   4.275   0.790  10.869  2.7936 -3.8352  0.7681
 3122SOL     OW20827   4.171   2.910   5.196 -0.0339 -0.2281 -0.2396
 3122SOL    HW120828   4.077   2.907   5.183 -0.2071 -2.5384  1.5720
 3122SOL    HW220829   4.192   2.989   5.145 -0.4396  0.7963  1.1641
 3123SOL     OW20830   3.349   2.487   0.177  0.6398 -0.0524  0.1813
 3123SOL    HW120831   3.441   2.468   0.198  0.4501 -1.7113 -0.4661
 3123SOL    HW220832   3.307   2.429   0.241  0.6803 -0.6634 -0.3416
 3124SOL     OW20833   2.655   0.091  16.886  0.0070  0.1685  0.5945
 3124SOL    HW120834   2.716   0.086  16.813 -2.6551  0.7856 -1.6772
 3124SOL    HW220835   2.603   0.011  16.871  0.5953  0.1745 -1.4292
 3125SOL     OW20836   2.732   0.006   9.124  0.3511 -0.3256 -0.5469
 3125SOL    HW120837   2.727   4.655   9.066 -0.5678 -0.4941 -0.2397
 3125SOL    HW220838   2.802   0.063   9.091  0.4615  0.3045  0.7789
 3126SOL     OW20839   1.630   4.205   6.074  0.3619  0.2552 -0.0640
 3126SOL    HW120840   1.698   4.255   6.029  1.3601 -1.3611 -0.3506
 3126SOL    HW220841   1.650   4.225   6.166  1.2498 -2.2974  0.3070
 3127SOL     OW20842   3.366   2.704  14.200  0.0562  0.6053  0.1619
 3127SOL    HW120843   3.446   2.663  14.165 -0.5873 -0.9002  0.4356
 3127SOL    HW220844   3.311   2.625  14.199  0.9968 -0.0672  3.7248
 3128SOL     OW20845   1.313   4.708   4.375 -0.1809 -0.1789 -0.3307
 3128SOL    HW120846   1.368   4.630   4.367 -1.2928 -1.2791  3.1025
 3128SOL    HW220847   1.290   0.017   4.288 -0.6520 -0.4928 -0.3218
 3129SOL     OW20848   2.277   4.049  17.659  0.3763 -0.6023  0.5433
 3129SOL    HW120849   2.218   4.079   0.030 -0.0806  2.3881 -1.1580
 3129SOL    HW220850   2.216   4.056  17.585 -0.4413 -1.7499  1.1083
 3130SOL     OW20851   2.907   0.346  16.921  0.6734 -0.1398 -0.2889
 3130SOL    HW120852   2.874   0.262  16.890  0.7890 -1.2953  2.7788
 3130SOL    HW220853   2.883   0.342  17.013 -0.7866  0.8664 -0.6254
 3131SOL     OW20854   2.088   1.551  12.206  0.2075  0.5443 -0.1166
 3131SOL    HW120855   2.060   1.596  12.126 -0.8643  1.0007  0.5130
 3131SOL    HW220856   2.109   1.624  12.265  0.9858 -0.1572  0.4803
 3132SOL     OW20857   2.839   3.219   7.341  0.1402  0.4637 -0.0698
 3132SOL    HW120858   2.817   3.250   7.253  1.2037 -0.2992 -0.6057
 3132SOL    HW220859   2.931   3.244   7.355  0.3943 -0.4319 -0.1596
 3133SOL     OW20860   3.649   4.345   4.923  0.0355 -0.2009 -0.4052
 3133SOL    HW120861   3.739   4.377   4.934 -0.6645  1.6681 -0.1631
 3133SOL    HW220862   3.608   4.382   5.001  1.1074  0.1389  0.0076
 3134SOL     OW20863   0.150   3.068   6.515  0.4617 -0.3651  0.0325
 3134SOL    HW120864   0.088   2.997   6.497 -2.2026  1.8909  0.3155
 3134SOL    HW220865   0.150   3.110   6.429  0.8268  0.4624  0.4358
 3135SOL     OW20866   1.756   2.417   6.390 -0.1537  0.0227  0.0243
 3135SOL    HW120867   1.759   2.358   6.466 -1.0372 -0.1566 -0.0733
 3135SOL    HW220868   1.845   2.421   6.356 -0.5860 -1.1758 -1.2266
 3136SOL     OW20869   3.410   0.018   8.739  0.0663  0.1058  0.4544
 3136SOL    HW120870   3.345   4.672   8.738  0.7133 -0.4811  0.2767
 3136SOL    HW220871   3.474   0.007   8.668  1.0096  0.0298  1.3262
 3137SOL     OW20872   3.492   0.576   5.554 -0.2541 -0.5000 -0.0100
 3137SOL    HW120873   3.492   0.488   5.594  1.7410 -1.0691 -1.2588
 3137SOL    HW220874   3.406   0.568   5.513  0.1673  0.5022 -1.0863
 3138SOL     OW20875   4.705   0.971   0.114  0.4147 -0.3143 -0.0979
 3138SOL    HW120876   4.663   1.046   0.156  1.5791 -0.2211  0.9116
 3138SOL    HW220877   4.636   0.930   0.063  0.2426  0.1194 -0.2075
 3139SOL     OW20878   3.690   1.290  12.405  0.0084 -0.2637 -0.2023
 3139SOL    HW120879   3.636   1.224  12.361 -1.1591  0.5458  0.0243
 3139SOL    HW220880   3.775   1.248  12.393 -0.6899 -1.6868 -0.2564
 3140SOL     OW20881   3.886   3.540   7.233 -0.2578  0.1455  0.1939
 3140SOL    HW120882   3.846   3.580   7.310  0.0885 -0.1380  0.5225
 3140SOL    HW220883   3.945   3.478   7.277  1.4063  0.5271 -1.4937
 3141SOL     OW20884   2.171   3.344   1.804 -0.0757  0.5082 -0.4185
 3141SOL    HW120885   2.087   3.335   1.849  0.0039  3.6568  0.3779
 3141SOL    HW220886   2.186   3.438   1.818 -0.8741  0.4246  1.0924
 3142SOL     OW20887   1.768   1.457  12.998 -0.2041 -0.5511  0.3480
 3142SOL    HW120888   1.847   1.512  13.001 -1.8671  1.8349  0.3524
 3142SOL    HW220889   1.745   1.463  13.091 -0.7075  0.8683  0.1399
 3143SOL     OW20890   0.132   4.055   2.292 -0.0101  0.0237 -0.4207
 3143SOL    HW120891   0.110   4.010   2.210 -1.7470  1.1573 -0.5772
 3143SOL    HW220892   0.203   3.996   2.317 -0.7246 -0.8395 -0.4322
 3144SOL     OW20893   3.400   0.484  12.808 -0.3901 -0.0316  0.8327
 3144SOL    HW120894   3.406   0.388  12.803 -0.9547  0.0209 -0.8594
 3144SOL    HW220895   3.315   0.487  12.763  0.6665 -0.7287 -1.2028
 3145SOL     OW20896   1.258   4.461   9.785  0.3285 -0.1387  0.1703
 3145SOL    HW120897   1.292   4.376   9.813 -0.6791  0.1453  2.2881
 3145SOL    HW220898   1.301   4.517   9.850  0.5433  0.7555 -0.7396
 3146SOL     OW20899   3.443   1.946   7.397  0.3395  0.1937  0.1952
 3146SOL    HW120900   3.503   1.999   7.344  0.7484 -2.0787 -1.5840
 3146SOL    HW220901   3.361   1.963   7.349 -1.0476 -1.4607  1.9943
 3147SOL     OW20902   4.484   3.693   3.148 -0.6662  0.1625  0.0270
 3147SOL    HW120903   4.468   3.605   3.180 -2.0174 -0.4350 -2.2953
 3147SOL    HW220904   4.532   3.671   3.068  0.2814 -0.8149  0.8666
 3148SOL     OW20905   1.607   1.987   8.611 -0.0006 -0.1373 -0.3825
 3148SOL    HW120906   1.669   2.013   8.543 -1.0062  1.3090 -0.7552
 3148SOL    HW220907   1.608   1.892   8.604  2.1493 -0.1126 -0.5970
 3149SOL     OW20908   4.641   4.567   5.419 -0.1359  0.3912  0.0684
 3149SOL    HW120909   4.699   4.491   5.419 -1.4117 -0.5766 -1.0979
 3149SOL    HW220910   4.561   4.530   5.457 -1.4414  1.4572 -1.6169
 3150SOL     OW20911   3.245   1.525   9.735  0.6521  0.4594 -0.5798
 3150SOL    HW120912   3.251   1.548   9.827 -1.6378  0.1821 -0.3627
 3150SOL    HW220913   3.332   1.536   9.697  0.9444 -1.0038 -0.3293
 3151SOL     OW20914   1.708   1.356   6.348 -0.2538 -0.0646  0.0427
 3151SOL    HW120915   1.705   1.287   6.282 -0.5949 -0.9511  0.9922
 3151SOL    HW220916   1.640   1.414   6.313  2.1812  1.7343 -1.7168
 3152SOL     OW20917   2.801   4.190   3.421  0.2196  0.2060  0.3239
 3152SOL    HW120918   2.798   4.157   3.331 -1.8534  0.4192  0.3149
 3152SOL    HW220919   2.867   4.133   3.462  0.4683  0.9227  0.9202
 3153SOL     OW20920   2.646   1.526   6.036  0.2952 -0.3067  0.4178
 3153SOL    HW120921   2.594   1.605   6.020 -0.1470 -0.5942  0.4435
 3153SOL    HW220922   2.735   1.562   6.038  0.4094 -0.5127 -1.3215
 3154SOL     OW20923   3.361   1.893   8.632  0.1981  0.0494  0.6368
 3154SOL    HW120924   3.443   1.843   8.627 -0.5710 -1.2978  1.3281
 3154SOL    HW220925   3.388   1.984   8.646  0.0251  0.3744 -1.2566
 3155SOL     OW20926   4.636   3.938   2.522 -0.3141  0.1479  0.2322
 3155SOL    HW120927   4.546   3.950   2.494 -0.1394 -0.0049 -0.3996
 3155SOL    HW220928   4.656   4.027   2.552 -1.7166  0.3115  0.6832
 3156SOL     OW20929   1.977   0.924   2.692  0.3091 -0.1995 -0.1233
 3156SOL    HW120930   1.888   0.924   2.725  1.2945  0.4997  2.5504
 3156SOL    HW220931   1.962   0.849   2.636 -1.2146  0.0687 -0.0682
 3157SOL     OW20932   3.969   4.605   7.784  0.0178 -0.7531  0.1154
 3157SOL    HW120933   3.944   4.693   7.758 -3.2618 -1.7152  0.0085
 3157SOL    HW220934   3.904   4.593   7.853 -0.0171  1.9159  0.5423
 3158SOL     OW20935   3.440   1.647   3.468 -0.2812 -0.7471  0.2025
 3158SOL    HW120936   3.495   1.676   3.541 -0.4058 -1.7648  0.7139
 3158SOL    HW220937   3.480   1.691   3.394  0.7888 -1.5705  0.2849
 3159SOL     OW20938   1.949   3.269  16.659 -0.0383  0.3849  0.5400
 3159SOL    HW120939   1.885   3.229  16.718  0.4695 -1.2997 -0.0327
 3159SOL    HW220940   1.891   3.327  16.611 -2.3541 -1.7829  0.7360
 3160SOL     OW20941   1.941   1.640   3.326  0.0043  0.2386  0.0607
 3160SOL    HW120942   1.864   1.638   3.270 -1.7570  0.8980  2.4927
 3160SOL    HW220943   2.004   1.595   3.269  2.2549  4.3388 -0.7020
 3161SOL     OW20944   4.166   0.479   6.194  0.1666 -0.0192 -0.2107
 3161SOL    HW120945   4.194   0.394   6.160 -3.5840 -1.5038  0.3603
 3161SOL    HW220946   4.247   0.529   6.190 -0.8842  1.5726 -1.3713
 3162SOL     OW20947   3.782   0.057   0.456  0.1844  1.2624  0.5759
 3162SOL    HW120948   3.741   4.698   0.435 -1.1172  1.7200  1.2494
 3162SOL    HW220949   3.872   0.026   0.451 -0.6589 -1.1512  0.4113
 3163SOL     OW20950   0.350   0.319   8.798 -0.6791  0.4875 -0.4952
 3163SOL    HW120951   0.338   0.268   8.878  2.6249 -0.1257 -0.4158
 3163SOL    HW220952   0.445   0.310   8.788 -0.7634 -1.0179  0.1882
 3164SOL     OW20953   0.545   1.500   0.861 -0.6319  0.2635  1.1432
 3164SOL    HW120954   0.567   1.520   0.770 -0.7603  1.2994  1.3393
 3164SOL    HW220955   0.486   1.575   0.871 -2.2646 -1.1857  2.4930
 3165SOL     OW20956   4.244   3.278   6.114 -0.1859  0.2636  0.0163
 3165SOL    HW120957   4.309   3.346   6.129 -1.4642  1.0576  2.0266
 3165SOL    HW220958   4.165   3.323   6.145  0.1247  0.1739  0.9135
 3166SOL     OW20959   4.596   4.390  15.075 -0.1609  0.6168 -0.7009
 3166SOL    HW120960   4.671   4.400  15.135  0.2428  2.0374 -1.4451
 3166SOL    HW220961   4.543   4.457  15.117 -2.4204  0.0159 -2.6426
 3167SOL     OW20962   1.942   3.606  11.865  0.0528 -0.0737 -0.1643
 3167SOL    HW120963   1.858   3.576  11.901  0.1172  1.9520  1.7063
 3167SOL    HW220964   1.918   3.602  11.773 -1.8287 -3.1366  0.4596
 3168SOL     OW20965   1.943   0.943   7.824  0.0636 -1.1274 -0.9631
 3168SOL    HW120966   2.026   0.991   7.821 -1.0507  1.0150  2.6606
 3168SOL    HW220967   1.905   1.003   7.761  1.1402 -0.5624 -1.0811
 3169SOL     OW20968   4.245   0.954   5.802 -0.3652  0.4823  0.1684
 3169SOL    HW120969   4.270   0.899   5.728 -1.2076  0.6402 -0.2345
 3169SOL    HW220970   4.199   1.027   5.759 -1.5538  0.0800  0.7594
 3170SOL     OW20971   0.428   3.976   6.980  0.3560 -0.0027 -0.0699
 3170SOL    HW120972   0.375   3.973   7.059 -0.4009 -0.6627 -0.6035
 3170SOL    HW220973   0.379   3.908   6.934 -0.4272 -0.6765  1.7874
 3171SOL     OW20974   4.660   0.779   5.388 -0.2255 -0.1535  0.4231
 3171SOL    HW120975   4.724   0.828   5.335  0.2048 -1.2161 -0.0363
 3171SOL    HW220976   4.626   0.854   5.437 -1.6969  0.7183 -1.9310
 3172SOL     OW20977   4.169   2.636  13.000 -0.4128  0.2850  0.8233
 3172SOL    HW120978   4.263   2.640  13.018 -0.0685  1.4865 -1.1836
 3172SOL    HW220979   4.180   2.682  12.917 -0.4076 -0.8729  0.1766
 3173SOL     OW20980   2.055   4.382  16.151 -0.0854  0.6776  0.3652
 3173SOL    HW120981   2.042   4.448  16.219 -0.2728  0.9741  0.0397
 3173SOL    HW220982   2.020   4.311  16.205  0.2601  0.4936  0.3489
 3174SOL     OW20983   2.660   2.329  14.543  0.4482  0.6331  0.3578
 3174SOL    HW120984   2.733   2.269  14.531  0.4060  0.4197  1.1774
 3174SOL    HW220985   2.709   2.400  14.585  1.4979  0.3682 -0.4247
 3175SOL     OW20986   1.581   3.347  15.738  0.1696 -0.5227  0.3978
 3175SOL    HW120987   1.566   3.278  15.673  0.4278 -1.3821  1.2482
 3175SOL    HW220988   1.675   3.359  15.721  0.2426 -1.2383  0.2924
 3176SOL     OW20989   1.909   0.047   5.913 -0.2861  0.1676 -0.4328
 3176SOL    HW120990   1.940   0.017   5.828 -1.2079 -0.3747 -0.5775
 3176SOL    HW220991   1.926   4.694   5.966 -1.1490  1.0099  1.0825
 3177SOL     OW20992   1.031   2.577  13.867 -0.7760  0.1541 -0.2187
 3177SOL    HW120993   1.003   2.563  13.958  1.7191  0.8804  0.6753
 3177SOL    HW220994   0.951   2.559  13.818 -1.6103  2.8466  0.1681
 3178SOL     OW20995   3.884   0.303  13.468  0.0517  0.6081 -0.6186
 3178SOL    HW120996   3.919   0.288  13.556 -1.0454  0.3080 -0.2332
 3178SOL    HW220997   3.971   0.331  13.439 -0.7187  2.6710 -0.9668
 3179SOL     OW20998   0.120   3.541   3.507 -0.2579  0.4266  0.0147
 3179SOL    HW120999   0.206   3.579   3.488  0.4203 -1.7117 -1.1843
 3179SOL    HW221000   0.119   3.559   3.601 -1.3379  4.1934 -0.7337
 3180SOL     OW21001   0.612   0.177   9.521  0.0437 -0.0441 -0.2259
 3180SOL    HW121002   0.551   0.223   9.578 -0.6282  1.1291 -1.8902
 3180SOL    HW221003   0.669   0.249   9.494  1.9949 -0.6468  2.2912
 3181SOL     OW21004   4.005   1.716   5.419 -0.4792 -0.0949 -0.0821
 3181SOL    HW121005   4.012   1.801   5.376  1.3437 -1.6404 -2.7796
 3181SOL    HW221006   4.047   1.660   5.353 -0.1125  0.8721 -0.6593
 3182SOL     OW21007   4.435   2.087   4.869  0.4695 -0.1782  0.1288
 3182SOL    HW121008   4.361   2.089   4.930 -0.9196  3.4574 -1.6417
 3182SOL    HW221009   4.508   2.083   4.930 -0.3404 -2.5656  0.9430
 3183SOL     OW21010   0.112   1.847  13.556 -0.0454 -0.9181  0.1311
 3183SOL    HW121011   0.166   1.805  13.490  0.7679  0.6704 -0.2170
 3183SOL    HW221012   0.027   1.840  13.512 -0.3236  1.6111  0.2609
 3184SOL     OW21013   2.632   2.874   6.563  0.0174  0.2546 -0.6454
 3184SOL    HW121014   2.653   2.901   6.652 -0.3118 -1.1608 -0.1510
 3184SOL    HW221015   2.579   2.951   6.539 -3.9328 -2.6839 -1.2784
 3185SOL     OW21016   2.207   1.209   5.231 -0.1677  0.0920  0.0964
 3185SOL    HW121017   2.116   1.186   5.214 -0.4233  0.6652  0.6972
 3185SOL    HW221018   2.246   1.144   5.172 -1.0234  1.3700 -1.8730
 3186SOL     OW21019   0.459   2.766   8.567 -0.2513 -0.1781  0.6944
 3186SOL    HW121020   0.472   2.729   8.480 -1.0445 -1.2862  1.0526
 3186SOL    HW221021   0.409   2.695   8.606  0.7164 -0.4789  1.4001
 3187SOL     OW21022   1.733   2.649   5.731  0.0300 -0.1377 -0.8130
 3187SOL    HW121023   1.673   2.600   5.788  3.0216 -3.8559 -0.8392
 3187SOL    HW221024   1.687   2.643   5.648  0.2983 -0.1875 -0.9593
 3188SOL     OW21025   0.858   1.719   4.408 -0.1323  0.0570 -0.2041
 3188SOL    HW121026   0.829   1.647   4.352 -1.6309 -0.1367  0.8102
 3188SOL    HW221027   0.782   1.714   4.466  1.2066 -0.4288  1.4843
 3189SOL     OW21028   1.276   0.170   9.154 -0.7178  0.2720  0.1391
 3189SOL    HW121029   1.249   0.254   9.192  0.6778  1.8150 -2.2929
 3189SOL    HW221030   1.213   0.115   9.201  0.1470  0.1148  1.0985
 3190SOL     OW21031   4.572   1.382   6.785 -0.8999 -0.2748  0.6049
 3190SOL    HW121032   4.631   1.317   6.747  0.0199  0.7914  0.2159
 3190SOL    HW221033   4.624   1.402   6.862 -0.4366  2.3558 -0.3820
 3191SOL     OW21034   1.674   0.953   0.622  0.5083  0.6863 -0.2131
 3191SOL    HW121035   1.608   0.890   0.593 -1.1488  2.2449  0.1544
 3191SOL    HW221036   1.670   1.026   0.560  0.9407  1.5547  0.7739
 3192SOL     OW21037   3.514   0.575  13.019 -0.0062  0.1259 -0.1667
 3192SOL    HW121038   3.603   0.545  13.002 -0.5741 -1.1119 -0.9642
 3192SOL    HW221039   3.477   0.560  12.932  3.1875 -1.0763 -1.2950
 3193SOL     OW21040   4.440   3.364   4.167 -0.4104  0.7569  0.0688
 3193SOL    HW121041   4.499   3.295   4.196 -1.4185 -0.0305  0.2342
 3193SOL    HW221042   4.443   3.359   4.071 -2.2382 -1.6336  0.1416
 3194SOL     OW21043   0.885   2.169   6.145 -0.4271  0.0059  0.3997
 3194SOL    HW121044   0.832   2.248   6.137  0.0401  0.3195  0.4217
 3194SOL    HW221045   0.835   2.109   6.089 -0.6923 -0.8379  1.5480
 3195SOL     OW21046   3.501   1.818   2.310 -0.0130 -0.7069  0.5265
 3195SOL    HW121047   3.501   1.857   2.223  2.5341 -0.8507  0.4493
 3195SOL    HW221048   3.424   1.763   2.303 -0.1950  0.0401 -3.2819
 3196SOL     OW21049   1.356   0.732   6.308 -0.1698  0.5264 -0.3327
 3196SOL    HW121050   1.405   0.805   6.269  1.7651 -0.9951 -0.7296
 3196SOL    HW221051   1.272   0.743   6.262  0.0406  2.8951 -0.1688
 3197SOL     OW21052   1.898   0.652   6.598  0.1540 -0.1892  0.4149
 3197SOL    HW121053   1.815   0.692   6.573 -0.6477  0.5773  4.2408
 3197SOL    HW221054   1.944   0.652   6.514 -1.6953  2.5496 -0.5880
 3198SOL     OW21055   2.006   4.544   2.481  0.3199  0.4699  0.1396
 3198SOL    HW121056   2.018   4.467   2.536  1.5310 -1.5893 -3.0227
 3198SOL    HW221057   1.988   4.613   2.546 -1.4657 -0.8065  0.9848
 3199SOL     OW21058   4.322   3.773  17.424 -0.2246 -0.4195 -0.7066
 3199SOL    HW121059   4.267   3.712  17.474 -0.7232  1.4247  0.9733
 3199SOL    HW221060   4.345   3.716  17.350 -0.1317 -1.4507  0.1102
 3200SOL     OW21061   3.471   0.142   4.157 -0.0776 -0.1194  0.2830
 3200SOL    HW121062   3.410   0.193   4.209 -0.2445 -1.5762  1.5183
 3200SOL    HW221063   3.437   0.168   4.072 -0.3061  2.2815  1.1246
 3201SOL     OW21064   3.682   0.146   8.155 -0.0019  0.1473  0.1120
 3201SOL    HW121065   3.767   0.102   8.158  0.5044  1.2017  1.4149
 3201SOL    HW221066   3.703   0.227   8.107  0.9614  0.4655  1.0688
 3202SOL     OW21067   4.353   4.489   2.850 -0.1751  0.2103 -0.0038
 3202SOL    HW121068   4.259   4.486   2.832  0.1724 -0.6874 -1.6299
 3202SOL    HW221069   4.365   4.507   2.944  0.3668 -0.8024  0.1250
 3203SOL     OW21070   0.566   1.342   1.439 -0.4054  0.2036  0.0065
 3203SOL    HW121071   0.618   1.307   1.367  1.0148  0.9220  0.6768
 3203SOL    HW221072   0.568   1.434   1.411  0.5951  0.4204  0.8196
 3204SOL     OW21073   0.350   3.137   3.743  0.0250  0.0304  0.3766
 3204SOL    HW121074   0.357   3.233   3.738  0.7218  0.0165  1.1159
 3204SOL    HW221075   0.425   3.119   3.687  0.2565 -0.7673  0.9397
 3205SOL     OW21076   1.547   3.465  12.178 -0.3348  0.1987 -0.3954
 3205SOL    HW121077   1.565   3.372  12.167 -0.6830 -0.0305  0.9797
 3205SOL    HW221078   1.494   3.460  12.257  0.3859 -0.3248  0.0547
 3206SOL     OW21079   0.407   0.880   3.998  0.0574 -0.5936 -0.0016
 3206SOL    HW121080   0.338   0.834   3.949  2.5985 -1.5684 -2.6753
 3206SOL    HW221081   0.411   0.829   4.079  1.2832 -2.4105 -1.1931
 3207SOL     OW21082   0.497   2.295  13.542  0.5802  0.0034  0.6380
 3207SOL    HW121083   0.509   2.200  13.539  0.4440  0.0319 -1.2500
 3207SOL    HW221084   0.403   2.307  13.550  0.2750 -3.1650  1.3761
 3208SOL     OW21085   3.834   1.598  10.450 -0.3148 -0.2523  0.3334
 3208SOL    HW121086   3.744   1.596  10.482 -1.2105  3.0297 -1.9494
 3208SOL    HW221087   3.845   1.693  10.439  1.8771 -0.4706  0.6511
 3209SOL     OW21088   3.839   2.007  10.881 -0.1639  0.1592 -0.3262
 3209SOL    HW121089   3.831   2.102  10.884 -0.7261  0.0681  1.4241
 3209SOL    HW221090   3.774   1.973  10.819  0.4516 -0.3760 -0.6861
 3210SOL     OW21091   3.884   3.512   5.339  0.3106 -0.7927 -0.1180
 3210SOL    HW121092   3.972   3.539   5.364 -0.2436  0.0849  0.9361
 3210SOL    HW221093   3.855   3.485   5.426  0.6131  0.2411  0.3111
 3211SOL     OW21094   3.990   0.236  10.103 -0.1563  0.5502 -0.2334
 3211SOL    HW121095   3.908   0.262  10.145 -0.4277 -0.7073  0.0233
 3211SOL    HW221096   4.029   0.184  10.174  2.3153  0.4895 -1.6477
 3212SOL     OW21097   1.571   0.531  16.895 -0.0119 -0.0200 -0.6557
 3212SOL    HW121098   1.616   0.534  16.980  0.8574 -1.1127 -1.0712
 3212SOL    HW221099   1.534   0.443  16.898 -0.9526  0.3628 -0.9628
 3213SOL     OW21100   2.147   1.590   1.765  0.2006  0.1363 -0.2772
 3213SOL    HW121101   2.094   1.651   1.713 -1.0921 -0.9723 -0.2580
 3213SOL    HW221102   2.188   1.661   1.814  2.6060 -0.2939 -1.6164
 3214SOL     OW21103   2.405   2.834  15.538 -0.5699 -0.1592  0.1539
 3214SOL    HW121104   2.345   2.899  15.573 -0.5010  0.8507 -1.6162
 3214SOL    HW221105   2.409   2.862  15.446 -0.4752  0.7171  0.4272
 3215SOL     OW21106   2.242   0.959   0.957 -0.4207 -0.6563 -0.1083
 3215SOL    HW121107   2.245   0.864   0.944 -1.2954 -1.0098  2.3947
 3215SOL    HW221108   2.296   0.964   1.035 -0.8941  3.9440 -0.0649
 3216SOL     OW21109   4.290   3.126   0.461  0.1505 -0.0083 -0.0748
 3216SOL    HW121110   4.348   3.164   0.395  1.4524  0.8935  1.5891
 3216SOL    HW221111   4.219   3.190   0.471  0.8715  0.9664 -1.2992
 3217SOL     OW21112   3.415   1.002   0.421 -0.3092 -0.4110  0.2020
 3217SOL    HW121113   3.472   0.939   0.377  1.6955  1.5851 -0.0696
 3217SOL    HW221114   3.345   1.006   0.357 -0.1341  1.4455  0.1225
 3218SOL     OW21115   0.822   0.564   0.945  0.1391  0.3217 -0.0937
 3218SOL    HW121116   0.752   0.514   0.903 -0.4897  0.7879  0.3998
 3218SOL    HW221117   0.795   0.655   0.935  1.2449  0.3826 -2.6910
 3219SOL     OW21118   4.687   0.841   1.554  0.0274 -0.2290  0.5014
 3219SOL    HW121119   4.717   0.909   1.493 -0.2614 -0.6089 -0.0586
 3219SOL    HW221120   4.720   0.873   1.639  1.5992  0.1777 -0.2538
 3220SOL     OW21121   1.199   1.348   9.072  0.4358  0.2207  0.8879
 3220SOL    HW121122   1.204   1.322   9.164 -1.5545 -1.5492  0.4916
 3220SOL    HW221123   1.293   1.363   9.057  0.0035 -1.0777 -3.0522
 3221SOL     OW21124   1.734   1.132   2.579 -0.4263 -0.4670 -0.2798
 3221SOL    HW121125   1.655   1.182   2.599  0.2638  0.6576 -0.3449
 3221SOL    HW221126   1.731   1.060   2.641  0.6413  1.6209  2.1843
 3222SOL     OW21127   2.008   3.250   6.796  0.0585  0.0793 -0.1687
 3222SOL    HW121128   2.006   3.208   6.710 -0.5880  1.6789 -0.9262
 3222SOL    HW221129   1.973   3.177   6.847  1.0758 -0.5907 -0.4316
 3223SOL     OW21130   3.575   3.732   5.020  0.2890  0.3850  0.0822
 3223SOL    HW121131   3.616   3.649   4.995 -0.1796  0.3464 -0.5621
 3223SOL    HW221132   3.491   3.735   4.974  1.1724  0.7845 -1.4848
 3224SOL     OW21133   3.343   2.880   7.810  0.2262 -0.1128  0.4417
 3224SOL    HW121134   3.326   2.968   7.778  2.3514  0.0789 -0.1725
 3224SOL    HW221135   3.428   2.895   7.851  0.1927  3.3012 -0.7821
 3225SOL     OW21136   3.794   4.155   5.549 -0.3115 -0.3952  0.1577
 3225SOL    HW121137   3.710   4.112   5.562  0.2128 -1.2086  0.8215
 3225SOL    HW221138   3.797   4.226   5.613  4.5924 -1.1021  0.6876
 3226SOL     OW21139   2.927   1.769   2.609 -0.0394 -0.9318  0.9726
 3226SOL    HW121140   2.842   1.781   2.651 -1.6594  0.1073 -2.5892
 3226SOL    HW221141   2.982   1.811   2.675  0.7974  1.0731 -1.0090
 3227SOL     OW21142   4.491   4.663   9.724 -0.1267  0.1204  0.0734
 3227SOL    HW121143   4.556   0.008   9.712 -2.2964  1.9065 -1.3571
 3227SOL    HW221144   4.428   4.723   9.762 -0.8846 -0.4528 -0.2854
 3228SOL     OW21145   3.534   4.503   8.386 -0.9098 -0.5132 -0.0460
 3228SOL    HW121146   3.458   4.560   8.371  0.1077  0.9569  0.4607
 3228SOL    HW221147   3.594   4.560   8.338  0.5611 -0.4661  1.8622
 3229SOL     OW21148   3.088   2.762   0.729  0.1096 -0.0226  1.0203
 3229SOL    HW121149   3.162   2.798   0.779  0.0098  0.5416  0.7657
 3229SOL    HW221150   3.048   2.702   0.792 -2.6213  0.8086  0.0820
 3230SOL     OW21151   0.611   4.318   7.902 -0.5577  0.3421 -0.0264
 3230SOL    HW121152   0.666   4.340   7.827 -2.2349  0.2934 -1.2833
 3230SOL    HW221153   0.571   4.401   7.930 -0.1775  1.2270 -2.1080
 3231SOL     OW21154   2.814   4.214   7.614 -0.4630  0.6021  0.2378
 3231SOL    HW121155   2.770   4.176   7.690  1.1481 -0.5472  0.5818
 3231SOL    HW221156   2.801   4.309   7.624 -0.6311  0.3478  2.4098
 3232SOL     OW21157   0.039   4.163   1.862 -0.0519 -0.3772  0.2030
 3232SOL    HW121158   0.122   4.211   1.855  0.5176 -0.8417  3.7103
 3232SOL    HW221159   4.709   4.216   1.805  3.1502  2.9075  0.1935
 3233SOL     OW21160   1.099   0.107   3.675 -0.2644  0.4878  0.4401
 3233SOL    HW121161   1.113   0.186   3.622  1.8663 -1.2990 -1.6904
 3233SOL    HW221162   1.145   0.128   3.756 -0.3472 -1.8411  1.0764
 3234SOL     OW21163   0.894   2.092   5.841  0.4458  0.2865  0.1427
 3234SOL    HW121164   0.946   2.098   5.761 -1.4548  0.6528 -1.0437
 3234SOL    HW221165   0.939   2.017   5.881 -2.0162 -1.7019 -0.8848
 3235SOL     OW21166   1.792   4.644  13.220 -0.2956 -0.1515 -0.1641
 3235SOL    HW121167   1.792   0.015  13.208 -1.5156 -0.2111 -0.5905
 3235SOL    HW221168   1.868   4.622  13.167 -1.4616 -1.2025 -1.3905
 3236SOL     OW21169   2.200   4.009   7.837 -0.3837 -0.0289 -0.2226
 3236SOL    HW121170   2.169   3.941   7.778  1.3969 -1.1718  0.1930
 3236SOL    HW221171   2.147   3.988   7.914 -1.2108 -1.5107 -1.1935
 3237SOL     OW21172   3.020   0.807   9.424  0.2834  0.2901 -0.1595
 3237SOL    HW121173   3.011   0.827   9.331 -3.2323 -0.1288  0.1122
 3237SOL    HW221174   3.116   0.808   9.424  0.2864  0.0094  0.1533
 3238SOL     OW21175   3.624   4.412  13.832 -0.2813 -0.6540 -0.7450
 3238SOL    HW121176   3.567   4.388  13.758 -1.4095 -2.3958  0.6892
 3238SOL    HW221177   3.625   4.330  13.882  0.6150 -0.5998 -0.6807
 3239SOL     OW21178   1.698   1.296   4.297  0.0233 -0.4609 -0.0600
 3239SOL    HW121179   1.784   1.335   4.280 -0.5032 -0.2967 -2.4503
 3239SOL    HW221180   1.640   1.368   4.270  1.5821  1.2774  1.1765
 3240SOL     OW21181   4.221   1.888  11.645  0.3874 -0.0921 -0.1753
 3240SOL    HW121182   4.260   1.807  11.676  0.2192  0.4659  1.4968
 3240SOL    HW221183   4.133   1.875  11.679  0.4954 -2.3964 -0.8295
 3241SOL     OW21184   1.796   3.104   5.855 -0.5498  0.3788  0.2981
 3241SOL    HW121185   1.759   3.137   5.937 -0.2221 -1.5195  1.2255
 3241SOL    HW221186   1.817   3.015   5.886 -1.6194 -0.4050 -1.2272
 3242SOL     OW21187   4.165   2.998   6.160 -0.5216 -0.0367 -0.0554
 3242SOL    HW121188   4.217   2.942   6.101 -0.6059 -0.0306 -0.1355
 3242SOL    HW221189   4.207   3.084   6.155 -0.2910 -0.1652 -0.3623
 3243SOL     OW21190   3.396   3.268   7.003 -0.1385 -0.1825  0.2339
 3243SOL    HW121191   3.491   3.273   7.010 -0.1797 -1.2852  1.8257
 3243SOL    HW221192   3.374   3.243   7.093 -1.1087 -0.0479  0.0314
 3244SOL     OW21193   0.496   2.662  12.723 -0.6721  0.4092  0.0753
 3244SOL    HW121194   0.542   2.580  12.710  0.2279  1.0182 -0.5555
 3244SOL    HW221195   0.422   2.634  12.778 -2.8833  0.4026 -2.9077
 3245SOL     OW21196   3.509   4.436   7.211 -0.3565  0.1549 -0.3924
 3245SOL    HW121197   3.466   4.367   7.263  0.1166  0.3513  0.2650
 3245SOL    HW221198   3.551   4.497   7.272  0.0058 -1.6189  1.1411
 3246SOL     OW21199   1.552   3.363  16.229  0.0480 -0.3697  0.8899
 3246SOL    HW121200   1.641   3.335  16.252 -0.4203 -2.0952  0.6337
 3246SOL    HW221201   1.535   3.319  16.146  1.4412 -0.0431  0.4392
 3247SOL     OW21202   4.387   3.821   9.408  0.0717 -0.3161 -0.1946
 3247SOL    HW121203   4.298   3.829   9.373 -0.3435  2.6266  1.5114
 3247SOL    HW221204   4.403   3.729   9.427 -0.0681  0.0836  1.8616
 3248SOL     OW21205   2.023   0.977   3.787  0.1457 -0.1605  0.0964
 3248SOL    HW121206   1.947   0.931   3.823  1.2499 -1.4837  0.7612
 3248SOL    HW221207   2.087   0.906   3.783  0.2091 -0.1013  0.0573
 3249SOL     OW21208   4.602   3.662  14.095 -0.3703 -0.0301 -0.4089
 3249SOL    HW121209   4.580   3.625  14.010  2.0245  0.7159 -1.3565
 3249SOL    HW221210   4.569   3.749  14.073  0.6027  0.2213 -0.8781
 3250SOL     OW21211   1.450   2.230   7.940  0.4155 -0.3513  0.0588
 3250SOL    HW121212   1.392   2.183   7.880  0.8644 -2.3422  1.1737
 3250SOL    HW221213   1.406   2.214   8.023  0.9594 -0.8479  0.2562
 3251SOL     OW21214   1.061   3.247   3.540  0.1501  0.3214 -0.0819
 3251SOL    HW121215   1.043   3.341   3.538  1.4220  0.5785  0.6897
 3251SOL    HW221216   1.155   3.245   3.557  0.0068  0.7846  0.7372
 3252SOL     OW21217   0.229   2.231  16.748  0.3730  0.3015 -0.0653
 3252SOL    HW121218   0.261   2.308  16.795 -0.5493 -0.6000  2.0511
 3252SOL    HW221219   0.281   2.231  16.667 -1.0952  2.6039 -1.0001
 3253SOL     OW21220   3.907   2.329   9.912  0.2876  0.0745  0.7269
 3253SOL    HW121221   3.945   2.319   9.824 -0.8606  3.1288 -0.1178
 3253SOL    HW221222   3.926   2.421   9.927 -1.6992  0.4971  0.6273
 3254SOL     OW21223   2.152   0.032   5.456  0.4182  0.2866  0.1503
 3254SOL    HW121224   2.103   4.675   5.443 -0.8569  1.0677  0.1046
 3254SOL    HW221225   2.194   0.016   5.541  1.9476 -1.8292 -0.9985
 3255SOL     OW21226   1.074   1.893   9.907  0.5867 -0.0784  0.0623
 3255SOL    HW121227   1.082   1.944   9.826  0.0778  0.5546  0.4153
 3255SOL    HW221228   1.160   1.901   9.949  0.8863 -0.4652 -0.4737
 3256SOL     OW21229   3.177   3.990   5.411  0.3095  0.1674  0.4750
 3256SOL    HW121230   3.087   3.976   5.440 -0.3983  1.0747 -1.2993
 3256SOL    HW221231   3.218   4.054   5.469  0.8950  1.0621 -0.9258
 3257SOL     OW21232   2.008   2.352  14.928 -0.0764  0.3583 -0.2212
 3257SOL    HW121233   2.090   2.353  14.977 -0.3436  1.1293  0.2005
 3257SOL    HW221234   2.021   2.426  14.869  1.0415 -0.0172 -0.4554
 3258SOL     OW21235   3.041   2.373   2.396 -0.7357 -0.7062 -0.0008
 3258SOL    HW121236   3.029   2.465   2.420 -2.3842 -0.5157 -1.5617
 3258SOL    HW221237   2.952   2.357   2.366 -1.5732  0.8675  1.5812
 3259SOL     OW21238   1.180   4.039   7.269 -0.1638  0.2109  0.1549
 3259SOL    HW121239   1.151   4.104   7.205  1.6629 -1.5255 -2.4772
 3259SOL    HW221240   1.142   4.065   7.353 -1.2961 -2.3819  0.4481
 3260SOL     OW21241   4.074   1.688   5.903  0.7429  0.2058  0.3486
 3260SOL    HW121242   3.996   1.707   5.955  1.0295 -0.0276  0.8638
 3260SOL    HW221243   4.138   1.671   5.972 -0.9340 -0.1723  1.8122
 3261SOL     OW21244   3.643   0.088  15.316  0.2251 -0.3310  0.2187
 3261SOL    HW121245   3.570   0.120  15.263  1.7989  1.3755 -0.9223
 3261SOL    HW221246   3.662   0.164  15.372 -3.6224 -0.1816  1.3246
 3262SOL     OW21247   3.846   0.185   7.206  0.1459 -0.4508  0.0885
 3262SOL    HW121248   3.755   0.204   7.180  0.0171  0.1821  1.0184
 3262SOL    HW221249   3.900   0.201   7.129  0.7085 -0.6782  0.4406
 3263SOL     OW21250   4.496   2.572   5.341  0.5293 -0.1842  0.3388
 3263SOL    HW121251   4.414   2.618   5.321  0.6580 -0.5086 -0.8650
 3263SOL    HW221252   4.463   2.519   5.414 -0.5333 -2.0398 -1.5035
 3264SOL     OW21253   2.043   3.346   3.749 -0.0658 -0.3984  0.2271
 3264SOL    HW121254   1.949   3.329   3.735 -0.0565 -0.5314  0.3276
 3264SOL    HW221255   2.047   3.438   3.724  2.9996 -1.5830 -3.7472
 3265SOL     OW21256   3.608   2.211   3.349  0.0940 -0.6529 -0.2073
 3265SOL    HW121257   3.543   2.249   3.407  1.2959  1.5686 -0.3318
 3265SOL    HW221258   3.686   2.257   3.380 -0.7098 -0.0197  0.8403
 3266SOL     OW21259   0.039   3.604   5.566 -0.0819 -0.2907  0.3457
 3266SOL    HW121260   0.061   3.522   5.611 -3.6037 -0.6729  1.3947
 3266SOL    HW221261   4.668   3.600   5.574 -0.2892  1.4915 -1.4292
 3267SOL     OW21262   3.456   0.799   1.218  0.1172  0.1132  0.0067
 3267SOL    HW121263   3.386   0.814   1.154  0.2358 -0.2165 -0.1990
 3267SOL    HW221264   3.455   0.703   1.220 -1.2981  0.1620  1.5156
 3268SOL     OW21265   2.873   1.113   5.294  0.1483  0.7897  0.6658
 3268SOL    HW121266   2.885   1.208   5.300  0.6352  0.6591  1.6574
 3268SOL    HW221267   2.818   1.095   5.371 -0.7612 -0.5728 -0.2949
 3269SOL     OW21268   1.941   1.073   4.634 -0.1024 -0.2213 -0.5094
 3269SOL    HW121269   2.037   1.076   4.629 -0.0661 -1.2817 -0.3155
 3269SOL    HW221270   1.929   1.033   4.548 -2.7990 -0.4645 -0.0204
 3270SOL     OW21271   1.389   1.892   3.993 -0.2009 -0.5414 -0.9065
 3270SOL    HW121272   1.316   1.839   4.026  0.1080 -0.1535  0.3988
 3270SOL    HW221273   1.337   1.949   3.937  0.2992  2.4067  1.6106
 3271SOL     OW21274   2.449   0.477   2.779  0.3296 -0.1042 -0.5862
 3271SOL    HW121275   2.384   0.407   2.770 -0.5854  0.7772 -0.7570
 3271SOL    HW221276   2.526   0.421   2.790  0.1899  0.1535  1.7228
 3272SOL     OW21277   4.386   3.838   5.393 -0.1132  0.3811 -0.5296
 3272SOL    HW121278   4.438   3.899   5.445  0.0838 -2.2030  2.2954
 3272SOL    HW221279   4.412   3.854   5.302  2.7205  2.0262  0.5788
 3273SOL     OW21280   1.933   0.117   1.030 -0.3836 -0.0851 -0.5786
 3273SOL    HW121281   1.919   0.200   1.075  1.2291  0.0862 -0.3771
 3273SOL    HW221282   1.903   0.055   1.097  0.5002  0.5855  0.4344
 3274SOL     OW21283   2.889   4.215   7.958 -0.5600 -0.0047 -0.0969
 3274SOL    HW121284   2.844   4.177   8.033  0.7547 -1.4027 -0.0061
 3274SOL    HW221285   2.883   4.308   7.980 -1.8785 -0.6049  2.1262
 3275SOL     OW21286   3.678   3.211   8.563  0.6468 -0.5997 -0.6578
 3275SOL    HW121287   3.597   3.214   8.615 -0.2979  0.2185 -2.1716
 3275SOL    HW221288   3.704   3.121   8.579 -1.7894 -0.9848  1.0629
 3276SOL     OW21289   0.868   0.710   2.853 -0.1991 -0.1396  0.2965
 3276SOL    HW121290   0.858   0.800   2.824 -0.3607  0.4848  2.3051
 3276SOL    HW221291   0.779   0.682   2.878  0.0725 -1.2596  0.0179
 3277SOL     OW21292   2.562   2.116   6.046  0.5396 -0.2225 -0.2054
 3277SOL    HW121293   2.523   2.197   6.014 -0.1941 -0.6835 -0.4739
 3277SOL    HW221294   2.483   2.062   6.040 -0.9663  1.8026  1.5291
 3278SOL     OW21295   1.243   1.088   3.617 -0.2016 -0.4105  0.1623
 3278SOL    HW121296   1.247   1.041   3.701  0.0238  1.1972  1.0547
 3278SOL    HW221297   1.152   1.082   3.587  0.3461  0.3212 -1.6110
 3279SOL     OW21298   2.079   1.517   7.666 -0.5715 -0.2789 -0.4059
 3279SOL    HW121299   2.171   1.515   7.642 -0.6185  0.5624 -0.6750
 3279SOL    HW221300   2.088   1.544   7.757  1.5110  2.6235 -1.4685
 3280SOL     OW21301   1.447   4.286   2.737 -0.0513  0.0168 -0.7385
 3280SOL    HW121302   1.381   4.302   2.669  1.9724  0.5429 -2.6054
 3280SOL    HW221303   1.479   4.376   2.746  1.6621 -0.5796 -0.9562
 3281SOL     OW21304   0.490   3.279  12.367  0.1361  0.0396  0.3240
 3281SOL    HW121305   0.457   3.230  12.442  1.8737  1.3161  1.8969
 3281SOL    HW221306   0.556   3.331  12.412 -2.7882  0.8173  3.7184
 3282SOL     OW21307   3.201   2.008   6.743  0.2139  0.2261 -0.3651
 3282SOL    HW121308   3.161   2.090   6.773 -2.1278 -0.8285 -0.5912
 3282SOL    HW221309   3.127   1.979   6.690  0.1273  0.4945 -0.3901
 3283SOL     OW21310   0.396   0.494   7.239  0.1270  0.3624  0.1891
 3283SOL    HW121311   0.398   0.522   7.148 -0.7540  1.0328  0.3751
 3283SOL    HW221312   0.303   0.473   7.251  0.0836 -0.8443 -2.3719
 3284SOL     OW21313   0.633   0.806  11.206  0.0855 -0.4524 -0.1950
 3284SOL    HW121314   0.652   0.848  11.122 -0.2072  0.7923  0.3588
 3284SOL    HW221315   0.709   0.749  11.219  0.5457 -0.5753 -3.3814
 3285SOL     OW21316   0.572   1.572   0.605  0.2950 -0.3866  0.9791
 3285SOL    HW121317   0.553   1.487   0.567 -3.0468  0.8345 -0.1039
 3285SOL    HW221318   0.655   1.592   0.560 -1.1111  0.3155 -1.3044
 3286SOL     OW21319   3.591   2.340  14.368 -0.1983 -0.5846  0.6473
 3286SOL    HW121320   3.636   2.336  14.284 -0.6112  2.7099  0.2674
 3286SOL    HW221321   3.653   2.389  14.422  0.6963 -1.0675  0.0591
 3287SOL     OW21322   1.254   4.373  13.190  0.0521 -0.1285 -0.0595
 3287SOL    HW121323   1.242   4.279  13.202 -0.0426 -0.4729 -2.8301
 3287SOL    HW221324   1.348   4.374  13.172  0.1371  0.5057  0.4436
 3288SOL     OW21325   1.716   2.428   3.700 -0.0648  0.1032  0.2540
 3288SOL    HW121326   1.780   2.380   3.647  1.5195  0.2321  2.0624
 3288SOL    HW221327   1.633   2.382   3.684 -0.5833  0.4230  1.9934
 3289SOL     OW21328   0.504   2.145   4.726 -0.4516 -0.0558  0.4072
 3289SOL    HW121329   0.584   2.124   4.677  0.7083  0.7091  1.9687
 3289SOL    HW221330   0.465   2.214   4.674 -1.3104 -0.6322  0.2881
 3290SOL     OW21331   3.611   1.942  10.391  0.2335  0.3783  0.1274
 3290SOL    HW121332   3.553   1.990  10.331 -2.7547 -1.6534  1.4338
 3290SOL    HW221333   3.694   1.929  10.345 -0.5655 -2.1350 -0.5928
 3291SOL     OW21334   2.032   1.938   6.700  0.0636 -0.0677  0.2091
 3291SOL    HW121335   2.084   1.863   6.730  1.5153  1.0375  0.4308
 3291SOL    HW221336   2.099   1.973   6.642 -1.5177  1.4341 -0.7158
 3292SOL     OW21337   2.721   0.833   7.739 -0.1891  0.0535  0.0094
 3292SOL    HW121338   2.793   0.831   7.676  0.7301 -0.5609  1.0810
 3292SOL    HW221339   2.738   0.753   7.789 -0.1279 -0.4287 -0.7768
 3293SOL     OW21340   3.058   4.045   4.324  0.2236 -0.5650 -0.0387
 3293SOL    HW121341   2.992   4.079   4.262 -1.7387  0.6376  2.7224
 3293SOL    HW221342   3.079   4.123   4.375  1.2979 -0.4373 -0.6771
 3294SOL     OW21343   4.045   1.186   7.507  0.6976  0.4900  0.1034
 3294SOL    HW121344   4.058   1.159   7.417  2.1915  2.0782 -0.1537
 3294SOL    HW221345   4.027   1.280   7.498  0.5234  0.0483 -3.8335
 3295SOL     OW21346   1.349   0.663   1.727 -0.5468  0.2235  0.1698
 3295SOL    HW121347   1.413   0.732   1.745 -1.2815  0.4945  1.7400
 3295SOL    HW221348   1.401   0.584   1.710  0.8865  1.5739 -1.6748
 3296SOL     OW21349   3.796   1.966   4.787  0.1671  0.7117  0.1697
 3296SOL    HW121350   3.863   2.029   4.813  0.0419  0.9254 -0.0225
 3296SOL    HW221351   3.763   1.929   4.869  1.3845 -0.4001  0.1716
 3297SOL     OW21352   0.958   0.970   6.035 -0.0988  0.5646  0.2410
 3297SOL    HW121353   0.991   1.059   6.051 -2.0283  1.7183 -2.2307
 3297SOL    HW221354   0.954   0.971   5.939  0.0574 -0.1943  0.2251
 3298SOL     OW21355   3.603   2.135   5.853  0.2521  0.7167  0.2124
 3298SOL    HW121356   3.611   2.105   5.944  0.5869  0.0793 -0.0277
 3298SOL    HW221357   3.559   2.218   5.871 -2.7665 -0.2880 -2.4716
 3299SOL     OW21358   1.550   1.458   9.531  0.4803  0.7213  0.2716
 3299SOL    HW121359   1.560   1.405   9.452 -0.8819  1.2744 -0.2740
 3299SOL    HW221360   1.494   1.527   9.497 -0.9000  0.0966  1.2563
 3300SOL     OW21361   4.285   1.111   6.660  0.0970 -0.1105 -0.3652
 3300SOL    HW121362   4.354   1.108   6.594 -0.4558  1.3825 -1.0187
 3300SOL    HW221363   4.234   1.046   6.612  3.6924 -2.6118 -0.7782
 3301SOL     OW21364   0.425   3.496   3.704  0.0777 -0.0698 -0.1917
 3301SOL    HW121365   0.425   3.575   3.759  0.1233  1.6615 -2.7055
 3301SOL    HW221366   0.345   3.453   3.735 -0.6997  0.8414 -0.9374
 3302SOL     OW21367   4.051   3.251  17.469 -0.5147  0.4506 -0.5152
 3302SOL    HW121368   4.097   3.316  17.416  0.8326 -0.9920 -1.1264
 3302SOL    HW221369   4.133   3.202  17.480 -0.8793 -0.3275 -1.2696
 3303SOL     OW21370   3.757   2.817  17.096  0.0209  0.1936  0.4062
 3303SOL    HW121371   3.674   2.824  17.049 -0.2953 -1.0609  0.7768
 3303SOL    HW221372   3.720   2.777  17.174 -1.9612  0.2593 -0.5110
 3304SOL     OW21373   4.471   0.958   0.458  0.2523 -0.0837  0.3151
 3304SOL    HW121374   4.424   0.973   0.540  1.3275  2.2692  0.4873
 3304SOL    HW221375   4.523   1.038   0.453 -1.8855  1.2510 -0.4837
 3305SOL     OW21376   3.234   1.835  17.463 -0.2379 -0.2281 -0.0036
 3305SOL    HW121377   3.222   1.755  17.410 -1.7317  0.4937 -0.7697
 3305SOL    HW221378   3.207   1.810  17.551  2.1570  2.3427  1.4635
 3306SOL     OW21379   3.184   4.678  10.791  0.0072 -0.7429  0.6450
 3306SOL    HW121380   3.277   4.659  10.782  0.4836  1.6664  0.4963
 3306SOL    HW221381   3.146   4.620  10.725  2.1806  0.7906 -1.9520
 3307SOL     OW21382   0.930   0.149  11.505 -0.5651  0.3743 -0.3934
 3307SOL    HW121383   0.934   0.207  11.581 -1.0268 -0.8268  0.5373
 3307SOL    HW221384   1.008   0.096  11.523 -0.5857  1.1329  1.8833
 3308SOL     OW21385   2.399   2.948   4.784  0.2235 -0.0827 -0.8969
 3308SOL    HW121386   2.430   2.988   4.865 -0.0441 -0.1416 -0.7651
 3308SOL    HW221387   2.468   2.965   4.719  0.5299  0.8408 -0.3214
 3309SOL     OW21388   2.709   3.744  11.343 -0.1294 -0.7473  0.0367
 3309SOL    HW121389   2.682   3.696  11.264  2.8242 -0.0750 -1.3753
 3309SOL    HW221390   2.804   3.751  11.339 -0.3100  1.4163 -0.4813
 3310SOL     OW21391   3.625   1.293  11.560  0.0604  0.3029  0.5287
 3310SOL    HW121392   3.637   1.353  11.633  0.8570  0.6428  0.1067
 3310SOL    HW221393   3.554   1.332  11.509 -1.6471 -0.4651  2.2924
 3311SOL     OW21394   2.851   1.278  13.249 -0.5338 -0.0835 -0.3881
 3311SOL    HW121395   2.891   1.196  13.276 -0.3186 -0.1658 -0.9511
 3311SOL    HW221396   2.838   1.325  13.331 -0.5682  0.2386 -0.5776
 3312SOL     OW21397   3.067   1.032  13.124  0.4352  0.0426  0.1242
 3312SOL    HW121398   3.031   1.059  13.209 -1.3384 -1.1202 -0.2490
 3312SOL    HW221399   3.032   0.943  13.126 -0.3475  0.2646 -2.7214
 3313SOL     OW21400   4.621   1.374   9.986  0.3541  0.0082  0.0995
 3313SOL    HW121401   4.678   1.320   9.931  0.3253 -1.1450  1.1936
 3313SOL    HW221402   4.621   1.329  10.071 -2.4695  3.8250  2.1010
 3314SOL     OW21403   1.350   2.689   9.224 -0.0871 -0.2775 -0.4581
 3314SOL    HW121404   1.326   2.772   9.266  1.0662  0.5184 -1.3550
 3314SOL    HW221405   1.319   2.634   9.296  1.7396 -0.3511  0.2780
 3315SOL     OW21406   1.279   3.931   8.326 -0.7088 -0.7358 -0.4830
 3315SOL    HW121407   1.239   3.912   8.241 -2.2255 -2.0943  0.5257
 3315SOL    HW221408   1.199   3.963   8.367  0.0475 -1.6773  1.6928
 3316SOL     OW21409   1.814   1.727   8.826 -0.2731  0.4154 -0.3769
 3316SOL    HW121410   1.815   1.645   8.877 -0.7921  0.3972 -0.3995
 3316SOL    HW221411   1.886   1.768   8.874  0.0963  0.2205 -0.7693
 3317SOL     OW21412   0.222   2.503   1.494  0.2375  0.4974 -0.0918
 3317SOL    HW121413   0.291   2.440   1.472 -2.1937 -1.6552 -1.4697
 3317SOL    HW221414   0.201   2.464   1.578  0.6768 -3.7930 -1.9615
 3318SOL     OW21415   2.640   0.895  11.810  0.0322 -0.1646 -0.2046
 3318SOL    HW121416   2.644   0.989  11.830  0.0184 -0.3943  0.9156
 3318SOL    HW221417   2.731   0.871  11.827  0.3770  0.0957 -1.7443
 3319SOL     OW21418   3.425   2.866   6.591  0.1081  0.1631  0.1605
 3319SOL    HW121419   3.441   2.831   6.679  0.2727  1.5203  0.6641
 3319SOL    HW221420   3.478   2.945   6.583 -0.5097  0.5684  0.0786
 3320SOL     OW21421   2.928   3.917   5.487  0.4351  0.0850  0.1351
 3320SOL    HW121422   2.884   3.925   5.402  0.0657 -2.5849  0.0589
 3320SOL    HW221423   2.952   3.824   5.485 -1.2468 -0.3485  0.2020
 3321SOL     OW21424   2.871   4.676   4.005  0.5054 -0.3605  0.1817
 3321SOL    HW121425   2.777   4.656   4.010  0.3782 -0.3420 -2.4005
 3321SOL    HW221426   2.874   0.047   4.004  0.0617 -0.3412  0.4676
 3322SOL     OW21427   2.258   2.877   0.783  0.3356 -0.4959 -0.0640
 3322SOL    HW121428   2.318   2.944   0.816 -1.0733  0.2582  0.9470
 3322SOL    HW221429   2.218   2.852   0.866 -1.2365  0.3830 -0.5468
 3323SOL     OW21430   3.367   3.902  14.103  0.1749  0.3484 -0.3814
 3323SOL    HW121431   3.363   3.865  14.192  0.9712 -2.5368 -1.5365
 3323SOL    HW221432   3.327   3.985  14.128  0.3043  0.1436  0.5116
 3324SOL     OW21433   4.380   1.129   4.341 -0.3860 -0.3828 -0.1593
 3324SOL    HW121434   4.423   1.186   4.277  0.8841 -1.4360 -0.2285
 3324SOL    HW221435   4.300   1.105   4.294  0.7825 -1.9447 -1.3562
 3325SOL     OW21436   4.701   4.167   8.126 -0.4561 -0.5247 -0.3348
 3325SOL    HW121437   4.673   4.184   8.216  0.8496  1.0514 -0.2351
 3325SOL    HW221438   0.005   4.254   8.098 -3.0581 -0.2532 -2.1055
 3326SOL     OW21439   1.842   2.382   8.579 -0.5041  0.2344  0.3526
 3326SOL    HW121440   1.885   2.297   8.591  1.8562  1.4596  0.5733
 3326SOL    HW221441   1.888   2.441   8.638 -2.5516  2.7441 -0.5830
 3327SOL     OW21442   0.263   3.326   7.741 -0.5045  0.3422  0.4956
 3327SOL    HW121443   0.333   3.263   7.728 -0.3641 -0.0227  3.0347
 3327SOL    HW221444   0.255   3.354   7.650  2.5524  0.0477  0.1357
 3328SOL     OW21445   3.188   0.074  12.496  0.2679 -0.5564 -0.4577
 3328SOL    HW121446   3.236   4.718  12.475  1.1370 -0.0301 -0.4835
 3328SOL    HW221447   3.189   0.125  12.415  1.1666 -0.8125 -0.6086
 3329SOL     OW21448   3.238   4.272   3.309 -0.1963  0.4911  0.9603
 3329SOL    HW121449   3.187   4.191   3.317 -0.7993  0.8786  0.9679
 3329SOL    HW221450   3.261   4.265   3.217  1.3042  0.2935  1.3381
 3330SOL     OW21451   1.963   0.628   7.618  0.4652 -0.2459  0.2310
 3330SOL    HW121452   1.914   0.549   7.596  0.3294 -0.0130 -0.3063
 3330SOL    HW221453   1.947   0.681   7.540 -2.4369 -0.3977  0.7350
 3331SOL     OW21454   2.801   1.102   8.881  0.6481  0.1973  0.3428
 3331SOL    HW121455   2.832   1.187   8.913 -1.3423  1.7924 -1.9261
 3331SOL    HW221456   2.760   1.069   8.960 -2.0271 -2.0730 -1.9957
 3332SOL     OW21457   1.798   3.633   6.993 -0.5263  0.5357  0.5841
 3332SOL    HW121458   1.791   3.537   6.998 -1.3265  0.5174 -0.8187
 3332SOL    HW221459   1.831   3.636   6.903 -1.3302  0.4662  0.2921
 3333SOL     OW21460   1.912   0.021   9.710  0.9662 -0.0594  0.2923
 3333SOL    HW121461   1.862   0.025   9.791 -4.5444 -0.5398 -3.0322
 3333SOL    HW221462   1.922   0.115   9.699 -0.2404  0.1885  1.2649
 3334SOL     OW21463   4.123   0.617   7.137  0.0409  0.1440  0.4673
 3334SOL    HW121464   4.118   0.572   7.053 -0.3848  2.4305 -0.7406
 3334SOL    HW221465   4.081   0.548   7.189  0.9608 -0.8863 -0.1750
 3335SOL     OW21466   1.147   3.864   1.880 -0.5390  0.6510  0.1619
 3335SOL    HW121467   1.057   3.855   1.911  0.1479  0.2017  2.0160
 3335SOL    HW221468   1.163   3.956   1.903 -1.4569  0.8073  0.1659
 3336SOL     OW21469   3.302   2.159  16.693  0.2122  0.0138  0.0517
 3336SOL    HW121470   3.281   2.162  16.786  2.0383 -1.1075  0.5167
 3336SOL    HW221471   3.285   2.251  16.676  2.9705  0.8497  1.8945
 3337SOL     OW21472   1.488   4.320  12.482  0.1898  0.1090 -0.0722
 3337SOL    HW121473   1.393   4.325  12.492  0.2153  2.5011 -0.9281
 3337SOL    HW221474   1.502   4.227  12.496  0.1593 -0.0384 -1.0717
 3338SOL     OW21475   4.315   2.176   6.807  0.2647  0.3554  0.1421
 3338SOL    HW121476   4.396   2.189   6.857  0.9555 -2.5324 -0.2136
 3338SOL    HW221477   4.281   2.092   6.838  1.7674 -0.1972  0.2783
 3339SOL     OW21478   0.554   3.725  12.199  0.0602  0.1851 -0.0814
 3339SOL    HW121479   0.502   3.763  12.129  0.4408 -1.3894 -1.2274
 3339SOL    HW221480   0.486   3.734  12.265  0.5703  2.3180  0.1561
 3340SOL     OW21481   3.375   4.242  15.002  0.3500 -0.0870 -0.1253
 3340SOL    HW121482   3.466   4.269  14.993  1.0813 -2.2769  0.7467
 3340SOL    HW221483   3.378   4.151  15.030  0.0077 -0.3970 -1.1246
 3341SOL     OW21484   2.384   2.461   4.851 -0.2316 -0.2150  0.1374
 3341SOL    HW121485   2.391   2.552   4.881  1.1043  0.0666 -1.0129
 3341SOL    HW221486   2.316   2.475   4.785 -1.0548  0.2911  1.0924
 3342SOL     OW21487   3.936   0.442  13.148 -0.6035  0.1696 -0.0076
 3342SOL    HW121488   3.950   0.350  13.125  0.0627 -0.1000  1.4529
 3342SOL    HW221489   4.004   0.489  13.100  0.6904  0.9180  2.5748
 3343SOL     OW21490   0.083   0.432  15.610  0.0290  0.5318 -0.7657
 3343SOL    HW121491   0.087   0.338  15.588  1.5407  0.4814 -0.2669
 3343SOL    HW221492   4.718   0.444  15.576 -0.4887  1.6406  1.0307
 3344SOL     OW21493   2.842   2.021  11.296  0.5906  0.6710  0.2238
 3344SOL    HW121494   2.826   2.084  11.226  0.6772  0.5397  0.0883
 3344SOL    HW221495   2.750   2.001  11.310  0.8389 -0.6067  0.0459
 3345SOL     OW21496   2.570   1.614  12.366 -0.0784  0.3241 -0.1887
 3345SOL    HW121497   2.563   1.707  12.343  0.5444  0.5875  0.6855
 3345SOL    HW221498   2.521   1.572  12.295  1.0154 -1.5769  0.1956
 3346SOL     OW21499   1.694   3.563  11.969 -0.0665  0.1733 -0.1600
 3346SOL    HW121500   1.639   3.639  11.951  0.3479  0.1010 -1.7257
 3346SOL    HW221501   1.653   3.535  12.051  1.6830 -1.1280  0.2517
 3347SOL     OW21502   2.083   0.723   7.859 -0.3474  0.0074  0.0495
 3347SOL    HW121503   2.036   0.664   7.800 -0.4635 -0.9474  1.0814
 3347SOL    HW221504   2.039   0.806   7.839  1.5640  1.0578  0.2072
 3348SOL     OW21505   0.620   0.380  11.525 -0.1573 -0.6635 -0.3049
 3348SOL    HW121506   0.648   0.468  11.548 -1.6052  0.0019 -1.0623
 3348SOL    HW221507   0.540   0.372  11.578 -1.4129  1.4031 -1.8909
 3349SOL     OW21508   4.545   2.645   0.738 -0.7604 -0.3089  0.2561
 3349SOL    HW121509   4.581   2.677   0.821 -0.4433  0.6835 -0.2630
 3349SOL    HW221510   4.621   2.635   0.680 -2.1378 -2.5960 -1.1437
 3350SOL     OW21511   0.691   4.170   4.927 -0.4810 -0.5290 -0.5805
 3350SOL    HW121512   0.730   4.196   5.010 -4.0373 -0.8236  1.1683
 3350SOL    HW221513   0.743   4.219   4.863  1.3018  0.8104  1.9093
 3351SOL     OW21514   1.275   4.497   0.940 -0.2691 -0.4134  0.0754
 3351SOL    HW121515   1.330   4.502   0.862 -0.1971  1.1991  0.2276
 3351SOL    HW221516   1.272   4.401   0.945 -1.1725 -0.3551  0.7035
 3352SOL     OW21517   2.567   0.699   4.136  0.3406  0.2951  0.2175
 3352SOL    HW121518   2.585   0.647   4.214 -2.2339 -0.0922  0.5329
 3352SOL    HW221519   2.643   0.757   4.134  1.9006 -1.7220 -0.1342
 3353SOL     OW21520   1.781   0.385   0.147  0.5720 -0.1438  0.0092
 3353SOL    HW121521   1.758   0.431   0.228  2.7771 -2.3704  1.8799
 3353SOL    HW221522   1.766   0.458   0.086  1.6671 -1.6852 -2.1206
 3354SOL     OW21523   4.361   3.028   0.840  0.4182  0.4754 -0.2312
 3354SOL    HW121524   4.361   3.106   0.895 -1.3909  1.2874 -1.3649
 3354SOL    HW221525   4.266   3.016   0.840  0.6823 -1.6087 -0.8607
 3355SOL     OW21526   3.204   2.682   0.084 -0.2140  0.1749 -0.8502
 3355SOL    HW121527   3.133   2.655   0.143  0.8960 -2.5205 -0.7616
 3355SOL    HW221528   3.270   2.619   0.111 -0.9015  0.0387  0.5121
 3356SOL     OW21529   1.558   0.687   4.014  0.2581  0.4283 -0.9558
 3356SOL    HW121530   1.522   0.599   4.012  1.1011  0.1035 -1.8281
 3356SOL    HW221531   1.616   0.681   3.938 -0.9112 -0.2201 -1.7845
 3357SOL     OW21532   4.493   0.832  14.291  0.0928  0.1274  0.3647
 3357SOL    HW121533   4.570   0.807  14.342  1.3546 -0.8393 -1.9955
 3357SOL    HW221534   4.499   0.752  14.239 -0.6134 -0.0434  0.5595
 3358SOL     OW21535   3.572   0.128   9.639  0.4687 -0.1108  0.5463
 3358SOL    HW121536   3.510   0.186   9.596 -0.1183 -2.3241 -1.5315
 3358SOL    HW221537   3.517   0.050   9.635 -0.6066  0.5588  2.3715
 3359SOL     OW21538   0.921   0.463  16.431 -0.1235  0.7212 -0.3016
 3359SOL    HW121539   0.894   0.456  16.522  0.3894  3.6580  0.0594
 3359SOL    HW221540   0.867   0.537  16.404 -2.0082 -0.2008  0.9802
 3360SOL     OW21541   2.689   2.539   2.073  0.1045  0.1320  0.3936
 3360SOL    HW121542   2.655   2.527   1.985 -2.4041 -0.0195  1.3726
 3360SOL    HW221543   2.673   2.633   2.080 -1.2091  0.0016 -0.8505
 3361SOL     OW21544   3.354   2.757   9.306  0.6403 -0.5209 -0.1277
 3361SOL    HW121545   3.387   2.767   9.395  1.3923  2.0221 -0.6827
 3361SOL    HW221546   3.333   2.846   9.278 -0.5747 -0.6150  0.4750
 3362SOL     OW21547   4.308   1.024  14.287  0.4443 -0.0175 -0.5190
 3362SOL    HW121548   4.264   1.014  14.203 -0.2916 -1.4341  0.0418
 3362SOL    HW221549   4.370   0.951  14.288  0.9563  0.4937  3.4966
 3363SOL     OW21550   3.409   3.525  11.150 -0.2168 -0.1690  0.1358
 3363SOL    HW121551   3.475   3.489  11.210  1.1272  0.4635 -0.9702
 3363SOL    HW221552   3.460   3.589  11.101 -0.9720  1.0833  0.9949
 3364SOL     OW21553   1.291   1.329   4.499 -0.2617  0.6261 -0.0164
 3364SOL    HW121554   1.296   1.414   4.544  1.2318 -0.9411  2.7989
 3364SOL    HW221555   1.226   1.334   4.429  0.0911  0.2255 -0.3675
 3365SOL     OW21556   2.438   3.825   0.036  0.0796  0.1969  0.3773
 3365SOL    HW121557   2.440   3.903  17.679 -0.7495 -0.1857 -0.1859
 3365SOL    HW221558   2.503   3.859   0.098  0.7494 -2.4790  1.1613
 3366SOL     OW21559   4.023   0.630  15.168  0.0393 -0.0646 -0.0889
 3366SOL    HW121560   4.023   0.579  15.087  2.2279 -1.3404  0.6945
 3366SOL    HW221561   4.057   0.564  15.228  2.5983  1.0762 -0.2722
 3367SOL     OW21562   0.979   3.995  14.030  0.3704  0.4206  0.0281
 3367SOL    HW121563   1.009   3.962  14.115 -2.6785  0.9866  1.3215
 3367SOL    HW221564   0.905   3.936  14.016 -1.1497  1.8742  1.9192
 3368SOL     OW21565   0.084   0.727  13.277 -0.4540  0.0941 -0.1013
 3368SOL    HW121566   0.136   0.738  13.356 -0.0815  0.0594 -0.3377
 3368SOL    HW221567   0.131   0.786  13.218 -1.9231  1.6823  0.3558
 3369SOL     OW21568   0.555   3.067  15.889  0.5940 -0.3482  0.1542
 3369SOL    HW121569   0.472   3.039  15.849 -0.1320 -0.6476  1.8672
 3369SOL    HW221570   0.617   3.042  15.821  0.9471  2.1329 -0.4287
 3370SOL     OW21571   1.768   4.409  16.611  1.1029 -0.5037 -0.0228
 3370SOL    HW121572   1.831   4.351  16.568  2.5455  0.7560  0.3720
 3370SOL    HW221573   1.822   4.461  16.670  1.1361 -0.2899 -0.2399
 3371SOL     OW21574   1.762   1.624   7.501 -0.1426 -0.4045  0.3107
 3371SOL    HW121575   1.758   1.563   7.575  0.3917 -1.1785 -0.2938
 3371SOL    HW221576   1.814   1.567   7.444  1.0100  2.0816 -1.1178
 3372SOL     OW21577   4.582   3.883   3.661  0.2028 -0.0759 -0.0618
 3372SOL    HW121578   4.559   3.841   3.578  0.3015  1.1767 -0.7293
 3372SOL    HW221579   4.581   3.810   3.723  0.5603 -0.9324 -1.0675
 3373SOL     OW21580   3.842   3.400  13.377  0.1417 -0.3815 -0.1143
 3373SOL    HW121581   3.838   3.307  13.352 -0.6835 -0.6066  0.8694
 3373SOL    HW221582   3.767   3.430  13.327  1.5603  0.9821 -1.4211
 3374SOL     OW21583   4.085   3.394   8.289 -0.4131 -0.1656 -0.1914
 3374SOL    HW121584   3.995   3.363   8.277 -0.7934  1.0223 -0.4753
 3374SOL    HW221585   4.115   3.396   8.198  2.9409 -0.4271  0.9432
 3375SOL     OW21586   1.044   1.631   9.167  0.3025 -0.3455  0.0263
 3375SOL    HW121587   1.133   1.596   9.170  1.1192  1.9784  3.8209
 3375SOL    HW221588   1.037   1.678   9.084 -0.0541 -3.4129 -1.6462
 3376SOL     OW21589   1.785   3.956   9.590  0.6378 -0.0287 -0.3785
 3376SOL    HW121590   1.788   3.994   9.677  2.4025  1.9024 -1.2629
 3376SOL    HW221591   1.700   3.914   9.595 -1.1610  3.6190 -0.0146
 3377SOL     OW21592   3.188   4.680   3.490  0.2675  0.2068 -0.2967
 3377SOL    HW121593   3.096   4.655   3.481 -0.5274  3.0219 -0.0954
 3377SOL    HW221594   3.216   4.642   3.406 -2.0888 -2.3322  0.0742
 3378SOL     OW21595   1.532   2.062   8.856 -0.1198 -0.5874 -0.6965
 3378SOL    HW121596   1.555   2.138   8.802  2.7075 -0.7186  0.3355
 3378SOL    HW221597   1.532   1.998   8.785  0.6571 -1.7804  0.3907
 3379SOL     OW21598   3.067   3.793   7.413  0.7701 -0.3662  0.0064
 3379SOL    HW121599   3.039   3.710   7.452  0.7368  0.0868  0.9349
 3379SOL    HW221600   3.157   3.780   7.442  0.7331 -1.7323 -0.4613
 3380SOL     OW21601   3.627   3.797   4.690 -0.0145 -0.1159 -0.4532
 3380SOL    HW121602   3.611   3.810   4.784 -0.1686  1.7565 -0.7304
 3380SOL    HW221603   3.706   3.850   4.676  0.6913 -0.8404  0.7792
 3381SOL     OW21604   3.555   1.895  10.999 -0.1594 -0.4215  0.1438
 3381SOL    HW121605   3.608   1.934  11.068 -1.2510 -0.7677  1.1783
 3381SOL    HW221606   3.576   1.955  10.927 -0.4825 -2.0601 -1.3168
 3382SOL     OW21607   2.392   1.521  10.452  0.1815  0.3822 -0.8201
 3382SOL    HW121608   2.414   1.599  10.401  0.1083  0.6543 -0.4349
 3382SOL    HW221609   2.327   1.561  10.510  0.3768 -0.6694  0.1176
 3383SOL     OW21610   1.231   2.264   4.289 -0.0683  0.1063  0.1598
 3383SOL    HW121611   1.315   2.221   4.300  1.5424  3.1282 -0.1858
 3383SOL    HW221612   1.218   2.281   4.382 -0.0710 -0.1085  0.1978
 3384SOL     OW21613   2.279   1.915   4.731  0.2571 -0.3329 -0.1520
 3384SOL    HW121614   2.297   1.868   4.812 -1.6704 -0.0531  0.4324
 3384SOL    HW221615   2.273   2.003   4.769  0.6456  0.4642 -1.9141
 3385SOL     OW21616   1.307   3.731  12.811  0.1996  0.1001  0.3349
 3385SOL    HW121617   1.252   3.693  12.880 -1.1348  1.2968 -0.0601
 3385SOL    HW221618   1.245   3.743  12.739 -2.1202  0.9130  2.4142
 3386SOL     OW21619   3.324   1.760  10.161 -0.0354 -0.2495  0.6520
 3386SOL    HW121620   3.327   1.790  10.252 -2.9820 -1.2077  1.0526
 3386SOL    HW221621   3.379   1.828  10.121  1.3098 -1.5242  0.3595
 3387SOL     OW21622   2.012   0.088  10.364  0.0140  0.1985  0.2655
 3387SOL    HW121623   1.947   0.024  10.391 -0.7005  1.0970  0.6841
 3387SOL    HW221624   2.092   0.038  10.380 -1.6631 -1.6658  2.7169
 3388SOL     OW21625   1.898   1.128   7.284 -0.0311 -0.4096  0.5094
 3388SOL    HW121626   1.850   1.207   7.312  0.5527  0.3089 -0.5490
 3388SOL    HW221627   1.947   1.160   7.209 -2.6345  3.6170  0.5018
 3389SOL     OW21628   3.801   1.766  14.345  0.1572 -0.1058  0.2344
 3389SOL    HW121629   3.710   1.762  14.319  0.2722 -0.6856 -0.0631
 3389SOL    HW221630   3.838   1.779  14.258  0.3311  0.3525  0.3731
 3390SOL     OW21631   2.013   2.810   7.088  0.7114 -0.2136 -0.0887
 3390SOL    HW121632   2.086   2.838   7.034  0.7464 -0.3415 -0.1073
 3390SOL    HW221633   2.038   2.849   7.172 -2.0765 -0.0382  0.6624
 3391SOL     OW21634   4.438   1.065   6.444 -0.0053  0.0090 -0.2274
 3391SOL    HW121635   4.394   1.048   6.361 -2.5062  2.4817  0.6075
 3391SOL    HW221636   4.522   1.107   6.427 -0.1369  0.5560  0.4898
 3392SOL     OW21637   3.826   1.278   4.097 -0.1976  0.2194 -0.3159
 3392SOL    HW121638   3.805   1.315   4.183  2.9003  0.7586  0.2281
 3392SOL    HW221639   3.917   1.250   4.111 -0.6947 -1.3013 -0.1154
 3393SOL     OW21640   3.880   0.779   0.737 -0.7775  0.0695 -0.8520
 3393SOL    HW121641   3.889   0.689   0.768  0.4708  0.3760 -0.2984
 3393SOL    HW221642   3.952   0.788   0.674 -0.5702 -0.7194 -0.7270
 3394SOL     OW21643   1.370   3.439   6.121  0.0774 -0.1474  0.2520
 3394SOL    HW121644   1.314   3.458   6.196 -1.1797 -1.5599 -0.3087
 3394SOL    HW221645   1.452   3.468   6.159 -0.5610  2.1608 -0.1498
 3395SOL     OW21646   2.420   0.327   7.920 -0.3068 -0.1348 -0.1143
 3395SOL    HW121647   2.386   0.268   7.987  1.9597  0.0100  1.1342
 3395SOL    HW221648   2.340   0.347   7.870 -0.5410 -0.3437  0.1775
 3396SOL     OW21649   2.194   3.679   9.438  0.2779 -0.0972  0.1685
 3396SOL    HW121650   2.247   3.606   9.471 -0.7139 -1.6519 -1.6869
 3396SOL    HW221651   2.126   3.700   9.502  1.7129  0.5251  1.4937
 3397SOL     OW21652   2.543   1.550   7.953 -0.5644  0.3529 -0.5782
 3397SOL    HW121653   2.536   1.644   7.968  0.7476  0.5124 -1.0000
 3397SOL    HW221654   2.535   1.522   8.044 -1.3227 -0.1596 -0.8052
 3398SOL     OW21655   3.805   0.909   8.185 -0.2242  0.6991  0.0060
 3398SOL    HW121656   3.890   0.865   8.176 -0.6790 -0.6022  1.9762
 3398SOL    HW221657   3.815   0.961   8.264 -1.5015  2.2168 -0.8257
 3399SOL     OW21658   1.894   0.728   9.303  0.4396  0.0923  0.5307
 3399SOL    HW121659   1.975   0.710   9.255 -0.6469  0.2330 -1.3454
 3399SOL    HW221660   1.928   0.788   9.369  0.4413 -0.8642  1.4156
 3400SOL     OW21661   3.627   1.322   2.087 -0.3347 -0.3343  0.0276
 3400SOL    HW121662   3.574   1.394   2.053 -0.3721  0.2132  1.2664
 3400SOL    HW221663   3.712   1.338   2.045  0.3823 -0.7214  1.3366
 3401SOL     OW21664   3.985   3.760   8.581 -0.1135 -0.1395 -0.9097
 3401SOL    HW121665   4.047   3.688   8.572  1.2657  0.8922  0.2190
 3401SOL    HW221666   4.041   3.825   8.625 -0.1511 -0.2816 -0.6507
 3402SOL     OW21667   1.280   0.575   6.731 -0.9299 -0.6538 -0.4846
 3402SOL    HW121668   1.239   0.661   6.738  0.9237  0.2216 -0.1878
 3402SOL    HW221669   1.286   0.544   6.641  1.5585  0.5125 -0.7378
 3403SOL     OW21670   1.008   2.224   7.141  0.1435  0.4258 -0.4661
 3403SOL    HW121671   1.048   2.138   7.132  0.7502  0.8051 -1.3998
 3403SOL    HW221672   1.057   2.260   7.216  0.2724 -0.2281 -0.2416
 3404SOL     OW21673   2.307   3.287   6.431  0.5646 -0.3866 -0.3462
 3404SOL    HW121674   2.339   3.377   6.436 -1.5773  0.3126  0.7451
 3404SOL    HW221675   2.271   3.280   6.343  3.4771  0.2515 -1.6022
 3405SOL     OW21676   2.974   0.660  17.631  0.2070  0.2009  0.2052
 3405SOL    HW121677   3.007   0.709   0.008 -2.6296 -0.2242  1.7086
 3405SOL    HW221678   2.996   0.717  17.557  0.1398 -1.1754 -0.8869
 3406SOL     OW21679   2.489   1.715  14.982 -0.0869  0.5984 -0.8314
 3406SOL    HW121680   2.418   1.760  15.027  1.7344  3.1766 -0.5611
 3406SOL    HW221681   2.462   1.742  14.894  0.2688 -0.0299 -1.1333
 3407SOL     OW21682   2.072   0.621  10.403  0.4190 -0.0616  0.2414
 3407SOL    HW121683   2.165   0.616  10.379  0.6406 -2.9525  1.7051
 3407SOL    HW221684   2.056   0.539  10.449 -0.9287  0.1207  0.1030
 3408SOL     OW21685   4.209   1.268  15.161  0.5364 -0.6859  0.4460
 3408SOL    HW121686   4.249   1.182  15.146  1.7641 -0.0068 -0.1545
 3408SOL    HW221687   4.268   1.320  15.106 -1.4345  0.6435 -0.4176
 3409SOL     OW21688   2.118   0.036   9.490  0.1938 -0.2218  0.4836
 3409SOL    HW121689   2.155   4.673   9.496 -1.5714 -1.1196 -1.5905
 3409SOL    HW221690   2.034   0.029   9.535  0.3946 -1.0629  0.7191
 3410SOL     OW21691   1.748   0.494   0.963 -0.2002 -0.2136  0.0263
 3410SOL    HW121692   1.660   0.531   0.974 -0.6475 -0.6058 -2.3399
 3410SOL    HW221693   1.722   0.405   0.938  1.7014 -1.0544  1.0680
 3411SOL     OW21694   1.933   0.937   0.347  0.1227 -0.9511  0.6017
 3411SOL    HW121695   1.956   0.849   0.376  0.7991 -0.8850  0.2722
 3411SOL    HW221696   1.921   0.975   0.434  0.6499  1.5824 -0.4243
 3412SOL     OW21697   2.969   1.950   9.006 -0.5646 -0.2708  0.7305
 3412SOL    HW121698   2.966   1.993   8.921 -1.4608 -0.7465  0.5200
 3412SOL    HW221699   3.060   1.959   9.033 -0.7719  1.7276  0.7721
 3413SOL     OW21700   3.676   0.509   8.573 -0.1799 -0.5873 -0.0043
 3413SOL    HW121701   3.603   0.535   8.629 -0.2006  1.7890 -1.1524
 3413SOL    HW221702   3.637   0.444   8.515 -0.3297  0.4440 -1.0746
 3414SOL     OW21703   3.202   3.295   1.617  0.2943 -0.6030  0.2873
 3414SOL    HW121704   3.135   3.246   1.666 -0.7459  1.7896  1.2681
 3414SOL    HW221705   3.283   3.263   1.657  2.6633  1.8498 -2.6157
 3415SOL     OW21706   3.727   1.984   6.057 -0.5320 -0.1593 -0.0528
 3415SOL    HW121707   3.752   1.892   6.056  0.1939  0.0389 -1.1704
 3415SOL    HW221708   3.706   2.001   6.149 -0.6558  0.4347 -0.1903
 3416SOL     OW21709   3.356   1.220  16.631 -0.1527  0.0980  0.5211
 3416SOL    HW121710   3.354   1.180  16.718  1.4242  0.1255  0.5644
 3416SOL    HW221711   3.266   1.251  16.617 -0.3602 -1.4406 -1.4530
 3417SOL     OW21712   2.967   0.216   3.104  0.6997  0.6182  0.6515
 3417SOL    HW121713   3.029   0.145   3.090 -0.1746  0.3563 -1.9197
 3417SOL    HW221714   2.885   0.167   3.097  0.2143  1.4189  0.7377
 3418SOL     OW21715   2.620   2.801   2.110  0.2958  0.1967 -0.0099
 3418SOL    HW121716   2.667   2.840   2.036 -0.9149  0.2083 -0.7828
 3418SOL    HW221717   2.537   2.849   2.115 -0.0169 -0.0438 -2.9227
 3419SOL     OW21718   4.344   0.098   3.008  0.2449 -0.1821 -0.9635
 3419SOL    HW121719   4.422   0.094   2.953  0.8071  1.4053 -0.2796
 3419SOL    HW221720   4.283   0.062   2.944 -0.8941  2.3797 -1.3179
 3420SOL     OW21721   0.388   0.926  10.920 -0.3535 -0.2724  0.2962
 3420SOL    HW121722   0.333   0.853  10.946  1.2790 -1.3005  0.8515
 3420SOL    HW221723   0.332   1.003  10.915 -1.3165 -1.1517 -2.4658
 3421SOL     OW21724   1.948   3.102  15.180  0.0897  0.0236  0.1521
 3421SOL    HW121725   1.946   3.192  15.147 -1.0558 -0.0163  0.1148
 3421SOL    HW221726   1.905   3.061  15.106 -3.3788  0.0108  2.2074
 3422SOL     OW21727   0.279   3.857   1.795  0.3387 -0.2834 -0.4485
 3422SOL    HW121728   0.279   3.902   1.711 -1.3736  1.8752  0.7230
 3422SOL    HW221729   0.366   3.881   1.826  0.9417 -1.0631 -1.4876
 3423SOL     OW21730   4.124   4.635  10.675  0.0166 -0.4867 -0.0754
 3423SOL    HW121731   4.166   4.549  10.666  1.4156  0.4633 -2.6208
 3423SOL    HW221732   4.186   4.665  10.741 -0.9668  1.4569 -0.0562
 3424SOL     OW21733   1.504   0.027  10.134 -0.4033 -0.0671  0.1754
 3424SOL    HW121734   1.535   4.695  10.205  2.5301 -0.8724 -1.7946
 3424SOL    HW221735   1.450   0.091  10.182  0.1571  0.2666  0.3629
 3425SOL     OW21736   4.371   3.237   0.210 -0.5422  0.4443 -0.4937
 3425SOL    HW121737   4.322   3.236   0.129 -0.1160 -0.5135 -0.7408
 3425SOL    HW221738   4.456   3.269   0.178  0.4198 -2.5549 -0.9354
 3426SOL     OW21739   0.955   3.755   4.741  0.6579 -0.4682 -0.3410
 3426SOL    HW121740   0.940   3.727   4.651 -0.4577 -0.2434 -0.2130
 3426SOL    HW221741   0.904   3.835   4.729 -1.0629 -1.2157  2.1567
 3427SOL     OW21742   3.895   0.034   9.943  0.4509 -0.5100 -0.3922
 3427SOL    HW121743   3.819   0.078   9.904  0.3175 -1.2762 -0.9951
 3427SOL    HW221744   3.930   0.106   9.995 -1.6360  0.3445 -0.1639
 3428SOL     OW21745   2.699   3.564   4.418 -0.5296 -0.0032 -0.1219
 3428SOL    HW121746   2.756   3.488   4.433  1.5368  1.2767 -1.6262
 3428SOL    HW221747   2.760   3.634   4.396  1.7700 -2.1392 -0.5884
 3429SOL     OW21748   4.561   3.476   2.993  0.0111 -0.0972  0.2966
 3429SOL    HW121749   4.582   3.449   2.904  0.2040 -1.3826  0.7252
 3429SOL    HW221750   4.648   3.496   3.027  0.1514 -2.4795  1.3460
 3430SOL     OW21751   3.122   3.796   4.725  0.8030 -0.1381 -0.1532
 3430SOL    HW121752   3.084   3.883   4.738  0.5034 -0.3560  0.4193
 3430SOL    HW221753   3.094   3.760   4.809 -1.3749  1.2104 -0.2850
 3431SOL     OW21754   0.278   4.641   4.953 -0.2826 -0.1365 -0.0908
 3431SOL    HW121755   0.303   0.008   4.971  0.8225  0.7066 -5.8421
 3431SOL    HW221756   0.336   4.618   4.880  0.7007 -2.6705  1.4981
 3432SOL     OW21757   4.417   3.305   2.522 -0.1609 -0.2410 -0.1697
 3432SOL    HW121758   4.384   3.385   2.563  0.3594  0.5691 -1.3461
 3432SOL    HW221759   4.496   3.332   2.476 -0.3989  2.0618  0.7260
 3433SOL     OW21760   0.618   1.664  13.642  0.2250  0.4288 -0.0010
 3433SOL    HW121761   0.552   1.675  13.574 -1.8419 -2.6659  1.4924
 3433SOL    HW221762   0.689   1.712  13.599 -0.4023 -0.5797 -2.1989
 3434SOL     OW21763   2.468   3.855  15.354  0.6078 -0.4714 -0.2942
 3434SOL    HW121764   2.422   3.792  15.297 -0.0472 -0.3916  0.1523
 3434SOL    HW221765   2.406   3.926  15.341  1.7534  0.4094 -0.9272
 3435SOL     OW21766   4.393   4.479  16.844 -0.6692  0.9832  0.2259
 3435SOL    HW121767   4.315   4.532  16.827 -1.9673 -0.7684  0.6692
 3435SOL    HW221768   4.449   4.550  16.875  1.2778  0.6974 -2.6035
 3436SOL     OW21769   1.559   1.337   7.301  0.7807 -0.2772 -0.3192
 3436SOL    HW121770   1.475   1.383   7.308  0.6699 -0.3025 -1.5539
 3436SOL    HW221771   1.617   1.397   7.255  0.4810  0.5307  0.3545
 3437SOL     OW21772   2.375   1.898   8.202  0.4547 -0.3127 -0.3644
 3437SOL    HW121773   2.451   1.899   8.145 -0.0180 -1.9723 -1.0058
 3437SOL    HW221774   2.355   1.806   8.216 -2.0552  0.1717 -0.7417
 3438SOL     OW21775   0.919   2.129   6.568  0.4585  0.1115 -0.1653
 3438SOL    HW121776   0.963   2.108   6.651 -1.6313 -0.6695  0.7581
 3438SOL    HW221777   0.990   2.149   6.507 -0.8920  1.4851 -1.2756
 3439SOL     OW21778   4.069   0.269   0.002 -0.9456 -0.1662 -0.0103
 3439SOL    HW121779   3.977   0.251  17.679 -0.5814  0.4731 -2.1235
 3439SOL    HW221780   4.112   0.230  17.624 -0.2299  1.9538 -0.6984
 3440SOL     OW21781   2.598   0.590   3.721  0.2229 -0.2715 -0.1116
 3440SOL    HW121782   2.600   0.657   3.789  1.0461 -1.0697  0.6379
 3440SOL    HW221783   2.679   0.541   3.737  1.6918  2.3713  0.5081
 3441SOL     OW21784   4.643   4.560   4.812 -0.3223  0.2142 -0.0235
 3441SOL    HW121785   4.654   4.642   4.764  2.0523 -0.7962 -1.2004
 3441SOL    HW221786   4.720   4.505   4.798 -1.4697 -1.8088  1.6855
 3442SOL     OW21787   0.563   0.864   8.014 -0.1973  0.2815 -0.5353
 3442SOL    HW121788   0.552   0.891   7.923  1.5564  1.3761 -0.4221
 3442SOL    HW221789   0.559   0.943   8.069  0.6617 -1.3463  1.8667
 3443SOL     OW21790   1.554   1.937   5.958  0.2654  0.5002 -0.1249
 3443SOL    HW121791   1.638   1.982   5.954  0.1677  0.6394 -0.6777
 3443SOL    HW221792   1.531   1.917   5.867 -2.8495 -0.4165  0.8517
 3444SOL     OW21793   3.405   1.888   8.314  0.5102 -0.2550  0.6335
 3444SOL    HW121794   3.482   1.915   8.264 -0.6934 -0.9614 -1.6200
 3444SOL    HW221795   3.438   1.808   8.354  1.1092  0.6003  1.8416
 3445SOL     OW21796   1.825   4.284   7.543 -0.1370 -0.1838 -0.3852
 3445SOL    HW121797   1.756   4.239   7.496  0.0796 -3.6954  2.6692
 3445SOL    HW221798   1.815   4.377   7.524  1.2383 -0.1767 -1.0816
 3446SOL     OW21799   1.329   2.356   2.887  0.0479 -0.0460  0.3483
 3446SOL    HW121800   1.406   2.384   2.938  0.1985 -0.6161  0.4368
 3446SOL    HW221801   1.360   2.281   2.836  0.0652  1.6038 -2.0587
 3447SOL     OW21802   4.026   3.772   3.870  0.6277 -0.1989  0.1391
 3447SOL    HW121803   3.933   3.775   3.850  0.7209 -4.4280 -0.9230
 3447SOL    HW221804   4.044   3.864   3.887  3.5435 -0.9284  1.0855
 3448SOL     OW21805   3.893   4.100   6.843 -0.6637  0.3462 -0.6170
 3448SOL    HW121806   3.832   4.159   6.799 -0.2346  1.2604 -0.0099
 3448SOL    HW221807   3.855   4.093   6.931  1.7813  1.3271  0.5403
 3449SOL     OW21808   2.152   1.210   1.123  0.0265 -0.0518 -0.0647
 3449SOL    HW121809   2.193   1.293   1.146 -0.0180 -0.1527  0.3816
 3449SOL    HW221810   2.195   1.190   1.040 -0.2777 -3.7455  0.6612
 3450SOL     OW21811   1.001   3.304   7.433  0.2941 -0.2120  0.2671
 3450SOL    HW121812   1.038   3.338   7.515  0.6337  0.0052  0.0252
 3450SOL    HW221813   0.920   3.355   7.432 -0.7503 -1.8553  1.0712
 3451SOL     OW21814   3.305   2.012   6.083  0.5360 -0.5269 -0.1709
 3451SOL    HW121815   3.242   1.988   6.151  0.2443  1.0649  0.1261
 3451SOL    HW221816   3.331   2.100   6.110  0.6512 -0.5898 -0.0794
 3452SOL     OW21817   3.132   2.320   3.219  0.3309 -0.5218 -0.1697
 3452SOL    HW121818   3.097   2.323   3.308 -1.6964  0.4977 -1.0172
 3452SOL    HW221819   3.159   2.411   3.210  1.3976 -0.7729  0.4344
 3453SOL     OW21820   1.922   1.799  10.767 -0.2200 -0.2327 -0.2706
 3453SOL    HW121821   1.901   1.892  10.769 -0.6428 -0.3105 -0.8328
 3453SOL    HW221822   1.994   1.810  10.704 -0.4469 -0.6379 -0.6077
 3454SOL     OW21823   2.567   3.392   7.917  0.4511 -0.2853  0.2370
 3454SOL    HW121824   2.657   3.426   7.916 -0.1349  1.2852  0.4475
 3454SOL    HW221825   2.556   3.379   8.012 -0.2534 -1.1585  0.0277
 3455SOL     OW21826   2.184   3.448   8.502  0.1721 -0.0995 -0.1619
 3455SOL    HW121827   2.207   3.442   8.595  0.3088 -0.8534 -0.2431
 3455SOL    HW221828   2.090   3.427   8.502  0.4486 -1.3290 -1.6106
 3456SOL     OW21829   1.087   2.497   7.751 -0.2522 -0.3802 -0.0847
 3456SOL    HW121830   1.145   2.456   7.688  2.5930  0.4734  1.9962
 3456SOL    HW221831   1.148   2.533   7.815  0.9867 -0.0170 -1.4862
 3457SOL     OW21832   1.714   3.544   1.777 -0.3240  0.2608 -0.1895
 3457SOL    HW121833   1.777   3.563   1.846 -0.6557 -1.1309  0.4901
 3457SOL    HW221834   1.631   3.537   1.823 -0.6070  2.0135 -0.4550
 3458SOL     OW21835   1.174   4.404   2.954  0.5878  0.4687 -0.2192
 3458SOL    HW121836   1.135   4.389   2.868  1.7287  0.3220 -0.7159
 3458SOL    HW221837   1.179   4.499   2.949  1.9258  0.4969  1.6269
 3459SOL     OW21838   1.605   3.369   9.967  0.2649  0.1001 -0.1543
 3459SOL    HW121839   1.594   3.309  10.041  1.1551  1.9897  1.5064
 3459SOL    HW221840   1.560   3.442  10.008 -0.9930 -0.9456  0.3084
 3460SOL     OW21841   2.655   4.440   2.627 -0.5198 -0.2488 -0.0849
 3460SOL    HW121842   2.618   4.515   2.581 -0.4133 -0.7703 -1.0063
 3460SOL    HW221843   2.722   4.482   2.681  1.1341 -1.9976 -0.7538
 3461SOL     OW21844   2.557   0.932   8.069 -0.2912 -0.0109 -0.2911
 3461SOL    HW121845   2.549   0.940   8.164  0.3650 -1.2143 -0.1264
 3461SOL    HW221846   2.489   0.867   8.053  0.0838 -0.6949  0.8611
 3462SOL     OW21847   3.416   3.197   7.921  0.3263 -0.6396 -0.3640
 3462SOL    HW121848   3.364   3.182   7.842 -2.2152  4.2699  0.3510
 3462SOL    HW221849   3.501   3.205   7.877  0.7554 -0.6240  0.4665
 3463SOL     OW21850   1.453   2.480  12.656  0.0349 -0.4110 -0.1070
 3463SOL    HW121851   1.374   2.464  12.708 -1.1215  0.4574 -1.5645
 3463SOL    HW221852   1.432   2.477  12.562  1.9990 -0.6023 -0.5363
 3464SOL     OW21853   3.237   3.042   1.519 -0.0438  0.2220  0.2151
 3464SOL    HW121854   3.146   3.013   1.514 -0.3473  1.0006  1.4199
 3464SOL    HW221855   3.237   3.134   1.491  0.4682  1.4229  4.2176
 3465SOL     OW21856   2.568   3.461  17.656 -0.2227  0.4596  0.1363
 3465SOL    HW121857   2.644   3.458   0.016  1.9930  0.7546 -2.7444
 3465SOL    HW221858   2.520   3.387  17.694 -1.0052  1.1411  0.4699
 3466SOL     OW21859   0.926   1.012   3.606 -0.2004  0.0754  0.3498
 3466SOL    HW121860   0.837   1.049   3.605 -0.7778 -1.3168  1.3658
 3466SOL    HW221861   0.945   0.981   3.694 -0.5429  0.1731  0.4586
 3467SOL     OW21862   1.954   4.512   4.701  0.1335  0.4728  0.2996
 3467SOL    HW121863   1.885   4.564   4.659  0.9851  1.0879 -0.3408
 3467SOL    HW221864   2.038   4.539   4.664  0.2910  0.1958  0.4539
 3468SOL     OW21865   1.711   1.660   7.221 -0.2005 -0.1016 -0.1800
 3468SOL    HW121866   1.746   1.650   7.309  1.7611  1.1771 -0.8126
 3468SOL    HW221867   1.750   1.744   7.195 -1.7990  1.1098  1.3491
 3469SOL     OW21868   1.415   2.792   5.146 -0.0350 -0.3474  0.2493
 3469SOL    HW121869   1.375   2.875   5.121  0.3947 -0.7473 -1.7749
 3469SOL    HW221870   1.364   2.748   5.078 -0.5896  1.1071 -0.2701
 3470SOL     OW21871   0.868   3.019   8.699  0.5505 -0.1540  0.2295
 3470SOL    HW121872   0.841   3.090   8.756  1.7072  0.0693  0.4984
 3470SOL    HW221873   0.784   3.010   8.653 -1.3441  1.4278  3.4269
 3471SOL     OW21874   1.858   1.882  15.230  0.0473 -0.0510  0.6494
 3471SOL    HW121875   1.889   1.798  15.197 -4.2591 -1.4413  0.1607
 3471SOL    HW221876   1.796   1.844  15.293  0.5001 -0.5757  0.7791
 3472SOL     OW21877   2.904   2.979   9.134  0.0786 -0.0892  0.1991
 3472SOL    HW121878   2.926   3.062   9.176 -2.2814  1.1432 -1.0297
 3472SOL    HW221879   2.987   2.944   9.101  0.3616  0.5796  0.2080
 3473SOL     OW21880   4.017   0.073   5.898 -0.2486  0.2257  0.3119
 3473SOL    HW121881   4.104   0.034   5.890 -0.1855  0.2565  0.8560
 3473SOL    HW221882   3.982   0.047   5.983 -1.7651 -0.1352 -0.4192
 3474SOL     OW21883   4.090   0.285   9.108 -0.3815  0.0523 -0.2152
 3474SOL    HW121884   4.050   0.262   9.192  1.0759  1.9080  1.0043
 3474SOL    HW221885   4.180   0.293   9.138  0.0722  0.3441 -1.6444
 3475SOL     OW21886   4.538   2.541  13.682 -0.3492 -0.1510 -0.2819
 3475SOL    HW121887   4.478   2.614  13.696 -0.2169 -0.2417  0.7501
 3475SOL    HW221888   4.487   2.486  13.623  0.0620  0.5204 -1.2558
 3476SOL     OW21889   0.414   1.157   0.361 -0.1660  0.5271  0.5261
 3476SOL    HW121890   0.332   1.124   0.398 -0.1376 -1.6263 -1.3960
 3476SOL    HW221891   0.470   1.081   0.378  0.8090  0.7430 -1.8149
 3477SOL     OW21892   1.698   1.894  17.197  0.4507 -0.1128 -0.3199
 3477SOL    HW121893   1.662   1.958  17.258  2.0489  0.8081 -0.3249
 3477SOL    HW221894   1.639   1.906  17.123 -0.5134 -0.9779  0.2994
 3478SOL     OW21895   3.039   0.833   2.215  0.3502  0.1787  0.2122
 3478SOL    HW121896   3.054   0.870   2.302 -0.3210 -1.3996  0.9999
 3478SOL    HW221897   3.064   0.742   2.231 -2.6481 -0.3246  2.1426
 3479SOL     OW21898   4.356   3.875   5.721 -0.3611 -0.1304 -0.1035
 3479SOL    HW121899   4.280   3.899   5.775 -2.8892 -1.3604 -3.1592
 3479SOL    HW221900   4.302   3.854   5.644 -1.6250  0.8978  0.4900
 3480SOL     OW21901   3.034   0.168   7.457  0.5943 -0.2896  0.5007
 3480SOL    HW121902   3.022   0.175   7.362 -1.7230 -0.2366  0.8009
 3480SOL    HW221903   3.015   0.077   7.477 -0.5771 -0.1915 -0.1950
 3481SOL     OW21904   1.186   4.373  16.940 -0.0744  0.0050  0.2805
 3481SOL    HW121905   1.197   4.294  16.993  1.7521  0.3257  0.3772
 3481SOL    HW221906   1.251   4.368  16.870  0.2097 -2.6602  0.7567
 3482SOL     OW21907   4.114   4.538   8.816 -0.0018 -0.1759  0.0797
 3482SOL    HW121908   4.203   4.561   8.792  0.6065 -0.8845  1.6745
 3482SOL    HW221909   4.085   4.624   8.846  1.9603  0.8876 -1.0990
 3483SOL     OW21910   4.597   2.347   0.268  0.2086  0.7838  0.1120
 3483SOL    HW121911   4.616   2.271   0.212 -3.8181 -1.1989  1.4395
 3483SOL    HW221912   4.554   2.400   0.201 -1.8427 -2.5276 -1.2255
 3484SOL     OW21913   0.802   0.952   2.738  0.2492 -0.1094  0.4204
 3484SOL    HW121914   0.796   1.007   2.816  2.5554  0.9989 -0.1596
 3484SOL    HW221915   0.709   0.944   2.720  0.1261  3.3457 -0.4790
 3485SOL     OW21916   1.343   4.345   2.025  0.3297  0.0574 -0.1880
 3485SOL    HW121917   1.389   4.399   1.961 -1.5028  1.8731  0.0366
 3485SOL    HW221918   1.260   4.392   2.036  1.6723  2.5123 -0.3641
 3486SOL     OW21919   0.818   1.585   2.554  0.0421  0.1632 -0.3992
 3486SOL    HW121920   0.890   1.635   2.592 -0.1971 -1.0419  1.6297
 3486SOL    HW221921   0.785   1.653   2.495 -0.1048 -1.1606 -1.8485
 3487SOL     OW21922   2.956   3.848  11.400 -0.2123  0.0817 -0.1890
 3487SOL    HW121923   3.009   3.922  11.430 -0.1510  0.3733 -1.0019
 3487SOL    HW221924   2.986   3.854  11.309  0.8857 -2.7385 -0.0040
 3488SOL     OW21925   2.671   3.977   0.520 -0.0098  0.0246 -0.1304
 3488SOL    HW121926   2.657   4.071   0.526  0.2054  0.0997 -0.8288
 3488SOL    HW221927   2.639   3.957   0.607  0.5850 -3.4944 -0.7038
 3489SOL     OW21928   2.744   2.626   8.313  0.3884 -0.2846 -0.0573
 3489SOL    HW121929   2.730   2.700   8.373 -1.4872 -0.5193 -0.2030
 3489SOL    HW221930   2.803   2.668   8.251  0.8319 -1.1823 -0.2437
 3490SOL     OW21931   0.411   2.302  14.813 -0.3671 -0.2386  0.0170
 3490SOL    HW121932   0.505   2.293  14.801 -0.0569  0.7363  1.8207
 3490SOL    HW221933   0.390   2.233  14.876 -0.2157  0.3843  0.7469
 3491SOL     OW21934   3.221   0.566  11.018  0.6981 -0.6693  0.0361
 3491SOL    HW121935   3.234   0.653  10.980  1.7344 -0.2439  1.3534
 3491SOL    HW221936   3.174   0.603  11.093 -0.5275 -1.9190 -0.1165
 3492SOL     OW21937   3.783   3.513  11.560 -0.2979 -0.2700 -0.4625
 3492SOL    HW121938   3.811   3.468  11.640 -0.7636 -1.0769 -0.7499
 3492SOL    HW221939   3.871   3.531  11.525 -0.2082 -0.4175 -0.3129
 3493SOL     OW21940   1.042   1.699   3.992 -0.0995 -0.3505 -0.3957
 3493SOL    HW121941   1.108   1.718   4.059 -1.0882 -0.5370  0.6337
 3493SOL    HW221942   0.998   1.783   3.978  1.5577  0.0794 -3.0109
 3494SOL     OW21943   2.705   1.833   2.748 -0.1579 -0.6793  0.1144
 3494SOL    HW121944   2.701   1.909   2.806 -3.0994 -0.0205 -0.9249
 3494SOL    HW221945   2.656   1.770   2.801 -0.3137 -2.1053 -1.7408
 3495SOL     OW21946   2.039   1.239   7.053  0.1591 -0.3467  0.3625
 3495SOL    HW121947   2.000   1.205   6.973  0.6448  0.3710 -0.1873
 3495SOL    HW221948   2.015   1.332   7.049 -0.5277 -0.4851  1.3750
 3496SOL     OW21949   0.957   0.059   2.292 -0.5772  0.1664  0.0917
 3496SOL    HW121950   0.956   0.051   2.388 -0.9385 -0.2090  0.0548
 3496SOL    HW221951   1.041   0.029   2.258  0.6014  2.2462  1.1449
 3497SOL     OW21952   3.593   0.652   3.690 -0.3042 -0.3168 -0.6408
 3497SOL    HW121953   3.521   0.651   3.754  0.1468  0.3654 -0.1283
 3497SOL    HW221954   3.559   0.645   3.601  0.2766 -1.1012 -0.8014
 3498SOL     OW21955   2.652   1.404   9.348 -0.0007 -0.4174 -0.1079
 3498SOL    HW121956   2.695   1.489   9.353  3.0950 -1.9012 -1.1488
 3498SOL    HW221957   2.562   1.433   9.334 -0.0225 -0.5517 -0.2533
 3499SOL     OW21958   0.126   2.900   9.165 -0.4749 -0.4151  0.8582
 3499SOL    HW121959   0.160   2.967   9.106 -1.6454 -0.1825  0.4386
 3499SOL    HW221960   0.113   2.948   9.248  0.4821 -0.4366  1.0147
 3500SOL     OW21961   1.895   3.200   0.533 -0.2591  0.0976  0.0573
 3500SOL    HW121962   1.805   3.205   0.500 -0.1843 -1.4912 -0.4155
 3500SOL    HW221963   1.896   3.244   0.617 -2.9710 -1.8260  1.1138
 3501SOL     OW21964   1.222   3.665   4.163  1.0797  0.2958 -0.4280
 3501SOL    HW121965   1.206   3.729   4.093  1.7124 -0.3223 -1.1302
 3501SOL    HW221966   1.316   3.650   4.158  0.9442 -0.7332  0.3221
 3502SOL     OW21967   1.892   2.567   3.517  0.3087 -0.3342  0.2453
 3502SOL    HW121968   1.896   2.639   3.580 -0.8487  0.2225 -0.3309
 3502SOL    HW221969   1.890   2.616   3.435 -2.1794  0.5272  0.8561
 3503SOL     OW21970   2.324   4.234   9.404 -0.0836 -0.3261 -0.1295
 3503SOL    HW121971   2.393   4.298   9.418 -0.9896 -0.0774  3.2393
 3503SOL    HW221972   2.358   4.180   9.332 -0.4682  0.9210 -1.2424
 3504SOL     OW21973   3.880   3.249   4.590 -0.4564 -0.3144 -0.0079
 3504SOL    HW121974   3.823   3.302   4.534 -0.0705  0.3314  0.2128
 3504SOL    HW221975   3.842   3.163   4.568 -0.8955  0.0706 -0.7913
 3505SOL     OW21976   3.672   2.053   7.690 -0.6427 -0.0633  0.0426
 3505SOL    HW121977   3.713   2.139   7.679  2.1405 -1.4156 -0.1173
 3505SOL    HW221978   3.582   2.077   7.710 -0.9067 -1.0202 -0.0106
 3506SOL     OW21979   3.611   1.858   0.991 -0.0083 -0.4587 -0.1691
 3506SOL    HW121980   3.632   1.921   1.060  2.1778  0.1799 -1.4320
 3506SOL    HW221981   3.685   1.855   0.931  1.9298  1.1640  2.1676
 3507SOL     OW21982   4.212   4.719   7.952 -0.4940 -0.2594  0.0070
 3507SOL    HW121983   4.144   4.712   7.885  0.4048 -2.0492 -0.6994
 3507SOL    HW221984   4.264   4.639   7.954 -0.0299  0.0652  0.9819
 3508SOL     OW21985   0.544   2.983   8.932  0.1861 -0.5649  0.0813
 3508SOL    HW121986   0.465   2.983   8.878 -0.3858 -0.7966  0.9082
 3508SOL    HW221987   0.574   3.066   8.894 -1.5812  0.9103  1.8768
 3509SOL     OW21988   4.719   1.781  12.068  0.2136  0.0585 -0.2933
 3509SOL    HW121989   0.068   1.763  12.009 -0.1010 -3.6849  0.4808
 3509SOL    HW221990   0.015   1.872  12.092  0.1706  0.0656 -0.2836
 3510SOL     OW21991   3.743   2.244   2.561 -0.0158  0.6311  0.1227
 3510SOL    HW121992   3.708   2.314   2.505  0.1188 -0.4154 -1.2913
 3510SOL    HW221993   3.675   2.178   2.544  0.0177  0.4128  0.8500
 3511SOL     OW21994   0.813   4.344  12.233 -0.0688  0.0997  0.7228
 3511SOL    HW121995   0.778   4.286  12.164 -0.0806  1.6115 -0.5403
 3511SOL    HW221996   0.753   4.313  12.301  0.4153  2.4107  2.1939
 3512SOL     OW21997   2.525   1.427   7.706 -0.1379 -0.2237  0.4757
 3512SOL    HW121998   2.450   1.470   7.666  0.1359 -1.1081 -0.9553
 3512SOL    HW221999   2.534   1.473   7.790 -2.4213 -1.0772  1.1880
 3513SOL     OW22000   3.338   4.128  14.263  0.1339 -0.3597 -0.5614
 3513SOL    HW122001   3.253   4.162  14.291  0.2983 -0.4315  0.0241
 3513SOL    HW222002   3.360   4.059  14.324 -0.2669  0.7333  0.8179
 3514SOL     OW22003   2.468   3.695   0.904 -0.0047 -0.0346 -0.4381
 3514SOL    HW122004   2.446   3.735   0.988  0.1749  0.7108 -0.7512
 3514SOL    HW222005   2.383   3.691   0.860 -0.2833  0.3151  0.0659
 3515SOL     OW22006   2.999   2.842   0.482  0.1749 -0.6954 -0.1449
 3515SOL    HW122007   2.920   2.851   0.535  0.4079 -1.2530  0.2939
 3515SOL    HW222008   3.053   2.798   0.548  0.5997 -1.0478 -0.7227
 3516SOL     OW22009   4.324   2.292  15.946 -0.0493 -0.1433  0.4651
 3516SOL    HW122010   4.415   2.283  15.976  0.7896  1.4923 -1.5717
 3516SOL    HW222011   4.332   2.352  15.872  0.5820 -0.7504  0.0472
 3517SOL     OW22012   4.554   1.193   0.169  0.2812  0.1526 -0.2884
 3517SOL    HW122013   4.624   1.240   0.215 -0.0945 -0.4025  0.8422
 3517SOL    HW222014   4.476   1.215   0.220 -0.2947  0.6568 -1.3933
 3518SOL     OW22015   4.267   2.029   5.079  0.4785 -0.4155  0.0338
 3518SOL    HW122016   4.172   2.028   5.082  0.4133  1.6863 -1.3783
 3518SOL    HW222017   4.282   1.963   5.146  0.0866 -1.5083 -0.9456
 3519SOL     OW22018   0.855   3.881   8.351 -0.0177 -0.1823 -0.1294
 3519SOL    HW122019   0.888   3.866   8.262 -2.0652  1.1101 -1.0836
 3519SOL    HW222020   0.808   3.800   8.372  2.3880 -1.8252 -0.9949
 3520SOL     OW22021   1.704   1.778  10.534 -0.4932  0.8820  0.2863
 3520SOL    HW122022   1.723   1.857  10.483 -1.4483  0.1813 -1.1477
 3520SOL    HW222023   1.771   1.786  10.601  0.7985 -1.3368 -0.7283
 3521SOL     OW22024   2.794   4.601   0.088  0.0831  0.2464 -0.3023
 3521SOL    HW122025   2.889   4.610   0.098  0.1950 -0.1246 -1.0329
 3521SOL    HW222026   2.786   4.579  17.694 -0.0872 -0.8247 -0.0309
 3522SOL     OW22027   2.106   1.189  15.861  0.0977  0.5321 -0.3286
 3522SOL    HW122028   2.035   1.202  15.798  0.0764 -0.1195 -0.4393
 3522SOL    HW222029   2.184   1.227  15.822  0.0130 -0.0547 -1.0528
 3523SOL     OW22030   1.658   0.419   1.462 -0.0961 -1.0690  0.0018
 3523SOL    HW122031   1.622   0.418   1.551  0.5457  1.4836  0.2931
 3523SOL    HW222032   1.687   0.510   1.457 -3.6325  0.1051  0.7417
 3524SOL     OW22033   4.203   0.466  15.332  0.4037  0.1565 -0.3777
 3524SOL    HW122034   4.264   0.539  15.323  0.3416  0.3231  0.6036
 3524SOL    HW222035   4.173   0.474  15.422 -0.4188  0.1126 -0.6456
 3525SOL     OW22036   1.542   3.920  12.807  0.0147  0.5431  0.6703
 3525SOL    HW122037   1.625   3.875  12.824  0.6643  2.5486  2.7356
 3525SOL    HW222038   1.473   3.860  12.835  0.4882  0.1031  0.9039
 3526SOL     OW22039   2.938   1.311   9.017 -0.2318 -0.1349  0.0922
 3526SOL    HW122040   2.952   1.290   9.109 -0.9615 -2.2251 -0.2735
 3526SOL    HW222041   2.925   1.406   9.026 -0.4422 -0.1368 -0.2176
 3527SOL     OW22042   2.634   3.085   5.505 -0.1677 -0.0120 -0.5524
 3527SOL    HW122043   2.639   3.065   5.411 -3.0517 -1.6764 -0.3463
 3527SOL    HW222044   2.539   3.081   5.521  0.4674  0.0582  3.1834
 3528SOL     OW22045   0.818   4.719   2.593  0.4858 -0.2497 -0.4411
 3528SOL    HW122046   0.803   0.084   2.626 -0.4867 -0.6505  0.2080
 3528SOL    HW222047   0.735   4.699   2.550 -0.5863  0.8287  1.1189
 3529SOL     OW22048   0.689   0.508   7.067  0.2863 -0.6340 -0.3841
 3529SOL    HW122049   0.739   0.440   7.113  1.3698  1.0033  0.8901
 3529SOL    HW222050   0.602   0.469   7.056 -1.0958  2.3789 -0.0675
 3530SOL     OW22051   1.574   3.976   6.357  0.1771 -0.3090  0.1706
 3530SOL    HW122052   1.580   4.065   6.393  1.1695  0.5774 -2.2425
 3530SOL    HW222053   1.533   3.925   6.427  0.6415 -1.1440 -0.1732
 3531SOL     OW22054   4.531   2.563   2.642  0.1682 -0.1172  0.4827
 3531SOL    HW122055   4.510   2.475   2.613  1.3054 -0.9964  2.3234
 3531SOL    HW222056   4.531   2.600   2.553 -0.2014 -1.4625 -0.0805
 3532SOL     OW22057   0.293   2.317   9.347  0.0424 -0.2693 -0.2998
 3532SOL    HW122058   0.338   2.401   9.358  2.4791 -1.9381  2.4451
 3532SOL    HW222059   0.325   2.256   9.413 -0.4072  0.9729  1.0706
 3533SOL     OW22060   0.068   0.112   6.592  0.2498  0.3046 -0.7189
 3533SOL    HW122061   0.132   0.178   6.621  1.2480 -0.7562 -0.4989
 3533SOL    HW222062   0.133   0.061   6.544  0.8792  1.7636 -1.4338
 3534SOL     OW22063   4.597   4.073  15.624 -0.2868  0.3405 -0.6081
 3534SOL    HW122064   4.512   4.088  15.664 -0.3694 -1.7058 -0.0095
 3534SOL    HW222065   4.576   3.992  15.577 -1.1874 -0.9011  1.9607
 3535SOL     OW22066   2.752   4.695   7.696 -0.5293  0.0844 -0.0482
 3535SOL    HW122067   2.739   0.047   7.752 -0.9346 -0.3513  0.4502
 3535SOL    HW222068   2.848   4.698   7.691 -0.5525 -2.1958 -1.6133
 3536SOL     OW22069   2.846   1.379   3.161  0.0850  0.4563  0.2356
 3536SOL    HW122070   2.840   1.394   3.067  1.2083 -0.8680 -0.0499
 3536SOL    HW222071   2.941   1.389   3.172 -0.0285  0.0276  1.7073
 3537SOL     OW22072   1.907   0.135   9.132  0.1071 -0.1008  0.6516
 3537SOL    HW122073   1.916   0.109   9.041  0.5915 -0.5286  0.8205
 3537SOL    HW222074   1.838   0.200   9.118 -1.0038 -1.3527  0.3962
 3538SOL     OW22075   2.174   2.278   6.607 -0.1658  0.0972  0.6059
 3538SOL    HW122076   2.257   2.304   6.567 -0.3104 -0.8206 -0.2930
 3538SOL    HW222077   2.196   2.225   6.684  1.5588 -0.3437 -0.1905
 3539SOL     OW22078   3.495   1.697   0.163  0.2255  0.4401 -0.1070
 3539SOL    HW122079   3.579   1.744   0.165 -0.3870  1.5564 -0.9411
 3539SOL    HW222080   3.504   1.641   0.240  1.5282  0.7151 -0.0499
 3540SOL     OW22081   2.097   4.251   7.067 -0.1513 -0.3286 -0.1398
 3540SOL    HW122082   2.017   4.250   7.121 -1.0459  0.8450 -1.4342
 3540SOL    HW222083   2.122   4.343   7.063 -2.2828  0.2790  0.4410
 3541SOL     OW22084   4.369   4.037   2.195 -0.4431 -0.2340 -0.5506
 3541SOL    HW122085   4.310   4.097   2.150 -1.2189  0.3151  1.2261
 3541SOL    HW222086   4.449   4.089   2.200  0.3928 -1.5946  0.3274
 3542SOL     OW22087   0.284   3.609   1.970  0.1896 -0.2979 -0.0816
 3542SOL    HW122088   0.253   3.663   1.896 -1.0659  0.5479  1.0639
 3542SOL    HW222089   0.376   3.589   1.957  0.0321  0.4043 -2.2978
 3543SOL     OW22090   2.516   1.857   4.050  0.3119 -0.1397  0.0110
 3543SOL    HW122091   2.472   1.791   4.104  2.0408 -0.7889  0.6256
 3543SOL    HW222092   2.512   1.815   3.964  2.4467  0.6313 -0.4570
 3544SOL     OW22093   0.367   0.149   5.032 -0.0585  0.2653  0.0172
 3544SOL    HW122094   0.398   0.222   4.978  0.8740  0.2005  0.4725
 3544SOL    HW222095   0.278   0.175   5.057 -0.8410  0.1211 -2.6028
 3545SOL     OW22096   2.726   3.668   6.292 -1.0176  0.0676  0.5991
 3545SOL    HW122097   2.718   3.689   6.199 -2.6199  0.4681  0.8382
 3545SOL    HW222098   2.784   3.592   6.286 -1.3046 -0.1035  0.0538
 3546SOL     OW22099   3.375   1.037   7.453 -0.3777  0.1522 -0.1228
 3546SOL    HW122100   3.393   0.970   7.519  0.2804 -1.7144 -2.2126
 3546SOL    HW222101   3.344   1.108   7.510  1.6468  0.3669  0.7219
 3547SOL     OW22102   0.510   0.508   4.640  0.1962 -0.1307  0.2579
 3547SOL    HW122103   0.455   0.585   4.625 -0.6894 -0.9021 -0.4432
 3547SOL    HW222104   0.584   0.552   4.682 -0.6376 -0.4739  2.1042
 3548SOL     OW22105   2.293   0.981   5.091  0.0635 -0.3677 -0.3842
 3548SOL    HW122106   2.239   0.984   5.013 -1.6884  0.2520  0.8430
 3548SOL    HW222107   2.351   0.906   5.084  0.9792  0.1856  1.1938
 3549SOL     OW22108   1.637   4.477   6.835 -0.3157  0.5499 -0.0227
 3549SOL    HW122109   1.567   4.514   6.781 -0.4112 -0.0790 -0.3304
 3549SOL    HW222110   1.597   4.416   6.897  0.5775  0.5572  0.5550
 3550SOL     OW22111   1.374   0.453  14.901  0.5877  0.7773  0.4576
 3550SOL    HW122112   1.291   0.414  14.928 -0.3447  1.5087 -1.3651
 3550SOL    HW222113   1.351   0.498  14.819  0.0213 -0.1368  0.1114
 3551SOL     OW22114   2.756   2.662  17.552 -0.0033 -0.4787 -0.0886
 3551SOL    HW122115   2.786   2.623  17.470  0.3602 -1.9941  0.7641
 3551SOL    HW222116   2.762   2.598  17.623 -1.5480  2.0110  2.3136
 3552SOL     OW22117   4.577   2.187   6.899  0.2633  0.0416 -0.4482
 3552SOL    HW122118   4.627   2.171   6.819  2.2567  2.1790  0.3791
 3552SOL    HW222119   4.560   2.096   6.922 -1.2907  0.7434  1.1724
 3553SOL     OW22120   4.339   4.271   4.242 -1.0170  0.3403  0.0687
 3553SOL    HW122121   4.298   4.355   4.219  2.5626  2.5113  1.4473
 3553SOL    HW222122   4.286   4.253   4.319 -0.0972 -4.2009 -0.3883
 3554SOL     OW22123   2.345   1.980   5.987 -0.3833  0.4000 -0.2439
 3554SOL    HW122124   2.285   2.000   5.915  2.3301 -0.1636 -2.6513
 3554SOL    HW222125   2.344   1.884   5.989  1.3594  0.3837 -0.2965
 3555SOL     OW22126   2.983   4.498   3.445 -0.1636  0.1647  0.3228
 3555SOL    HW122127   2.949   4.448   3.371 -1.2387  1.9832 -0.4058
 3555SOL    HW222128   3.051   4.445   3.486 -0.0081  0.0379 -0.1028
 3556SOL     OW22129   2.888   3.981  10.026 -0.6118 -0.0846 -0.0989
 3556SOL    HW122130   2.965   4.001   9.973  0.1952 -1.7216  0.4469
 3556SOL    HW222131   2.925   3.907  10.074  1.2193  0.9283  0.0431
 3557SOL     OW22132   0.106   4.568   3.594 -0.4664 -0.1700 -0.0507
 3557SOL    HW122133   0.021   4.536   3.624 -1.4530 -0.3154 -2.9577
 3557SOL    HW222134   0.163   4.539   3.665 -1.4306 -2.5269 -0.2251
 3558SOL     OW22135   0.499   0.742  10.714 -0.1486 -0.7372  0.1933
 3558SOL    HW122136   0.430   0.782  10.767 -0.7803 -2.7643  0.9071
 3558SOL    HW222137   0.571   0.805  10.725 -0.5940 -0.1569 -0.2429
 3559SOL     OW22138   1.505   0.083   4.538  0.2801 -0.4760  0.9065
 3559SOL    HW122139   1.555   0.107   4.460 -2.7719 -1.8653 -1.4506
 3559SOL    HW222140   1.435   0.048   4.484  0.6982  2.9345 -1.8284
 3560SOL     OW22141   3.108   4.338   5.294 -0.2374 -0.1834 -0.0321
 3560SOL    HW122142   3.025   4.300   5.264  0.0180 -1.5006  0.9005
 3560SOL    HW222143   3.111   4.321   5.388 -0.1781  0.7932  0.1339
 3561SOL     OW22144   2.957   1.327   6.421  0.4730  0.2064  0.0686
 3561SOL    HW122145   3.003   1.243   6.422 -1.5344 -0.8840  0.6842
 3561SOL    HW222146   2.933   1.330   6.329 -1.5723 -0.8053  0.5798
 3562SOL     OW22147   1.959   2.094  11.041  1.0787  0.0211  0.4497
 3562SOL    HW122148   1.969   2.189  11.045 -1.4765  0.4544 -2.5464
 3562SOL    HW222149   1.920   2.071  10.956 -1.8744 -0.1668  1.8362
 3563SOL     OW22150   0.372   1.616   4.737  0.1292  0.1047 -0.3286
 3563SOL    HW122151   0.395   1.708   4.728 -1.1160  0.3769 -0.6237
 3563SOL    HW222152   0.324   1.616   4.819 -1.4111  0.2585 -1.2275
 3564SOL     OW22153   3.569   3.706   7.716 -0.2162  0.3928  0.2218
 3564SOL    HW122154   3.581   3.778   7.778  0.4844  0.2154  0.2932
 3564SOL    HW222155   3.619   3.635   7.758 -0.4357 -0.4885 -1.0130
 3565SOL     OW22156   3.888   4.663   5.669  0.3827  0.0837 -0.2523
 3565SOL    HW122157   3.972   4.617   5.661 -0.8126 -1.7302 -2.1110
 3565SOL    HW222158   3.867   4.622   5.754 -2.6904 -0.8744 -1.5001
 3566SOL     OW22159   4.230   1.418   1.746  0.3797 -0.1413  0.0009
 3566SOL    HW122160   4.204   1.327   1.756 -2.0652  0.6874  1.0265
 3566SOL    HW222161   4.255   1.416   1.653  0.3675  1.7464 -0.0525
 3567SOL     OW22162   0.852   0.367  11.374 -0.1346  0.1178 -0.2404
 3567SOL    HW122163   0.771   0.374  11.424  0.0786 -1.6439  0.3659
 3567SOL    HW222164   0.893   0.292  11.418  0.3668 -1.0463 -2.7307
 3568SOL     OW22165   0.766   1.659   7.707  0.5015  0.6625  0.1578
 3568SOL    HW122166   0.697   1.647   7.773  0.4588  2.6304  0.4773
 3568SOL    HW222167   0.808   1.576   7.731  0.3761  0.6619  0.3778
 3569SOL     OW22168   3.294   0.580   7.552 -0.1718  0.3856 -0.0806
 3569SOL    HW122169   3.337   0.555   7.634 -2.0541 -0.4664  0.6370
 3569SOL    HW222170   3.373   0.596   7.501 -1.0032  3.4870 -0.3681
 3570SOL     OW22171   0.115   3.524   5.964 -0.5566 -0.7433 -0.1712
 3570SOL    HW122172   0.196   3.491   6.003 -1.1831 -1.3544  0.6042
 3570SOL    HW222173   0.120   3.468   5.886  0.2048  0.1232 -0.7525
 3571SOL     OW22174   3.329   2.331   9.656  0.0408  0.1901 -0.4097
 3571SOL    HW122175   3.361   2.417   9.680 -1.0978  0.5015 -0.0296
 3571SOL    HW222176   3.399   2.299   9.597  0.7544  0.0570  0.5065
 3572SOL     OW22177   2.447   3.488   8.445 -0.3205  0.0859  0.0370
 3572SOL    HW122178   2.408   3.545   8.378 -0.8200 -2.1058 -1.5236
 3572SOL    HW222179   2.367   3.452   8.483 -0.8043  1.2634  0.1441
 3573SOL     OW22180   4.539   2.270  15.028 -0.5983  0.4465 -0.0797
 3573SOL    HW122181   4.548   2.206  15.098  1.5919 -1.5356 -2.1617
 3573SOL    HW222182   4.476   2.233  14.967 -0.3146  2.0533 -1.3427
 3574SOL     OW22183   0.215   3.253   5.014  0.9175  0.2818 -0.8715
 3574SOL    HW122184   0.208   3.316   5.085  0.8895  0.7326 -1.2763
 3574SOL    HW222185   0.138   3.279   4.965 -0.7436  0.5234  1.8676
 3575SOL     OW22186   3.634   0.561   7.207 -0.2061 -0.2104  0.4385
 3575SOL    HW122187   3.667   0.631   7.150  0.4128 -0.8140  0.0636
 3575SOL    HW222188   3.636   0.484   7.150  0.9782  0.2864 -0.1878
 3576SOL     OW22189   4.465   0.451   4.344 -0.1096  0.2991 -0.4860
 3576SOL    HW122190   4.405   0.397   4.396  0.4307  1.1778  1.0770
 3576SOL    HW222191   4.478   0.524   4.406  1.1513  0.4340 -0.9071
 3577SOL     OW22192   1.181   1.386   6.626 -0.5067 -0.3530 -0.1964
 3577SOL    HW122193   1.097   1.364   6.666 -1.9904  1.0104 -2.5357
 3577SOL    HW222194   1.158   1.468   6.581 -0.3812  0.5832  1.4539
 3578SOL     OW22195   1.942   3.835   6.386  0.3925  0.3075  0.6389
 3578SOL    HW122196   2.033   3.853   6.362 -0.2909 -0.5511 -2.5800
 3578SOL    HW222197   1.918   3.904   6.447  1.5935 -0.7951  2.3496
 3579SOL     OW22198   1.842   4.333   5.976 -0.5533 -0.0861  0.6933
 3579SOL    HW122199   1.825   4.372   5.890  0.8086 -2.8235 -0.7965
 3579SOL    HW222200   1.891   4.401   6.023  0.4430  0.6243 -1.3909
 3580SOL     OW22201   0.049   2.690   2.088  0.4255  0.3047 -0.2793
 3580SOL    HW122202   0.064   2.648   2.173  1.8973 -0.3286 -0.8598
 3580SOL    HW222203   0.129   2.742   2.077  1.0069 -0.6866 -0.7278
 3581SOL     OW22204   0.984   3.984   3.178  0.3166  0.4401  0.0396
 3581SOL    HW122205   1.003   3.973   3.085  1.2749  1.1355  0.1569
 3581SOL    HW222206   0.975   4.079   3.184  1.2517  0.6255 -1.6458
 3582SOL     OW22207   1.608   1.836   3.238 -0.1417  0.2054 -0.4753
 3582SOL    HW122208   1.592   1.829   3.144 -0.4760 -0.2406 -0.3868
 3582SOL    HW222209   1.681   1.774   3.246 -1.5811 -1.1305  2.3132
 3583SOL     OW22210   0.241   0.154   4.541  0.5050  0.2705 -0.4202
 3583SOL    HW122211   0.223   0.234   4.592  0.2227  0.0234 -0.1353
 3583SOL    HW222212   0.158   0.135   4.498 -0.8455  2.4478  1.2274
 3584SOL     OW22213   4.551   3.877  13.893  0.1505  0.6319 -0.2344
 3584SOL    HW122214   4.582   3.931  13.966 -1.3450  1.1143  0.0612
 3584SOL    HW222215   4.625   3.869  13.833  1.0850  0.1186  1.0079
 3585SOL     OW22216   1.480   2.375   5.462 -0.0570  0.5425 -0.3387
 3585SOL    HW122217   1.548   2.340   5.520 -3.6271 -4.3742  0.8661
 3585SOL    HW222218   1.467   2.304   5.399 -0.8789 -1.7043  2.3285
 3586SOL     OW22219   4.130   0.897   5.303  0.1575 -0.3666 -0.0144
 3586SOL    HW122220   4.060   0.962   5.309  0.1400 -0.2146 -1.7764
 3586SOL    HW222221   4.105   0.868   5.215  0.6705  0.0580 -0.3015
 3587SOL     OW22222   2.438   1.722   5.982  0.0333 -0.3549 -0.5301
 3587SOL    HW122223   2.397   1.678   6.057  0.7696 -0.8971 -0.4381
 3587SOL    HW222224   2.377   1.692   5.915 -2.1923  1.2672  0.8108
 3588SOL     OW22225   4.151   0.807   6.884  0.6688 -0.6395  0.2057
 3588SOL    HW122226   4.217   0.755   6.838  0.2419 -0.5387 -0.5226
 3588SOL    HW222227   4.072   0.760   6.858 -0.0911  0.2123  0.9793
 3589SOL     OW22228   0.950   0.380   3.509 -0.1936  0.3024  0.0761
 3589SOL    HW122229   0.888   0.442   3.470 -0.4515  0.8650  1.3894
 3589SOL    HW222230   1.001   0.446   3.555  3.2937 -2.4888  0.2412
 3590SOL     OW22231   0.178   1.095   4.443  0.1253  0.1651  0.0214
 3590SOL    HW122232   0.248   1.037   4.472  0.5413  0.2113 -0.8937
 3590SOL    HW222233   0.181   1.154   4.519  3.5394  0.5459 -0.3919
 3591SOL     OW22234   1.525   3.959   4.521  0.2889 -0.0779 -0.5473
 3591SOL    HW122235   1.568   3.928   4.601  2.6241  1.7924 -1.0710
 3591SOL    HW222236   1.599   3.992   4.469  0.9404 -0.6606  0.0199
 3592SOL     OW22237   0.366   2.617   7.216 -0.0215 -1.1560 -0.1226
 3592SOL    HW122238   0.372   2.548   7.282 -2.2991 -2.2690 -1.0770
 3592SOL    HW222239   0.365   2.555   7.144  1.0475  0.2311 -1.3259
 3593SOL     OW22240   3.150   0.180  14.741 -0.2763 -0.3616  0.2360
 3593SOL    HW122241   3.057   0.201  14.732  0.0666  1.2747  0.5717
 3593SOL    HW222242   3.130   0.099  14.789 -1.4230 -0.5111 -0.4897
 3594SOL     OW22243   1.392   3.090   2.781  0.0695  0.2276  0.1662
 3594SOL    HW122244   1.402   3.144   2.703  0.1537  1.0814  0.7703
 3594SOL    HW222245   1.310   3.045   2.760  0.8611 -1.0601 -0.1503
 3595SOL     OW22246   1.535   1.387   3.435  0.5754  0.0873 -0.4166
 3595SOL    HW122247   1.619   1.420   3.468 -0.1262 -1.0148  2.4837
 3595SOL    HW222248   1.529   1.437   3.354  2.7186 -1.6723 -1.6763
 3596SOL     OW22249   0.318   3.443   7.349  0.4590  0.1488 -0.0184
 3596SOL    HW122250   0.305   3.363   7.399  0.6894  0.1792  0.0856
 3596SOL    HW222251   0.399   3.422   7.302 -0.0760  0.0544 -0.9113
 3597SOL     OW22252   2.396   1.603   9.535  0.2455 -0.0031 -0.0320
 3597SOL    HW122253   2.395   1.680   9.479 -0.3829  0.1550  0.1915
 3597SOL    HW222254   2.474   1.618   9.587 -1.0332 -2.4994  2.5726
 3598SOL     OW22255   3.307   4.261   7.293 -0.2866  0.4831  0.1618
 3598SOL    HW122256   3.295   4.347   7.334 -1.0136 -0.6618  2.3655
 3598SOL    HW222257   3.281   4.208   7.368 -0.3126 -0.3616 -0.4501
 3599SOL     OW22258   1.532   2.987  14.057  0.2665  0.0169  0.5070
 3599SOL    HW122259   1.456   2.956  14.008  0.1117  0.1720  0.6520
 3599SOL    HW222260   1.507   3.078  14.072  0.4339  0.0126  0.8153
 3600SOL     OW22261   1.826   0.324   1.206 -0.2512 -0.1750  0.9076
 3600SOL    HW122262   1.790   0.398   1.158 -1.2719 -0.0358  1.8853
 3600SOL    HW222263   1.799   0.335   1.297 -1.6016 -1.1538  0.6357
 3601SOL     OW22264   4.218   2.995   0.230  0.1102 -0.3470 -0.6835
 3601SOL    HW122265   4.298   3.005   0.179  1.4966 -1.9602  1.1689
 3601SOL    HW222266   4.235   3.046   0.310  1.9769 -0.9010 -0.7418
 3602SOL     OW22267   0.652   3.851   1.733 -0.5750 -0.3718  0.2189
 3602SOL    HW122268   0.718   3.898   1.683 -1.0064 -0.1467 -0.1380
 3602SOL    HW222269   0.601   3.812   1.663 -1.9983 -0.8615  1.5249
 3603SOL     OW22270   2.315   3.951   3.593  0.7233 -0.2164 -0.0918
 3603SOL    HW122271   2.409   3.966   3.584  0.6822  1.2968  2.1435
 3603SOL    HW222272   2.303   3.859   3.618  0.6749 -0.7464 -2.0711
 3604SOL     OW22273   4.629   0.720   1.931  0.4497  0.0112 -0.7650
 3604SOL    HW122274   4.693   0.658   1.967 -0.4709 -0.9515 -0.7831
 3604SOL    HW222275   4.680   0.782   1.879  0.8124  0.6146  0.2984
 3605SOL     OW22276   2.236   1.490   5.224  0.2668 -0.0375  0.1835
 3605SOL    HW122277   2.290   1.458   5.152  2.6388  1.3637  1.3568
 3605SOL    HW222278   2.227   1.403   5.263  1.4093 -0.8662 -1.3766
 3606SOL     OW22279   0.145   0.168  15.573 -0.1174  0.4425  0.1580
 3606SOL    HW122280   0.075   0.135  15.516  0.0896  1.7966 -0.8872
 3606SOL    HW222281   0.101   0.168  15.658  0.3037  0.6096  0.3751
 3607SOL     OW22282   1.188   0.895   3.139 -0.1041  0.5846 -0.5051
 3607SOL    HW122283   1.254   0.909   3.070  2.1611 -0.3044  1.4941
 3607SOL    HW222284   1.116   0.871   3.081 -0.9627  2.2479 -0.1073
 3608SOL     OW22285   2.502   4.630   5.428 -0.5971 -0.4428 -0.2012
 3608SOL    HW122286   2.492   4.607   5.520  1.5136 -0.6487 -0.0215
 3608SOL    HW222287   2.597   4.615   5.418 -0.0234  2.2085  1.2786
 3609SOL     OW22288   3.461   2.208  17.428  0.5403  0.4405  0.2772
 3609SOL    HW122289   3.370   2.231  17.412  0.8901  2.5520  1.3014
 3609SOL    HW222290   3.466   2.160  17.511  0.6079  0.5558  0.3406
 3610SOL     OW22291   1.345   0.429   3.691 -0.3367 -0.3104 -0.2196
 3610SOL    HW122292   1.407   0.403   3.623 -1.8702 -0.5068 -1.5568
 3610SOL    HW222293   1.275   0.478   3.648 -1.9671 -1.7336  0.7640
 3611SOL     OW22294   1.381   2.201  12.437  1.0204  0.1899 -0.0262
 3611SOL    HW122295   1.382   2.296  12.436 -1.8702  0.2122  0.3068
 3611SOL    HW222296   1.325   2.187  12.361  0.0564  1.2240  0.5022
 3612SOL     OW22297   1.085   3.720   5.981 -0.1183  0.1177  0.1716
 3612SOL    HW122298   1.036   3.711   5.899  0.8246  0.2611 -0.4070
 3612SOL    HW222299   1.150   3.653   5.959  0.9123  0.5645  1.8744
 3613SOL     OW22300   4.522   1.680   2.196 -0.0731 -0.5600 -0.1909
 3613SOL    HW122301   4.604   1.653   2.236 -1.6620 -1.7376  2.3355
 3613SOL    HW222302   4.474   1.597   2.191  1.7260 -1.4884 -1.7713
 3614SOL     OW22303   3.519   3.241  15.182  0.0806 -0.4439 -0.1604
 3614SOL    HW122304   3.573   3.316  15.156  0.3228 -1.7018 -3.3642
 3614SOL    HW222305   3.476   3.232  15.097 -0.0021  1.7449 -0.3378
 3615SOL     OW22306   0.020   1.836  10.857  0.0836 -0.4100 -0.0296
 3615SOL    HW122307   4.661   1.880  10.877 -0.5558 -2.8885  2.7323
 3615SOL    HW222308   0.038   1.802  10.944 -1.0771  1.7776  1.0782
 3616SOL     OW22309   0.597   4.216   1.744 -0.0538 -0.0202  0.0169
 3616SOL    HW122310   0.605   4.175   1.829 -3.0778  0.3026  0.4449
 3616SOL    HW222311   0.664   4.168   1.695 -3.1188 -0.8817 -3.2625
 3617SOL     OW22312   3.281   3.079  17.279 -0.2667  0.1866  0.3349
 3617SOL    HW122313   3.237   3.131  17.346 -1.0865  0.4452 -0.3888
 3617SOL    HW222314   3.360   3.048  17.323 -0.5285  1.0700  1.4246
 3618SOL     OW22315   4.467   0.953   6.151 -0.4477  0.0430  0.3743
 3618SOL    HW122316   4.415   0.876   6.130 -3.1119  2.2964 -1.2947
 3618SOL    HW222317   4.472   0.995   6.065 -1.5035 -1.1939 -0.2793
 3619SOL     OW22318   3.010   4.717   8.532  0.0227  0.8067  0.0470
 3619SOL    HW122319   3.088   0.021   8.579  0.9077  1.7272 -1.9721
 3619SOL    HW222320   3.016   0.044   8.451 -0.0800 -0.5585 -0.8307
 3620SOL     OW22321   2.632   0.873   3.356  0.1263  0.0949 -0.2343
 3620SOL    HW122322   2.595   0.785   3.350  0.2507  0.2026 -2.3610
 3620SOL    HW222323   2.574   0.905   3.425 -0.7682  1.1879 -1.4892
 3621SOL     OW22324   2.057   3.993  13.981 -0.5905  0.1755  0.1639
 3621SOL    HW122325   2.037   4.050  14.056 -2.2425 -2.0117  1.3748
 3621SOL    HW222326   2.143   4.031  13.963 -0.3231  0.0659  1.2312
 3622SOL     OW22327   0.464   3.634   5.950 -0.1902  0.0982 -0.2342
 3622SOL    HW122328   0.536   3.663   5.895 -0.4665 -0.5395 -0.9398
 3622SOL    HW222329   0.392   3.670   5.898  1.5629  1.8116 -1.4110
 3623SOL     OW22330   4.364   4.717   4.158 -0.1494  0.1354  0.9578
 3623SOL    HW122331   4.276   0.029   4.146 -0.0906 -0.4333 -1.0931
 3623SOL    HW222332   4.350   4.630   4.121  2.8599 -0.3249  0.9277
 3624SOL     OW22333   2.842   1.707   3.806  0.1358  0.4388  0.2275
 3624SOL    HW122334   2.937   1.701   3.796  0.0334 -0.7042 -0.0313
 3624SOL    HW222335   2.818   1.730   3.895 -1.7809 -0.8243  0.0304
 3625SOL     OW22336   4.570   0.133   7.051  0.1609 -0.0891  0.3251
 3625SOL    HW122337   4.613   0.070   6.994 -0.8196  0.2920 -0.8345
 3625SOL    HW222338   4.478   0.108   7.038  0.3281  0.0446 -1.1456
 3626SOL     OW22339   3.443   1.710  11.852 -0.2530  0.2463 -0.1110
 3626SOL    HW122340   3.513   1.648  11.827  1.0920  1.7664 -0.1238
 3626SOL    HW222341   3.402   1.720  11.766  1.4408 -0.0858 -0.9773
 3627SOL     OW22342   2.421   2.211   0.813  0.1481 -0.0921  0.3453
 3627SOL    HW122343   2.373   2.269   0.754  0.7996 -0.1025 -0.1949
 3627SOL    HW222344   2.360   2.215   0.886 -1.3086 -1.7386 -0.7809
 3628SOL     OW22345   4.527   3.303  12.640  0.2329  0.0025 -0.6834
 3628SOL    HW122346   4.439   3.320  12.608  0.1380  1.1006  0.1647
 3628SOL    HW222347   4.531   3.364  12.713  1.6635  0.1097 -0.8497
 3629SOL     OW22348   2.332   2.477   7.942  0.0529 -0.1935 -0.4086
 3629SOL    HW122349   2.385   2.467   8.022  0.5193  0.0633 -0.6866
 3629SOL    HW222350   2.369   2.403   7.893  2.0760 -0.1517  1.0456
 3630SOL     OW22351   2.171   0.955  12.344 -0.2555  0.2927 -0.0200
 3630SOL    HW122352   2.170   1.049  12.358  1.0095 -0.1295  2.8935
 3630SOL    HW222353   2.153   0.943  12.250  0.3986  2.5315 -0.4318
 3631SOL     OW22354   0.574   0.335   6.808  0.1979 -0.2607  0.6652
 3631SOL    HW122355   0.668   0.352   6.804  0.0734  0.6340  1.4606
 3631SOL    HW222356   0.576   0.243   6.781  0.1432  0.2986 -1.2939
 3632SOL     OW22357   2.294   2.690  12.974 -0.1884 -0.5052 -0.0232
 3632SOL    HW122358   2.218   2.746  12.962 -0.5729 -0.6671  1.6498
 3632SOL    HW222359   2.325   2.675  12.885 -1.5835 -0.5796 -0.4934
 3633SOL     OW22360   3.542   1.059   2.111 -0.7678 -0.1802 -0.0677
 3633SOL    HW122361   3.563   1.152   2.111  1.5062 -0.6969  0.8272
 3633SOL    HW222362   3.624   1.023   2.077  0.0426  1.5100  0.0976
 3634SOL     OW22363   0.730   3.320   9.161 -0.1086 -0.5012  0.0325
 3634SOL    HW122364   0.802   3.360   9.209 -0.7912  0.1398  0.5349
 3634SOL    HW222365   0.664   3.384   9.190 -1.5970 -1.9609 -0.1119
 3635SOL     OW22366   2.383   4.456  13.223 -0.2217 -0.3675 -0.5720
 3635SOL    HW122367   2.444   4.406  13.168 -1.0449 -2.2802  0.2547
 3635SOL    HW222368   2.317   4.389  13.240  0.4394 -0.6972  0.6881
 3636SOL     OW22369   0.786   2.876   7.402 -0.0577 -0.7133  0.0672
 3636SOL    HW122370   0.850   2.930   7.448 -0.1875 -1.9759  1.7161
 3636SOL    HW222371   0.705   2.926   7.412  0.8602  1.0169 -1.0524
 3637SOL     OW22372   2.319   1.515   7.557  0.3859 -0.2428 -0.0778
 3637SOL    HW122373   2.329   1.505   7.462  0.7754  0.1309 -0.0756
 3637SOL    HW222374   2.318   1.610   7.571 -1.3168 -0.2095 -0.4084
 3638SOL     OW22375   0.377   0.916  11.262 -0.0446  0.2633  0.0939
 3638SOL    HW122376   0.451   0.865  11.230  0.6425  1.3352  0.0176
 3638SOL    HW222377   0.422   0.999  11.276  1.2886 -0.2286 -1.3091
 3639SOL     OW22378   3.909   3.006   0.753  0.4154  0.1627  0.1156
 3639SOL    HW122379   3.967   2.963   0.690  1.0836  1.8254 -0.3922
 3639SOL    HW222380   3.962   3.055   0.816  0.2538  3.3131 -2.1911
 3640SOL     OW22381   1.764   2.589  16.495  0.0912  0.5138 -0.2121
 3640SOL    HW122382   1.690   2.528  16.495 -0.7042  1.4518 -3.0827
 3640SOL    HW222383   1.752   2.609  16.588  0.3016  1.8135 -0.4678
 3641SOL     OW22384   2.117   4.112   3.576  0.0029  0.2394  0.6236
 3641SOL    HW122385   2.175   4.182   3.606 -1.3523  0.8106  1.9193
 3641SOL    HW222386   2.177   4.040   3.556  0.6720  1.2885 -1.2001
 3642SOL     OW22387   2.262   2.938   7.333  0.1802  0.0232  0.6048
 3642SOL    HW122388   2.329   2.943   7.401  1.5794 -0.2948 -0.7511
 3642SOL    HW222389   2.264   3.028   7.301  0.0644  0.6731  2.4298
 3643SOL     OW22390   4.199   0.284  14.114 -0.3024 -0.4419 -0.5515
 3643SOL    HW122391   4.261   0.219  14.083 -0.9413 -1.2468 -0.1573
 3643SOL    HW222392   4.230   0.309  14.201 -1.9866  1.4919 -0.4950
 3644SOL     OW22393   3.340   0.862   6.764 -0.5453 -0.0082 -0.0094
 3644SOL    HW122394   3.353   0.899   6.677 -2.1949  0.3287 -0.1239
 3644SOL    HW222395   3.333   0.943   6.814 -1.8696  2.2860 -3.8633
 3645SOL     OW22396   1.635   1.857   2.489 -0.6149  0.8167 -0.5646
 3645SOL    HW122397   1.592   1.941   2.470 -1.1840  0.8002  0.5863
 3645SOL    HW222398   1.725   1.876   2.514 -0.1289 -0.3125 -1.5111
 3646SOL     OW22399   4.155   0.979   6.277 -0.2471 -0.2405  0.3466
 3646SOL    HW122400   4.075   1.030   6.289  0.9441  2.0659 -1.5188
 3646SOL    HW222401   4.172   0.991   6.184  0.1294  0.8631  0.5609
 3647SOL     OW22402   3.600   2.502   0.718 -0.0072 -0.4132 -0.2319
 3647SOL    HW122403   3.529   2.529   0.660 -0.6681 -0.3016  0.6251
 3647SOL    HW222404   3.614   2.582   0.770 -0.8824 -0.0690 -0.5320
 3648SOL     OW22405   4.322   0.428   7.672  0.9333  0.1089 -0.0908
 3648SOL    HW122406   4.269   0.505   7.654  1.3914  0.3082 -0.5841
 3648SOL    HW222407   4.310   0.410   7.766 -2.7094  4.2760  0.2237
 3649SOL     OW22408   4.578   3.123   3.151 -0.4882  0.1202 -0.1679
 3649SOL    HW122409   4.590   3.218   3.159  4.4420 -0.6654  1.7177
 3649SOL    HW222410   4.490   3.124   3.111 -0.4303  0.2122 -0.2954
 3650SOL     OW22411   3.040   1.725  10.648 -0.5765 -0.5216  0.4490
 3650SOL    HW122412   2.956   1.701  10.609  0.4973  0.6808 -2.5979
 3650SOL    HW222413   3.031   1.819  10.662  2.0393 -0.1382 -0.5936
 3651SOL     OW22414   1.420   1.191   2.251  0.3823  0.4902  0.4661
 3651SOL    HW122415   1.382   1.107   2.278 -0.5832  1.3587  1.7970
 3651SOL    HW222416   1.476   1.167   2.177  0.5874 -0.1857  0.8377
 3652SOL     OW22417   1.723   2.659  16.769 -0.1087 -0.3228 -0.0475
 3652SOL    HW122418   1.815   2.678  16.750  0.3843 -0.2431  2.4575
 3652SOL    HW222419   1.702   2.733  16.825  0.2528  0.2837 -0.7206
 3653SOL     OW22420   1.980   2.543   2.745  0.9721  0.0585 -0.5028
 3653SOL    HW122421   2.002   2.612   2.807  3.0032  0.8026 -2.0362
 3653SOL    HW222422   2.061   2.537   2.693  0.3561  1.7008 -1.6497
 3654SOL     OW22423   3.164   4.724  11.138  0.1006 -0.4046  0.0198
 3654SOL    HW122424   3.135   0.033  11.223 -0.8080  3.6175 -1.8597
 3654SOL    HW222425   3.182   4.633  11.162  0.5765 -0.7403 -1.6166
 3655SOL     OW22426   2.382   4.670   5.179 -0.0695 -0.0566  0.1586
 3655SOL    HW122427   2.418   4.681   5.267  1.3906 -1.0493 -0.3149
 3655SOL    HW222428   2.358   4.578   5.169 -0.9012  0.1050  0.7174
 3656SOL     OW22429   0.595   0.251   2.439 -0.5309  0.2770 -0.6561
 3656SOL    HW122430   0.630   0.230   2.525 -1.7255  0.9351  0.0057
 3656SOL    HW222431   0.619   0.344   2.434  0.4608  0.1366  1.6524
 3657SOL     OW22432   2.855   2.908   6.176 -0.5309  0.5624  0.9050
 3657SOL    HW122433   2.950   2.919   6.166 -0.6581  0.8356  0.0272
 3657SOL    HW222434   2.823   2.998   6.182  0.9546  1.0826  1.0938
 3658SOL     OW22435   1.478   3.403   4.368  0.4595  0.0074  0.2261
 3658SOL    HW122436   1.420   3.442   4.303  0.2024  0.4693  0.7289
 3658SOL    HW222437   1.498   3.318   4.331 -0.6339  0.5801 -1.6792
 3659SOL     OW22438   0.477   3.253   5.809 -0.4599  0.1404  0.3291
 3659SOL    HW122439   0.472   3.257   5.713 -1.8353 -0.9162  0.3600
 3659SOL    HW222440   0.571   3.242   5.822 -0.1167  1.2882 -1.0640
 3660SOL     OW22441   1.581   0.718   9.106 -0.6002  0.3107  0.2289
 3660SOL    HW122442   1.576   0.625   9.130  3.1402 -0.0334 -0.3149
 3660SOL    HW222443   1.644   0.714   9.034 -1.7446  0.0782 -0.7591
 3661SOL     OW22444   2.937   2.070  17.602 -0.0531 -0.1360 -0.3633
 3661SOL    HW122445   2.895   2.111  17.526  0.9229  2.0376  0.2698
 3661SOL    HW222446   2.861   2.017  17.626 -0.4335  0.2942 -0.6148
 3662SOL     OW22447   0.297   1.542   6.730  0.5654 -0.1397 -0.6474
 3662SOL    HW122448   0.272   1.634   6.728  0.0319 -0.2288  1.9725
 3662SOL    HW222449   0.389   1.554   6.755  0.1734 -1.1653  1.2910
 3663SOL     OW22450   2.620   0.230   1.078  0.3060  0.1220 -0.2618
 3663SOL    HW122451   2.539   0.218   1.028 -0.7775  1.0010  1.2952
 3663SOL    HW222452   2.683   0.176   1.030  0.1530 -1.0030  0.8085
 3664SOL     OW22453   1.370   2.961   7.983  0.0087 -0.5684  0.2241
 3664SOL    HW122454   1.398   3.052   7.997  0.2525 -0.3718 -1.5360
 3664SOL    HW222455   1.451   2.922   8.015  0.8696 -0.0282 -1.2868
 3665SOL     OW22456   3.595   2.010   8.110 -0.1764  0.4575 -0.2213
 3665SOL    HW122457   3.521   1.998   8.050 -0.7483  0.2055  0.5318
 3665SOL    HW222458   3.667   1.977   8.057 -0.8435  1.7720 -1.9372
 3666SOL     OW22459   3.510   3.656  14.456 -0.1672  0.0146  0.0008
 3666SOL    HW122460   3.598   3.618  14.453 -0.7118 -1.2783  0.5394
 3666SOL    HW222461   3.467   3.571  14.467 -1.1282  0.1450 -2.5710
 3667SOL     OW22462   4.357   3.218  13.738 -0.3198 -0.1911 -0.0095
 3667SOL    HW122463   4.355   3.255  13.826  0.2297 -2.5664  1.0148
 3667SOL    HW222464   4.418   3.279  13.698 -2.4770  1.3931 -0.8783
 3668SOL     OW22465   1.489   2.399   4.576 -0.1897 -0.0377 -0.6477
 3668SOL    HW122466   1.565   2.429   4.526  0.6912  0.9093  1.2614
 3668SOL    HW222467   1.415   2.442   4.533 -0.9492  1.0627  1.7592
 3669SOL     OW22468   2.501   3.673   7.202  0.4352  0.2095 -0.9227
 3669SOL    HW122469   2.536   3.708   7.120 -0.1882  1.0735 -0.8274
 3669SOL    HW222470   2.500   3.579   7.190 -1.9025  0.6000 -3.7783
 3670SOL     OW22471   3.730   1.540   3.362 -0.0832  0.6190 -0.1487
 3670SOL    HW122472   3.766   1.455   3.385 -1.3394  0.5973  1.7566
 3670SOL    HW222473   3.692   1.512   3.278  0.0044  0.7039 -0.2166
 3671SOL     OW22474   3.429   2.670   7.267 -0.4304 -0.4516  0.1340
 3671SOL    HW122475   3.381   2.682   7.186 -2.1687 -0.6486  1.1429
 3671SOL    HW222476   3.365   2.628   7.325  0.5735 -2.7748 -0.4512
 3672SOL     OW22477   0.498   4.683  11.132 -0.9407  0.0187 -0.6029
 3672SOL    HW122478   0.556   0.035  11.138  3.0119 -2.9325 -1.7890
 3672SOL    HW222479   0.564   4.619  11.104 -0.4243  0.0921  0.4543
 3673SOL     OW22480   2.780   1.757   8.071 -0.5165 -0.0081  0.1060
 3673SOL    HW122481   2.728   1.795   8.143 -1.4223  0.5645 -0.8464
 3673SOL    HW222482   2.801   1.668   8.097 -0.1494  0.2016  0.5263
 3674SOL     OW22483   1.358   0.255   1.890  0.2212 -0.0208 -0.3851
 3674SOL    HW122484   1.266   0.232   1.908  0.0115  0.5241 -0.7655
 3674SOL    HW222485   1.403   0.171   1.899 -2.0446 -1.1754  0.1891
 3675SOL     OW22486   3.941   4.438   8.632  0.1840 -0.2709  0.6871
 3675SOL    HW122487   4.006   4.452   8.700  0.7012 -2.0024  0.5356
 3675SOL    HW222488   3.858   4.429   8.678  1.3228 -2.4257  2.2836
 3676SOL     OW22489   4.068   3.741  12.770  0.1327 -0.2381 -0.7267
 3676SOL    HW122490   4.115   3.772  12.847 -3.9365  0.7193  1.3822
 3676SOL    HW222491   3.990   3.702  12.809  1.2680 -2.3021 -0.4934
 3677SOL     OW22492   3.337   4.092  13.773  0.5699  0.5209 -0.5050
 3677SOL    HW122493   3.420   4.083  13.726  0.4101 -2.2466 -0.2146
 3677SOL    HW222494   3.304   4.167  13.723  2.3766  0.6895 -1.4620
 3678SOL     OW22495   2.901   1.977   3.599  0.4721 -0.1969  0.0281
 3678SOL    HW122496   2.889   1.891   3.641 -0.7319 -0.0435 -0.0215
 3678SOL    HW222497   2.928   1.950   3.512  0.3533  0.4684 -0.2141
 3679SOL     OW22498   1.860   4.532  11.934 -0.2778 -0.3019 -0.3650
 3679SOL    HW122499   1.778   4.498  11.971  0.0469  0.9281  1.4897
 3679SOL    HW222500   1.822   4.584  11.864  0.0376  1.8843  1.0706
 3680SOL     OW22501   1.596   0.051  11.769 -0.2611  0.1906  0.2294
 3680SOL    HW122502   1.577   0.057  11.675 -1.6999  1.5719  0.5931
 3680SOL    HW222503   1.690   0.033  11.776 -0.4279 -1.1130 -1.0888
 3681SOL     OW22504   4.700   2.985   1.945 -0.4689 -0.1831  0.1919
 3681SOL    HW122505   4.649   2.905   1.953  0.1958 -0.7061 -0.8429
 3681SOL    HW222506   0.002   2.976   1.854  1.9596 -1.7844  1.0405
 3682SOL     OW22507   4.527   2.999   6.031  0.2979  0.9842  0.2080
 3682SOL    HW122508   4.490   3.039   5.951 -2.3588  2.1464  2.0095
 3682SOL    HW222509   4.619   2.993   6.006  0.5053 -1.7942  1.5985
 3683SOL     OW22510   3.610   2.237   8.892  0.4202 -0.1970 -0.2247
 3683SOL    HW122511   3.687   2.279   8.852 -0.1969  0.1717 -1.0297
 3683SOL    HW222512   3.631   2.151   8.856  1.0485  0.4277 -1.3550
 3684SOL     OW22513   3.784   3.881   3.782 -0.4327  0.1332 -0.1016
 3684SOL    HW122514   3.726   3.816   3.822  1.7885 -0.4484  2.1487
 3684SOL    HW222515   3.755   3.970   3.803 -1.6832 -0.2827 -0.0404
 3685SOL     OW22516   0.477   2.449  15.107  1.0161 -0.0067  0.1577
 3685SOL    HW122517   0.395   2.400  15.099 -0.4052  2.5860 -1.0830
 3685SOL    HW222518   0.450   2.511  15.175  2.0842 -1.1148  1.6118
 3686SOL     OW22519   3.748   2.161  11.400  0.1954 -1.1536 -0.4374
 3686SOL    HW122520   3.842   2.177  11.392 -0.3610  1.1804 -2.2218
 3686SOL    HW222521   3.739   2.078  11.353  0.4158  0.1693 -2.7659
 3687SOL     OW22522   4.171   0.057  15.580 -0.3532 -0.6022  0.2484
 3687SOL    HW122523   4.242   0.063  15.517 -0.4470  1.5303  0.3625
 3687SOL    HW222524   4.093   0.072  15.526  0.7146 -2.2136 -1.7383
 3688SOL     OW22525   3.599   1.244   8.103 -0.3088 -0.3608 -0.0953
 3688SOL    HW122526   3.511   1.271   8.127 -0.2991  1.6857 -2.4722
 3688SOL    HW222527   3.582   1.150   8.092 -0.0302 -0.6166  1.5755
 3689SOL     OW22528   3.749   0.031   6.677  0.3496  0.1804  0.5489
 3689SOL    HW122529   3.837   4.722   6.693 -0.4515 -1.9519  0.5979
 3689SOL    HW222530   3.689   4.680   6.674  0.0771  0.4624 -1.3708
 3690SOL     OW22531   3.398   2.632  11.674  0.4594 -0.3311 -0.0083
 3690SOL    HW122532   3.435   2.720  11.671 -0.2685  0.1086  3.6675
 3690SOL    HW222533   3.433   2.605  11.758 -0.4936 -1.6767 -0.0491
 3691SOL     OW22534   4.629   2.013   8.628  0.3240  0.1288  0.2635
 3691SOL    HW122535   4.536   1.988   8.626  0.5260 -0.8228  2.3814
 3691SOL    HW222536   4.658   1.924   8.650 -3.3683 -1.1401 -0.0207
 3692SOL     OW22537   0.438   1.290   5.397 -0.2707  0.4977 -0.2983
 3692SOL    HW122538   0.362   1.324   5.350 -0.9835 -1.0414 -0.2963
 3692SOL    HW222539   0.386   1.244   5.464  0.3591 -0.6485 -0.5986
 3693SOL     OW22540   4.399   3.509  15.559  0.4580 -0.1751 -0.0346
 3693SOL    HW122541   4.448   3.439  15.602 -0.8608 -0.2924  1.2391
 3693SOL    HW222542   4.307   3.485  15.563 -0.0056  1.4063 -1.2738
 3694SOL     OW22543   1.287   1.815  11.581 -0.2403  0.2099  0.2811
 3694SOL    HW122544   1.376   1.841  11.555 -0.5696  2.3504  1.3160
 3694SOL    HW222545   1.274   1.750  11.511 -0.5053  0.0450  0.4867
 3695SOL     OW22546   1.784   0.127   0.246  0.1328 -0.1525  0.1393
 3695SOL    HW122547   1.828   0.086   0.171 -0.7440 -1.3691  0.3070
 3695SOL    HW222548   1.750   0.207   0.205  0.8987 -0.0092 -0.2241
 3696SOL     OW22549   1.894   1.524   8.075 -0.3092  0.3059 -0.4077
 3696SOL    HW122550   1.800   1.535   8.086 -0.1939  2.3468 -1.4015
 3696SOL    HW222551   1.911   1.557   7.987 -1.3024 -0.3123 -0.8341
 3697SOL     OW22552   0.599   1.364  15.665  0.0639 -0.4201  0.4438
 3697SOL    HW122553   0.570   1.365  15.573 -0.9670  1.6546  0.7974
 3697SOL    HW222554   0.635   1.275  15.663 -0.4463 -0.6030 -1.4075
 3698SOL     OW22555   3.466   3.614   2.638 -0.3047  0.4205  0.4969
 3698SOL    HW122556   3.456   3.606   2.543  0.2222 -0.6117  0.5333
 3698SOL    HW222557   3.543   3.671   2.641  0.4758 -0.6078 -0.1431
 3699SOL     OW22558   3.087   0.000   7.982 -0.8392 -0.0496 -0.1972
 3699SOL    HW122559   3.142   4.648   7.968 -3.1584 -1.4788 -1.5821
 3699SOL    HW222560   3.058   0.027   7.895  0.1599 -1.4121 -0.9503
 3700SOL     OW22561   4.035   4.322  10.862 -0.6316  0.6358 -0.6930
 3700SOL    HW122562   3.984   4.364  10.932  3.0640  0.4090  2.1455
 3700SOL    HW222563   3.991   4.341  10.779 -0.0223  1.7220 -0.7652
 3701SOL     OW22564   0.488   3.257   8.518  1.0324  0.2686  0.4826
 3701SOL    HW122565   0.546   3.333   8.509  1.9906 -0.7503 -2.0680
 3701SOL    HW222566   0.480   3.227   8.427  2.2114 -1.2466  0.8851
 3702SOL     OW22567   2.210   0.460   8.718  0.0819  0.0482 -0.5740
 3702SOL    HW122568   2.168   0.379   8.746 -0.6275  0.4840 -0.3634
 3702SOL    HW222569   2.253   0.432   8.638  0.4114  0.6649 -0.6115
 3703SOL     OW22570   3.937   2.749   4.495 -0.0131  0.2282 -0.1602
 3703SOL    HW122571   3.854   2.716   4.531  0.2389  0.1025  0.2983
 3703SOL    HW222572   3.965   2.678   4.438  0.1810  1.0974 -1.1644
 3704SOL     OW22573   0.986   3.802  14.282 -0.1126 -0.2316  0.5476
 3704SOL    HW122574   0.944   3.785  14.367  1.0004  1.4248  1.4280
 3704SOL    HW222575   0.914   3.775  14.225 -1.1173 -1.1839  2.2571
 3705SOL     OW22576   4.453   0.230   8.638 -0.2055  0.2288 -0.4476
 3705SOL    HW122577   4.523   0.165   8.644 -0.2931  0.4218  2.5918
 3705SOL    HW222578   4.398   0.213   8.714  0.3761  2.4909  0.5070
 3706SOL     OW22579   3.639   3.771   6.434 -0.0531 -0.6155  0.4968
 3706SOL    HW122580   3.714   3.716   6.460 -0.0396 -0.9068 -0.1437
 3706SOL    HW222581   3.664   3.862   6.444 -3.0270  0.2807 -0.3378
 3707SOL     OW22582   2.513   0.267   4.242 -0.2537 -0.7487 -0.1618
 3707SOL    HW122583   2.538   0.179   4.268  1.9297 -0.8261 -2.5133
 3707SOL    HW222584   2.429   0.247   4.202  0.0548 -1.1495 -0.6086
 3708SOL     OW22585   3.448   1.278   0.500 -0.0910 -0.1034  0.0724
 3708SOL    HW122586   3.498   1.265   0.580  0.9987 -1.9929 -0.9090
 3708SOL    HW222587   3.442   1.197   0.449 -1.6946 -1.2318  2.0365
 3709SOL     OW22588   4.165   4.036   4.179 -0.1606 -0.3622  0.2340
 3709SOL    HW122589   4.255   4.013   4.203 -0.3144 -0.6618  0.5214
 3709SOL    HW222590   4.172   4.124   4.142 -1.3886 -0.1424  0.5385
 3710SOL     OW22591   3.031   0.215   4.954 -0.0488 -0.4813 -0.2914
 3710SOL    HW122592   2.952   0.252   4.915  1.1585  1.3609 -0.9703
 3710SOL    HW222593   3.011   0.121   4.951  0.7660 -0.7163  1.4073
 3711SOL     OW22594   3.044   0.417  17.519  0.6809  0.0046  0.1085
 3711SOL    HW122595   3.015   0.488  17.577  1.3340 -1.3162  2.0354
 3711SOL    HW222596   3.105   0.455  17.456 -0.0851  2.4857  0.8772
 3712SOL     OW22597   2.080   3.602   6.130 -0.0074  0.2542 -0.0763
 3712SOL    HW122598   1.996   3.610   6.176  0.8927 -0.6503  1.7252
 3712SOL    HW222599   2.075   3.513   6.095  2.6565 -0.1387  0.5355
 3713SOL     OW22600   3.033   1.620  12.785 -0.1382  0.4456 -0.1839
 3713SOL    HW122601   2.959   1.566  12.813  0.4802  0.2892  1.1348
 3713SOL    HW222602   2.994   1.698  12.746  0.3564  1.8110  2.0593
 3714SOL     OW22603   2.077   2.852  10.563 -0.1557  0.0768  0.4106
 3714SOL    HW122604   2.135   2.784  10.597 -1.1313 -0.0174  1.8700
 3714SOL    HW222605   2.024   2.802  10.500 -0.7870 -0.6247  1.4866
 3715SOL     OW22606   1.179   2.933   4.468  0.5756 -0.0943 -0.2107
 3715SOL    HW122607   1.090   2.897   4.464  0.7613 -0.5040 -0.8312
 3715SOL    HW222608   1.165   3.027   4.458 -0.4723 -0.3126 -0.8338
 3716SOL     OW22609   2.012   3.269  15.637  0.1469 -0.2089 -0.3044
 3716SOL    HW122610   1.959   3.331  15.686 -0.5661 -1.2988  0.2987
 3716SOL    HW222611   1.943   3.230  15.583 -1.0422  2.1790 -0.5371
 3717SOL     OW22612   3.573   0.017   3.090 -0.2005 -0.4442 -0.5639
 3717SOL    HW122613   3.504   0.060   3.141 -0.9272  1.0427 -2.7892
 3717SOL    HW222614   3.526   4.684   3.029 -1.2681 -0.3812  0.1858
 3718SOL     OW22615   3.465   0.524  10.198 -0.4121  0.0683  0.0348
 3718SOL    HW122616   3.474   0.446  10.252 -3.8643 -2.4470 -3.0465
 3718SOL    HW222617   3.525   0.512  10.124  0.4963  0.4350  0.7051
 3719SOL     OW22618   4.252   3.160   4.018  0.5480 -0.5524  0.3349
 3719SOL    HW122619   4.247   3.071   4.052 -3.0534 -0.3042  0.4795
 3719SOL    HW222620   4.196   3.207   4.081 -0.5771  0.1828 -1.2291
 3720SOL     OW22621   3.070   0.613  13.629  0.0902 -0.1306 -0.2659
 3720SOL    HW122622   2.986   0.570  13.646 -0.8147  1.5988 -0.3477
 3720SOL    HW222623   3.092   0.578  13.542 -0.2725 -1.3343  0.1145
 3721SOL     OW22624   2.044   0.475   2.429 -0.0585  0.3078 -0.3631
 3721SOL    HW122625   2.054   0.459   2.522 -0.7521 -0.8386 -0.4910
 3721SOL    HW222626   2.090   0.557   2.410  0.5360 -0.2833 -1.4899
 3722SOL     OW22627   1.033   1.681   2.327  0.2198  0.2039  0.3524
 3722SOL    HW122628   1.071   1.680   2.414 -0.5127 -1.2783  0.6637
 3722SOL    HW222629   1.072   1.759   2.288  1.9537 -1.4127 -1.1721
 3723SOL     OW22630   2.442   4.264   4.105 -0.4472 -0.2696 -0.1651
 3723SOL    HW122631   2.537   4.262   4.111 -0.6212 -2.0054  1.9489
 3723SOL    HW222632   2.418   4.172   4.092  1.3124 -0.8701  0.8815
 3724SOL     OW22633   1.940   2.792   3.670  0.1811 -0.3847 -0.3051
 3724SOL    HW122634   1.953   2.753   3.756 -0.2359  1.1689  0.4542
 3724SOL    HW222635   2.029   2.785   3.637 -1.3780 -3.1399 -3.9351
 3725SOL     OW22636   3.619   2.662   7.000  0.2830 -0.1259  0.1768
 3725SOL    HW122637   3.642   2.754   6.993 -0.6207  0.2564  2.1129
 3725SOL    HW222638   3.523   2.658   7.008  0.1775  1.4716 -0.4093
 3726SOL     OW22639   3.405   2.128   7.766 -0.0963 -0.0461  0.6249
 3726SOL    HW122640   3.336   2.097   7.707 -1.1024 -2.2085  2.9652
 3726SOL    HW222641   3.432   2.212   7.728  0.9306  0.5852  2.7587
 3727SOL     OW22642   3.682   0.373   8.903 -0.2037  0.1356 -0.5726
 3727SOL    HW122643   3.600   0.390   8.857 -0.3636  2.2002  0.4964
 3727SOL    HW222644   3.748   0.398   8.837 -0.4498 -0.7512 -1.1602
 3728SOL     OW22645   4.461   3.414   1.778  0.0064 -0.6451  0.2008
 3728SOL    HW122646   4.545   3.433   1.737 -1.0410  1.2918 -1.0314
 3728SOL    HW222647   4.482   3.326   1.810  2.2043 -0.1321  0.1861
 3729SOL     OW22648   0.093   3.637   3.980  0.1252  0.2674 -0.0809
 3729SOL    HW122649   0.070   3.648   4.073  0.0423  1.0595 -0.1991
 3729SOL    HW222650   0.006   3.651   3.944  1.1284  2.0763 -1.7809
 3730SOL     OW22651   0.777   3.043   4.892  0.1160 -0.5403 -0.1034
 3730SOL    HW122652   0.690   3.024   4.929 -0.0870 -0.1071 -0.3555
 3730SOL    HW222653   0.816   2.956   4.883  1.8888  0.4594 -1.8445
 3731SOL     OW22654   4.648   4.481   2.492  0.2337 -0.1828  0.2942
 3731SOL    HW122655   4.620   4.490   2.401  0.9314 -1.2478 -0.0286
 3731SOL    HW222656   4.589   4.538   2.540  0.8616 -0.5618  1.5309
 3732SOL     OW22657   1.558   4.690   9.708  0.2012  0.2537  0.7077
 3732SOL    HW122658   1.505   4.672   9.786  0.7246  0.5772  1.1344
 3732SOL    HW222659   1.619   0.027   9.748  0.9464  0.0715 -0.1464
 3733SOL     OW22660   3.062   1.445  10.010 -0.2072 -0.1443 -0.4120
 3733SOL    HW122661   3.152   1.477  10.018 -0.2444 -0.6856  2.3416
 3733SOL    HW222662   3.071   1.359  10.051  1.2188  1.1968  2.1128
 3734SOL     OW22663   2.355   1.584   8.822  0.2113  0.0806 -0.2038
 3734SOL    HW122664   2.378   1.542   8.740 -0.0843  0.5723 -0.5405
 3734SOL    HW222665   2.413   1.529   8.875 -0.0981 -1.2259 -1.2376
 3735SOL     OW22666   2.665   3.999   3.998  0.1321 -0.2183 -0.3853
 3735SOL    HW122667   2.718   4.067   3.957  0.1886 -0.1439 -0.1904
 3735SOL    HW222668   2.583   4.023   3.955  1.4971  2.5237 -1.4882
 3736SOL     OW22669   0.734   1.526   6.662 -0.0987  0.6027  0.2392
 3736SOL    HW122670   0.662   1.575   6.703 -0.6986  0.6033 -0.8097
 3736SOL    HW222671   0.691   1.441   6.655 -2.8966  1.9451  0.9339
 3737SOL     OW22672   1.345   1.286   8.467  0.1738  0.1352  0.0989
 3737SOL    HW122673   1.305   1.252   8.547  2.4176 -1.9470  0.3259
 3737SOL    HW222674   1.362   1.203   8.423  2.4548  0.7505 -0.1679
 3738SOL     OW22675   1.550   1.557  13.184 -0.0449 -0.2858  0.0889
 3738SOL    HW122676   1.462   1.533  13.155 -1.0078  2.1716  1.0164
 3738SOL    HW222677   1.569   1.627  13.122  1.5262 -1.1384 -0.3993
 3739SOL     OW22678   3.187   2.605  12.757 -0.5376 -0.1487  0.2756
 3739SOL    HW122679   3.182   2.524  12.807  1.6214  0.4111  1.4125
 3739SOL    HW222680   3.255   2.646  12.811 -1.1298 -0.7533  1.4497
 3740SOL     OW22681   3.292   1.966   0.763 -0.2213 -0.1772  0.0933
 3740SOL    HW122682   3.271   1.902   0.831 -0.5257 -0.0711  0.0982
 3740SOL    HW222683   3.208   1.971   0.716  0.7931 -1.7204 -1.8921
 3741SOL     OW22684   0.913   2.427   6.676  0.1149 -0.3974 -0.0432
 3741SOL    HW122685   0.982   2.362   6.690  2.6836  1.9817 -1.7416
 3741SOL    HW222686   0.902   2.452   6.768  1.6692 -1.2419  0.3603
 3742SOL     OW22687   0.219   4.256   2.680 -0.1629  0.2667 -0.0955
 3742SOL    HW122688   0.248   4.249   2.771  1.1214  1.1811 -0.4444
 3742SOL    HW222689   0.151   4.188   2.685  0.0751 -0.1109 -2.1114
 3743SOL     OW22690   4.022   1.432  10.737 -0.0441  0.1729 -0.8511
 3743SOL    HW122691   4.050   1.453  10.649  0.4299 -2.8649 -1.4280
 3743SOL    HW222692   3.932   1.463  10.725  0.1858  1.9875  2.0333
 3744SOL     OW22693   1.865   3.816   3.199 -0.3339 -0.3766 -0.7973
 3744SOL    HW122694   1.850   3.874   3.274 -0.2302  0.9569 -1.8157
 3744SOL    HW222695   1.783   3.827   3.152 -0.3505  1.3259 -0.3647
 3745SOL     OW22696   3.783   0.776  15.126  0.6576  0.2712  0.0559
 3745SOL    HW122697   3.870   0.742  15.150 -0.0852 -0.7960  1.2045
 3745SOL    HW222698   3.717   0.707  15.130  1.7427 -0.7135  0.9519
 3746SOL     OW22699   2.782   1.895   0.071 -0.5356  0.1327 -0.3331
 3746SOL    HW122700   2.757   1.857   0.155  0.2763 -0.2534 -0.2625
 3746SOL    HW222701   2.743   1.830   0.012  0.7391 -0.1711 -0.8412
 3747SOL     OW22702   2.296   1.992   2.357  0.0422  0.1017  0.1992
 3747SOL    HW122703   2.207   2.000   2.391 -0.5310 -1.2048 -1.0094
 3747SOL    HW222704   2.309   2.067   2.298 -1.3178 -0.8630 -1.3121
 3748SOL     OW22705   0.491   1.449   2.428  0.0971 -0.0295  0.1192
 3748SOL    HW122706   0.472   1.363   2.389 -1.0282  1.0992 -1.8053
 3748SOL    HW222707   0.537   1.422   2.508 -0.6351  2.0567  1.2502
 3749SOL     OW22708   0.209   2.679   4.443  0.3323 -0.1529  0.2186
 3749SOL    HW122709   0.277   2.627   4.400  0.4353  0.4077 -0.2911
 3749SOL    HW222710   0.159   2.683   4.361  0.7720  0.8881  0.0022
 3750SOL     OW22711   4.130   2.829   0.983 -0.5113 -0.0954  0.1285
 3750SOL    HW122712   4.196   2.760   0.991 -0.6691 -0.0974  1.4186
 3750SOL    HW222713   4.115   2.831   0.889  1.1504  0.2308 -0.1265
 3751SOL     OW22714   0.996   1.192  16.949 -0.3813 -0.0130 -0.4532
 3751SOL    HW122715   1.017   1.201  17.042  1.9106 -0.5575 -0.9146
 3751SOL    HW222716   1.080   1.165  16.912  0.5887  0.6645  1.2531
 3752SOL     OW22717   3.020   2.101   3.070 -0.4478  0.1156 -0.5141
 3752SOL    HW122718   3.038   2.169   3.135 -2.9074 -0.2311  0.5380
 3752SOL    HW222719   3.077   2.027   3.091  0.0140  1.0190  1.4879
 3753SOL     OW22720   1.934   1.319   8.819  0.1734 -0.3325 -0.9151
 3753SOL    HW122721   1.973   1.367   8.746 -0.8083  2.3771  0.3528
 3753SOL    HW222722   1.959   1.228   8.803  0.1864 -0.5825  0.4731
 3754SOL     OW22723   1.081   1.109  10.609 -0.5546  0.1523 -0.6133
 3754SOL    HW122724   1.171   1.143  10.606  0.2623 -2.0546 -1.2727
 3754SOL    HW222725   1.081   1.051  10.685 -2.3734 -0.6427 -1.2267
 3755SOL     OW22726   0.174   3.299  16.020  0.3728 -0.5805 -0.0315
 3755SOL    HW122727   0.216   3.355  15.955  1.2877 -1.1580  0.0579
 3755SOL    HW222728   0.244   3.235  16.036  2.4716  1.2955 -1.6733
 3756SOL     OW22729   2.727   1.015   9.137 -0.0707 -0.4003 -0.3756
 3756SOL    HW122730   2.718   0.954   9.211  0.5395  0.5414  0.4835
 3756SOL    HW222731   2.637   1.013   9.104 -0.0514 -1.7427 -0.3271
 3757SOL     OW22732   0.686   2.744   4.008 -0.2593  0.3065  0.7598
 3757SOL    HW122733   0.777   2.765   3.983  0.1422 -0.7520  1.3687
 3757SOL    HW222734   0.691   2.707   4.096 -0.3698 -2.4913 -0.4390
 3758SOL     OW22735   4.440   1.580  15.646  0.2038  0.4504  0.4076
 3758SOL    HW122736   4.440   1.649  15.579 -2.5787 -0.3649 -0.4151
 3758SOL    HW222737   4.430   1.637  15.723  0.2980 -0.1760  0.8801
 3759SOL     OW22738   0.846   4.722   7.282  0.1335  0.3481  0.0641
 3759SOL    HW122739   0.765   4.690   7.323  1.1765 -1.1967  0.9057
 3759SOL    HW222740   0.906   4.655   7.315  0.6685  0.4423 -0.7194
 3760SOL     OW22741   2.557   2.042   7.201  0.2767 -0.1586 -0.2634
 3760SOL    HW122742   2.621   2.008   7.138 -1.2289 -0.7248 -1.4749
 3760SOL    HW222743   2.616   2.038   7.276  0.0180 -3.0731 -0.2122
 3761SOL     OW22744   4.373   1.651  10.031 -0.2540 -0.1755  0.1396
 3761SOL    HW122745   4.354   1.723  10.092 -2.0817 -0.5280 -0.0160
 3761SOL    HW222746   4.296   1.596  10.048 -1.9716  2.0327 -0.4719
 3762SOL     OW22747   2.750   4.122   9.075 -0.0148  0.0961  0.7178
 3762SOL    HW122748   2.699   4.172   9.139 -1.3415  2.6944 -2.3461
 3762SOL    HW222749   2.830   4.174   9.066 -2.0026  3.0230 -0.0351
 3763SOL     OW22750   4.545   3.403  13.660  0.2893  0.1157  0.0379
 3763SOL    HW122751   4.492   3.461  13.713  1.5277 -0.8918  2.3945
 3763SOL    HW222752   4.518   3.419  13.570  3.3460  0.8063 -0.7730
 3764SOL     OW22753   4.403   0.553  14.944 -0.1056  0.2255  0.0018
 3764SOL    HW122754   4.318   0.509  14.938 -0.1818  0.2112  1.3512
 3764SOL    HW222755   4.384   0.626  15.002  2.4298  2.1830 -1.5915
 3765SOL     OW22756   1.935   4.513   2.217  0.6763 -0.0880  0.1651
 3765SOL    HW122757   1.978   4.517   2.302 -0.8684  0.0035  0.9429
 3765SOL    HW222758   1.987   4.583   2.178 -1.3448  0.2068 -1.9906
 3766SOL     OW22759   3.671   1.930   1.446  0.1864  0.2186 -0.1818
 3766SOL    HW122760   3.735   1.969   1.386 -2.9825  3.3086 -1.5853
 3766SOL    HW222761   3.610   2.004   1.447 -0.4366 -0.2983 -0.0012
 3767SOL     OW22762   2.071   1.282   8.517  0.3007 -0.3219  0.0156
 3767SOL    HW122763   2.034   1.361   8.554 -0.2502 -1.1531  1.2483
 3767SOL    HW222764   2.164   1.288   8.540  0.4975  0.7454 -1.0842
 3768SOL     OW22765   1.426   4.523   1.236 -0.0467 -0.0296  0.6850
 3768SOL    HW122766   1.436   4.542   1.142 -1.2454  0.8571  0.7343
 3768SOL    HW222767   1.467   4.602   1.272  0.5237  0.2364 -0.5481
 3769SOL     OW22768   4.646   4.037  12.620 -0.0346 -0.4047 -0.5877
 3769SOL    HW122769   4.716   4.039  12.554  1.6184 -1.3480  1.1235
 3769SOL    HW222770   4.670   3.954  12.661  1.9165  0.7702  0.6668
 3770SOL     OW22771   4.284   2.572   3.484 -0.5083 -0.4931  0.7887
 3770SOL    HW122772   4.293   2.478   3.466  1.6008 -0.4102  1.4583
 3770SOL    HW222773   4.352   2.588   3.549  0.6499 -1.7604 -0.1119
 3771SOL     OW22774   3.444   3.737   6.683  0.0789  0.3971  0.7613
 3771SOL    HW122775   3.472   3.820   6.644 -0.2918 -0.3222 -0.9959
 3771SOL    HW222776   3.376   3.762   6.746 -0.2114  2.1838 -0.2749
 3772SOL     OW22777   2.061   1.058   8.808 -0.7884  0.0984 -0.0115
 3772SOL    HW122778   2.145   1.046   8.764 -1.5118  1.5725 -1.7983
 3772SOL    HW222779   2.033   0.966   8.806 -0.1806 -0.0755 -0.5766
 3773SOL     OW22780   4.717   0.170   2.214 -0.4043 -0.2611 -0.2539
 3773SOL    HW122781   4.622   0.179   2.204 -0.5520 -0.0031  1.4843
 3773SOL    HW222782   0.017   0.258   2.244  0.8411 -0.2147 -1.3866
 3774SOL     OW22783   4.364   3.529   0.465 -0.0419  0.0940 -0.6840
 3774SOL    HW122784   4.452   3.562   0.485 -0.2269 -0.4366  1.0168
 3774SOL    HW222785   4.359   3.536   0.370  0.7191 -0.4235 -0.7625
 3775SOL     OW22786   3.976   1.620   4.840  0.8537  0.0919 -0.4850
 3775SOL    HW122787   3.886   1.629   4.809  1.0993 -1.2008 -1.5377
 3775SOL    HW222788   3.963   1.564   4.917 -1.2574  1.9389  0.5265
 3776SOL     OW22789   2.350   0.745  11.578  0.2445 -0.0253 -0.2475
 3776SOL    HW122790   2.340   0.790  11.662 -0.2397  1.3395 -1.0342
 3776SOL    HW222791   2.272   0.690  11.572  1.0455 -0.9669 -1.7519
 3777SOL     OW22792   1.506   4.195   9.377 -0.1270  0.2697  0.4030
 3777SOL    HW122793   1.582   4.138   9.381 -1.1805 -1.0173  2.3219
 3777SOL    HW222794   1.549   4.268   9.333  2.4948 -0.0600  2.4112
 3778SOL     OW22795   3.745   4.363   8.218  0.5093  0.5479  0.6505
 3778SOL    HW122796   3.666   4.342   8.268  0.7179 -3.0354 -0.5228
 3778SOL    HW222797   3.811   4.324   8.276  0.2443  0.1933  0.7118
 3779SOL     OW22798   1.853   1.803  11.766 -0.0006  0.0661  0.0402
 3779SOL    HW122799   1.827   1.802  11.674  0.7905 -0.2952 -0.1858
 3779SOL    HW222800   1.765   1.783  11.796 -0.1325  0.9148  0.2029
 3780SOL     OW22801   3.523   3.224   4.067  0.6226  0.4221  0.0638
 3780SOL    HW122802   3.603   3.277   4.061  0.4211  0.6621 -0.5536
 3780SOL    HW222803   3.475   3.251   3.988 -0.4350 -0.0534  0.5428
 3781SOL     OW22804   2.310   1.928   6.577  0.3356 -0.0333  0.3701
 3781SOL    HW122805   2.402   1.954   6.576  0.3792 -0.1664  0.7264
 3781SOL    HW222806   2.313   1.849   6.631 -1.3755 -1.8905 -2.2339
 3782SOL     OW22807   1.879   1.836  16.107 -0.3484 -0.0964  0.0371
 3782SOL    HW122808   1.899   1.870  16.020 -2.2801  0.0381 -0.3465
 3782SOL    HW222809   1.928   1.893  16.166  2.4747  0.8626 -3.2182
 3783SOL     OW22810   3.877   0.706   5.148  0.1119  0.0510  0.7240
 3783SOL    HW122811   3.940   0.739   5.083  0.0977  0.6739  1.0248
 3783SOL    HW222812   3.846   0.627   5.103 -1.6173  0.4139  1.2622
 3784SOL     OW22813   3.682   4.043   1.899  0.3768 -0.4473 -0.2132
 3784SOL    HW122814   3.738   4.120   1.891  0.7434 -0.6941 -0.0010
 3784SOL    HW222815   3.647   4.054   1.987 -3.0193 -2.3824 -1.3150
 3785SOL     OW22816   4.307   2.207   7.253 -0.4334  0.1898 -0.0820
 3785SOL    HW122817   4.248   2.197   7.327  0.5297 -1.7813  0.4092
 3785SOL    HW222818   4.382   2.233   7.306  0.9257 -0.9218 -1.4444
 3786SOL     OW22819   0.857   4.481   6.510  0.9446  0.6081 -0.0591
 3786SOL    HW122820   0.785   4.430   6.473  1.0747  0.4120 -0.0444
 3786SOL    HW222821   0.814   4.559   6.545 -1.0924 -1.0451  1.0948
 3787SOL     OW22822   1.643   4.700   3.287  0.2073 -0.1574  0.1812
 3787SOL    HW122823   1.644   0.058   3.237 -0.1295 -0.4005 -0.2257
 3787SOL    HW222824   1.735   4.675   3.280  0.2892  0.2807 -0.3572
 3788SOL     OW22825   0.496   1.708   9.260 -0.1536 -0.4221  0.5979
 3788SOL    HW122826   0.560   1.638   9.274  0.0278 -0.5349 -0.8985
 3788SOL    HW222827   0.455   1.701   9.347 -0.1831 -0.1360  0.6066
 3789SOL     OW22828   4.064   2.985   2.549 -0.0895  0.5941 -0.0126
 3789SOL    HW122829   4.005   2.922   2.507 -0.6906  0.8449  0.4569
 3789SOL    HW222830   4.109   3.023   2.473  0.2413 -2.8807 -1.5594
 3790SOL     OW22831   3.736   3.438   4.389  0.0066  0.0396  0.6308
 3790SOL    HW122832   3.664   3.466   4.332 -0.8992 -1.8413  0.8367
 3790SOL    HW222833   3.706   3.470   4.474  0.9147 -1.9498  1.6866
 3791SOL     OW22834   0.362   0.211   6.062  0.2590  0.2543  0.0502
 3791SOL    HW122835   0.398   0.229   5.975 -1.7475  2.5842 -0.3073
 3791SOL    HW222836   0.295   0.147   6.039  1.3030 -0.9546  0.3486
 3792SOL     OW22837   3.336   4.149   4.656 -0.2673  0.2557  0.1595
 3792SOL    HW122838   3.330   4.054   4.651 -1.0303  0.2317  1.5099
 3792SOL    HW222839   3.402   4.161   4.724  1.3887 -0.0895 -1.3903
 3793SOL     OW22840   4.442   4.450   7.753  0.4835  0.3146  0.3581
 3793SOL    HW122841   4.382   4.496   7.695  1.5598  0.8359 -0.3466
 3793SOL    HW222842   4.392   4.440   7.834 -0.9118  0.8245 -0.4473
 3794SOL     OW22843   1.843   0.382   2.728  0.5058  0.2895  0.2233
 3794SOL    HW122844   1.840   0.420   2.816  0.6765  2.1625 -0.5794
 3794SOL    HW222845   1.937   0.377   2.710  0.4537  2.6002 -0.6235
 3795SOL     OW22846   1.086   0.583  12.407 -0.1323 -0.1378  0.4195
 3795SOL    HW122847   1.148   0.559  12.338  1.0733  2.2408  0.6401
 3795SOL    HW222848   1.054   0.494  12.416 -0.4603 -0.0175  0.4376
 3796SOL     OW22849   4.293   4.115   5.979  0.3660 -0.0238 -0.1829
 3796SOL    HW122850   4.323   4.108   6.070  1.8399  2.4381 -0.4686
 3796SOL    HW222851   4.199   4.107   5.990  0.2080  0.5787 -1.0896
 3797SOL     OW22852   0.341   3.038   5.278 -0.0739 -0.5221 -0.2109
 3797SOL    HW122853   0.265   3.069   5.229 -0.5760 -1.1440  0.1696
 3797SOL    HW222854   0.299   3.004   5.357 -1.2606  1.8967  0.2390
 3798SOL     OW22855   1.917   3.241   7.654 -0.3296  0.6412 -0.4212
 3798SOL    HW122856   1.999   3.191   7.654  0.3187  1.7224 -0.6079
 3798SOL    HW222857   1.882   3.231   7.742 -0.7057  2.8385 -0.3349
 3799SOL     OW22858   4.499   4.591  15.234 -0.2684  0.0714  0.0208
 3799SOL    HW122859   4.420   4.592  15.180  0.6213  1.6230 -1.2688
 3799SOL    HW222860   4.467   4.616  15.320  0.8276 -1.2472  0.8094
 3800SOL     OW22861   1.685   1.505   5.538  0.4096  0.0733  0.5197
 3800SOL    HW122862   1.735   1.431   5.503 -0.6185  0.5436 -1.9371
 3800SOL    HW222863   1.740   1.525   5.614 -0.6294 -3.3020  2.1449
 3801SOL     OW22864   0.258   0.543   3.900  0.0574 -0.2807 -0.0938
 3801SOL    HW122865   0.340   0.585   3.873  0.0884  0.5294  1.2439
 3801SOL    HW222866   0.206   0.623   3.914 -0.5796 -0.6991 -0.0829
 3802SOL     OW22867   0.924   1.377   6.200 -0.2398 -0.5836 -0.5351
 3802SOL    HW122868   0.940   1.439   6.272 -2.5254 -1.7698  0.9715
 3802SOL    HW222869   0.867   1.430   6.145  1.0436 -1.2269 -2.4731
 3803SOL     OW22870   1.891   1.555   4.554 -0.0579 -0.1019 -0.1495
 3803SOL    HW122871   1.957   1.616   4.524  0.4797 -1.1619 -1.1046
 3803SOL    HW222872   1.819   1.581   4.497  0.2098  0.0954 -0.3942
 3804SOL     OW22873   3.324   0.625  11.346  0.4890  0.1842  0.2107
 3804SOL    HW122874   3.233   0.651  11.337 -0.1524 -2.4318 -0.9254
 3804SOL    HW222875   3.348   0.644  11.255 -0.3301  0.1064 -0.0243
 3805SOL     OW22876   3.785   0.320   2.872 -0.0124  0.9090 -0.2072
 3805SOL    HW122877   3.726   0.321   2.947  0.1614  0.0597 -0.0658
 3805SOL    HW222878   3.737   0.375   2.809 -2.4111  0.3643  1.1539
 3806SOL     OW22879   1.755   2.755  16.037 -0.1630 -0.1604  0.0966
 3806SOL    HW122880   1.802   2.717  16.111 -0.0026  0.5242  0.3535
 3806SOL    HW222881   1.665   2.752  16.069  0.1017 -1.0418  0.7682
 3807SOL     OW22882   1.255   3.837   8.938  0.2107 -0.2153  0.1922
 3807SOL    HW122883   1.201   3.915   8.928 -0.1045 -0.3885  0.4898
 3807SOL    HW222884   1.317   3.880   8.996  0.5283 -1.2609  0.6333
 3808SOL     OW22885   0.492   2.045   5.294 -0.1865  0.3962  0.3798
 3808SOL    HW122886   0.419   1.993   5.329  0.4474 -0.9720 -0.3279
 3808SOL    HW222887   0.468   2.135   5.315  1.1900  0.4409  1.7655
 3809SOL     OW22888   2.343   4.260   6.429  0.4708 -0.1633  0.0209
 3809SOL    HW122889   2.259   4.245   6.473 -1.1494  1.5141 -2.5289
 3809SOL    HW222890   2.391   4.287   6.508  2.6018 -0.0368 -1.3111
 3810SOL     OW22891   1.458   2.871   0.634 -0.6643  0.3513  0.2274
 3810SOL    HW122892   1.466   2.936   0.564 -1.3894  2.7142  2.3440
 3810SOL    HW222893   1.382   2.910   0.678  0.5414  1.8410  0.9815
 3811SOL     OW22894   0.743   1.196   6.316  0.4448 -0.4645  0.1697
 3811SOL    HW122895   0.799   1.269   6.288 -0.5707  0.3299  0.2176
 3811SOL    HW222896   0.687   1.178   6.240  1.0203  2.6692 -1.0008
 3812SOL     OW22897   2.237   2.599   3.879 -0.7625  0.0782 -0.0001
 3812SOL    HW122898   2.248   2.658   3.954  1.9676  1.2435 -1.3213
 3812SOL    HW222899   2.141   2.595   3.875 -0.5411 -1.3272 -3.7053
 3813SOL     OW22900   4.724   3.696   2.000 -0.3368  0.4143 -0.4469
 3813SOL    HW122901   4.640   3.740   2.019 -0.6536 -0.0946 -0.6765
 3813SOL    HW222902   4.694   3.608   2.024 -0.6388  0.7993  0.6187
 3814SOL     OW22903   2.581   2.055   1.525 -0.2649  0.1208 -0.4199
 3814SOL    HW122904   2.578   1.982   1.464  1.2599  1.0693 -1.6579
 3814SOL    HW222905   2.674   2.049   1.550 -0.6996  1.2874  1.4868
 3815SOL     OW22906   2.251   4.606   8.051 -0.1752  0.3002 -0.2005
 3815SOL    HW122907   2.316   4.616   8.121 -0.5832  1.7876 -0.0347
 3815SOL    HW222908   2.253   4.511   8.037 -0.1617  0.1676  0.7242
 3816SOL     OW22909   3.945   2.361   5.123 -0.1838 -0.0414  0.6899
 3816SOL    HW122910   4.016   2.418   5.094  0.3821 -1.2771 -0.4003
 3816SOL    HW222911   3.919   2.412   5.199 -0.1828  0.1735  0.5471
 3817SOL     OW22912   0.591   4.245   3.264 -0.0267  0.0886 -0.2403
 3817SOL    HW122913   0.527   4.316   3.255 -1.6615 -1.5515 -1.6908
 3817SOL    HW222914   0.669   4.300   3.266 -0.0687  0.2356 -2.3949
 3818SOL     OW22915   1.315   1.667   1.932 -0.3287  0.6424 -0.1057
 3818SOL    HW122916   1.337   1.674   2.025 -3.0000 -0.1772  0.5811
 3818SOL    HW222917   1.268   1.584   1.920  0.2762 -0.0724  2.2767
 3819SOL     OW22918   1.954   4.099   4.809  0.0940  0.3784 -0.1601
 3819SOL    HW122919   1.993   4.186   4.811  1.8916 -0.4305  0.0795
 3819SOL    HW222920   1.878   4.113   4.865 -1.1277 -0.2553 -1.6616
 3820SOL     OW22921   2.067   2.295   3.277  0.2845 -0.1810 -0.0520
 3820SOL    HW122922   2.147   2.244   3.291  0.8747  0.8266  0.3029
 3820SOL    HW222923   2.099   2.375   3.233 -0.7389  1.5179  2.2917
 3821SOL     OW22924   0.002   4.644   7.324  0.1577  0.0373  0.4460
 3821SOL    HW122925   0.017   4.578   7.391 -1.9542  0.2235  1.1323
 3821SOL    HW222926   0.029   0.005   7.358 -2.2720  0.9671  0.1286
 3822SOL     OW22927   4.325   1.616   5.010  0.7728 -0.2169 -1.0931
 3822SOL    HW122928   4.417   1.619   4.986  1.1733  0.6812  0.5354
 3822SOL    HW222929   4.289   1.633   4.923  2.1652 -1.3736 -1.8922
 3823SOL     OW22930   0.925   2.423   1.217  0.1843 -0.0117  0.2043
 3823SOL    HW122931   0.982   2.364   1.266 -0.9077 -0.6661  0.6667
 3823SOL    HW222932   0.872   2.370   1.158  1.4361 -1.2305  0.1611
 3824SOL     OW22933   1.805   3.721   6.174 -0.1319  0.2387 -0.6038
 3824SOL    HW122934   1.870   3.763   6.230 -3.3951  1.7276  2.0698
 3824SOL    HW222935   1.752   3.795   6.143  0.7277  1.5256  1.0173
 3825SOL     OW22936   1.809   3.953  13.864 -0.0232  0.0820  0.3401
 3825SOL    HW122937   1.893   3.972  13.905 -0.3617  0.7746  0.7182
 3825SOL    HW222938   1.798   4.025  13.802  1.4330  0.8554  0.9974
 3826SOL     OW22939   3.863   1.254  14.177 -0.4500  0.1032  0.2686
 3826SOL    HW122940   3.922   1.282  14.108  0.9323 -1.8733  0.6573
 3826SOL    HW222941   3.811   1.194  14.125  0.1820  0.9067 -1.2921
 3827SOL     OW22942   1.467   0.641   9.397  1.0754  0.3824  0.1446
 3827SOL    HW122943   1.487   0.591   9.317  1.0659  0.2586  0.2196
 3827SOL    HW222944   1.425   0.575   9.452 -0.1123  0.4609 -0.6588
 3828SOL     OW22945   0.600   3.771   8.754  0.2038  0.1332  0.1613
 3828SOL    HW122946   0.671   3.832   8.733  1.6854 -1.3093  1.0275
 3828SOL    HW222947   0.599   3.794   8.847  2.7308  1.0598 -0.0525
 3829SOL     OW22948   4.256   3.867  15.691 -0.4568  0.4419  0.0220
 3829SOL    HW122949   4.263   3.962  15.699 -1.6584  0.5847 -0.5951
 3829SOL    HW222950   4.328   3.845  15.632  1.0456 -0.7764  2.3184
 3830SOL     OW22951   3.253   4.699   4.002  0.1397  0.0863 -0.2239
 3830SOL    HW122952   3.210   0.040   4.056 -2.8691 -1.4710 -0.7482
 3830SOL    HW222953   3.201   4.713   3.923  0.3280  0.0755 -0.3509
 3831SOL     OW22954   2.343   2.710   6.194 -0.4361 -0.4707 -0.0952
 3831SOL    HW122955   2.374   2.619   6.198 -0.8166 -0.6091 -0.2971
 3831SOL    HW222956   2.415   2.768   6.171  0.4520 -1.9636 -1.0272
 3832SOL     OW22957   3.100   4.343   5.586  0.2671  0.2860  1.0349
 3832SOL    HW122958   3.009   4.369   5.604 -0.4214  0.4452 -2.5132
 3832SOL    HW222959   3.140   4.429   5.579 -0.3930  0.4216 -1.0643
 3833SOL     OW22960   0.509   1.571   3.866  0.5591  0.5185 -0.2632
 3833SOL    HW122961   0.574   1.628   3.907  0.3098 -0.2062  1.1380
 3833SOL    HW222962   0.495   1.603   3.777  0.1372 -0.6139 -0.6088
 3834SOL     OW22963   4.269   1.985   5.995  0.1060 -0.8945 -0.2016
 3834SOL    HW122964   4.361   2.006   6.007  0.5500 -1.6379 -2.2192
 3834SOL    HW222965   4.263   1.943   5.909  0.6713  1.5889 -1.4573
 3835SOL     OW22966   3.721   1.075  14.048  0.1788  0.4751  0.2267
 3835SOL    HW122967   3.775   0.997  14.061 -1.3246 -0.1707  2.4596
 3835SOL    HW222968   3.636   1.034  14.032 -0.2202  1.2395  0.4028
 3836SOL     OW22969   0.229   1.755   3.505 -0.1279  0.0245 -0.2317
 3836SOL    HW122970   0.198   1.756   3.595  1.2616  3.1904  0.2095
 3836SOL    HW222971   0.267   1.842   3.492 -2.1773  1.3264  2.6016
 3837SOL     OW22972   4.063   4.662   3.456  0.1960  0.0167 -0.0813
 3837SOL    HW122973   3.993   4.703   3.505  1.1456 -0.3758  1.5840
 3837SOL    HW222974   4.119   0.015   3.444  0.8586 -0.7388 -2.0335
 3838SOL     OW22975   4.542   1.093   2.934  0.0792  0.4724  0.1672
 3838SOL    HW122976   4.596   1.022   2.968 -1.9151 -1.1891 -0.1277
 3838SOL    HW222977   4.537   1.147   3.013  1.7786 -1.6421  1.6973
 3839SOL     OW22978   1.911   4.697   0.071 -0.0513 -0.1462  0.0576
 3839SOL    HW122979   1.986   4.723   0.017 -0.8552 -1.1476 -1.5315
 3839SOL    HW222980   1.948   4.614   0.100 -1.2716 -1.2840 -1.6163
 3840SOL     OW22981   2.855   0.262   7.649 -0.0439  0.3864  0.2995
 3840SOL    HW122982   2.869   0.355   7.633  3.2134  0.1193  1.6345
 3840SOL    HW222983   2.932   0.218   7.613 -0.1719 -0.8855  1.5880
 3841SOL     OW22984   0.612   1.987  10.835  0.0423  0.0866  0.7160
 3841SOL    HW122985   0.637   2.041  10.761  0.7476  0.9522  1.5827
 3841SOL    HW222986   0.696   1.985  10.880 -0.6821 -2.3481  1.9745
 3842SOL     OW22987   1.879   1.338  12.787 -0.4196  0.1140  0.3599
 3842SOL    HW122988   1.932   1.413  12.759  2.4051 -2.4409 -1.1447
 3842SOL    HW222989   1.817   1.377  12.848 -0.3954  0.3672  0.2209
 3843SOL     OW22990   1.556   0.830   1.245 -0.1051 -0.0684  0.3893
 3843SOL    HW122991   1.481   0.810   1.189  0.4847  1.4040 -0.9266
 3843SOL    HW222992   1.637   0.835   1.194 -0.6528  0.1680 -0.4485
 3844SOL     OW22993   0.097   0.810   1.124  0.3452  0.6905 -0.1751
 3844SOL    HW122994   0.086   0.889   1.070  3.2500  0.0819 -1.6806
 3844SOL    HW222995   0.010   0.803   1.164  0.7103 -0.2149  0.4461
 3845SOL     OW22996   0.908   1.470  13.143 -0.2361 -0.5551  0.0983
 3845SOL    HW122997   0.964   1.397  13.116  0.7365  0.1429  0.2355
 3845SOL    HW222998   0.930   1.532  13.073 -0.7867  0.6767  1.0213
 3846SOL     OW22999   2.824   2.732   8.765  0.1426 -0.3130  0.2371
 3846SOL    HW123000   2.902   2.786   8.752 -0.3683  0.6073  1.0040
 3846SOL    HW223001   2.787   2.801   8.820 -0.1959 -2.0687  2.1956
 3847SOL     OW23002   4.662   0.556   4.184  0.3804 -0.4577 -0.0914
 3847SOL    HW123003   4.591   0.585   4.127  0.7792  1.8185  0.5642
 3847SOL    HW223004   4.606   0.522   4.254 -0.0597  0.5860  0.0681
 3848SOL     OW23005   0.787   2.195   3.395  0.7503  0.3225  0.4974
 3848SOL    HW123006   0.721   2.241   3.343  2.2992  2.4324  0.3978
 3848SOL    HW223007   0.740   2.117   3.423 -0.9959  0.6252 -1.5670
 3849SOL     OW23008   4.503   0.166  17.109  0.5845 -0.1051  0.5901
 3849SOL    HW123009   4.411   0.147  17.129  0.2749  2.3769  1.5951
 3849SOL    HW223010   4.546   0.123  17.183  1.2189  0.2882  0.4481
 3850SOL     OW23011   3.030   2.822   8.610  0.3016 -0.0872  0.2993
 3850SOL    HW123012   3.048   2.809   8.517 -1.0594  0.4396 -0.0341
 3850SOL    HW223013   3.087   2.758   8.653  0.0103 -0.3798  0.2507
 3851SOL     OW23014   2.582   0.198  17.131  0.2897 -0.2059 -0.2305
 3851SOL    HW123015   2.597   0.146  17.052 -1.9961 -0.2041 -0.6744
 3851SOL    HW223016   2.655   0.168  17.185  0.0364 -1.0217 -0.3415
 3852SOL     OW23017   1.185   3.885   7.686 -0.5110 -0.5158 -0.1467
 3852SOL    HW123018   1.269   3.928   7.704 -1.1107  0.1793  1.0181
 3852SOL    HW223019   1.191   3.802   7.733 -2.0416 -0.4556  0.1544
 3853SOL     OW23020   4.698   3.481  17.578 -0.3231  0.3787 -0.1569
 3853SOL    HW123021   4.659   3.540  17.643 -0.2952  0.9498 -0.6553
 3853SOL    HW223022   0.035   3.536  17.530  1.7876 -1.9282 -0.0665
 3854SOL     OW23023   4.541   3.181   8.708 -0.5508 -0.1136  0.1371
 3854SOL    HW123024   4.568   3.235   8.634 -3.6917  1.5579  0.1985
 3854SOL    HW223025   4.471   3.140   8.656 -2.0569  1.7600  0.6824
 3855SOL     OW23026   1.438   2.513   9.020  0.3503 -0.2894  0.1070
 3855SOL    HW123027   1.415   2.554   9.103 -1.5499 -2.3660  0.5950
 3855SOL    HW223028   1.450   2.425   9.054 -0.5234  0.0928  1.4062
 3856SOL     OW23029   1.228   2.316  11.561 -0.0636  0.0354 -0.5008
 3856SOL    HW123030   1.209   2.388  11.622 -4.0063 -0.4817 -1.1031
 3856SOL    HW223031   1.317   2.343  11.541 -0.5470  0.1057 -2.5303
 3857SOL     OW23032   0.588   3.857  15.888 -0.5831  0.4861 -0.0853
 3857SOL    HW123033   0.578   3.940  15.935  0.5312  1.4567 -1.5964
 3857SOL    HW223034   0.636   3.811  15.957 -0.7246  1.4042  0.6194
 3858SOL     OW23035   0.417   3.711  12.453  0.6018 -0.2725  0.0759
 3858SOL    HW123036   0.392   3.633  12.502 -0.2258 -0.2312 -0.2796
 3858SOL    HW223037   0.496   3.733  12.504  1.5429 -0.9712 -1.0884
 3859SOL     OW23038   1.595   2.893   2.435  0.1723  0.4302 -0.1138
 3859SOL    HW123039   1.569   2.841   2.359  0.0533 -0.9914  0.9012
 3859SOL    HW223040   1.587   2.835   2.510  0.8722  2.2003  1.3234
 3860SOL     OW23041   2.368   0.109   1.193 -0.2505  0.1912 -0.0170
 3860SOL    HW123042   2.394   0.166   1.265 -1.2179  1.3373 -0.5759
 3860SOL    HW223043   2.456   0.093   1.159 -1.4014 -3.3387 -1.4494
 3861SOL     OW23044   1.475   4.010   1.568  0.4936 -0.3957  0.6382
 3861SOL    HW123045   1.421   4.082   1.536  0.8695 -1.1381 -1.6392
 3861SOL    HW223046   1.563   4.036   1.538  0.5598 -2.6433 -1.0722
 3862SOL     OW23047   3.830   1.252   3.251 -0.2042 -0.0171 -0.1498
 3862SOL    HW123048   3.837   1.162   3.281  0.3634  0.7929  2.1391
 3862SOL    HW223049   3.777   1.236   3.173 -1.5337  0.8510  0.5623
 3863SOL     OW23050   4.320   0.911   2.155 -0.0835 -0.5141  0.0654
 3863SOL    HW123051   4.312   0.875   2.067  2.0413  0.9152 -0.7247
 3863SOL    HW223052   4.405   0.872   2.177  0.6777  1.5952  0.8908
 3864SOL     OW23053   4.086   3.070   3.500 -0.0611  0.7873 -0.1088
 3864SOL    HW123054   4.150   3.002   3.520  2.6105  2.8592 -1.4541
 3864SOL    HW223055   4.099   3.072   3.405  0.1551 -2.0593 -0.1364
 3865SOL     OW23056   4.282   1.224   8.404 -0.4603 -0.4300 -0.1217
 3865SOL    HW123057   4.285   1.318   8.420  2.1076 -0.8596  2.0025
 3865SOL    HW223058   4.375   1.203   8.397 -0.2929  0.7448 -1.3044
 3866SOL     OW23059   0.461   1.785  13.431 -0.1507 -0.3285 -0.1290
 3866SOL    HW123060   0.369   1.762  13.414 -0.2195 -1.3839  1.7345
 3866SOL    HW223061   0.507   1.739  13.360 -0.4487  0.1220 -0.6171
 3867SOL     OW23062   1.491   2.921   8.487  0.0000  0.2257 -0.4980
 3867SOL    HW123063   1.580   2.892   8.465 -0.1353  0.3789 -1.2400
 3867SOL    HW223064   1.515   3.007   8.520  1.2686 -1.1627  2.2099
 3868SOL     OW23065   3.320   1.231   3.820 -0.1092 -0.4237  0.0557
 3868SOL    HW123066   3.324   1.240   3.916  0.4681 -0.2516  0.0171
 3868SOL    HW223067   3.409   1.254   3.793 -0.6714 -0.8944 -2.1242
 3869SOL     OW23068   0.502   3.953   8.413 -0.1352  0.0436 -0.0944
 3869SOL    HW123069   0.566   3.964   8.343  0.9035  1.7717  1.1262
 3869SOL    HW223070   0.552   3.998   8.481 -0.2260  2.1461 -1.4480
 3870SOL     OW23071   0.307   3.025  16.122 -0.4193  0.0455 -0.4286
 3870SOL    HW123072   0.228   3.022  16.177 -0.4861 -1.0011 -0.5859
 3870SOL    HW223073   0.273   2.988  16.041  0.3465 -0.6653 -0.4198
 3871SOL     OW23074   4.106   1.403  15.376  0.3094  0.1935  0.1480
 3871SOL    HW123075   4.134   1.370  15.290  1.2626  0.4749  0.3496
 3871SOL    HW223076   4.091   1.318  15.417  0.3793 -0.5989 -1.4829
 3872SOL     OW23077   1.684   1.118   5.298  0.2866  0.3323 -0.0481
 3872SOL    HW123078   1.617   1.166   5.250 -0.5782 -1.4108 -0.5795
 3872SOL    HW223079   1.760   1.137   5.244  1.3718  0.4943  1.5463
 3873SOL     OW23080   3.297   3.820  13.584 -1.0418  0.1096 -0.0771
 3873SOL    HW123081   3.232   3.828  13.514 -2.7492 -0.5090  1.4616
 3873SOL    HW223082   3.371   3.866  13.544 -2.4849  2.4672 -0.0430
 3874SOL     OW23083   1.091   1.433   3.605 -0.7614 -0.0451  0.1614
 3874SOL    HW123084   1.143   1.406   3.529  1.5774 -1.1638  2.1888
 3874SOL    HW223085   1.006   1.418   3.562 -0.8701  1.9406 -0.3054
 3875SOL     OW23086   4.538   0.044   6.698  0.2581 -0.4014 -0.6529
 3875SOL    HW123087   4.631   0.065   6.688 -0.1269  1.5537 -0.0957
 3875SOL    HW223088   4.549   4.699   6.763  1.5664  1.3535  0.9799
 3876SOL     OW23089   0.487   4.609   9.171 -0.1444 -0.1861 -0.0385
 3876SOL    HW123090   0.450   4.609   9.082 -0.6602 -2.3287  0.1744
 3876SOL    HW223091   0.501   4.704   9.178 -1.2839  0.0146 -0.4121
 3877SOL     OW23092   2.972   0.411   6.681  0.4207 -0.0645 -0.1082
 3877SOL    HW123093   2.974   0.373   6.769  1.1706  0.4023  0.0684
 3877SOL    HW223094   2.893   0.465   6.681 -0.1176 -0.8329 -1.1228
 3878SOL     OW23095   4.143   0.562  13.008 -0.0934  0.2496 -0.6095
 3878SOL    HW123096   4.132   0.551  12.914 -2.6957 -0.9475 -0.1613
 3878SOL    HW223097   4.234   0.593  13.011 -0.5459  1.5379 -0.5002
 3879SOL     OW23098   4.423   2.345   4.146 -0.6077  0.5533  0.5186
 3879SOL    HW123099   4.423   2.441   4.150  0.5576  0.5855 -0.4423
 3879SOL    HW223100   4.475   2.318   4.222 -0.7997 -0.3456  0.3309
 3880SOL     OW23101   3.648   2.065   3.812 -0.2062  0.9039  0.0301
 3880SOL    HW123102   3.653   2.079   3.906  0.2987 -1.5733  0.3772
 3880SOL    HW223103   3.727   2.103   3.773 -0.0520  0.3132 -0.2413
 3881SOL     OW23104   3.342   1.531   4.034 -0.0295  0.1753  0.1813
 3881SOL    HW123105   3.352   1.439   4.056  0.4337  0.5956  1.7947
 3881SOL    HW223106   3.402   1.562   4.102 -0.3179 -0.2456  0.6248
 3882SOL     OW23107   2.981   3.641  12.714  0.0479  0.1967  0.0717
 3882SOL    HW123108   2.938   3.692  12.782 -0.2524  1.2875 -0.9301
 3882SOL    HW223109   2.918   3.570  12.706  0.3001 -0.0025 -0.1882
 3883SOL     OW23110   4.717   2.549   6.769 -0.3279  0.0535  0.1393
 3883SOL    HW123111   4.711   2.643   6.785  2.3172  0.2420  0.1575
 3883SOL    HW223112   4.635   2.517   6.806 -0.3190  0.6164  0.6571
 3884SOL     OW23113   3.765   2.261   4.929 -0.4125  0.1667  0.0298
 3884SOL    HW123114   3.778   2.299   4.843 -0.0903  0.2795  0.1292
 3884SOL    HW223115   3.832   2.309   4.977 -0.2845 -0.0808  0.0974
 3885SOL     OW23116   3.360   0.610   2.105 -0.3805 -0.0647 -0.4883
 3885SOL    HW123117   3.384   0.673   2.038  2.6761 -0.2655  0.4416
 3885SOL    HW223118   3.408   0.650   2.178  0.5661  0.5736 -1.4643
 3886SOL     OW23119   3.232   2.401  14.568  0.1547 -0.1100  0.1869
 3886SOL    HW123120   3.230   2.388  14.662  2.5148  0.1122  0.2501
 3886SOL    HW223121   3.284   2.328  14.535  1.3887 -0.1408  2.2112
 3887SOL     OW23122   4.320   2.311   5.102  0.3375 -0.2575  0.4958
 3887SOL    HW123123   4.292   2.226   5.070 -0.7558  0.6086 -0.8660
 3887SOL    HW223124   4.266   2.309   5.182  1.4929  0.8053  1.3074
 3888SOL     OW23125   1.657   2.281  12.663  0.0447 -0.0817 -0.4549
 3888SOL    HW123126   1.594   2.347  12.635 -0.0587 -1.6779 -3.9315
 3888SOL    HW223127   1.688   2.256  12.576 -0.4299 -2.1903 -0.0199
 3889SOL     OW23128   3.745   4.192   6.146 -0.1592  0.7347  0.0026
 3889SOL    HW123129   3.727   4.273   6.195  0.6589  0.3653  0.9247
 3889SOL    HW223130   3.665   4.200   6.093 -0.8106  2.3276  1.2001
 3890SOL     OW23131   1.082   0.772   6.656  0.0310  0.3501  0.4652
 3890SOL    HW123132   1.038   0.689   6.637  0.8681  0.1384 -0.5307
 3890SOL    HW223133   1.085   0.806   6.567 -0.3299  1.0225  0.7116
 3891SOL     OW23134   2.662   3.204  14.684 -0.3849  0.2099 -0.0211
 3891SOL    HW123135   2.582   3.152  14.677  0.2822 -0.9772  0.9826
 3891SOL    HW223136   2.709   3.157  14.754 -1.2021 -1.1051 -0.3453
 3892SOL     OW23137   1.002   1.013  12.837  0.5731  0.0058  0.0116
 3892SOL    HW123138   1.038   1.099  12.813 -0.1952  0.7508  1.5814
 3892SOL    HW223139   1.052   0.960  12.775  2.9538  1.5058  0.6617
 3893SOL     OW23140   0.256   0.084  12.164 -0.1845 -0.3451  0.5344
 3893SOL    HW123141   0.248   0.007  12.220  0.1921 -1.3498 -0.8073
 3893SOL    HW223142   0.208   0.154  12.209 -0.9102 -0.7131  0.3470
 3894SOL     OW23143   1.402   4.033   9.149  0.0886  0.3094 -0.1506
 3894SOL    HW123144   1.329   4.083   9.112 -0.2028  0.1775  0.2406
 3894SOL    HW223145   1.436   4.091   9.217  0.3257  0.5091 -0.4457
 3895SOL     OW23146   1.442   1.312   8.980  0.3273 -0.6940  0.4582
 3895SOL    HW123147   1.512   1.326   8.916 -0.2298 -0.7519 -0.1677
 3895SOL    HW223148   1.455   1.219   8.994  2.5883 -0.1857  1.7636
 3896SOL     OW23149   0.362   3.272   2.631 -0.1643  0.0340  0.6101
 3896SOL    HW123150   0.369   3.232   2.544 -1.8113  0.4621  0.2656
 3896SOL    HW223151   0.457   3.280   2.638 -0.2755 -0.6111  2.8143
 3897SOL     OW23152   2.643   0.496   4.308  0.2441 -0.6860 -0.0291
 3897SOL    HW123153   2.606   0.416   4.271  1.9459 -1.0643 -0.8801
 3897SOL    HW223154   2.596   0.509   4.391  0.6514 -2.3365  0.4539
 3898SOL     OW23155   4.116   0.044   4.043  0.2472  0.7780 -0.3837
 3898SOL    HW123156   4.096   4.724   3.960  1.0717 -1.0517  0.3736
 3898SOL    HW223157   4.059   4.724   4.105 -2.0523  2.4323 -1.3329
 3899SOL     OW23158   2.943   1.496   1.313 -0.2795 -0.1331  1.3657
 3899SOL    HW123159   3.019   1.440   1.301 -0.6600 -0.2772 -0.4409
 3899SOL    HW223160   2.969   1.536   1.396  0.2357  1.8046  0.2609
 3900SOL     OW23161   1.235   1.084  15.423  0.0538 -0.2550  0.2948
 3900SOL    HW123162   1.258   1.124  15.507 -2.7039  1.2998  0.3314
 3900SOL    HW223163   1.296   1.011  15.419  0.7290  0.5177 -3.3278
 3901SOL     OW23164   0.200   2.123   4.826  0.7379 -0.0869  0.3156
 3901SOL    HW123165   0.226   2.056   4.889  1.4831 -0.9014 -0.8603
 3901SOL    HW223166   0.233   2.201   4.871  2.3316 -0.0118 -0.9772
 3902SOL     OW23167   1.110   4.398   4.779 -0.8084 -0.5915 -0.0702
 3902SOL    HW123168   1.112   4.488   4.746 -2.8002 -0.8554 -0.8877
 3902SOL    HW223169   1.178   4.363   4.721  0.2686  0.8367  0.3150
 3903SOL     OW23170   1.805   1.361  13.616 -0.3920  0.3449  0.2067
 3903SOL    HW123171   1.834   1.270  13.618  2.5187  1.3089  1.7176
 3903SOL    HW223172   1.771   1.366  13.527 -1.3088  2.3299  0.6565
 3904SOL     OW23173   0.565   2.709   6.491 -0.1762  0.3706  0.1830
 3904SOL    HW123174   0.658   2.731   6.485 -0.0727 -0.2467 -0.5502
 3904SOL    HW223175   0.551   2.683   6.582 -0.5188  2.0420  0.6079
 3905SOL     OW23176   4.658   1.347   4.462 -0.1391 -0.3997 -0.0851
 3905SOL    HW123177   4.707   1.400   4.399  0.7544  1.6364  2.3440
 3905SOL    HW223178   4.619   1.303   4.386  0.2861 -0.2470 -0.3890
 3906SOL     OW23179   2.343   1.830  11.172 -0.0352  0.4617 -0.4719
 3906SOL    HW123180   2.293   1.867  11.099  0.7246  0.7077 -0.8721
 3906SOL    HW223181   2.287   1.763  11.211  0.1063  1.0903  0.8062
 3907SOL     OW23182   4.108   1.237   5.201  0.1711 -0.8806  0.6426
 3907SOL    HW123183   4.181   1.286   5.237 -0.9190 -0.2886  2.0589
 3907SOL    HW223184   4.032   1.295   5.200  0.6862 -0.2547 -1.1685
 3908SOL     OW23185   2.138   1.445  13.920 -0.5365  0.1440 -0.1660
 3908SOL    HW123186   2.049   1.477  13.938 -0.0773  0.2482  1.8945
 3908SOL    HW223187   2.181   1.471  14.001 -0.2204 -0.6509 -0.0832
 3909SOL     OW23188   4.239   3.929   3.524 -0.1228  0.3541 -0.7979
 3909SOL    HW123189   4.321   3.882   3.507 -0.1010 -0.0658  0.4547
 3909SOL    HW223190   4.209   3.927   3.434 -1.5525  0.9609 -0.3341
 3910SOL     OW23191   4.225   0.701  13.477  0.2397  0.1196 -0.0279
 3910SOL    HW123192   4.148   0.651  13.505  0.5977  0.8011  2.1713
 3910SOL    HW223193   4.277   0.638  13.428  1.3594  1.2287 -0.2838
 3911SOL     OW23194   4.503   2.693   8.455 -0.5311 -0.2072  0.0514
 3911SOL    HW123195   4.565   2.708   8.382 -0.1016  0.9392  0.6419
 3911SOL    HW223196   4.519   2.600   8.466  1.4264  0.3286  1.6493
 3912SOL     OW23197   0.276   2.270   4.402  0.3586 -0.1751 -0.0183
 3912SOL    HW123198   0.196   2.320   4.383  0.2719  0.2852  1.5493
 3912SOL    HW223199   0.320   2.321   4.470 -0.1861  0.1083  0.1239
 3913SOL     OW23200   4.553   2.553   7.942  0.0744 -0.2126 -0.0289
 3913SOL    HW123201   4.534   2.639   7.904  1.1905 -0.0557 -0.2309
 3913SOL    HW223202   4.497   2.555   8.020  1.1911 -0.7639  0.7801
 3914SOL     OW23203   2.895   3.850   7.122 -0.1633  0.4759  0.1122
 3914SOL    HW123204   2.891   3.892   7.208  1.0622  1.1057 -0.1450
 3914SOL    HW223205   2.989   3.843   7.103 -0.4131 -0.6794 -0.7225
 3915SOL     OW23206   1.472   0.595  11.239  0.1265  0.0279  1.0400
 3915SOL    HW123207   1.480   0.673  11.184 -3.0695 -0.9581 -0.8345
 3915SOL    HW223208   1.556   0.600  11.285  0.9572  0.8482 -0.5697
 3916SOL     OW23209   0.635   2.347   3.223 -0.1103 -0.2963 -0.8279
 3916SOL    HW123210   0.723   2.346   3.186  0.2853  1.6657  0.0788
 3916SOL    HW223211   0.641   2.441   3.240 -1.1200 -0.6213  1.2229
 3917SOL     OW23212   4.292   4.025   7.311 -0.7417 -0.2113  0.8495
 3917SOL    HW123213   4.264   4.092   7.373 -1.3478 -0.8432  1.2658
 3917SOL    HW223214   4.380   4.047   7.281 -1.6525  0.1677 -1.5277
 3918SOL     OW23215   2.384   4.437   4.297 -0.5832  0.5850  0.1903
 3918SOL    HW123216   2.296   4.465   4.273  0.4802  2.0722 -1.9474
 3918SOL    HW223217   2.409   4.374   4.230  2.8397  0.5906  1.4386
 3919SOL     OW23218   0.608   0.447   5.147 -0.4126  0.1405  0.1364
 3919SOL    HW123219   0.704   0.438   5.147 -0.3551  0.8081 -1.4749
 3919SOL    HW223220   0.589   0.509   5.077  2.7003 -0.8626 -1.6181
 3920SOL     OW23221   2.448   3.287   7.687 -0.8642 -1.0215  0.2014
 3920SOL    HW123222   2.491   3.327   7.762  1.0008 -2.1159 -0.2750
 3920SOL    HW223223   2.526   3.272   7.632 -0.2387  1.6559  0.3681
 3921SOL     OW23224   1.608   1.543   6.120  0.3527 -0.1344 -0.6774
 3921SOL    HW123225   1.519   1.557   6.152  0.5162 -0.6361  0.0033
 3921SOL    HW223226   1.597   1.452   6.093  0.2182 -0.9768  2.1728
 3922SOL     OW23227   1.898   3.294   7.930  0.0266  0.1280  0.2791
 3922SOL    HW123228   1.973   3.333   7.974  1.2969 -1.4316 -0.5073
 3922SOL    HW223229   1.836   3.279   8.001  1.6203  0.3042  1.6990
 3923SOL     OW23230   3.642   0.435  11.185 -0.0899  0.1257  0.2891
 3923SOL    HW123231   3.645   0.528  11.164 -1.0232  0.4096  1.4222
 3923SOL    HW223232   3.628   0.440  11.279 -0.6411  0.2474  0.1990
 3924SOL     OW23233   3.620   2.790   1.973  0.4108  0.4638 -0.3725
 3924SOL    HW123234   3.546   2.730   1.986  0.3821  1.1366  2.7479
 3924SOL    HW223235   3.598   2.847   1.900 -0.0445  1.2892  0.4016
 3925SOL     OW23236   2.961   3.012   1.552  0.2247 -0.3004  0.1026
 3925SOL    HW123237   2.943   3.087   1.608 -1.0752 -0.2170 -0.4126
 3925SOL    HW223238   2.873   2.992   1.519  0.3221 -1.3602  0.4589
 3926SOL     OW23239   3.209   2.713  16.688  0.4738 -0.2974 -0.0562
 3926SOL    HW123240   3.192   2.785  16.749  1.5906  0.0690 -0.1863
 3926SOL    HW223241   3.237   2.771  16.617 -0.4331  1.8878  1.3826
 3927SOL     OW23242   0.198   0.400   0.037  0.0666 -0.6320 -0.4275
 3927SOL    HW123243   0.109   0.409   0.072  0.4555  0.3949  0.2731
 3927SOL    HW223244   0.242   0.357   0.110 -0.3641  0.0071  0.2074
 3928SOL     OW23245   4.453   4.690  13.872 -0.2263 -0.0077 -0.3300
 3928SOL    HW123246   4.533   4.641  13.887  1.0620  2.1201 -0.2755
 3928SOL    HW223247   4.502   0.044  13.847 -0.3652  0.3165  0.4270
 3929SOL     OW23248   4.009   2.560   7.980 -0.1476 -0.3090  0.5367
 3929SOL    HW123249   3.938   2.587   8.039 -0.3544 -2.6211  1.3746
 3929SOL    HW223250   4.078   2.624   7.998 -1.1637  1.0763 -0.5046
 3930SOL     OW23251   3.753   4.686   0.138  0.0469 -0.6128 -0.4029
 3930SOL    HW123252   3.827   4.660   0.084  0.5667  1.3524 -0.6564
 3930SOL    HW223253   3.784   4.658   0.224 -0.1533 -2.0793 -0.8188
 3931SOL     OW23254   3.311   1.408   3.451 -0.6290 -0.9920 -0.0083
 3931SOL    HW123255   3.221   1.440   3.447  0.1670  0.9418 -2.7096
 3931SOL    HW223256   3.347   1.495   3.469 -1.4430 -0.2682 -1.8747
 3932SOL     OW23257   0.749   0.725   5.831  0.6560 -0.0940 -0.8600
 3932SOL    HW123258   0.783   0.638   5.853  2.6185  0.9371  0.1635
 3932SOL    HW223259   0.730   0.742   5.923  0.4892 -2.3340 -0.4847
 3933SOL     OW23260   2.215   2.948   8.827  0.4342  0.4973  0.0464
 3933SOL    HW123261   2.185   3.014   8.890 -2.0626 -0.3806 -0.2400
 3933SOL    HW223262   2.300   2.987   8.804 -0.2434  1.3338 -1.0525
 3934SOL     OW23263   1.275   1.758   6.937  0.5806  0.4562 -0.7381
 3934SOL    HW123264   1.319   1.764   7.022 -0.9730 -0.0933  0.1042
 3934SOL    HW223265   1.341   1.784   6.872 -1.6367  0.9426 -2.7829
 3935SOL     OW23266   1.032   0.980   6.843 -0.6888  0.5431 -0.5303
 3935SOL    HW123267   1.033   0.908   6.780  1.4428  1.1089 -1.1665
 3935SOL    HW223268   1.126   0.999   6.839 -0.6295  0.1503 -1.0036
 3936SOL     OW23269   0.944   3.851   6.944  0.4457 -0.3882  0.0281
 3936SOL    HW123270   1.012   3.816   7.002 -0.7497 -0.1525  1.5695
 3936SOL    HW223271   0.993   3.912   6.889 -0.9166  0.1835 -0.5459
 3937SOL     OW23272   1.422   0.746  12.361  0.0379  0.5468  0.4462
 3937SOL    HW123273   1.365   0.822  12.349 -2.4830 -0.8738  3.4761
 3937SOL    HW223274   1.409   0.725  12.453  1.0815  0.0427  0.4764
 3938SOL     OW23275   0.368   3.144  12.581  0.0229  0.4488  0.0256
 3938SOL    HW123276   0.405   3.155  12.668 -0.9656 -2.2445  0.7964
 3938SOL    HW223277   0.300   3.083  12.610  1.2579 -0.1249  1.7511
 3939SOL     OW23278   0.057   2.312   4.689  0.0890  0.7393 -0.3451
 3939SOL    HW123279   0.087   2.304   4.598  3.1649 -4.5624  1.1470
 3939SOL    HW223280   0.106   2.238   4.725  2.4983  3.0892  1.2108
 3940SOL     OW23281   3.754   0.434  10.428 -0.2867 -0.1372 -0.3682
 3940SOL    HW123282   3.817   0.503  10.407 -2.0276  1.4827 -0.3327
 3940SOL    HW223283   3.716   0.478  10.505 -1.1600 -1.0466 -0.2688
 3941SOL     OW23284   1.073   3.470   3.871 -0.1600  0.0374 -0.0307
 3941SOL    HW123285   1.007   3.509   3.928 -0.4667 -0.7947  0.1948
 3941SOL    HW223286   1.085   3.393   3.927  1.0680 -0.4961 -1.0351
 3942SOL     OW23287   0.031   2.266   2.486 -0.3421 -0.0213  0.0310
 3942SOL    HW123288   0.119   2.298   2.511  0.1389 -0.9288 -0.5161
 3942SOL    HW223289   0.044   2.174   2.463 -0.5445  0.0625 -0.4076
 3943SOL     OW23290   4.700   1.491   5.158 -0.2273  0.3758  0.5136
 3943SOL    HW123291   4.622   1.532   5.195 -0.3573  1.3916 -0.9294
 3943SOL    HW223292   4.676   1.493   5.066 -1.7855  0.0833  0.9084
 3944SOL     OW23293   2.943   2.095   8.093  0.0696  0.2025 -0.2708
 3944SOL    HW123294   2.949   2.020   8.034  3.0726  1.7267 -1.8653
 3944SOL    HW223295   3.035   2.118   8.099  0.2099 -0.4052 -0.1006
 3945SOL     OW23296   3.301   2.668  14.539 -0.7574  0.1161  0.1312
 3945SOL    HW123297   3.274   2.576  14.543  0.2489 -0.2167 -0.6794
 3945SOL    HW223298   3.301   2.680  14.634  3.2344  0.3825  0.0856
 3946SOL     OW23299   1.843   3.601   5.206 -0.0175 -0.7422  0.0329
 3946SOL    HW123300   1.899   3.657   5.259 -0.4984  0.4393 -0.7104
 3946SOL    HW223301   1.896   3.596   5.126  0.7749 -0.2552  0.5307
 3947SOL     OW23302   0.015   1.016   3.809 -0.2496  0.1158  0.2232
 3947SOL    HW123303   4.658   0.965   3.810 -0.9936  1.4181  4.5855
 3947SOL    HW223304   4.706   1.097   3.771 -2.2506 -0.9972 -0.4168
 3948SOL     OW23305   4.286   4.132  15.011 -0.0448  0.0407 -0.7036
 3948SOL    HW123306   4.254   4.188  15.082  0.7285  0.0664 -0.3684
 3948SOL    HW223307   4.359   4.088  15.055 -0.5705  0.9521  1.0664
 3949SOL     OW23308   3.091   2.293   9.515 -0.5574 -0.2406 -0.2409
 3949SOL    HW123309   3.120   2.202   9.504  1.0842  0.5173 -2.1189
 3949SOL    HW223310   3.143   2.324   9.589 -1.7635  0.6128  0.2643
 3950SOL     OW23311   1.244   0.520   4.185  0.5355 -0.2358  0.1855
 3950SOL    HW123312   1.154   0.503   4.212 -0.0219  2.7627  0.2692
 3950SOL    HW223313   1.221   0.593   4.127 -3.1935 -0.2774  1.5757
 3951SOL     OW23314   1.428   2.927   5.946  0.1885  0.0650 -0.4521
 3951SOL    HW123315   1.347   2.978   5.931  1.1925  1.8643  0.2565
 3951SOL    HW223316   1.459   2.909   5.857  2.1611 -2.1283  0.6916
 3952SOL     OW23317   1.699   4.690   1.668 -0.6215 -0.0960  0.0868
 3952SOL    HW123318   1.695   4.685   1.572 -1.4524 -0.1405  0.1217
 3952SOL    HW223319   1.751   4.611   1.685 -1.7776 -0.6568  1.0380
 3953SOL     OW23320   2.932   3.371   4.466 -0.1119 -0.2909 -0.0779
 3953SOL    HW123321   2.948   3.283   4.500  0.8232  0.4490  1.3733
 3953SOL    HW223322   2.936   3.434   4.538 -0.5652 -0.1078 -0.2138
 3954SOL     OW23323   1.601   4.338  10.222 -0.4688  0.2968 -0.2737
 3954SOL    HW123324   1.646   4.364  10.142  3.4739 -1.3940  1.4190
 3954SOL    HW223325   1.653   4.382  10.289  0.8600 -1.2871 -0.2650
 3955SOL     OW23326   0.088   3.047   6.957 -0.0582 -0.1808 -0.3421
 3955SOL    HW123327   0.071   3.005   7.042  1.0285 -1.5530 -0.8004
 3955SOL    HW223328   0.070   2.970   6.903 -3.1432  1.7492 -2.0233
 3956SOL     OW23329   2.566   0.499  13.263  0.7907 -0.2026  0.3000
 3956SOL    HW123330   2.566   0.567  13.330 -1.8303  0.1969 -0.1087
 3956SOL    HW223331   2.534   0.544  13.185 -0.1370 -0.5674  0.4728
 3957SOL     OW23332   1.653   0.887  17.106  0.4863 -0.1403 -0.5530
 3957SOL    HW123333   1.705   0.855  17.181  0.4864 -0.2363 -0.5943
 3957SOL    HW223334   1.712   0.879  17.031  0.5539 -3.3712 -0.1678
 3958SOL     OW23335   3.579   1.997  16.693 -0.3657 -0.1422  0.4568
 3958SOL    HW123336   3.503   2.022  16.746 -1.2413  2.6742 -2.1132
 3958SOL    HW223337   3.603   2.080  16.652  1.1802 -0.8408 -0.0767
 3959SOL     OW23338   3.947   2.081   0.643 -0.3927 -0.0111  0.4992
 3959SOL    HW123339   3.931   2.175   0.636  1.7191  0.4259  1.7990
 3959SOL    HW223340   4.035   2.074   0.606  0.2942  0.1551  2.1231
 3960SOL     OW23341   4.465   1.240   4.889 -0.0483 -0.2440  0.2620
 3960SOL    HW123342   4.462   1.256   4.795  1.2740  0.7415  0.3876
 3960SOL    HW223343   4.558   1.217   4.893 -0.3614 -1.0845  2.5839
 3961SOL     OW23344   0.567   4.439   8.753  0.2717  0.0321 -0.1918
 3961SOL    HW123345   0.508   4.512   8.772 -0.2412 -0.4476  0.0782
 3961SOL    HW223346   0.498   4.380   8.723 -1.3923  2.1387 -0.4938
 3962SOL     OW23347   2.841   2.476   8.691  0.3261  0.0171  0.1213
 3962SOL    HW123348   2.834   2.568   8.716  1.7086 -0.1243  0.9860
 3962SOL    HW223349   2.933   2.459   8.709 -0.0626 -0.8500  1.2455
 3963SOL     OW23350   0.872   1.864   7.382 -0.0017 -0.0884 -0.5773
 3963SOL    HW123351   0.958   1.834   7.353  0.3403 -0.9667  1.3202
 3963SOL    HW223352   0.829   1.782   7.407  0.8353 -0.5392 -0.6019
 3964SOL     OW23353   4.312   0.012  14.274  0.1989 -0.0361 -0.0912
 3964SOL    HW123354   4.400   4.702  14.255  0.1190 -1.5257  2.2621
 3964SOL    HW223355   4.266   0.013  14.190  2.6984 -0.2059 -1.4700
 3965SOL     OW23356   3.540   1.220   0.982 -0.4594 -0.2231  0.1426
 3965SOL    HW123357   3.567   1.216   1.074 -0.7861 -0.3977  0.2299
 3965SOL    HW223358   3.485   1.143   0.972 -0.3936 -0.1790 -0.5360
 3966SOL     OW23359   3.605   0.041   7.579  0.3158  0.0397  0.5522
 3966SOL    HW123360   3.609   0.008   7.669 -1.4313  0.1912  0.6894
 3966SOL    HW223361   3.596   4.686   7.527  2.0621  1.1246 -1.4093
 3967SOL     OW23362   1.277   2.793   7.634  0.4400 -0.0216 -0.1371
 3967SOL    HW123363   1.225   2.859   7.680 -0.3724  0.2186 -1.3907
 3967SOL    HW223364   1.270   2.721   7.696  0.3133  0.2725  0.1841
 3968SOL     OW23365   4.235   3.792   5.988  0.1174  0.2506  0.4702
 3968SOL    HW123366   4.196   3.821   6.071 -0.7614  2.0827 -0.5871
 3968SOL    HW223367   4.173   3.735   5.942  0.8363  0.7153 -1.0747
 3969SOL     OW23368   3.935   0.768   7.328  0.1444 -0.2520 -0.2447
 3969SOL    HW123369   3.986   0.719   7.264 -0.0064  0.8205 -1.1929
 3969SOL    HW223370   3.863   0.799   7.272  0.3932 -1.6900 -1.3506
 3970SOL     OW23371   0.329   2.717   3.228  0.7367  0.5352  0.9619
 3970SOL    HW123372   0.252   2.681   3.185  0.4580  1.9640  0.2681
 3970SOL    HW223373   0.323   2.811   3.214  0.1445  0.2183 -0.8287
 3971SOL     OW23374   2.180   4.580   6.490  0.7850 -0.0630 -0.1448
 3971SOL    HW123375   2.241   4.562   6.561 -0.1536 -3.1217 -0.1328
 3971SOL    HW223376   2.156   4.670   6.513 -1.6237 -0.4628 -1.0905
 3972SOL     OW23377   2.512   0.306   7.117 -0.5268 -0.1337 -0.5013
 3972SOL    HW123378   2.447   0.339   7.179 -0.2225 -1.4692  0.5197
 3972SOL    HW223379   2.481   0.216   7.110 -2.4361  0.3940  1.1122
 3973SOL     OW23380   1.650   3.284   4.684 -0.5489 -0.2165  0.1839
 3973SOL    HW123381   1.716   3.275   4.754 -1.7434 -0.6993  1.2430
 3973SOL    HW223382   1.575   3.256   4.736 -0.2624 -0.4842  0.4535
 3974SOL     OW23383   3.641   0.821   4.912 -0.3955 -0.0458  0.2113
 3974SOL    HW123384   3.671   0.885   4.975  0.2459 -1.2225  1.1049
 3974SOL    HW223385   3.576   0.766   4.957 -0.7203  0.4208  0.3088
 3975SOL     OW23386   3.165   0.005   4.347  0.0878 -0.9481  0.4654
 3975SOL    HW123387   3.120   4.652   4.315 -1.5678 -0.0840  0.7143
 3975SOL    HW223388   3.161   4.709   4.440 -1.9162 -0.0151  0.5755
 3976SOL     OW23389   1.455   1.510   3.190  0.9169  0.0407  0.4306
 3976SOL    HW123390   1.402   1.589   3.177 -0.9032 -1.0494  1.2668
 3976SOL    HW223391   1.400   1.438   3.160  2.4761  0.1368 -2.7434
 3977SOL     OW23392   4.385   3.949   3.881  1.1356  0.1747  0.0935
 3977SOL    HW123393   4.473   3.939   3.843  1.1637 -2.0839  0.7165
 3977SOL    HW223394   4.412   4.005   3.953  1.8545  1.6189 -1.2846
 3978SOL     OW23395   1.800   2.629   4.232  0.1850 -0.5038 -0.3343
 3978SOL    HW123396   1.847   2.568   4.175 -1.4033 -0.0783 -2.0958
 3978SOL    HW223397   1.877   2.678   4.262 -1.6088  1.0823  1.6704
 3979SOL     OW23398   2.623   1.912   0.555  0.3586 -0.1325  0.5695
 3979SOL    HW123399   2.532   1.899   0.530 -0.0260 -0.4482  2.1440
 3979SOL    HW223400   2.625   2.005   0.579  1.2082  0.0210 -0.0747
 3980SOL     OW23401   1.371   4.589   6.946  0.1598 -0.0279  0.0393
 3980SOL    HW123402   1.343   4.670   6.905 -1.3819 -0.3818  0.3845
 3980SOL    HW223403   1.335   4.522   6.887 -0.3532 -0.6219  1.0244
 3981SOL     OW23404   0.744   1.033  16.938  0.8141  1.1314 -0.3808
 3981SOL    HW123405   0.749   0.948  16.895 -0.1235  0.8557  0.0412
 3981SOL    HW223406   0.834   1.062  16.949  0.8408  0.7421  0.4095
 3982SOL     OW23407   1.280   1.177  12.018 -0.8011  0.1539 -0.3476
 3982SOL    HW123408   1.251   1.262  11.985 -0.2096  0.2368 -0.6392
 3982SOL    HW223409   1.295   1.130  11.936  2.0802 -1.1417  0.9283
 3983SOL     OW23410   2.631   4.533   2.063 -0.5491  0.2389 -0.1595
 3983SOL    HW123411   2.683   4.464   2.104  0.8810  1.9312  0.8554
 3983SOL    HW223412   2.606   4.593   2.132  0.1691  0.0535  0.2674
 3984SOL     OW23413   0.633   2.152   3.833 -0.3299 -0.1489 -0.2532
 3984SOL    HW123414   0.714   2.172   3.785 -0.8466  1.6686 -0.3726
 3984SOL    HW223415   0.639   2.062   3.866  1.0902 -0.4076 -1.2021
 3985SOL     OW23416   2.377   3.411  11.077  0.2022  0.1091 -0.1094
 3985SOL    HW123417   2.354   3.405  11.170  2.1556  0.1864  0.3789
 3985SOL    HW223418   2.315   3.351  11.035 -2.2506  2.2039  0.5348
 3986SOL     OW23419   0.718   0.451   9.513  0.1292  0.3346 -0.0085
 3986SOL    HW123420   0.812   0.461   9.525  0.0217  2.4279 -0.8566
 3986SOL    HW223421   0.689   0.517   9.576  2.2124  0.0818  1.2138
 3987SOL     OW23422   0.758   2.256   8.969  0.3031 -0.2160  0.0481
 3987SOL    HW123423   0.854   2.262   8.974  0.2560 -0.4741  1.1608
 3987SOL    HW223424   0.743   2.229   8.878  1.9546  1.6477 -0.7712
 3988SOL     OW23425   2.261   3.250  12.758  0.2005 -0.1473  0.1859
 3988SOL    HW123426   2.327   3.271  12.692 -1.4258 -0.2899 -1.4826
 3988SOL    HW223427   2.317   3.259  12.835 -0.2721  1.9960  0.2884
 3989SOL     OW23428   3.767   1.570  17.149 -0.0941  0.6536  0.0326
 3989SOL    HW123429   3.713   1.620  17.211 -0.6603 -2.3660  2.0039
 3989SOL    HW223430   3.805   1.645  17.105 -0.2638  1.1306  0.6910
 3990SOL     OW23431   3.228   1.633   5.207 -0.2447 -0.8634  0.3112
 3990SOL    HW123432   3.248   1.685   5.284 -1.5195  0.7924 -0.4917
 3990SOL    HW223433   3.173   1.688   5.152  1.1299 -0.1768 -0.3758
 3991SOL     OW23434   0.294   4.613   1.999 -0.2076 -0.3472 -0.6607
 3991SOL    HW123435   0.378   4.573   1.980  1.0362  2.2046 -0.6000
 3991SOL    HW223436   0.283   4.575   2.086 -0.7805  0.7605 -0.2489
 3992SOL     OW23437   3.751   2.323  10.139 -0.1287  0.6705  0.1456
 3992SOL    HW123438   3.841   2.311  10.169  0.1588 -1.6688 -1.6390
 3992SOL    HW223439   3.758   2.318  10.043 -1.8449  0.0904  0.0460
 3993SOL     OW23440   2.645   2.873  11.505 -0.2020  0.3375  0.4459
 3993SOL    HW123441   2.632   2.916  11.589 -3.5380  0.8085 -0.3244
 3993SOL    HW223442   2.562   2.826  11.499 -1.4540  2.3829  1.4495
 3994SOL     OW23443   0.107   2.549   0.682  0.1558 -0.3760 -0.0147
 3994SOL    HW123444   0.092   2.461   0.647  0.4098 -0.1392 -0.7041
 3994SOL    HW223445   0.166   2.545   0.758 -0.9479 -0.1477  0.8454
 3995SOL     OW23446   2.758   1.872   9.173  0.4682 -0.0227  0.2109
 3995SOL    HW123447   2.828   1.894   9.111  1.9176 -2.3105  1.0340
 3995SOL    HW223448   2.785   1.935   9.239 -0.0353 -0.1929  0.5779
 3996SOL     OW23449   0.986   1.950  14.606  0.1841 -0.2900  0.2310
 3996SOL    HW123450   1.027   2.007  14.540 -0.3617  2.0562  1.9061
 3996SOL    HW223451   0.937   1.899  14.542  2.5055 -1.3288 -0.7054
 3997SOL     OW23452   0.205   4.489   2.524 -0.0713 -0.1523  0.3017
 3997SOL    HW123453   0.229   4.401   2.555 -0.4805 -0.7634 -1.0865
 3997SOL    HW223454   0.118   4.487   2.563  0.9350 -0.0107  2.5087
 3998SOL     OW23455   4.320   4.185   9.170 -0.4869  0.4690 -0.4005
 3998SOL    HW123456   4.295   4.225   9.254 -3.0459  0.4134 -1.1356
 3998SOL    HW223457   4.395   4.235   9.138  0.2351 -0.0734  0.4462
 3999SOL     OW23458   3.783   1.360   2.341  0.4602 -0.1570  0.2811
 3999SOL    HW123459   3.710   1.338   2.283  1.4412 -1.7678 -0.3583
 3999SOL    HW223460   3.775   1.455   2.336 -3.1628 -0.4087  1.3377
 4000SOL     OW23461   2.077   2.535  17.300  0.8153  0.4281 -0.5884
 4000SOL    HW123462   2.154   2.584  17.272  1.3042 -1.5913 -2.7679
 4000SOL    HW223463   2.092   2.528  17.394 -1.5387  0.9927 -0.1622
 4001SOL     OW23464   2.733   0.611   5.410  0.4769  0.1096 -0.4032
 4001SOL    HW123465   2.736   0.519   5.384 -0.0777  0.3657 -1.3755
 4001SOL    HW223466   2.661   0.645   5.357  1.1177  0.5516 -1.0051
 4002SOL     OW23467   3.565   2.384   9.830  0.5798 -0.2413  0.4734
 4002SOL    HW123468   3.656   2.409   9.845  0.5837  1.4848 -2.3281
 4002SOL    HW223469   3.532   2.458   9.779 -2.0340 -1.9294 -0.2714
 4003SOL     OW23470   0.210   2.554   4.705  0.4916 -0.2804 -0.3974
 4003SOL    HW123471   0.208   2.606   4.624  0.2381  0.9164  0.3731
 4003SOL    HW223472   0.142   2.490   4.686 -2.8916  2.6324  1.9924
 4004SOL     OW23473   0.737   0.811   8.824 -0.7253 -0.7495  0.9107
 4004SOL    HW123474   0.669   0.834   8.760 -0.8396  0.9536  1.6335
 4004SOL    HW223475   0.817   0.861   8.803 -2.7888  2.6493  1.1130
 4005SOL     OW23476   1.048   2.123   4.674 -0.4921  0.4647 -0.0359
 4005SOL    HW123477   0.997   2.065   4.617 -1.2112  0.0622  1.0060
 4005SOL    HW223478   1.072   2.184   4.605  1.6186  0.5538  0.7808
 4006SOL     OW23479   3.311   2.378   8.390 -0.0246  0.0040  0.4750
 4006SOL    HW123480   3.222   2.412   8.397 -0.1060  0.0854 -0.9858
 4006SOL    HW223481   3.289   2.286   8.402 -0.9569  0.0634 -0.8248
 4007SOL     OW23482   3.862   3.198   8.897 -0.1462  0.1936  0.2017
 4007SOL    HW123483   3.854   3.130   8.830 -2.5066 -0.3834  1.0607
 4007SOL    HW223484   3.831   3.159   8.979 -1.7496 -0.1719 -0.5908
 4008SOL     OW23485   3.348   3.954   8.835 -0.0802  0.6145 -0.6032
 4008SOL    HW123486   3.332   4.045   8.811 -1.8230  0.3040 -0.6242
 4008SOL    HW223487   3.443   3.941   8.837 -0.2029  0.0557  1.2002
 4009SOL     OW23488   4.300   1.999   3.634  0.4143  0.1267 -0.3701
 4009SOL    HW123489   4.256   2.063   3.578 -1.1072  0.2810  0.9938
 4009SOL    HW223490   4.388   2.029   3.659  0.8709 -1.6025  0.0521
 4010SOL     OW23491   3.279   0.721   8.765 -0.3444 -0.6040 -0.2207
 4010SOL    HW123492   3.300   0.667   8.689 -0.7180 -0.3712 -0.4914
 4010SOL    HW223493   3.220   0.664   8.814  0.9928 -0.2210  1.8638
 4011SOL     OW23494   1.792   0.341   7.019  0.0989  0.0321 -0.3388
 4011SOL    HW123495   1.806   0.414   6.960  1.9818 -0.3010 -0.2909
 4011SOL    HW223496   1.879   0.301   7.022  0.0383 -0.2784 -3.3477
 4012SOL     OW23497   1.477   3.876   9.691 -0.3141  0.5005 -0.5592
 4012SOL    HW123498   1.406   3.856   9.752 -1.2748  0.1451 -1.7917
 4012SOL    HW223499   1.513   3.790   9.670 -0.0987  0.3927  0.2600
 4013SOL     OW23500   1.257   0.576   8.486  0.2656 -0.1430 -0.0388
 4013SOL    HW123501   1.329   0.626   8.524 -0.2989  1.5789 -1.2646
 4013SOL    HW223502   1.187   0.640   8.486 -0.3823 -0.8521  0.4544
 4014SOL     OW23503   3.610   3.009   4.227  0.0742  0.3794 -0.3719
 4014SOL    HW123504   3.557   3.067   4.172 -2.5975 -1.3660  0.3985
 4014SOL    HW223505   3.572   2.922   4.216  1.7459 -0.4556  0.4769
 4015SOL     OW23506   3.004   0.638   5.280 -0.0816 -0.4384 -0.3853
 4015SOL    HW123507   3.005   0.725   5.320  0.6039 -0.6444  0.0300
 4015SOL    HW223508   2.919   0.618   5.319 -0.2873 -0.3359 -0.7758
 4016SOL     OW23509   3.913   2.165   5.909 -0.2644 -0.0586  0.3821
 4016SOL    HW123510   3.979   2.179   5.977  0.8663  0.8954 -0.9041
 4016SOL    HW223511   3.858   2.101   5.954 -0.6722 -0.4685 -0.6866
 4017SOL     OW23512   3.345   2.280   6.100  1.0618  0.0242  0.3759
 4017SOL    HW123513   3.394   2.324   6.030  1.2804  0.0145  0.5240
 4017SOL    HW223514   3.256   2.311   6.080  1.4094  0.6386 -0.1929
 4018SOL     OW23515   1.259   3.902  14.289 -0.1379 -0.4569  0.6977
 4018SOL    HW123516   1.273   3.848  14.368  0.8862  1.7592  2.0309
 4018SOL    HW223517   1.173   3.866  14.268  0.3674  0.7263 -3.3439
 4019SOL     OW23518   3.333   2.893  11.324 -0.1411  0.0139 -0.2563
 4019SOL    HW123519   3.280   2.907  11.403  0.4242 -0.0774  0.1405
 4019SOL    HW223520   3.375   2.808  11.334  0.1078  0.5423  3.0260
 4020SOL     OW23521   4.107   0.167   6.782  0.0435  0.1523 -0.5148
 4020SOL    HW123522   4.200   0.189   6.791 -0.6330  1.2002  3.6199
 4020SOL    HW223523   4.080   0.252   6.747  0.3463  0.2462 -0.5204
 4021SOL     OW23524   0.507   2.895   4.843 -0.5026 -0.1993 -0.4190
 4021SOL    HW123525   0.516   2.931   4.755  0.7726 -0.6484 -0.4770
 4021SOL    HW223526   0.421   2.925   4.874 -0.4222 -0.2259 -0.1739
 4022SOL     OW23527   3.731   3.847   5.992  0.0869 -0.0505  0.2719
 4022SOL    HW123528   3.787   3.918   5.962 -1.2264  0.1331 -1.7796
 4022SOL    HW223529   3.784   3.819   6.066  1.8186  0.1718 -0.8888
 4023SOL     OW23530   0.506   0.028   2.308 -0.4775  0.0899  0.4760
 4023SOL    HW123531   0.426   0.074   2.284  0.8062  0.7421 -2.5908
 4023SOL    HW223532   0.541   0.105   2.353 -0.8713  0.1612  0.6590
 4024SOL     OW23533   1.237   4.631   3.300  0.1419  0.3667  0.5014
 4024SOL    HW123534   1.287   4.597   3.374 -1.6740 -1.0264  1.0784
 4024SOL    HW223535   1.154   4.622   3.346 -0.6049  3.7634 -0.1361
 4025SOL     OW23536   4.387   1.180  10.258  0.3809  0.3528 -0.3371
 4025SOL    HW123537   4.384   1.084  10.258 -3.1487  0.4771 -0.0990
 4025SOL    HW223538   4.331   1.198  10.183 -0.4339 -0.7906 -0.0075
 4026SOL     OW23539   3.613   0.885   0.267 -0.4780  0.2577  0.0416
 4026SOL    HW123540   3.674   0.832   0.217 -0.9922 -1.1433  0.9070
 4026SOL    HW223541   3.668   0.964   0.269  0.5676 -0.5389  3.4041
 4027SOL     OW23542   1.543   3.178   8.567  0.1183  0.5490 -0.0436
 4027SOL    HW123543   1.636   3.182   8.589 -0.1329  1.8130  0.7633
 4027SOL    HW223544   1.502   3.261   8.592 -0.6494  0.1214  0.1062
 4028SOL     OW23545   3.860   2.717   8.908  0.1674  0.4052 -0.1566
 4028SOL    HW123546   3.776   2.755   8.881 -0.8018 -0.6348  1.3661
 4028SOL    HW223547   3.926   2.757   8.851 -0.0413  1.3282  0.2554
 4029SOL     OW23548   1.366   0.805   4.473  0.1665 -0.5796 -0.0088
 4029SOL    HW123549   1.452   0.762   4.476  0.6113  0.3080 -0.0870
 4029SOL    HW223550   1.302   0.735   4.484 -0.5987  0.3198  1.1658
 4030SOL     OW23551   3.698   3.410   0.823 -0.2930 -0.5946 -0.8191
 4030SOL    HW123552   3.731   3.411   0.912 -0.3699  0.2079 -0.8001
 4030SOL    HW223553   3.605   3.388   0.834  0.0822 -0.9642  1.4399
 4031SOL     OW23554   3.384   0.890   1.460  0.1134  0.2167 -0.3289
 4031SOL    HW123555   3.432   0.864   1.382  0.2473  0.6270 -0.3810
 4031SOL    HW223556   3.312   0.941   1.425 -2.0285 -1.6383  1.3592
 4032SOL     OW23557   1.370   2.271  15.679  0.5740 -0.6501  0.1800
 4032SOL    HW123558   1.446   2.226  15.717  1.5554 -0.4827 -1.5739
 4032SOL    HW223559   1.407   2.311  15.600  0.0028  1.0362  0.7630
 4033SOL     OW23560   3.820   4.443   5.986 -0.2370  0.1763 -0.4114
 4033SOL    HW123561   3.831   4.380   6.057 -1.4876  0.1214 -0.2759
 4033SOL    HW223562   3.904   4.489   5.994 -0.1795 -0.2985  1.5982
 4034SOL     OW23563   3.055   3.447   4.797  0.0035 -0.0289 -0.4602
 4034SOL    HW123564   2.968   3.409   4.785 -0.0592  0.0783 -0.3449
 4034SOL    HW223565   3.042   3.525   4.744  1.2062  2.1068  2.3505
 4035SOL     OW23566   0.465   2.472   3.886  0.2674  0.3341  0.5470
 4035SOL    HW123567   0.550   2.432   3.903  0.8064  0.8289 -0.9430
 4035SOL    HW223568   0.473   2.478   3.791 -3.9852  1.9833  0.2884
 4036SOL     OW23569   0.310   0.113   3.251  0.2255 -0.3220  0.3381
 4036SOL    HW123570   0.371   0.040   3.263  1.5078  0.9147  1.4146
 4036SOL    HW223571   0.296   0.103   3.157 -0.8322 -1.3067  0.6005
 4037SOL     OW23572   3.894   1.186   5.926  0.0768  0.8111  0.2850
 4037SOL    HW123573   3.801   1.190   5.946  0.6764 -0.4974  3.3033
 4037SOL    HW223574   3.912   1.093   5.938  3.0308  0.9198 -3.2533
 4038SOL     OW23575   0.109   3.422   0.751  0.5181  0.2560  0.7197
 4038SOL    HW123576   0.115   3.500   0.806  0.2741  0.9599 -0.2502
 4038SOL    HW223577   0.089   3.349   0.810  0.2384 -1.5395 -1.6045
 4039SOL     OW23578   0.541   0.816  10.070  0.4630  0.6021  0.2634
 4039SOL    HW123579   0.501   0.894  10.033 -0.5410 -0.6208 -1.2198
 4039SOL    HW223580   0.473   0.751  10.055  0.0854  0.7811  1.1991
 4040SOL     OW23581   2.414   0.368  15.868  0.8350  0.0727 -0.5875
 4040SOL    HW123582   2.387   0.365  15.776  1.2188  2.8407 -0.7851
 4040SOL    HW223583   2.509   0.380  15.866  0.9604 -0.4205  2.6843
 4041SOL     OW23584   2.368   2.997   1.132 -0.0336  0.4842 -0.1483
 4041SOL    HW123585   2.312   2.926   1.099  0.7147  0.0667 -0.5152
 4041SOL    HW223586   2.433   2.959   1.191 -0.0893 -0.9651 -1.0072
 4042SOL     OW23587   0.390   3.637   3.935  0.3069 -0.1165 -0.0903
 4042SOL    HW123588   0.321   3.703   3.941  2.2148  1.9156 -0.3273
 4042SOL    HW223589   0.365   3.578   4.006  2.5881  2.7428  3.0954
 4043SOL     OW23590   3.830   2.679   2.090 -0.1074 -0.0227  0.2315
 4043SOL    HW123591   3.879   2.758   2.113  0.1937 -0.5461  1.3726
 4043SOL    HW223592   3.745   2.713   2.063  0.7410  2.0461  0.1797
 4044SOL     OW23593   2.426   3.554   6.433 -0.0857  0.1343 -0.4510
 4044SOL    HW123594   2.421   3.600   6.350 -1.1150  2.4217  0.8830
 4044SOL    HW223595   2.516   3.566   6.464  0.0232  0.1240 -0.7715
 4045SOL     OW23596   0.385   3.948   7.990 -0.0626 -0.1855  0.1498
 4045SOL    HW123597   0.331   3.885   8.039 -1.0826  2.3516  2.2811
 4045SOL    HW223598   0.343   4.034   7.985 -0.3638 -0.2734  1.2510
 4046SOL     OW23599   1.845   4.113   4.279 -0.6362 -0.5835 -0.3220
 4046SOL    HW123600   1.897   4.141   4.204 -0.4458 -0.5614 -0.1791
 4046SOL    HW223601   1.851   4.182   4.345  1.0399 -0.7103 -0.3492
 4047SOL     OW23602   4.322   0.306   4.528 -0.3023 -0.2673 -0.6786
 4047SOL    HW123603   4.286   0.288   4.614 -0.6933  0.8246 -0.6100
 4047SOL    HW223604   4.316   0.219   4.489  2.5611 -1.1105  0.7318
 4048SOL     OW23605   2.352   3.057  11.968 -0.7876 -0.2357 -0.1956
 4048SOL    HW123606   2.423   3.063  11.905  0.1381 -0.9172  0.7908
 4048SOL    HW223607   2.313   3.139  11.939 -0.7815  0.1282  0.8194
 4049SOL     OW23608   4.416   0.800   5.604  0.4421 -0.1414  0.3183
 4049SOL    HW123609   4.486   0.757   5.653  0.7187 -0.1954 -0.1345
 4049SOL    HW223610   4.454   0.886   5.593 -0.2097  0.0201 -0.6331
 4050SOL     OW23611   3.930   3.084   9.483 -0.0233 -0.1293 -0.0884
 4050SOL    HW123612   3.875   3.031   9.540  1.9563  0.1258  2.0613
 4050SOL    HW223613   4.016   3.048   9.506  0.4455  2.2854  1.9130
 4051SOL     OW23614   1.337   3.223   5.281  0.3289  0.2030  0.7048
 4051SOL    HW123615   1.311   3.236   5.372 -0.4817  1.0367  0.3509
 4051SOL    HW223616   1.330   3.309   5.241  0.1175  0.9947  2.4701
 4052SOL     OW23617   1.894   3.848   3.728 -0.1118 -0.1303 -0.7509
 4052SOL    HW123618   1.808   3.858   3.769 -0.8183  0.4822 -2.3779
 4052SOL    HW223619   1.871   3.845   3.636 -2.6209  0.4694 -0.1379
 4053SOL     OW23620   1.140   1.009   0.898 -0.6875 -0.6479 -0.2141
 4053SOL    HW123621   1.162   1.076   0.833 -0.5954 -1.1578 -0.7045
 4053SOL    HW223622   1.182   1.032   0.981 -2.2164  0.0728  0.3700
 4054SOL     OW23623   4.438   0.143   5.874  0.7646 -0.0851  0.5040
 4054SOL    HW123624   4.500   0.167   5.943 -0.1734 -0.6001  1.5262
 4054SOL    HW223625   4.488   0.176   5.799  0.2536 -0.8108 -0.1565
 4055SOL     OW23626   0.926   1.374  14.133 -0.3140  0.0972 -0.2636
 4055SOL    HW123627   0.924   1.470  14.137  0.7822  0.1421 -1.0246
 4055SOL    HW223628   0.878   1.364  14.216  0.6237  0.6933  0.3502
 4056SOL     OW23629   2.908   2.272   4.755  0.2508 -0.3596  0.5458
 4056SOL    HW123630   2.938   2.193   4.800 -0.4273 -0.1891  1.3006
 4056SOL    HW223631   2.987   2.286   4.703 -0.1264 -2.3494 -0.5798
 4057SOL     OW23632   2.896   1.623   0.403 -0.0548  0.1076  0.5482
 4057SOL    HW123633   2.940   1.707   0.397 -0.2683  0.1873  0.0601
 4057SOL    HW223634   2.829   1.636   0.336  0.8857 -2.5647 -0.9555
 4058SOL     OW23635   4.480   3.498   5.304 -1.0037  0.6224  0.1638
 4058SOL    HW123636   4.438   3.412   5.305 -0.7451  0.4987  0.3920
 4058SOL    HW223637   4.431   3.536   5.231  2.1602  1.3888 -1.5503
 4059SOL     OW23638   3.316   3.013  15.325 -0.1872 -0.3792  0.2703
 4059SOL    HW123639   3.230   2.988  15.360 -1.5715 -0.1461 -2.9120
 4059SOL    HW223640   3.291   3.057  15.243  0.3530  0.6936  0.6951
 4060SOL     OW23641   4.475   3.139  16.280 -0.3233 -0.0150 -0.0676
 4060SOL    HW123642   4.509   3.225  16.305 -0.3821  0.3235 -1.1971
 4060SOL    HW223643   4.547   3.119  16.220  1.3261 -3.1651  2.9339
 4061SOL     OW23644   2.303   4.678  12.868 -0.0660  0.6302 -0.0210
 4061SOL    HW123645   2.259   4.594  12.880  2.2100 -0.6458 -0.5993
 4061SOL    HW223646   2.336   4.666  12.779  0.7173  0.1728  0.3250
 4062SOL     OW23647   2.881   4.043   7.375  0.4171 -0.0727 -0.3322
 4062SOL    HW123648   2.917   3.969   7.424  1.2259  0.5234 -0.0195
 4062SOL    HW223649   2.827   4.074   7.448 -0.6374 -1.0889 -0.6900
 4063SOL     OW23650   3.361   0.145   3.595  0.7359 -0.4798  0.1109
 4063SOL    HW123651   3.375   0.108   3.682  0.3141 -0.2486  0.2791
 4063SOL    HW223652   3.294   0.087   3.560 -0.5813  0.2677  1.3920
 4064SOL     OW23653   2.319   0.404  15.606 -0.2716 -0.1494 -0.3490
 4064SOL    HW123654   2.235   0.445  15.586 -0.7817  0.5859  3.2603
 4064SOL    HW223655   2.384   0.460  15.563 -1.8494  1.2149 -0.9799
 4065SOL     OW23656   2.172   3.903  10.920  0.2966 -0.0966 -0.0837
 4065SOL    HW123657   2.226   3.833  10.958  0.6642 -0.1775 -0.7502
 4065SOL    HW223658   2.223   3.983  10.912  0.2438 -0.3955 -3.3898
 4066SOL     OW23659   1.744   4.072   1.754  0.3048 -0.0060 -0.0270
 4066SOL    HW123660   1.716   4.002   1.813 -3.9248  2.9951  1.5459
 4066SOL    HW223661   1.790   4.024   1.685 -0.7230  1.3737 -1.6868
 4067SOL     OW23662   2.344   0.362  13.066 -0.0882  0.2017  0.3237
 4067SOL    HW123663   2.401   0.317  13.003 -0.7025 -0.4285  0.2245
 4067SOL    HW223664   2.378   0.451  13.071  0.3706  0.1298 -1.6949
 4068SOL     OW23665   0.537   1.713  10.754  0.0843  0.2663 -0.5648
 4068SOL    HW123666   0.614   1.715  10.696  0.8756 -0.0637  0.4646
 4068SOL    HW223667   0.541   1.801  10.791  0.7236  0.1456 -0.3401
 4069SOL     OW23668   2.895   4.033  11.965  0.2283  0.6090  0.1698
 4069SOL    HW123669   2.970   4.070  11.918  0.6003 -1.4753 -0.8819
 4069SOL    HW223670   2.846   4.006  11.887 -1.4569  0.7734  1.1581
 4070SOL     OW23671   1.780   0.667   8.923  0.1912 -0.1228 -0.1473
 4070SOL    HW123672   1.876   0.659   8.927  0.0832  0.0611  2.8764
 4070SOL    HW223673   1.765   0.590   8.868 -2.1266 -0.3525  0.7944
 4071SOL     OW23674   4.609   3.191   4.346  0.1353  0.5284  0.1476
 4071SOL    HW123675   4.694   3.166   4.311 -0.5169 -0.3375 -0.8089
 4071SOL    HW223676   4.571   3.109   4.377 -1.0990  0.7727 -0.6955
 4072SOL     OW23677   4.063   1.162   9.839 -0.0064 -0.6631 -0.0775
 4072SOL    HW123678   3.992   1.210   9.797 -2.0480 -2.0964  1.7243
 4072SOL    HW223679   4.140   1.209   9.810 -1.6831  2.3707  0.4185
 4073SOL     OW23680   1.508   1.147   4.484  0.3659 -0.2665  0.4472
 4073SOL    HW123681   1.567   1.200   4.430  1.8252  2.5233  4.7061
 4073SOL    HW223682   1.437   1.211   4.481  1.9003  1.3332 -1.6033
 4074SOL     OW23683   2.219   4.474   4.600 -0.3679  0.3970  0.0695
 4074SOL    HW123684   2.284   4.460   4.532  1.4572  2.7447  1.3726
 4074SOL    HW223685   2.249   4.554   4.642  0.2191 -0.4837  1.3399
 4075SOL     OW23686   4.151   0.370  13.466 -0.3566  0.3287  0.3196
 4075SOL    HW123687   4.207   0.343  13.539 -0.7939  2.3981  1.4125
 4075SOL    HW223688   4.215   0.425  13.421  2.2252 -2.1798  0.8412
 4076SOL     OW23689   2.872   1.471  15.914  0.1032 -0.3364 -0.0744
 4076SOL    HW123690   2.924   1.551  15.899 -0.5918 -0.0949 -1.2280
 4076SOL    HW223691   2.949   1.415  15.903  1.2611  1.0218  1.0677
 4077SOL     OW23692   1.437   0.826   5.219 -0.3623 -0.5989 -0.1529
 4077SOL    HW123693   1.389   0.783   5.148 -0.1758 -0.5718 -0.2985
 4077SOL    HW223694   1.376   0.829   5.292  1.0086 -1.3280  1.0397
 4078SOL     OW23695   1.892   1.631  13.330  0.3231 -0.2656 -0.0908
 4078SOL    HW123696   1.889   1.663  13.240  0.5592  2.0492  0.7363
 4078SOL    HW223697   1.811   1.584  13.350  0.1396 -1.7318 -4.2829
 4079SOL     OW23698   4.124   3.545  17.426  0.1487 -0.6228 -0.5067
 4079SOL    HW123699   4.136   3.572  17.335 -3.7291  1.8864 -0.2761
 4079SOL    HW223700   4.073   3.621  17.454  0.1214 -0.4844 -0.9247
 4080SOL     OW23701   3.529   2.392   7.044  0.6174 -0.0755  0.5875
 4080SOL    HW123702   3.546   2.360   6.955  0.6919 -1.5827  1.1347
 4080SOL    HW223703   3.559   2.481   7.027 -0.4592  0.3595  1.0167
 4081SOL     OW23704   1.663   0.722   1.455  0.0247  0.6874 -0.5297
 4081SOL    HW123705   1.649   0.779   1.531 -0.2306 -1.7106  1.2160
 4081SOL    HW223706   1.597   0.750   1.392  0.2794  0.1223 -1.0499
 4082SOL     OW23707   0.809   3.294   0.182 -0.0704  0.0615 -0.7892
 4082SOL    HW123708   0.749   3.278   0.110 -0.0083 -1.1097 -0.5811
 4082SOL    HW223709   0.794   3.388   0.193 -0.5080  0.0167 -1.0090
 4083SOL     OW23710   4.619   2.288  16.741  0.3147  0.3335  0.3686
 4083SOL    HW123711   4.631   2.354  16.673  1.4714  2.0399  2.2415
 4083SOL    HW223712   4.537   2.314  16.782  1.0334  0.4786  1.6989
 4084SOL     OW23713   1.817   2.362   3.038  0.2374 -0.4850  0.0264
 4084SOL    HW123714   1.848   2.444   3.075 -1.9196 -0.7549  2.4190
 4084SOL    HW223715   1.757   2.389   2.968  2.6136  0.1045 -1.7936
 4085SOL     OW23716   0.814   4.025   3.684  0.0748 -0.4243 -0.9168
 4085SOL    HW123717   0.892   4.071   3.716 -1.7276  0.4481  2.3103
 4085SOL    HW223718   0.780   4.100   3.636 -0.5426  0.9656  1.6747
 4086SOL     OW23719   3.095   1.597  16.989 -0.0615 -0.1142  0.2370
 4086SOL    HW123720   3.165   1.604  16.923  0.5752 -0.1978  0.9003
 4086SOL    HW223721   3.051   1.680  16.972  1.8755  0.4919 -1.9205
 4087SOL     OW23722   3.865   4.046   8.896  0.2097 -0.0616  0.5840
 4087SOL    HW123723   3.946   3.997   8.911 -0.5901 -2.2347 -2.2866
 4087SOL    HW223724   3.889   4.139   8.904 -3.1391  0.9394 -1.2208
 4088SOL     OW23725   3.504   0.878   7.117 -0.3611 -0.0596 -0.7134
 4088SOL    HW123726   3.432   0.834   7.161  1.1697 -0.8550  0.9907
 4088SOL    HW223727   3.554   0.908   7.193  0.6096 -1.7555 -0.6925
 4089SOL     OW23728   3.495   1.922   5.217  0.0459  0.3598 -0.8512
 4089SOL    HW123729   3.405   1.930   5.245  0.7267  0.2171  1.3382
 4089SOL    HW223730   3.506   2.003   5.166 -0.2720 -0.0656 -1.5999
 4090SOL     OW23731   4.461   0.836   0.021 -0.2819  0.8986 -0.5390
 4090SOL    HW123732   4.528   0.773  17.694 -0.5682  0.0596  0.7929
 4090SOL    HW223733   4.421   0.804   0.102  0.6901 -2.0216 -1.2266
 4091SOL     OW23734   1.204   1.501   6.970 -0.4234 -0.7122 -0.1024
 4091SOL    HW123735   1.140   1.499   6.898  0.9125 -0.5901 -1.2903
 4091SOL    HW223736   1.250   1.584   6.961 -0.0140 -0.9665 -0.3115
 4092SOL     OW23737   1.019   0.705   7.102 -0.3439 -0.5214 -0.2542
 4092SOL    HW123738   1.024   0.611   7.115 -0.2076 -0.5853 -0.7924
 4092SOL    HW223739   1.108   0.735   7.122 -0.2495  1.3716 -3.5652
 4093SOL     OW23740   1.845   1.295   3.556 -0.0321 -0.4229 -0.1577
 4093SOL    HW123741   1.872   1.283   3.465 -0.0866  0.5777 -0.3038
 4093SOL    HW223742   1.838   1.390   3.568 -2.1726 -0.5451 -0.4914
 4094SOL     OW23743   2.170   4.277   3.065 -0.0319  0.3278 -0.1420
 4094SOL    HW123744   2.153   4.183   3.067 -0.0213  0.2829 -2.1429
 4094SOL    HW223745   2.253   4.272   3.017  0.0130  2.5778 -0.2895
 4095SOL     OW23746   1.925   3.546   6.432 -0.5141  0.4496  0.2706
 4095SOL    HW123747   2.019   3.541   6.450 -1.0479  0.1563  2.9866
 4095SOL    HW223748   1.926   3.641   6.421  0.2426  0.6896  2.5444
 4096SOL     OW23749   4.331   1.459  14.939  0.1894  0.6042  0.8797
 4096SOL    HW123750   4.398   1.413  14.889 -1.1679  1.4037 -1.6820
 4096SOL    HW223751   4.374   1.528  14.989  0.5092  1.0094  0.0359
 4097SOL     OW23752   4.485   1.534   9.816 -0.8356 -0.2627  0.3926
 4097SOL    HW123753   4.458   1.601   9.879 -2.2244  0.9009 -1.4412
 4097SOL    HW223754   4.519   1.466   9.874  0.6804 -0.3398 -0.5873
 4098SOL     OW23755   2.566   1.255   6.465  0.1310 -0.9530 -0.2454
 4098SOL    HW123756   2.603   1.269   6.378  0.0898  0.3482 -0.0475
 4098SOL    HW223757   2.548   1.161   6.457 -1.0226 -0.5697 -2.0645
 4099SOL     OW23758   2.202   2.794   8.313  0.1711 -0.2208 -0.2184
 4099SOL    HW123759   2.224   2.751   8.230  3.6206  2.2778 -0.6034
 4099SOL    HW223760   2.279   2.777   8.367 -1.9767 -1.5252  2.4118
 4100SOL     OW23761   3.675   0.652   2.558  0.1010 -0.0270 -0.1254
 4100SOL    HW123762   3.676   0.557   2.550  0.2655 -0.1055  0.8752
 4100SOL    HW223763   3.631   0.677   2.477  3.6848  0.6270 -1.8738
 4101SOL     OW23764   3.499   3.350   3.236  0.1915 -0.4123 -0.4369
 4101SOL    HW123765   3.531   3.281   3.177 -0.0749  0.9737 -2.2307
 4101SOL    HW223766   3.413   3.364   3.196 -0.5122 -0.5077  1.0688
 4102SOL     OW23767   0.762   0.705   0.411  0.2152  0.9984  0.2700
 4102SOL    HW123768   0.796   0.618   0.393  0.8913  1.3196 -0.0028
 4102SOL    HW223769   0.672   0.673   0.419  0.1276  1.0950 -0.3089
 4103SOL     OW23770   4.286   3.644   2.408 -0.3850  0.5662 -0.2946
 4103SOL    HW123771   4.357   3.619   2.349  0.9565  0.7250  1.2496
 4103SOL    HW223772   4.301   3.738   2.412 -1.0469  0.7571 -2.5669
 4104SOL     OW23773   0.968   3.654  16.268 -0.2462  0.6589  0.3858
 4104SOL    HW123774   1.063   3.657  16.282  0.1061  0.6102 -1.8943
 4104SOL    HW223775   0.975   3.695  16.181 -0.6501 -1.3766 -0.6115
 4105SOL     OW23776   2.633   4.146   6.300  0.2268 -0.2164  0.4636
 4105SOL    HW123777   2.616   4.222   6.355 -3.3242 -0.8467  0.2125
 4105SOL    HW223778   2.720   4.162   6.263  0.0072 -0.8713 -0.3384
 4106SOL     OW23779   1.130   4.159   7.956  0.4279 -0.0634 -0.4143
 4106SOL    HW123780   1.128   4.254   7.946 -1.2537  0.3574  3.7125
 4106SOL    HW223781   1.044   4.134   7.920  0.4434  0.1041 -0.5677
 4107SOL     OW23782   3.930   1.231   6.239  0.4381 -0.0800  0.1391
 4107SOL    HW123783   3.843   1.197   6.259  0.7915 -1.5398 -0.7885
 4107SOL    HW223784   3.949   1.240   6.333 -3.9909 -0.5922  1.1055
 4108SOL     OW23785   3.008   4.543   9.084  0.0415 -0.3675 -0.1640
 4108SOL    HW123786   2.958   4.465   9.109  0.8666 -0.0970  2.2717
 4108SOL    HW223787   2.947   4.608   9.121  0.7320  1.0671 -1.5424
 4109SOL     OW23788   4.225   3.932   8.022 -0.2643  0.0622 -0.1126
 4109SOL    HW123789   4.243   3.862   8.085 -1.9058  1.9376  2.4216
 4109SOL    HW223790   4.274   3.895   7.949  0.6005 -0.7569  0.8730
 4110SOL     OW23791   0.080   3.375  16.698 -0.2331 -0.1875 -0.3052
 4110SOL    HW123792   0.064   3.464  16.667 -1.4975  0.4997  2.3109
 4110SOL    HW223793   4.717   3.358  16.733 -0.3533 -0.8814 -0.9335
 4111SOL     OW23794   2.790   2.885   8.165  0.6070  0.0194  0.1423
 4111SOL    HW123795   2.793   2.874   8.070  0.3494 -1.8477  0.3379
 4111SOL    HW223796   2.730   2.959   8.161  1.4804  0.7395  0.4322
 4112SOL     OW23797   1.822   0.647   4.536  0.3013  0.2679  0.1444
 4112SOL    HW123798   1.746   0.699   4.508  0.2905  0.3298  0.2878
 4112SOL    HW223799   1.859   0.641   4.448 -2.8208 -0.0582 -1.1411
 4113SOL     OW23800   2.241   4.378   6.062  0.3487 -0.3537  0.4807
 4113SOL    HW123801   2.272   4.293   6.093  3.8191  0.6890 -0.1833
 4113SOL    HW223802   2.308   4.433   6.103 -1.2211  1.8535  0.1287
 4114SOL     OW23803   1.201   4.192  14.237 -0.8205 -0.7624  0.2571
 4114SOL    HW123804   1.180   4.112  14.286 -2.0835  0.5331  1.8317
 4114SOL    HW223805   1.282   4.216  14.282 -0.9552  0.1602  0.0050
 4115SOL     OW23806   2.459   3.778   9.557  0.2076  0.2376  0.4689
 4115SOL    HW123807   2.407   3.699   9.545 -0.2721  0.4804  0.9554
 4115SOL    HW223808   2.478   3.807   9.468 -2.2599  2.2650  0.6138
 4116SOL     OW23809   1.452   1.526   9.776 -0.6680 -0.1751 -0.4487
 4116SOL    HW123810   1.470   1.618   9.797 -2.7305  0.0765  0.2014
 4116SOL    HW223811   1.512   1.508   9.703 -1.1060 -1.7392 -0.4251
 4117SOL     OW23812   2.967   3.336   1.280  0.2952 -0.0302  0.1428
 4117SOL    HW123813   2.981   3.385   1.361 -0.4675 -1.9021  1.4007
 4117SOL    HW223814   2.996   3.400   1.215  0.6340 -0.1310  0.1956
 4118SOL     OW23815   1.064   3.493   3.223 -0.1774 -0.3538  0.0707
 4118SOL    HW123816   1.020   3.531   3.299 -1.2756  0.0769 -0.7868
 4118SOL    HW223817   1.062   3.562   3.156  1.1982  0.2960  0.6986
 4119SOL     OW23818   1.352   2.642  15.861 -0.7622  0.6464  0.0091
 4119SOL    HW123819   1.368   2.656  15.954 -0.4884 -2.2113  0.3830
 4119SOL    HW223820   1.437   2.603  15.841 -2.0519 -2.5149  0.7015
 4120SOL     OW23821   2.193   0.239   0.950  0.2966 -0.8010 -0.9080
 4120SOL    HW123822   2.286   0.236   0.927  1.1258  0.0594  2.2493
 4120SOL    HW223823   2.189   0.160   1.005  1.0647  1.0891  1.8924
 4121SOL     OW23824   3.983   3.385  12.324 -0.1352  0.3231 -0.0330
 4121SOL    HW123825   3.914   3.323  12.302 -0.7945  0.8209  0.6568
 4121SOL    HW223826   3.918   3.451  12.348  0.3295  0.8863 -0.3060
 4122SOL     OW23827   1.606   1.093   6.618 -0.5899 -0.7397  1.0688
 4122SOL    HW123828   1.582   1.023   6.558  0.2788  1.3270 -1.6719
 4122SOL    HW223829   1.554   1.165   6.583  1.0391  0.9404  2.1068
 4123SOL     OW23830   0.381   0.783   5.079 -0.1352 -0.5576  0.1849
 4123SOL    HW123831   0.322   0.740   5.141 -1.6952 -0.5613 -1.3175
 4123SOL    HW223832   0.451   0.719   5.069  0.9669  0.4850  1.2015
 4124SOL     OW23833   0.253   3.741  14.776  0.1936 -0.0455  0.5884
 4124SOL    HW123834   0.216   3.813  14.827 -2.9618 -1.2803  0.0281
 4124SOL    HW223835   0.220   3.673  14.833  2.6233 -1.8235 -0.1116
 4125SOL     OW23836   0.732   4.714   8.770 -0.0984 -0.4891  0.0469
 4125SOL    HW123837   0.757   0.068   8.722  2.0254 -1.5442 -0.5659
 4125SOL    HW223838   0.716   0.018   8.860  1.6587  0.8558 -0.0726
 4126SOL     OW23839   3.774   1.930   0.475 -0.0344 -0.9849  0.7531
 4126SOL    HW123840   3.840   1.985   0.517  0.0032 -0.2107 -0.3170
 4126SOL    HW223841   3.705   1.929   0.542  0.4234  1.4769  1.2739
 4127SOL     OW23842   2.293   4.141  16.188  0.3473 -0.1507 -0.2563
 4127SOL    HW123843   2.295   4.202  16.114 -0.3641  2.2078  1.6623
 4127SOL    HW223844   2.267   4.058  16.148 -0.3055 -0.4655  0.8175
 4128SOL     OW23845   1.048   3.697  12.660  0.5433 -0.6999 -0.2619
 4128SOL    HW123846   0.966   3.701  12.612  0.6790 -1.4341 -0.5513
 4128SOL    HW223847   1.055   3.602  12.668 -1.4946 -0.7568  0.6835
 4129SOL     OW23848   3.105   1.142   7.010  0.0088 -0.2324 -0.1187
 4129SOL    HW123849   3.118   1.124   7.103 -1.5293  1.2776  0.3868
 4129SOL    HW223850   3.196   1.125   6.985 -0.3741  0.5690 -2.0985
 4130SOL     OW23851   0.899   2.936  13.389 -0.3971  0.1514 -0.6660
 4130SOL    HW123852   0.959   2.985  13.444 -0.6421  0.0494 -0.3094
 4130SOL    HW223853   0.954   2.903  13.318 -0.7084  1.1607 -1.3870
 4131SOL     OW23854   4.270   3.689  14.771 -0.2582 -0.8427  0.3056
 4131SOL    HW123855   4.360   3.658  14.774 -0.6956 -2.0660  0.7001
 4131SOL    HW223856   4.250   3.716  14.861  0.6075 -1.6619  0.7301
 4132SOL     OW23857   0.519   3.125   6.586  0.3936 -0.4215 -0.3288
 4132SOL    HW123858   0.546   3.115   6.495  1.0052  2.5874 -0.4945
 4132SOL    HW223859   0.568   3.204   6.609 -2.2138  0.4750  2.1256
 4133SOL     OW23860   2.026   3.688  15.974  0.1463  0.4854  0.2451
 4133SOL    HW123861   2.012   3.608  16.025 -1.3172  1.1653  0.9027
 4133SOL    HW223862   1.952   3.738  16.009 -0.1355  0.4065 -0.2301
 4134SOL     OW23863   0.212   0.243   4.226  0.1140 -0.3888  0.2474
 4134SOL    HW123864   0.117   0.234   4.226  0.0901 -0.1568 -0.2624
 4134SOL    HW223865   0.217   0.333   4.259  0.6901 -0.8301  1.3660
 4135SOL     OW23866   0.348   3.898  12.790  0.0694  0.2477  0.0184
 4135SOL    HW123867   0.347   3.844  12.869 -0.1322 -0.0405 -0.1824
 4135SOL    HW223868   0.278   3.861  12.736 -0.4083  2.3774 -0.8251
 4136SOL     OW23869   3.109   3.479   3.802  0.1528 -0.1397  0.4281
 4136SOL    HW123870   3.033   3.518   3.760  2.3695  0.7934 -2.7699
 4136SOL    HW223871   3.177   3.498   3.737  0.9000 -0.3389  1.1593
 4137SOL     OW23872   3.538   1.608   9.662 -0.0561 -0.8109 -0.2151
 4137SOL    HW123873   3.612   1.562   9.701  1.5474  0.8181 -1.3551
 4137SOL    HW223874   3.516   1.673   9.729 -1.1526 -0.1122 -1.2537
 4138SOL     OW23875   0.362   0.723   4.650 -0.1375  0.3627  0.6389
 4138SOL    HW123876   0.325   0.726   4.738  3.0842  0.8378  1.9726
 4138SOL    HW223877   0.375   0.815   4.627 -1.7053  0.1067 -1.2725
 4139SOL     OW23878   1.277   4.523   5.920  0.8309 -0.2431 -0.1707
 4139SOL    HW123879   1.371   4.504   5.918  0.4868 -1.9515 -0.2582
 4139SOL    HW223880   1.283   4.612   5.886 -3.1114  1.0864  2.7206
 4140SOL     OW23881   3.660   4.571  10.451  0.1612 -0.5281  1.1080
 4140SOL    HW123882   3.739   4.606  10.492 -0.1647  3.5034 -1.7352
 4140SOL    HW223883   3.677   4.594  10.360  0.4137  2.6211  1.9454
 4141SOL     OW23884   2.866   0.577   9.488 -0.1010  0.0486  0.1027
 4141SOL    HW123885   2.912   0.515   9.431 -2.9356  0.0041 -2.1560
 4141SOL    HW223886   2.917   0.655   9.469  0.2104  0.0270  0.8538
 4142SOL     OW23887   4.666   2.880   2.699  0.4819 -0.5173 -1.3493
 4142SOL    HW123888   4.612   2.957   2.678 -0.7591 -0.7308  0.9578
 4142SOL    HW223889   4.703   2.849   2.617  0.4750 -2.6989 -0.5084
 4143SOL     OW23890   1.789   2.020  10.439 -0.1698 -0.7167 -0.5976
 4143SOL    HW123891   1.880   2.029  10.465 -0.9057 -1.5318  2.3012
 4143SOL    HW223892   1.770   2.114  10.441  0.8641 -0.5743  2.2636
 4144SOL     OW23893   0.984   2.859   5.355 -0.4277 -0.7956  0.6358
 4144SOL    HW123894   0.942   2.773   5.358 -0.5834 -0.6866  1.8537
 4144SOL    HW223895   1.036   2.849   5.276  2.1535  1.4007  2.0704
 4145SOL     OW23896   1.205   2.875   4.042 -0.4866 -0.1949 -0.6137
 4145SOL    HW123897   1.184   2.835   3.957  0.7409 -0.8693 -0.5951
 4145SOL    HW223898   1.277   2.817   4.065 -0.6494  0.2837  1.0918
 4146SOL     OW23899   1.362   3.573   2.791  0.1745  0.4039 -0.0367
 4146SOL    HW123900   1.297   3.508   2.816  0.8183 -0.3226 -0.2520
 4146SOL    HW223901   1.435   3.533   2.837  0.7826  1.5382 -0.0170
 4147SOL     OW23902   3.093   1.070   6.192  0.1933 -0.4714 -0.1978
 4147SOL    HW123903   3.001   1.047   6.205 -0.1676  0.5031 -1.0130
 4147SOL    HW223904   3.115   1.068   6.285 -3.5313  3.6669  0.7542
 4148SOL     OW23905   1.536   1.389  13.974  0.2585 -0.3254 -0.1660
 4148SOL    HW123906   1.581   1.378  14.057  0.6488 -3.2893 -0.7849
 4148SOL    HW223907   1.467   1.445  14.010  2.4247  1.3500  1.4039
 4149SOL     OW23908   0.393   0.661   9.171 -0.0707  0.1697 -0.2355
 4149SOL    HW123909   0.306   0.654   9.211 -0.2034  1.7371 -0.2695
 4149SOL    HW223910   0.429   0.741   9.208  0.5382  0.2198 -0.9564
 4150SOL     OW23911   0.694   3.421   3.764  0.1208  0.4094 -1.2889
 4150SOL    HW123912   0.627   3.481   3.731 -1.0367 -0.8951 -1.2942
 4150SOL    HW223913   0.762   3.489   3.760 -0.1861  0.8170  0.3466
 4151SOL     OW23914   4.468   3.889   2.895 -0.2259 -0.1778  0.1503
 4151SOL    HW123915   4.482   3.861   2.986 -1.3834  0.5526  0.5507
 4151SOL    HW223916   4.375   3.908   2.885 -0.6086 -2.4425 -0.4958
 4152SOL     OW23917   4.653   4.519  13.232 -0.0223 -0.5566 -0.5373
 4152SOL    HW123918   4.660   4.581  13.304 -1.6115 -1.2459  0.2111
 4152SOL    HW223919   0.017   4.487  13.211 -0.0200  0.0416 -1.4148
 4153SOL     OW23920   2.721   1.126   3.333  0.0834  0.1014  0.6001
 4153SOL    HW123921   2.760   1.128   3.245  0.7845  2.0827  0.9611
 4153SOL    HW223922   2.696   1.034   3.339  1.1243 -0.3673 -1.9851
 4154SOL     OW23923   1.296   0.010   5.085  0.2138 -0.1529  0.5742
 4154SOL    HW123924   1.289   0.068   5.160  1.1262  0.8267 -0.0988
 4154SOL    HW223925   1.205   0.009   5.057  0.2103  0.3355  0.5846
 4155SOL     OW23926   3.605   2.997   4.975  0.7128  0.5632 -0.5827
 4155SOL    HW123927   3.602   3.031   5.065  1.8163 -2.7279  0.6893
 4155SOL    HW223928   3.696   3.006   4.946  0.7616  0.4734 -0.4581
 4156SOL     OW23929   3.932   0.073   8.200 -0.1171  0.0822  0.0101
 4156SOL    HW123930   3.960   0.020   8.274  1.4554  0.1069 -0.5708
 4156SOL    HW223931   4.018   0.091   8.163 -0.4409  0.0901 -0.7408
 4157SOL     OW23932   1.372   0.347   4.683  0.0308 -0.4232 -0.4585
 4157SOL    HW123933   1.353   0.279   4.748 -0.4996  0.2334  0.0741
 4157SOL    HW223934   1.324   0.305   4.611 -0.5626  0.4984 -0.6086
 4158SOL     OW23935   3.008   3.014   7.022  0.2884 -0.1010  0.3353
 4158SOL    HW123936   3.074   2.948   7.000 -0.3324 -0.5975 -0.0652
 4158SOL    HW223937   3.006   3.070   6.944  2.0648 -0.1001  0.2943
 4159SOL     OW23938   0.968   0.407  15.412  0.2100  0.1175 -0.3504
 4159SOL    HW123939   1.039   0.470  15.426  0.1020 -0.6970  3.7453
 4159SOL    HW223940   0.919   0.443  15.338  0.2348 -1.8196 -1.3067
 4160SOL     OW23941   1.976   2.857   4.382  0.4368 -0.8351  0.0030
 4160SOL    HW123942   2.063   2.887   4.407  0.7813 -1.6553 -0.2403
 4160SOL    HW223943   1.960   2.902   4.299  0.0559 -1.8827 -0.4942
 4161SOL     OW23944   2.207   1.678  15.827  0.0989  0.1550  0.1250
 4161SOL    HW123945   2.165   1.601  15.789 -1.8575  2.3941 -2.3082
 4161SOL    HW223946   2.222   1.726  15.745  1.5569 -2.3182 -1.0727
 4162SOL     OW23947   1.088   0.872  17.110  0.3565  0.2928  0.1075
 4162SOL    HW123948   1.093   0.954  17.160  4.0763 -0.0073  0.2549
 4162SOL    HW223949   1.048   0.889  17.025  0.3152  2.5248  0.5765
 4163SOL     OW23950   3.166   1.374   5.938 -0.6570  0.0447  0.1251
 4163SOL    HW123951   3.224   1.331   6.000 -0.4326  0.0516 -0.0796
 4163SOL    HW223952   3.222   1.431   5.886 -1.2106  1.0968  0.6764
 4164SOL     OW23953   3.421   1.266  12.265  0.0733 -0.2816  0.6882
 4164SOL    HW123954   3.341   1.281  12.315  0.1075 -0.8930  0.9175
 4164SOL    HW223955   3.463   1.193  12.310  2.3776  0.9488  0.5710
 4165SOL     OW23956   1.811   2.156  14.880  0.0001 -0.6820  0.3520
 4165SOL    HW123957   1.774   2.168  14.793  2.8149  1.7380 -0.5011
 4165SOL    HW223958   1.877   2.224  14.890 -0.7072  0.0126  0.3045
 4166SOL     OW23959   0.395   2.444   3.611  0.5999 -0.0076 -0.2610
 4166SOL    HW123960   0.344   2.386   3.554  1.5965 -1.8637  0.7213
 4166SOL    HW223961   0.348   2.522   3.583 -1.7029 -1.9176 -1.8156
 4167SOL     OW23962   1.996   2.054  13.118  0.1066  0.3002 -1.2481
 4167SOL    HW123963   1.912   2.038  13.161  0.8603  0.1335  0.1551
 4167SOL    HW223964   2.016   2.128  13.176 -3.3174  1.2422 -1.2367
 4168SOL     OW23965   1.387   1.456   6.247 -0.4321 -0.5627 -0.1242
 4168SOL    HW123966   1.402   1.477   6.340 -0.8799  0.5961 -0.3192
 4168SOL    HW223967   1.297   1.484   6.229 -0.2351  0.2191  0.1165
 4169SOL     OW23968   4.367   1.127   7.683  0.3188 -0.0416  0.0791
 4169SOL    HW123969   4.339   1.133   7.774 -0.2417 -1.5304  0.0095
 4169SOL    HW223970   4.331   1.210   7.654  1.8434  0.1216 -1.3466
 4170SOL     OW23971   2.916   1.239  11.185 -0.3022  0.2930 -0.0884
 4170SOL    HW123972   2.844   1.293  11.153  0.1992 -0.9309 -3.3531
 4170SOL    HW223973   2.951   1.300  11.250 -3.0798  1.6578  0.0915
 4171SOL     OW23974   0.704   3.302  15.975  0.1808  0.1422  0.5087
 4171SOL    HW123975   0.648   3.228  15.951  2.1081 -0.8729 -0.8620
 4171SOL    HW223976   0.775   3.299  15.911 -0.8347 -1.3167 -0.5360
 4172SOL     OW23977   0.947   3.658   5.031  0.5002  0.2986  0.0923
 4172SOL    HW123978   0.921   3.665   4.939  1.3264  2.0686  0.0022
 4172SOL    HW223979   0.920   3.568   5.046 -1.2220  1.1643  2.1307
 4173SOL     OW23980   0.809   3.872   9.790 -0.4834 -0.1173 -0.4573
 4173SOL    HW123981   0.791   3.940   9.854  0.5909  0.7900 -1.1129
 4173SOL    HW223982   0.885   3.908   9.743 -1.9852 -0.1459 -2.9426
 4174SOL     OW23983   4.705   2.778   8.859 -0.4787  0.4084  0.4818
 4174SOL    HW123984   4.712   2.755   8.952 -0.9986  0.0547  0.4267
 4174SOL    HW223985   4.627   2.727   8.841 -0.8817  1.3681 -0.4559
 4175SOL     OW23986   0.870   2.989   8.365  0.0858  0.4740 -0.1939
 4175SOL    HW123987   0.799   3.007   8.426  0.4012  0.3958  0.1941
 4175SOL    HW223988   0.948   2.989   8.421 -0.1770  0.1346  0.1635
 4176SOL     OW23989   3.291   4.013   5.166  0.1089  0.5629  0.1975
 4176SOL    HW123990   3.378   4.050   5.184  1.1848 -2.1690  0.5476
 4176SOL    HW223991   3.252   4.000   5.252 -1.3355  1.5659 -0.3035
 4177SOL     OW23992   0.372   3.005   8.009 -0.0056 -0.2171  0.6664
 4177SOL    HW123993   0.328   2.998   8.093 -2.3031  3.9750 -0.1947
 4177SOL    HW223994   0.463   2.975   8.021  0.4271  0.0431 -1.9426
 4178SOL     OW23995   0.056   1.515   6.935  0.0336  0.0061 -0.1711
 4178SOL    HW123996   0.142   1.492   6.900  0.6406  1.5523  0.3008
 4178SOL    HW223997   0.044   1.607   6.912  0.5441 -0.1471 -1.0635
 4179SOL     OW23998   4.574   0.132  10.835 -0.5660  0.3100  0.3157
 4179SOL    HW123999   4.510   0.085  10.781 -2.2581 -0.1112  2.6405
 4179SOL    HW224000   4.627   0.060  10.868 -3.1253 -1.5178  0.5101
 4180SOL     OW24001   0.632   0.238   3.190  0.2089 -0.1962 -0.2718
 4180SOL    HW124002   0.709   0.185   3.210 -0.5345 -0.0916  2.8662
 4180SOL    HW224003   0.577   0.200   3.258  2.8200 -1.9144  0.8692
 4181SOL     OW24004   3.311   4.409   7.527  0.2559 -0.0234  0.0568
 4181SOL    HW124005   3.305   4.504   7.533 -0.9522 -0.1509  0.7393
 4181SOL    HW224006   3.228   4.386   7.569 -0.3061 -0.8650 -1.4782
 4182SOL     OW24007   0.288   1.687   7.518 -0.0589 -0.2116 -0.0878
 4182SOL    HW124008   0.284   1.720   7.428 -1.5211  1.8750  0.7360
 4182SOL    HW224009   0.194   1.695   7.533  0.1084  2.4802 -0.4000
 4183SOL     OW24010   2.410   4.186   3.344 -0.0796  0.0851 -0.9554
 4183SOL    HW124011   2.501   4.216   3.338 -0.4296  1.0912 -1.2036
 4183SOL    HW224012   2.425   4.091   3.344  0.3773  0.1557  2.4563
 4184SOL     OW24013   2.165   0.638   6.048  0.0767  0.2732  0.0781
 4184SOL    HW124014   2.081   0.619   6.089  0.2245  0.3104  0.3950
 4184SOL    HW224015   2.145   0.628   5.955 -2.8549  0.8490  0.6754
 4185SOL     OW24016   1.849   0.901   5.220  0.1699  0.5137 -0.5508
 4185SOL    HW124017   1.800   0.952   5.285 -1.9481 -1.8047 -0.3221
 4185SOL    HW224018   1.795   0.823   5.215  1.3585 -0.3785  0.8441
 4186SOL     OW24019   0.586   1.363   2.085 -0.4865  0.0760  0.3171
 4186SOL    HW124020   0.569   1.337   2.176  0.3769  1.0014  0.7435
 4186SOL    HW224021   0.562   1.285   2.035 -2.0860  0.1629  0.9358
 4187SOL     OW24022   1.523   2.658   8.196 -0.4654 -0.5106 -0.0568
 4187SOL    HW124023   1.503   2.618   8.111  1.4551 -2.2744  0.3355
 4187SOL    HW224024   1.614   2.684   8.181 -0.3169 -0.2580  1.3706
 4188SOL     OW24025   2.902   0.630  10.923  0.0541  0.1135 -0.1406
 4188SOL    HW124026   2.889   0.598  11.012 -1.0478  2.5677  0.5541
 4188SOL    HW224027   2.961   0.704  10.937  0.7490 -1.0289  3.0479
 4189SOL     OW24028   2.284   2.193   7.819 -0.4674  0.5198 -0.5895
 4189SOL    HW124029   2.333   2.157   7.745  2.2264  0.6197  1.1740
 4189SOL    HW224030   2.212   2.228   7.766 -0.7838 -1.4719 -1.4940
 4190SOL     OW24031   3.736   2.354   3.750 -0.0067  0.8067  0.4400
 4190SOL    HW124032   3.708   2.445   3.753 -0.7615  0.5126  2.4471
 4190SOL    HW224033   3.824   2.359   3.713 -1.4940  2.4928 -2.8858
 4191SOL     OW24034   0.658   3.321   4.405  0.5890  0.3654 -0.0059
 4191SOL    HW124035   0.693   3.235   4.429  0.4387 -0.2023 -1.8166
 4191SOL    HW224036   0.719   3.342   4.335 -0.1554 -0.1409 -0.8088
 4192SOL     OW24037   1.568   4.562   1.928  0.7866 -0.3767  0.0035
 4192SOL    HW124038   1.588   4.614   1.850  0.3207  2.2056  1.5892
 4192SOL    HW224039   1.484   4.606   1.936  1.2540  0.0511  2.5349
 4193SOL     OW24040   0.972   3.962   0.037 -0.0984  0.2555 -0.0416
 4193SOL    HW124041   0.891   3.998   0.003 -0.0107  1.2564  0.8115
 4193SOL    HW224042   1.029   3.970  17.659 -0.1064 -1.0877 -0.1920
 4194SOL     OW24043   0.022   0.779   8.978  0.5339  0.5979 -0.5374
 4194SOL    HW124044   4.669   0.835   8.986  0.2769 -0.0719  1.5908
 4194SOL    HW224045   0.030   0.770   8.883 -1.7026  1.6528 -0.8379
 4195SOL     OW24046   1.903   4.069   7.969 -0.6438  1.1716 -0.0788
 4195SOL    HW124047   1.928   4.143   7.914  0.0695 -1.2977 -3.1124
 4195SOL    HW224048   1.828   4.043   7.916 -0.1114  2.4835 -1.4529
 4196SOL     OW24049   3.672   2.606   3.784 -0.8858 -1.1917  0.2298
 4196SOL    HW124050   3.697   2.692   3.751 -2.3020 -0.5231  0.9131
 4196SOL    HW224051   3.694   2.611   3.877  1.1679 -0.5575 -0.2857
 4197SOL     OW24052   3.062   3.880   1.870  0.3262  0.3999  0.2831
 4197SOL    HW124053   3.007   3.850   1.942  0.7305  0.5974  0.6777
 4197SOL    HW224054   3.155   3.882   1.895  0.7081  2.5298 -1.2889
 4198SOL     OW24055   4.681   0.624   1.371  0.2410  0.4167  0.2629
 4198SOL    HW124056   0.030   0.598   1.428  1.0931 -0.6293 -1.3295
 4198SOL    HW224057   4.670   0.712   1.408 -1.1432  0.1647  0.4594
 4199SOL     OW24058   4.595   1.412   2.565 -0.0150  0.2424  0.0341
 4199SOL    HW124059   4.672   1.456   2.530 -1.0989  1.8854 -0.2887
 4199SOL    HW224060   4.623   1.321   2.549  0.1432  0.1567  0.8157
 4200SOL     OW24061   0.785   3.713   5.241 -0.2454  0.1926  0.8519
 4200SOL    HW124062   0.706   3.714   5.187  0.8272 -0.9682 -0.7220
 4200SOL    HW224063   0.851   3.707   5.172 -2.8107  1.4372 -1.7443
 4201SOL     OW24064   1.060   3.831   9.359 -0.2314 -0.7708  0.1300
 4201SOL    HW124065   1.039   3.857   9.449 -0.1372 -2.1871  0.5498
 4201SOL    HW224066   1.147   3.792   9.367  0.3938  0.4051 -0.8921
 4202SOL     OW24067   4.709   1.711   6.151 -0.5062  0.0955 -0.1425
 4202SOL    HW124068   0.042   1.742   6.081 -0.8429 -0.1712 -0.5342
 4202SOL    HW224069   4.630   1.698   6.097  1.6280 -0.5109 -3.1344
 4203SOL     OW24070   3.986   0.358   5.207  0.1499 -1.2821 -0.1102
 4203SOL    HW124071   3.906   0.384   5.161  0.4925  0.0531  0.0302
 4203SOL    HW224072   4.041   0.343   5.130  1.2235 -0.1787  0.4229
 4204SOL     OW24073   4.136   3.971  14.756 -0.9305 -0.0806 -0.3292
 4204SOL    HW124074   4.212   3.951  14.811 -0.6166 -0.1819 -0.7993
 4204SOL    HW224075   4.072   3.999  14.822 -1.0846  0.3565 -0.6599
 4205SOL     OW24076   2.248   0.819   3.719  0.3274  0.3566  0.2000
 4205SOL    HW124077   2.286   0.761   3.785 -0.3177 -0.6245 -0.2925
 4205SOL    HW224078   2.206   0.749   3.669 -3.0409  3.2607 -1.0030
 4206SOL     OW24079   1.519   0.070   9.083  0.4377 -0.2001 -0.1097
 4206SOL    HW124080   1.539   0.010   9.155 -1.6223 -1.6081 -0.7041
 4206SOL    HW224081   1.427   0.092   9.095  1.0680  1.6266  1.3624
 4207SOL     OW24082   4.438   3.754   6.639 -0.3845 -0.5736 -0.1672
 4207SOL    HW124083   4.425   3.837   6.685  2.3050 -0.2968  0.0938
 4207SOL    HW224084   4.438   3.699   6.718  0.8470  0.8483  0.8198
 4208SOL     OW24085   4.472   3.682   1.306 -0.1845 -0.2659 -0.0726
 4208SOL    HW124086   4.404   3.620   1.334  0.2506 -0.0788  1.3718
 4208SOL    HW224087   4.434   3.759   1.265  0.0607  0.9932  2.0780
 4209SOL     OW24088   3.598   0.740  10.302  0.3356 -0.1368 -0.7052
 4209SOL    HW124089   3.619   0.792  10.224  0.3449  1.7203  0.5220
 4209SOL    HW224090   3.541   0.676  10.260  0.9358  0.2904 -2.1737
 4210SOL     OW24091   2.001   3.827  13.333  0.8565  0.0818  0.6781
 4210SOL    HW124092   1.993   3.883  13.411 -2.8501 -1.5273  1.4666
 4210SOL    HW224093   1.941   3.753  13.343  0.4599  0.4032  0.6783
 4211SOL     OW24094   1.548   0.005   6.350  0.3861  0.2689 -0.4241
 4211SOL    HW124095   1.461   0.033   6.325 -0.3358 -1.3525  0.2548
 4211SOL    HW224096   1.568   0.071   6.417  1.1048  0.4795 -0.8515
 4212SOL     OW24097   3.129   2.748   7.698  0.1548 -0.2078 -0.3642
 4212SOL    HW124098   3.203   2.784   7.748  2.0360 -1.4551 -2.2924
 4212SOL    HW224099   3.085   2.717   7.778  1.8623  0.8874  1.0008
 4213SOL     OW24100   2.532   4.558   1.810  0.1017  0.1949  0.3107
 4213SOL    HW124101   2.574   4.523   1.888  0.5653  0.6519  0.2745
 4213SOL    HW224102   2.589   4.635   1.804 -0.6931  0.8567  1.3066
 4214SOL     OW24103   4.025   2.579   4.299  0.3640 -0.1318  0.1602
 4214SOL    HW124104   4.091   2.627   4.250 -1.2883  4.1398  2.0902
 4214SOL    HW224105   4.052   2.488   4.285  1.5572  0.3550 -0.6821
 4215SOL     OW24106   0.969   1.577  13.645  0.0391 -0.2749  0.5010
 4215SOL    HW124107   0.946   1.666  13.618  0.3604  0.2763  2.0451
 4215SOL    HW224108   0.955   1.525  13.566  0.9459  0.2461 -0.0156
 4216SOL     OW24109   1.989   2.148   8.554  0.3683 -0.2183 -0.4835
 4216SOL    HW124110   2.077   2.114   8.538  0.6265  0.0920  0.2732
 4216SOL    HW224111   1.959   2.096   8.629 -2.0635  0.1385 -1.1879
 4217SOL     OW24112   0.157   1.632   9.858  0.1946  0.0769 -0.5164
 4217SOL    HW124113   0.187   1.556   9.907 -1.0042  1.3355  2.1681
 4217SOL    HW224114   0.178   1.606   9.769  1.3283 -0.4091 -0.1127
 4218SOL     OW24115   2.067   3.818  11.388 -0.0531 -0.2240  0.4693
 4218SOL    HW124116   2.084   3.726  11.407  0.8895 -0.1625 -0.0784
 4218SOL    HW224117   2.149   3.846  11.348 -0.0697 -0.0726  0.5447
 4219SOL     OW24118   1.136   3.790   5.263 -0.3681 -0.3429 -0.1003
 4219SOL    HW124119   1.083   3.849   5.210 -3.0774 -0.6439  2.2955
 4219SOL    HW224120   1.219   3.835   5.279 -0.2049 -0.6838  0.0202
 4220SOL     OW24121   3.269   3.525   8.134 -0.0355 -0.1531  0.3063
 4220SOL    HW124122   3.325   3.534   8.057 -1.8414  2.0989 -0.7451
 4220SOL    HW224123   3.244   3.433   8.134  1.2385 -0.5024 -2.3906
 4221SOL     OW24124   1.572   2.007   6.544  0.1230 -0.1874 -0.3818
 4221SOL    HW124125   1.595   2.099   6.545  0.9427 -0.4194  1.2995
 4221SOL    HW224126   1.558   1.994   6.637  1.0226  0.7101 -0.1254
 4222SOL     OW24127   1.947   1.803  11.425  0.0001 -0.4396  0.4566
 4222SOL    HW124128   1.863   1.781  11.464 -0.5680  2.0419  0.6023
 4222SOL    HW224129   2.012   1.777  11.490  0.8308 -1.6055 -0.8347
 4223SOL     OW24130   4.526   0.859   3.854  0.5263 -0.5312  0.2775
 4223SOL    HW124131   4.503   0.783   3.800  2.5439 -0.6926 -0.3449
 4223SOL    HW224132   4.497   0.825   3.939  0.2042  1.4926  0.9700
 4224SOL     OW24133   4.318   2.158  11.831 -0.1209  0.3381 -0.2396
 4224SOL    HW124134   4.329   2.112  11.748  1.2379  1.4422 -0.6796
 4224SOL    HW224135   4.321   2.086  11.893  1.6914 -1.3268 -2.2628
 4225SOL     OW24136   0.675   0.538   7.939 -0.6356  0.1454 -0.2274
 4225SOL    HW124137   0.666   0.632   7.923  0.5101  0.1127 -1.0506
 4225SOL    HW224138   0.748   0.540   8.002  0.0977  0.4153 -1.0838
 4226SOL     OW24139   2.014   1.336   4.825  0.5632  0.6921  0.1658
 4226SOL    HW124140   2.022   1.332   4.729  0.1744 -0.7429  0.2037
 4226SOL    HW224141   2.050   1.251   4.850 -1.2207 -0.5009 -1.2673
 4227SOL     OW24142   1.056   3.528   6.886  0.3578 -0.0849  0.1240
 4227SOL    HW124143   1.046   3.543   6.792  2.7448 -1.5448 -0.3484
 4227SOL    HW224144   0.995   3.583   6.936  0.6025 -0.7135  1.1254
 4228SOL     OW24145   2.867   0.039  15.709 -0.4737 -0.5478  0.7502
 4228SOL    HW124146   2.948   4.717  15.686  0.8635  2.7480 -1.1152
 4228SOL    HW224147   2.898   0.085  15.787  0.8603 -0.7411  0.3321
 4229SOL     OW24148   1.249   4.404   6.740 -0.4178 -0.6435 -0.3249
 4229SOL    HW124149   1.307   4.442   6.675  0.4234  1.5528  1.7177
 4229SOL    HW224150   1.230   4.316   6.707  1.5261 -1.1656 -0.0427
 4230SOL     OW24151   2.428   4.698   4.047  0.5030 -0.8809 -0.0274
 4230SOL    HW124152   2.395   4.693   4.137  1.1973  0.8707  0.3421
 4230SOL    HW224153   2.435   0.068   4.031 -1.6424 -0.5376  0.9965
 4231SOL     OW24154   1.785   2.831  10.954  0.3638  0.7771  0.0773
 4231SOL    HW124155   1.721   2.837  11.025 -0.5507 -1.6958 -0.5253
 4231SOL    HW224156   1.860   2.859  11.006 -0.1080  0.5710  0.8596
 4232SOL     OW24157   3.180   1.255  10.219  0.4745  0.2167  0.1194
 4232SOL    HW124158   3.174   1.243  10.314  3.0675 -0.5649  0.1724
 4232SOL    HW224159   3.275   1.254  10.216  0.3933 -0.5923 -1.6367
 4233SOL     OW24160   3.729   1.754  16.774 -0.2267 -0.7597 -0.1859
 4233SOL    HW124161   3.649   1.807  16.779 -0.9120 -1.8497  0.3561
 4233SOL    HW224162   3.743   1.738  16.867 -1.2223 -2.2029 -0.2885
 4234SOL     OW24163   2.918   1.161   9.531  0.4924 -0.6154  0.4297
 4234SOL    HW124164   2.909   1.184   9.438  1.3845  0.2739  0.5609
 4234SOL    HW224165   2.982   1.229   9.553  0.0617  0.1182 -0.5341
 4235SOL     OW24166   1.367   0.421   6.929  0.1014 -0.5654 -0.5126
 4235SOL    HW124167   1.339   0.482   6.860 -0.5115  0.2852  0.4823
 4235SOL    HW224168   1.424   0.478   6.981  0.3945 -0.8627 -0.5140
 4236SOL     OW24169   1.817   3.032   6.826  0.0175  0.0763  0.0174
 4236SOL    HW124170   1.760   3.048   6.751 -1.7495 -1.6511  0.9705
 4236SOL    HW224171   1.750   3.015   6.892  1.8399  0.3849  1.9420
 4237SOL     OW24172   2.098   1.828   8.384 -0.3624  0.5262 -0.3262
 4237SOL    HW124173   2.146   1.904   8.417 -1.4816 -0.3405  3.3328
 4237SOL    HW224174   2.175   1.773   8.368  0.7615  0.8568  3.9354
 4238SOL     OW24175   0.921   0.576  14.081 -0.7120  0.2460  0.5322
 4238SOL    HW124176   0.928   0.491  14.037 -0.2443  0.3104  0.4831
 4238SOL    HW224177   0.831   0.578  14.114 -0.9568 -2.3985  0.0554
 4239SOL     OW24178   2.074   0.726   5.263 -0.1657 -0.0403  0.2854
 4239SOL    HW124179   1.996   0.778   5.243 -0.7877 -1.3320 -0.6286
 4239SOL    HW224180   2.106   0.700   5.176  0.4866 -0.0532  0.5301
 4240SOL     OW24181   1.113   3.789   7.156 -0.0055 -0.5980  0.4989
 4240SOL    HW124182   1.122   3.876   7.195 -3.2867  0.8554 -1.9926
 4240SOL    HW224183   1.195   3.753   7.190 -0.2236 -1.8426 -0.3239
 4241SOL     OW24184   4.125   3.596   5.397 -0.0192  0.1928 -0.3890
 4241SOL    HW124185   4.204   3.606   5.345 -1.4941 -0.0259 -2.6606
 4241SOL    HW224186   4.148   3.513   5.438  0.9557  0.2755 -0.7785
 4242SOL     OW24187   1.515   0.640  15.240 -0.0608 -0.4996 -0.9442
 4242SOL    HW124188   1.446   0.576  15.224  0.4444 -1.5957  1.1958
 4242SOL    HW224189   1.516   0.672  15.150 -0.6116  0.3635 -0.6401
 4243SOL     OW24190   3.511   2.768   4.111  0.4842  0.2754 -0.6196
 4243SOL    HW124191   3.461   2.794   4.033  0.1031  0.7105 -0.2270
 4243SOL    HW224192   3.507   2.673   4.101  0.2935 -0.0155  2.2434
 4244SOL     OW24193   4.704   2.782  10.928 -0.2506 -0.0464  0.2162
 4244SOL    HW124194   0.006   2.776  11.020 -2.3963 -0.5997  0.7917
 4244SOL    HW224195   0.057   2.794  10.872 -0.7717  1.2457 -0.2099
 4245SOL     OW24196   0.374   0.304   0.213  0.0193  0.5871  0.0947
 4245SOL    HW124197   0.390   0.218   0.175 -0.9081 -0.7475  2.7183
 4245SOL    HW224198   0.448   0.349   0.172 -0.9377  2.2938  0.2313
 4246SOL     OW24199   4.466   0.098   4.934 -0.1415  0.1421  0.0687
 4246SOL    HW124200   4.511   0.031   4.882  1.6765  1.6492 -0.2993
 4246SOL    HW224201   4.477   0.074   5.026  2.2536  1.0107  0.0256
 4247SOL     OW24202   4.346   1.730   4.463 -0.6624  0.1859 -0.2553
 4247SOL    HW124203   4.343   1.788   4.539 -0.2678 -1.2488  0.8474
 4247SOL    HW224204   4.431   1.758   4.432  0.2578 -0.8430  1.3328
 4248SOL     OW24205   1.541   1.610   2.424 -0.0122 -0.2514 -0.1023
 4248SOL    HW124206   1.447   1.593   2.418 -0.0612 -0.1316  0.3134
 4248SOL    HW224207   1.554   1.703   2.445 -3.2858  0.2834 -0.3466
 4249SOL     OW24208   3.985   1.898   7.514 -0.7137 -0.4222  0.6070
 4249SOL    HW124209   3.996   1.892   7.419  0.9882  0.6713  0.7245
 4249SOL    HW224210   4.012   1.990   7.520 -0.1056 -0.3222 -3.7150
 4250SOL     OW24211   3.135   3.342   8.984  0.6344  0.3036 -0.3723
 4250SOL    HW124212   3.098   3.298   9.060  2.0534 -2.0700 -1.0753
 4250SOL    HW224213   3.221   3.301   8.978 -0.2631 -1.6207  0.0828
 4251SOL     OW24214   4.483   1.386   3.966 -0.3180 -0.4612  0.0904
 4251SOL    HW124215   4.388   1.396   3.963 -0.1257  1.5025  0.5779
 4251SOL    HW224216   4.503   1.328   4.039  1.9174  3.0920  2.2778
 4252SOL     OW24217   3.844   2.515   5.358 -0.8212  0.1871  0.6455
 4252SOL    HW124218   3.844   2.420   5.357 -1.0619  0.2045 -1.2183
 4252SOL    HW224219   3.769   2.530   5.415  0.6778  0.9992  2.4155
 4253SOL     OW24220   0.388   4.060  17.063  0.0683 -0.0150  0.0592
 4253SOL    HW124221   0.383   4.155  17.073 -1.7171 -0.0645 -0.4308
 4253SOL    HW224222   0.351   4.042  16.977  0.7161 -0.2247 -0.1799
 4254SOL     OW24223   4.468   4.131  12.088  0.0252 -0.6712 -0.5700
 4254SOL    HW124224   4.431   4.084  12.163 -0.1295  1.3649  0.6250
 4254SOL    HW224225   4.386   4.161  12.049  1.0876 -0.4995 -2.6983
 4255SOL     OW24226   4.333   1.080   7.965 -0.3540  0.4100  0.2172
 4255SOL    HW124227   4.273   1.151   7.984  0.0938  1.4866 -2.3537
 4255SOL    HW224228   4.402   1.096   8.029 -1.4323 -0.3517  1.5476
 4256SOL     OW24229   1.441   4.236   4.293 -0.4275  0.2104  0.2137
 4256SOL    HW124230   1.391   4.193   4.362  1.1413  0.2374  1.3640
 4256SOL    HW224231   1.435   4.331   4.307  0.6493  0.2185  0.6012
 4257SOL     OW24232   4.043   3.572  13.520 -0.2085 -0.1238  0.0048
 4257SOL    HW124233   4.064   3.511  13.592 -0.5168 -2.3188 -1.7567
 4257SOL    HW224234   3.964   3.528  13.488 -0.3264 -0.5099  0.8123
 4258SOL     OW24235   3.143   0.850   4.379  0.2401  0.0415 -0.2684
 4258SOL    HW124236   3.106   0.937   4.392 -1.2276 -0.7334  0.7494
 4258SOL    HW224237   3.146   0.836   4.284 -2.8546  1.2487 -0.5173
 4259SOL     OW24238   4.701   1.528   3.885  0.5316  0.4115 -0.4821
 4259SOL    HW124239   0.028   1.499   3.961  1.9205  1.8729 -0.8574
 4259SOL    HW224240   4.631   1.464   3.877 -0.7429  1.5391  1.6903
 4260SOL     OW24241   3.891   1.064   7.163 -0.3727 -0.1500 -0.6524
 4260SOL    HW124242   3.938   1.126   7.218 -2.9647  1.6815 -0.5280
 4260SOL    HW224243   3.968   1.011   7.140 -1.1778 -1.0525 -1.2537
 4261SOL     OW24244   1.963   3.839   0.146  0.6180  0.3346  0.3204
 4261SOL    HW124245   1.919   3.814   0.227  0.7805 -0.3469  0.2027
 4261SOL    HW224246   2.056   3.825   0.163  0.5708  0.8590  0.9795
 4262SOL     OW24247   1.592   4.615  14.798  0.2490 -0.0664  0.1414
 4262SOL    HW124248   1.531   4.648  14.864  0.2584  1.1291 -0.4495
 4262SOL    HW224249   1.639   4.698  14.791  2.7764 -1.5343 -0.1836
 4263SOL     OW24250   1.989   1.014   7.504  0.2451  0.0897  0.8014
 4263SOL    HW124251   1.909   1.050   7.542  0.5544 -1.3230  2.7885
 4263SOL    HW224252   1.981   1.051   7.416 -1.5850 -0.2013  0.8491
 4264SOL     OW24253   2.552   2.520   1.766 -0.3615 -0.1774 -0.1307
 4264SOL    HW124254   2.579   2.539   1.677  0.7023 -0.2808  0.1586
 4264SOL    HW224255   2.560   2.425   1.778 -2.6039 -0.5484 -1.6712
 4265SOL     OW24256   2.594   2.895   1.572 -0.6314 -0.2779  0.3194
 4265SOL    HW124257   2.564   2.941   1.493 -2.5966 -2.8585 -0.4483
 4265SOL    HW224258   2.535   2.927   1.640 -0.2834  0.1891  0.3999
 4266SOL     OW24259   2.074   3.089   1.117  0.3472  0.4218  0.2862
 4266SOL    HW124260   2.125   3.106   1.196 -0.2545  0.5843  0.6398
 4266SOL    HW224261   2.065   2.996   1.134  0.0327  0.0419 -1.9281
 4267SOL     OW24262   2.244   3.174  13.420  0.1875 -0.9458 -0.2129
 4267SOL    HW124263   2.326   3.181  13.470 -0.8389 -0.7240  1.4575
 4267SOL    HW224264   2.229   3.080  13.405  0.1490 -0.9939  0.1248
 4268SOL     OW24265   2.874   3.049  12.819 -0.0138  0.1538  0.4843
 4268SOL    HW124266   2.899   3.133  12.858 -0.3754 -1.0678  3.3133
 4268SOL    HW224267   2.961   3.009  12.828  0.8481  1.4402 -1.9668
 4269SOL     OW24268   4.016   1.493  13.713 -0.0164 -0.2543  0.7246
 4269SOL    HW124269   4.110   1.506  13.699 -0.3041 -0.8375 -1.7301
 4269SOL    HW224270   3.979   1.509  13.626  0.7931 -0.0104  0.4184
 4270SOL     OW24271   3.678   3.064  15.312 -0.6274  0.0074  0.0317
 4270SOL    HW124272   3.624   3.136  15.280 -0.1344  0.8354  1.0540
 4270SOL    HW224273   3.616   2.992  15.303 -0.3332 -0.2940  0.4422
 4271SOL     OW24274   0.942   4.472   5.643 -0.3690 -0.0045 -0.2407
 4271SOL    HW124275   0.922   4.463   5.549  0.4473 -1.1212 -0.3041
 4271SOL    HW224276   1.033   4.443   5.641 -1.2882 -2.9417  0.1328
 4272SOL     OW24277   3.476   3.121   3.472  0.2583 -0.3361 -0.0258
 4272SOL    HW124278   3.545   3.156   3.528  0.0139 -1.6315  1.0771
 4272SOL    HW224279   3.497   3.184   3.403  2.0353 -1.7766 -0.7946
 4273SOL     OW24280   0.673   2.747   5.665  0.0432 -0.0071  0.2364
 4273SOL    HW124281   0.739   2.739   5.596 -2.1428  1.9086 -2.0443
 4273SOL    HW224282   0.600   2.777   5.612  0.6220  1.4629  0.2706
 4274SOL     OW24283   0.961   3.817   4.178 -0.1856 -0.7685  0.5791
 4274SOL    HW124284   1.013   3.820   4.098 -0.0790  2.0624  0.7399
 4274SOL    HW224285   0.946   3.911   4.187 -0.8508 -0.6028 -2.3221
 4275SOL     OW24286   3.586   3.808   6.950  0.8828  0.0140  0.4466
 4275SOL    HW124287   3.651   3.740   6.932  1.4130  0.4148  0.9068
 4275SOL    HW224288   3.538   3.810   6.866  1.6297 -0.3829  0.0120
 4276SOL     OW24289   1.222   2.109   3.021  0.4596 -0.4119 -0.3144
 4276SOL    HW124290   1.176   2.155   2.951  0.5946 -0.7178 -0.6042
 4276SOL    HW224291   1.213   2.179   3.086  2.0303 -1.1182  0.6652
 4277SOL     OW24292   3.859   0.161   3.332  0.0392 -0.2255  0.1778
 4277SOL    HW124293   3.791   0.148   3.397 -1.0196 -1.0365 -1.1069
 4277SOL    HW224294   3.907   0.234   3.372 -1.0280  1.3198 -1.3376
 4278SOL     OW24295   0.970   3.598  12.371  0.3721  0.0772 -0.1576
 4278SOL    HW124296   0.895   3.576  12.316 -1.3013  4.2276  0.4917
 4278SOL    HW224297   0.930   3.663  12.429 -3.8765 -0.2223 -2.7942
 4279SOL     OW24298   3.710   1.865   7.508  0.2851 -0.2178  0.5769
 4279SOL    HW124299   3.804   1.858   7.523  0.2143 -1.0657  0.6201
 4279SOL    HW224300   3.697   1.937   7.569  1.6480 -1.5090  2.4151
 4280SOL     OW24301   0.517   3.550   4.487  0.0486  0.1689  0.1055
 4280SOL    HW124302   0.511   3.570   4.393 -0.7026  1.1139  0.3519
 4280SOL    HW224303   0.567   3.469   4.483 -1.6380 -0.7213 -3.0852
 4281SOL     OW24304   2.963   2.008   4.808 -0.1022 -0.2504  0.0004
 4281SOL    HW124305   3.054   1.992   4.835 -0.8298 -2.4826  1.1381
 4281SOL    HW224306   2.943   1.926   4.762 -0.1973 -0.6965  0.8172
 4282SOL     OW24307   2.919   3.321   8.807 -0.2820 -0.1403 -0.2907
 4282SOL    HW124308   2.995   3.279   8.768 -0.9635  0.2009 -1.9629
 4282SOL    HW224309   2.944   3.342   8.897 -0.3631 -1.1132 -0.0359
 4283SOL     OW24310   3.783   4.683   4.431  0.6556  0.2146  0.4601
 4283SOL    HW124311   3.734   0.041   4.430  0.1830 -0.0633  1.0796
 4283SOL    HW224312   3.715   4.622   4.458  0.3346  1.3602  2.2242
 4284SOL     OW24313   2.165   4.300   3.818 -0.0173 -0.0162 -0.0987
 4284SOL    HW124314   2.089   4.345   3.781  1.0486 -0.2982 -2.6247
 4284SOL    HW224315   2.211   4.377   3.850 -1.2123  0.0708  1.4133
 4285SOL     OW24316   4.226   2.695   7.391  0.5230  0.2403  0.5680
 4285SOL    HW124317   4.165   2.712   7.320  0.0847  0.1673  0.9239
 4285SOL    HW224318   4.287   2.656   7.329 -1.0119 -0.0696 -0.7621
 4286SOL     OW24319   2.231   1.255   8.977 -0.4109 -0.0464 -0.2314
 4286SOL    HW124320   2.312   1.216   8.946 -0.0252  1.1608 -0.7064
 4286SOL    HW224321   2.177   1.218   8.908 -1.9947  0.5005  0.7018
 4287SOL     OW24322   4.387   4.676  10.753  0.1581 -0.4167 -0.1188
 4287SOL    HW124323   4.430   4.603  10.708 -0.7880 -1.8456  1.2806
 4287SOL    HW224324   4.359   4.636  10.835 -0.8901  3.1601  1.2687
 4288SOL     OW24325   4.017   0.898   2.156  0.1556 -0.2501  0.4470
 4288SOL    HW124326   4.071   0.937   2.087  1.2986 -1.4513  0.6659
 4288SOL    HW224327   4.075   0.825   2.176 -2.1384 -1.9077  1.0534
 4289SOL     OW24328   3.494   3.354   6.271  0.2444  0.0388  0.3053
 4289SOL    HW124329   3.590   3.347   6.274  0.1472 -2.3038 -1.2131
 4289SOL    HW224330   3.461   3.437   6.304  1.5056 -0.1696  2.0619
 4290SOL     OW24331   1.156   2.980  15.669 -0.0311  0.0940 -0.3461
 4290SOL    HW124332   1.124   3.012  15.754 -1.0924 -1.5408 -0.1175
 4290SOL    HW224333   1.127   2.889  15.679  0.9548  0.0289  1.8998
 4291SOL     OW24334   1.582   3.445   2.891  0.9227  0.1036 -0.1725
 4291SOL    HW124335   1.647   3.511   2.870  0.8857  0.1091 -0.2704
 4291SOL    HW224336   1.631   3.368   2.861  0.6460 -1.5833  3.6529
 4292SOL     OW24337   4.209   4.723   5.533  0.2518  0.5909 -0.0731
 4292SOL    HW124338   4.143   0.067   5.542  0.3638  0.6120  0.5830
 4292SOL    HW224339   4.187   4.671   5.610 -0.0394  1.3426  0.3517
 4293SOL     OW24340   2.209   0.315   9.818 -0.0094 -0.1206  0.1094
 4293SOL    HW124341   2.192   0.384   9.881 -1.0224  0.1433 -0.4556
 4293SOL    HW224342   2.117   0.293   9.803  0.3069 -0.3438 -1.5268
 4294SOL     OW24343   0.035   3.913   7.041  0.1958  0.0100  0.1119
 4294SOL    HW124344   4.697   3.884   6.974 -1.5396  1.6158  1.0388
 4294SOL    HW224345   0.032   4.008   7.032  2.2926  0.1339  0.8433
 4295SOL     OW24346   0.896   4.041  13.284  0.0025  0.2848  0.1746
 4295SOL    HW124347   0.951   4.063  13.208 -0.4720 -0.3961 -0.3695
 4295SOL    HW224348   0.965   4.015  13.344  1.5907 -0.6892 -2.0606
 4296SOL     OW24349   3.854   3.360  10.744  0.4440  0.0624  0.8678
 4296SOL    HW124350   3.828   3.275  10.779  1.2116  0.0699  1.4569
 4296SOL    HW224351   3.811   3.356  10.658  1.2787  0.3475  0.4352
 4297SOL     OW24352   3.982   3.183   6.770  0.9392  0.2550  0.3630
 4297SOL    HW124353   3.938   3.186   6.855 -0.4730  0.4630 -0.3661
 4297SOL    HW224354   4.023   3.269   6.766  0.1096  0.6149 -0.4452
 4298SOL     OW24355   1.594   3.560   6.223  0.6898  0.0678 -0.3055
 4298SOL    HW124356   1.666   3.622   6.215 -1.5256  2.6774 -0.0558
 4298SOL    HW224357   1.596   3.530   6.314 -2.5699  0.6861 -0.0217
 4299SOL     OW24358   1.270   0.329  12.515  0.1224  0.8795  0.1778
 4299SOL    HW124359   1.308   0.242  12.522  0.2474  0.8751 -0.5690
 4299SOL    HW224360   1.193   0.319  12.571 -0.3408  1.4345 -0.3581
 4300SOL     OW24361   0.785   4.021  10.431  0.4439 -0.4345 -0.4001
 4300SOL    HW124362   0.766   4.002  10.523  0.3638 -0.3750 -0.4043
 4300SOL    HW224363   0.741   3.946  10.389  1.1498 -0.6978 -0.6648
 4301SOL     OW24364   3.967   2.113   2.502 -0.4813  0.0627 -0.3743
 4301SOL    HW124365   3.887   2.160   2.527 -1.4009 -1.7676  0.1725
 4301SOL    HW224366   3.958   2.025   2.537  0.4710  0.7896  1.6613
 4302SOL     OW24367   1.139   2.378   4.923  0.4386  0.1327 -0.2478
 4302SOL    HW124368   1.224   2.339   4.906  1.6283  1.5758  2.3403
 4302SOL    HW224369   1.091   2.302   4.959  0.8280  1.3804  2.9523
 4303SOL     OW24370   4.523   3.102   7.969 -0.1755 -0.0752  0.2958
 4303SOL    HW124371   4.477   3.185   7.982  0.0875  0.1846 -0.4638
 4303SOL    HW224372   4.587   3.102   8.041  1.5449  0.1366 -1.2341
 4304SOL     OW24373   1.194   2.391  15.925 -0.5411 -0.3778 -0.0653
 4304SOL    HW124374   1.167   2.334  15.853 -2.1084  0.8922 -0.4835
 4304SOL    HW224375   1.278   2.423  15.893 -1.0304  1.9553  0.9662
 4305SOL     OW24376   4.570   3.721   2.682 -0.4751 -0.2806 -0.2271
 4305SOL    HW124377   4.525   3.747   2.762  0.3641  0.4540  0.0124
 4305SOL    HW224378   4.589   3.801   2.632 -0.0001 -1.4986 -1.9986
 4306SOL     OW24379   1.608   2.277   7.028 -0.4992 -0.1705  0.0912
 4306SOL    HW124380   1.545   2.250   7.095 -0.3542 -0.7128  0.0118
 4306SOL    HW224381   1.668   2.202   7.034  1.5408  1.5413  0.8251
 4307SOL     OW24382   1.711   1.178   8.573  0.5142 -0.3848  0.3525
 4307SOL    HW124383   1.732   1.243   8.507 -0.3018  0.0468  0.5195
 4307SOL    HW224384   1.769   1.103   8.557 -0.4805 -1.0229 -0.2774
 4308SOL     OW24385   1.772   2.074   8.387 -0.8141  0.5416 -0.0315
 4308SOL    HW124386   1.750   2.139   8.320  1.5182 -0.3432 -1.6552
 4308SOL    HW224387   1.843   2.121   8.430 -0.7373 -0.3876  0.8400
 4309SOL     OW24388   2.270   4.134  11.324 -0.0120 -0.0820  0.2362
 4309SOL    HW124389   2.250   4.043  11.303 -1.1199  0.1866  0.1313
 4309SOL    HW224390   2.304   4.122  11.412  1.5741  1.0944 -0.2250
 4310SOL     OW24391   1.674   4.102   1.435 -0.2218  0.2420  0.2180
 4310SOL    HW124392   1.752   4.158   1.438 -1.5171  1.8856  2.8449
 4310SOL    HW224393   1.627   4.131   1.358  1.4579  2.2299 -0.0405
 4311SOL     OW24394   3.030   0.263  10.680  0.3187  0.3973  0.0581
 4311SOL    HW124395   3.041   0.313  10.599  0.6469  1.5662  0.8265
 4311SOL    HW224396   3.079   0.322  10.737 -1.1073  1.6127  0.0096
 4312SOL     OW24397   4.004   1.605  13.413  0.4233 -0.4233 -0.4360
 4312SOL    HW124398   3.915   1.586  13.444  1.3176 -2.3738  1.0080
 4312SOL    HW224399   4.006   1.697  13.387  1.1140 -0.7709 -1.6120
 4313SOL     OW24400   2.787   0.247   7.312 -1.1298  0.5820 -0.0021
 4313SOL    HW124401   2.778   0.163   7.267  2.1639  0.1262  0.2465
 4313SOL    HW224402   2.697   0.266   7.339 -1.3876 -0.5950 -0.0326
 4314SOL     OW24403   3.761   1.789  11.939 -0.0548  0.0910  0.1072
 4314SOL    HW124404   3.725   1.876  11.921 -0.1903  0.1952  0.8501
 4314SOL    HW224405   3.696   1.770  12.007  0.3797  0.7890  0.7207
 4315SOL     OW24406   0.671   3.773   3.042 -0.0157 -0.6157 -0.6145
 4315SOL    HW124407   0.674   3.867   3.030 -2.1376 -0.1742  2.4352
 4315SOL    HW224408   0.695   3.735   2.957  0.5120 -0.5091 -0.5167
 4316SOL     OW24409   4.258   2.286  11.221 -0.2525  0.1442  0.5463
 4316SOL    HW124410   4.270   2.359  11.282  0.2670  1.3714 -1.0140
 4316SOL    HW224411   4.330   2.232  11.252  1.0167  1.6670  0.2664
 4317SOL     OW24412   3.367   1.704  12.114 -0.6364 -0.1702 -0.5832
 4317SOL    HW124413   3.375   1.710  12.019 -0.6071 -1.9966 -0.6894
 4317SOL    HW224414   3.435   1.643  12.143 -2.4136 -1.5871  0.6127
 4318SOL     OW24415   3.335   0.646   2.673 -0.3136  0.1470  0.4015
 4318SOL    HW124416   3.372   0.730   2.646 -0.1344  0.1840  0.7694
 4318SOL    HW224417   3.366   0.592   2.601 -2.0454  3.1070 -2.5598
 4319SOL     OW24418   4.575   2.117  10.552 -0.7050  0.1378 -0.1486
 4319SOL    HW124419   4.644   2.177  10.581 -0.3546 -0.6898  0.7221
 4319SOL    HW224420   4.497   2.170  10.537 -1.1962  0.2367  2.7215
 4320SOL     OW24421   3.418   1.927   9.352  0.1386  0.1110 -0.3733
 4320SOL    HW124422   3.382   1.873   9.282 -1.3884  1.1429 -0.4043
 4320SOL    HW224423   3.488   1.875   9.392 -1.0315  0.1943  1.8134
 4321SOL     OW24424   4.637   3.694   0.068  0.5972  0.3181  0.2725
 4321SOL    HW124425   4.665   3.753  17.697  2.1016  1.2917  1.7068
 4321SOL    HW224426   4.635   3.749   0.146  0.9744  0.2754  0.3157
 4322SOL     OW24427   0.338   3.491  12.589 -0.9489  0.0405  0.0266
 4322SOL    HW124428   0.355   3.397  12.583 -0.6655  0.0086  1.3361
 4322SOL    HW224429   0.279   3.490  12.664 -2.6258  0.6050 -1.2840
 4323SOL     OW24430   0.772   3.445  10.531 -0.1656 -0.0400  0.3677
 4323SOL    HW124431   0.842   3.394  10.491  0.6029  1.5994 -0.3734
 4323SOL    HW224432   0.809   3.531  10.548  0.5832 -0.7117  2.1394
 4324SOL     OW24433   4.484   2.948   2.397  0.0657  0.2985 -0.0104
 4324SOL    HW124434   4.553   2.883   2.388  0.3227  0.3603  1.6328
 4324SOL    HW224435   4.421   2.919   2.331  1.7243  1.0158 -1.8989
 4325SOL     OW24436   1.335   1.608   9.220  0.6791 -0.2165 -0.3203
 4325SOL    HW124437   1.391   1.531   9.223  1.5278  0.4884  1.5426
 4325SOL    HW224438   1.354   1.639   9.308  1.7263 -1.8286  0.0274
 4326SOL     OW24439   0.249   0.874   3.046 -0.1687  0.0839 -0.1994
 4326SOL    HW124440   0.308   0.937   3.006 -0.0817  1.3898  2.0331
 4326SOL    HW224441   0.274   0.887   3.137 -1.5214  2.4503 -0.1761
 4327SOL     OW24442   0.252   2.032   6.592 -0.6878  0.2551  0.1931
 4327SOL    HW124443   0.346   2.016   6.580 -1.6417 -4.0862 -1.4776
 4327SOL    HW224444   0.240   2.082   6.511 -0.6869  0.3181  0.2326
 4328SOL     OW24445   0.156   0.051   5.956 -0.0439  0.3526 -0.3354
 4328SOL    HW124446   0.193   4.708   6.014 -1.7453 -0.3732 -0.1122
 4328SOL    HW224447   0.177   0.029   5.865  1.3826 -1.6964  0.4687
 4329SOL     OW24448   0.268   2.674   3.493 -0.2352 -0.4888  0.3958
 4329SOL    HW124449   0.281   2.693   3.400  1.5536 -0.4825  0.6520
 4329SOL    HW224450   0.273   2.763   3.529 -1.1259  0.1583 -1.0920
 4330SOL     OW24451   1.586   3.058   6.649 -0.6125  0.3525  0.6282
 4330SOL    HW124452   1.563   2.976   6.692 -3.4606  0.5349 -0.5230
 4330SOL    HW224453   1.499   3.094   6.667 -0.7093  1.5474 -2.2779
 4331SOL     OW24454   3.297   3.288   4.790 -0.0222  0.5924  0.2811
 4331SOL    HW124455   3.333   3.350   4.728 -2.1572  0.6899 -0.8507
 4331SOL    HW224456   3.226   3.334   4.835 -0.5516  0.8942 -0.8647
 4332SOL     OW24457   0.870   1.211   2.068  0.0721 -0.5982 -0.5331
 4332SOL    HW124458   0.844   1.254   2.149  0.5244  0.8147 -1.1473
 4332SOL    HW224459   0.881   1.283   2.006  1.8062  0.2002  0.7003
 4333SOL     OW24460   3.775   0.239  10.262 -0.8853  0.5188  0.1113
 4333SOL    HW124461   3.758   0.285  10.344 -0.2646 -0.0130  0.5334
 4333SOL    HW224462   3.748   0.151  10.285 -0.9672  0.2992 -0.8060
 4334SOL     OW24463   4.443   3.463   8.064 -0.0011 -0.2804  0.0965
 4334SOL    HW124464   4.358   3.433   8.032 -1.2457  3.4967 -0.1761
 4334SOL    HW224465   4.439   3.418   8.149  0.3443  1.6523  1.1497
 4335SOL     OW24466   4.065   0.552   4.655 -0.1943  0.5296  0.4705
 4335SOL    HW124467   4.058   0.480   4.592  1.7932  0.7454 -0.0160
 4335SOL    HW224468   3.973   0.558   4.680 -0.2845 -2.2213  0.8191
 4336SOL     OW24469   4.256   3.716  11.432  0.3154 -0.2899 -0.2896
 4336SOL    HW124470   4.281   3.738  11.522 -0.1302  0.7410 -0.4226
 4336SOL    HW224471   4.295   3.793  11.392  0.3650 -0.8512 -1.3379
 4337SOL     OW24472   4.683   0.585   8.193 -0.1864 -0.0304 -0.1517
 4337SOL    HW124473   0.015   0.659   8.217  0.0566  0.2904 -1.7190
 4337SOL    HW224474   4.689   0.593   8.098  0.5965  0.5642 -0.0509
 4338SOL     OW24475   2.050   2.180   2.646 -0.4805  0.0325  0.0249
 4338SOL    HW124476   2.127   2.219   2.688 -0.8186 -0.8420  1.4846
 4338SOL    HW224477   2.023   2.249   2.586  2.7766 -0.2993 -1.7884
 4339SOL     OW24478   3.000   3.382   2.319 -0.4812  0.4488 -0.0275
 4339SOL    HW124479   2.945   3.350   2.391  2.1382 -2.1401  0.7868
 4339SOL    HW224480   2.938   3.377   2.246 -1.0148 -0.4134  0.4756
 4340SOL     OW24481   1.089   2.076   4.117  0.1578  0.6517  0.2829
 4340SOL    HW124482   1.130   2.138   4.178 -3.2466  2.1882  1.0202
 4340SOL    HW224483   1.140   2.086   4.037 -1.1905 -0.3746 -0.7009
 4341SOL     OW24484   3.013   1.259   3.737 -0.6985  0.8591  0.1681
 4341SOL    HW124485   3.107   1.263   3.751 -0.5726  1.3716 -0.7846
 4341SOL    HW224486   3.004   1.330   3.673 -0.5812  1.1377  0.4632
 4342SOL     OW24487   4.102   3.391   0.363 -0.0531  0.3274 -0.5415
 4342SOL    HW124488   4.190   3.409   0.395 -0.2101  0.1914 -0.0319
 4342SOL    HW224489   4.051   3.463   0.399 -0.1778 -0.2780  0.4984
 4343SOL     OW24490   0.300   3.683   4.574  0.1661 -0.3965 -0.5268
 4343SOL    HW124491   0.371   3.635   4.531 -1.9004 -1.4184 -2.7888
 4343SOL    HW224492   0.245   3.702   4.498  2.3768  1.5113 -1.6489
 4344SOL     OW24493   1.112   2.319   6.145  0.3581  0.1908  0.8835
 4344SOL    HW124494   1.043   2.252   6.147  0.1379  0.3871 -0.2497
 4344SOL    HW224495   1.129   2.332   6.238  1.3371  2.1273  0.4336
 4345SOL     OW24496   3.942   2.023   9.016  0.3713 -0.1638  0.3093
 4345SOL    HW124497   3.990   1.946   8.984 -1.3242  0.3555 -3.4597
 4345SOL    HW224498   3.982   2.091   8.963 -0.5181 -0.4891 -0.7766
 4346SOL     OW24499   1.742   4.299   5.602 -0.2314  0.3393  0.0974
 4346SOL    HW124500   1.656   4.264   5.621 -0.4965  0.0223 -1.7411
 4346SOL    HW224501   1.802   4.234   5.640 -1.7889 -1.0233  0.2350
 4347SOL     OW24502   2.821   2.388   1.337 -0.5563  0.4441 -0.7328
 4347SOL    HW124503   2.811   2.295   1.354 -1.0513  0.5064 -0.6666
 4347SOL    HW224504   2.877   2.392   1.260  2.0023  3.6286  1.2483
 4348SOL     OW24505   2.535   2.197   2.911 -0.4885 -0.1628  0.2997
 4348SOL    HW124506   2.518   2.116   2.863 -0.9235 -0.6379  1.2575
 4348SOL    HW224507   2.471   2.196   2.982 -0.6923 -0.9202  0.0943
 4349SOL     OW24508   1.451   2.546   5.711 -0.3690  0.4016  0.6690
 4349SOL    HW124509   1.421   2.457   5.692 -0.6512  0.9497 -1.4780
 4349SOL    HW224510   1.373   2.597   5.731  0.2183  1.7959 -0.6428
 4350SOL     OW24511   4.552   4.269  17.583 -0.0730 -0.2053 -0.2950
 4350SOL    HW124512   4.541   4.265  17.678 -0.8836  2.3601 -0.2756
 4350SOL    HW224513   4.521   4.179  17.574 -1.0155  0.0367  0.5932
 4351SOL     OW24514   4.622   0.962  16.604 -0.5006  0.8041  0.2298
 4351SOL    HW124515   4.674   1.038  16.582 -1.4329  0.7401 -2.1938
 4351SOL    HW224516   4.672   0.925  16.677  2.7258 -0.7163 -2.7424
 4352SOL     OW24517   3.156   1.065   4.114 -0.1003 -0.6625  0.1616
 4352SOL    HW124518   3.105   1.053   4.033  0.9727  0.7080 -0.7135
 4352SOL    HW224519   3.112   1.134   4.163  2.8667  0.9214  0.5234
 4353SOL     OW24520   0.681   3.282   4.764 -0.0703 -0.4890  0.6985
 4353SOL    HW124521   0.626   3.225   4.711  1.6812 -2.4034  0.9378
 4353SOL    HW224522   0.713   3.216   4.825 -0.4236 -1.9725 -0.7329
 4354SOL     OW24523   0.895   2.559   8.416  0.2168 -0.0886  0.0198
 4354SOL    HW124524   0.816   2.591   8.460 -0.8197 -1.8278 -0.5474
 4354SOL    HW224525   0.969   2.613   8.442 -0.0389  0.1760  0.2082
 4355SOL     OW24526   1.503   1.301   4.848 -0.1533 -0.1978 -0.3268
 4355SOL    HW124527   1.575   1.254   4.807  0.9576  0.3818  0.9417
 4355SOL    HW224528   1.543   1.388   4.845 -2.7927  1.0575  0.2248
 4356SOL     OW24529   4.032   3.499  12.610  0.1705 -0.1032  0.4008
 4356SOL    HW124530   4.066   3.567  12.669 -1.5019  0.8710  0.2455
 4356SOL    HW224531   3.942   3.530  12.601 -0.4919 -2.1929 -0.0950
 4357SOL     OW24532   3.710   1.468   3.100 -0.4669  0.5654 -0.0694
 4357SOL    HW124533   3.720   1.548   3.048 -0.6671  0.7010  0.1017
 4357SOL    HW224534   3.792   1.418   3.099  0.1724  1.6441 -0.8229
 4358SOL     OW24535   2.069   0.738   0.733 -0.0495 -0.1229  0.1129
 4358SOL    HW124536   2.032   0.724   0.820  1.6308  2.4732  1.2575
 4358SOL    HW224537   2.063   0.645   0.711 -1.1309 -0.3185  1.2696
 4359SOL     OW24538   4.594   2.958   1.259 -0.6154 -0.2887  0.5492
 4359SOL    HW124539   4.539   3.033   1.281 -1.1159 -0.8900  1.3329
 4359SOL    HW224540   4.578   2.945   1.165  2.1383 -1.4083  0.2448
 4360SOL     OW24541   2.163   1.284  13.688 -0.3541  0.0360  0.5239
 4360SOL    HW124542   2.174   1.334  13.769 -2.2334  0.8424  0.2704
 4360SOL    HW224543   2.096   1.220  13.714  0.4650 -1.5790 -1.3499
 4361SOL     OW24544   0.930   3.157   5.294 -0.6300 -0.6151 -0.1499
 4361SOL    HW124545   0.944   3.081   5.351  2.2454 -1.5180 -2.0276
 4361SOL    HW224546   0.944   3.113   5.210  0.4871  1.1431 -0.8761
 4362SOL     OW24547   0.045   1.772   6.848  0.3617 -0.0730 -0.0848
 4362SOL    HW124548   0.032   1.761   6.754 -1.7262  3.1347 -0.1993
 4362SOL    HW224549   4.677   1.775   6.877  0.2824 -1.8719 -0.1132
 4363SOL     OW24550   1.279   1.094  10.225 -0.0435 -0.0218 -0.7368
 4363SOL    HW124551   1.349   1.060  10.170  0.9648 -0.4468  0.8080
 4363SOL    HW224552   1.332   1.088  10.304  0.2841  1.4424 -0.8621
 4364SOL     OW24553   1.210   4.703   7.577 -0.2638 -0.2403 -0.0213
 4364SOL    HW124554   1.172   4.667   7.497 -1.8979 -1.1527  1.1655
 4364SOL    HW224555   1.244   4.624   7.618  2.8800  0.2175 -1.7692
 4365SOL     OW24556   0.899   3.829   1.989  0.3135  0.1929 -0.0714
 4365SOL    HW124557   0.867   3.890   2.056 -0.8594  0.7147 -1.1208
 4365SOL    HW224558   0.908   3.747   2.039  0.3721  0.7699  0.8659
 4366SOL     OW24559   2.547   2.039  14.483  0.5390  0.2511 -0.0900
 4366SOL    HW124560   2.587   2.111  14.532 -1.0845  1.4966 -0.5945
 4366SOL    HW224561   2.623   1.984  14.462  0.1847 -0.7769  1.3130
 4367SOL     OW24562   2.270   0.038   4.702  0.2167  0.1563 -0.0248
 4367SOL    HW124563   2.348   0.091   4.696  0.8388 -0.7095  0.3979
 4367SOL    HW224564   2.260   0.025   4.796  2.3021 -0.9521  0.0451
 4368SOL     OW24565   0.337   0.750   6.900  0.3394  0.4894 -0.2134
 4368SOL    HW124566   0.394   0.674   6.910  0.7146  0.6858 -0.9165
 4368SOL    HW224567   0.269   0.725   6.838 -1.1988 -0.0949  1.6998
 4369SOL     OW24568   1.796   1.202   7.596  0.1030 -0.1753  0.3964
 4369SOL    HW124569   1.792   1.289   7.636  0.7002  0.6951 -1.4237
 4369SOL    HW224570   1.709   1.197   7.556  0.3711 -0.4756 -0.1447
 4370SOL     OW24571   0.387   2.417  10.164 -0.2794  0.1466 -0.0252
 4370SOL    HW124572   0.384   2.321  10.166 -0.1988  0.1002 -3.7459
 4370SOL    HW224573   0.293   2.436  10.156 -0.6861 -1.7411  0.0269
 4371SOL     OW24574   0.777   4.076   1.583  0.3956  0.2437 -0.4010
 4371SOL    HW124575   0.859   4.124   1.595  1.1564 -1.5162  1.4767
 4371SOL    HW224576   0.789   4.049   1.492 -2.4639 -0.7038 -0.4694
 4372SOL     OW24577   2.437   0.638   8.189  0.5646 -0.1181 -0.0252
 4372SOL    HW124578   2.373   0.694   8.146  1.6325  0.3997 -0.9581
 4372SOL    HW224579   2.484   0.608   8.111  1.8367 -0.1034  0.7317
 4373SOL     OW24580   2.776   4.387   8.504 -0.1779 -0.0766 -0.0668
 4373SOL    HW124581   2.701   4.344   8.462 -0.0291 -0.8542  0.4667
 4373SOL    HW224582   2.810   4.318   8.561 -0.2993 -0.4976 -0.4939
 4374SOL     OW24583   0.435   1.624  11.634  0.2546 -0.1610  0.5572
 4374SOL    HW124584   0.498   1.692  11.658  1.4908 -1.0745 -0.0493
 4374SOL    HW224585   0.490   1.585  11.566 -0.8822 -0.2694 -0.2994
 4375SOL     OW24586   1.483   0.477  12.533 -0.5971  0.4586  0.1289
 4375SOL    HW124587   1.397   0.434  12.527 -0.2049 -0.7139  2.6293
 4375SOL    HW224588   1.496   0.510  12.444 -1.5426  0.8082  0.1195
 4376SOL     OW24589   0.257   2.777   1.630  0.5948 -0.5786 -0.7220
 4376SOL    HW124590   0.326   2.812   1.574  1.6398 -0.8745  0.3589
 4376SOL    HW224591   0.220   2.711   1.571 -0.7068  1.3252 -2.0348
 4377SOL     OW24592   2.484   0.957   4.778  0.2970 -0.0959  0.2073
 4377SOL    HW124593   2.419   0.986   4.714  1.3432 -0.7757 -1.1638
 4377SOL    HW224594   2.494   1.035   4.833  0.9405  0.1077 -0.2027
 4378SOL     OW24595   3.627   2.693  12.360  0.0823 -0.1844 -0.0180
 4378SOL    HW124596   3.626   2.716  12.267  0.4438  1.6823  0.4352
 4378SOL    HW224597   3.688   2.620  12.354 -0.6961 -0.9613  1.6149
 4379SOL     OW24598   4.520   4.162  14.509  0.5556  0.3842 -0.1848
 4379SOL    HW124599   4.455   4.214  14.556  1.4094  0.0682  1.3581
 4379SOL    HW224600   4.549   4.110  14.584 -1.1259  2.8076  2.1367
 4380SOL     OW24601   0.297   2.090  12.714 -0.6984 -0.2774 -0.6911
 4380SOL    HW124602   0.369   2.105  12.653  1.6252  4.3568  3.2171
 4380SOL    HW224603   0.288   2.184  12.732  2.4627  0.4140 -2.7730
 4381SOL     OW24604   1.327   2.592  17.489  0.0728  0.0493 -0.3034
 4381SOL    HW124605   1.291   2.680  17.499  0.0473 -0.2458  2.1906
 4381SOL    HW224606   1.264   2.549  17.548  0.5412  0.2503  0.3406
 4382SOL     OW24607   1.257   2.434   4.067 -1.1656 -0.1647  0.6861
 4382SOL    HW124608   1.230   2.368   4.131 -2.7876  2.1741  2.3883
 4382SOL    HW224609   1.177   2.440   4.016 -0.7303  1.4175  0.2022
 4383SOL     OW24610   0.411   1.600   3.040  0.3381  0.9031  0.0483
 4383SOL    HW124611   0.356   1.573   3.114 -0.3681 -0.4780 -0.9625
 4383SOL    HW224612   0.424   1.518   2.991  2.6621  1.3755 -0.1076
 4384SOL     OW24613   1.375   3.535   4.622  0.1264  0.0517 -0.1850
 4384SOL    HW124614   1.438   3.500   4.560  1.5724  3.1010 -0.4210
 4384SOL    HW224615   1.439   3.583   4.674  1.6471 -0.8814 -1.1972
 4385SOL     OW24616   0.496   1.492   4.260 -0.3029  0.5414 -0.0659
 4385SOL    HW124617   0.463   1.405   4.238 -0.9678  0.5885  0.7307
 4385SOL    HW224618   0.414   1.539   4.243 -2.1827 -3.3054 -1.6337
 4386SOL     OW24619   1.468   0.659   7.906 -0.1622  0.3826  0.7685
 4386SOL    HW124620   1.497   0.698   7.823  0.5875  0.0975  0.9021
 4386SOL    HW224621   1.390   0.714   7.915 -0.0451  0.6150  0.3841
 4387SOL     OW24622   1.673   2.671   5.056 -0.3040 -0.3538 -0.1178
 4387SOL    HW124623   1.670   2.585   5.013 -1.2823  0.4693 -1.6743
 4387SOL    HW224624   1.579   2.682   5.070 -0.0777 -0.7224  1.6759
 4388SOL     OW24625   0.484   3.229   7.265 -0.0693  1.1185 -0.2571
 4388SOL    HW124626   0.432   3.193   7.193 -2.0665  0.5514  1.4604
 4388SOL    HW224627   0.509   3.151   7.314 -0.3451  1.6598  0.7549
 4389SOL     OW24628   1.742   0.972  13.107  0.2855 -0.3943 -0.5878
 4389SOL    HW124629   1.686   1.023  13.165 -0.3105  0.8045 -2.2165
 4389SOL    HW224630   1.792   1.042  13.064 -0.3286  0.5429  0.2611
 4390SOL     OW24631   4.483   2.342  17.425 -0.0704 -0.2902 -0.2443
 4390SOL    HW124632   4.436   2.410  17.472  0.3037 -1.2625  1.5133
 4390SOL    HW224633   4.562   2.390  17.401  0.5329  0.0948  2.6009
 4391SOL     OW24634   3.203   3.108   7.744 -0.0441  0.0482 -0.5189
 4391SOL    HW124635   3.139   3.070   7.804  0.3072  0.0790 -0.1220
 4391SOL    HW224636   3.164   3.091   7.659 -0.4866 -2.0377  0.1017
 4392SOL     OW24637   3.533   0.932   6.309  0.3041  0.9255  0.3113
 4392SOL    HW124638   3.580   0.859   6.268 -0.1206 -0.1228  1.6872
 4392SOL    HW224639   3.451   0.933   6.261 -0.1093  0.0143  1.0098
 4393SOL     OW24640   4.625   0.663   9.400 -0.5556 -0.1401  0.2163
 4393SOL    HW124641   4.662   0.736   9.449 -2.0274  1.8506 -1.6967
 4393SOL    HW224642   4.536   0.696   9.395 -0.2435  0.3953 -1.7620
 4394SOL     OW24643   1.583   2.822  11.536  0.1588  0.3776 -0.1825
 4394SOL    HW124644   1.571   2.878  11.613 -1.5894  1.4846 -1.2703
 4394SOL    HW224645   1.678   2.805  11.536  0.0976  0.1091 -2.1003
 4395SOL     OW24646   2.842   4.701  11.222 -0.1031  0.3612  0.0935
 4395SOL    HW124647   2.854   4.607  11.209 -2.4125 -0.0292  0.7985
 4395SOL    HW224648   2.889   0.018  11.149  3.7648  0.5215  2.6516
 4396SOL     OW24649   3.681   1.221  15.713 -0.0610 -0.3482 -0.0101
 4396SOL    HW124650   3.603   1.167  15.732 -1.7943  2.1139 -0.1795
 4396SOL    HW224651   3.702   1.189  15.625  1.6571 -0.1434  0.3346
 4397SOL     OW24652   2.924   4.668   4.937 -0.4713  0.2613 -0.3541
 4397SOL    HW124653   2.964   4.628   5.014  0.5593  1.1142 -0.4369
 4397SOL    HW224654   2.830   4.661   4.952 -0.4727  2.0769  0.5926
 4398SOL     OW24655   4.492   4.129   6.961 -0.2714  0.4619 -0.0903
 4398SOL    HW124656   4.510   4.149   7.053 -2.7734  0.6449  0.3550
 4398SOL    HW224657   4.557   4.190   6.925  2.0041 -2.3967 -0.8789
 4399SOL     OW24658   4.618   1.195   7.816 -0.0112 -0.7598 -0.4231
 4399SOL    HW124659   4.543   1.174   7.761 -0.0459 -0.6755 -0.4087
 4399SOL    HW224660   4.682   1.142   7.767  0.9397  0.2363 -0.2583
 4400SOL     OW24661   4.578   4.216   6.179  0.5605  0.1807  0.0169
 4400SOL    HW124662   4.597   4.219   6.273  1.7875  1.9354 -0.2854
 4400SOL    HW224663   4.537   4.131   6.166  1.0220  0.0183 -0.4043
 4401SOL     OW24664   0.412   2.358  10.699 -0.1717 -0.4380 -0.0696
 4401SOL    HW124665   0.378   2.369  10.610 -1.0304 -0.6154  0.2360
 4401SOL    HW224666   0.354   2.410  10.755 -1.8091 -0.9300 -1.3001
 4402SOL     OW24667   4.188   3.588   3.170 -0.0748  0.6538  0.4151
 4402SOL    HW124668   4.209   3.681   3.182 -0.2094  0.7958 -0.4147
 4402SOL    HW224669   4.200   3.594   3.075  0.9783  0.9738  0.5749
 4403SOL     OW24670   3.060   2.941  15.446  0.3056  0.3546 -0.0648
 4403SOL    HW124671   3.097   2.871  15.501 -1.9444  0.3215  1.4065
 4403SOL    HW224672   2.987   2.976  15.497  1.7924  3.0143  0.2174
 4404SOL     OW24673   2.382   2.605   4.423  0.4350 -0.3794 -0.3917
 4404SOL    HW124674   2.387   2.692   4.382 -3.1445  0.2741  0.5751
 4404SOL    HW224675   2.473   2.576   4.423  0.0095 -1.7182 -1.4301
 4405SOL     OW24676   3.437   2.673   5.845 -0.0537 -0.1513  0.2593
 4405SOL    HW124677   3.345   2.694   5.832 -0.2140 -0.1447  1.3813
 4405SOL    HW224678   3.440   2.657   5.939  1.4246 -0.3788  0.1679
 4406SOL     OW24679   4.036   2.796   2.298 -0.1017  0.4203 -0.3933
 4406SOL    HW124680   3.956   2.769   2.343  1.0648 -1.4925  0.5393
 4406SOL    HW224681   4.079   2.712   2.279 -0.1172  0.3579 -0.1576
 4407SOL     OW24682   2.722   4.632   9.436  0.2905 -0.0630 -0.1640
 4407SOL    HW124683   2.761   4.687   9.369 -1.6547 -0.4528 -1.6116
 4407SOL    HW224684   2.805   4.608   9.476  1.0168  1.9347 -0.4457
 4408SOL     OW24685   3.974   1.339  16.346 -0.3110 -0.0338 -0.2190
 4408SOL    HW124686   3.948   1.263  16.293 -0.3459  0.1724 -0.4981
 4408SOL    HW224687   3.890   1.377  16.372  0.5035 -0.0777  2.4698
 4409SOL     OW24688   3.104   1.360  13.054  0.3239 -0.5559 -0.1477
 4409SOL    HW124689   3.035   1.386  13.115  2.3051  1.2092  1.3828
 4409SOL    HW224690   3.135   1.276  13.088  1.4043 -0.0470  0.1373
 4410SOL     OW24691   3.283   2.828  13.672  0.6939  0.2001 -0.1315
 4410SOL    HW124692   3.298   2.887  13.746  0.9243 -1.6551  1.3256
 4410SOL    HW224693   3.325   2.746  13.699  0.4385  0.3713  0.7825
 4411SOL     OW24694   2.053   0.189   8.297 -0.0775 -0.2339  0.1378
 4411SOL    HW124695   1.961   0.172   8.317  0.0203 -0.5320  0.3216
 4411SOL    HW224696   2.059   0.150   8.210  1.8467 -1.3230  0.7714
 4412SOL     OW24697   0.326   2.297  15.469  0.3573 -0.6784  0.6883
 4412SOL    HW124698   0.342   2.215  15.423  0.1654 -0.5490  0.3925
 4412SOL    HW224699   0.233   2.281  15.489  0.4852 -1.1060  0.9350
 4413SOL     OW24700   1.086   4.191   1.264 -0.3347  0.4311 -0.1585
 4413SOL    HW124701   1.091   4.280   1.229 -0.4159  1.2978  2.0038
 4413SOL    HW224702   1.146   4.141   1.210  1.2136  0.7272  1.2731
 4414SOL     OW24703   2.569   4.443  13.444 -0.0603 -0.5851 -0.3306
 4414SOL    HW124704   2.654   4.430  13.401  0.6073  0.4486  0.6994
 4414SOL    HW224705   2.524   4.486  13.371 -1.5453 -1.7385 -0.0999
 4415SOL     OW24706   3.618   3.948   7.184  0.4180 -0.4705 -0.2249
 4415SOL    HW124707   3.618   3.887   7.109  1.6392  1.1297 -1.5219
 4415SOL    HW224708   3.678   4.015   7.151 -1.1007  0.7863 -0.4054
 4416SOL     OW24709   1.738   0.841  11.139  0.2544  0.2593  0.2964
 4416SOL    HW124710   1.822   0.811  11.104  0.2385  2.5982 -1.7274
 4416SOL    HW224711   1.684   0.802  11.070  0.8835  0.6855 -0.4460
 4417SOL     OW24712   3.229   1.416   7.931  0.0860 -0.1207 -0.4323
 4417SOL    HW124713   3.173   1.347   7.965 -1.0079  0.7665 -0.4132
 4417SOL    HW224714   3.161   1.472   7.894 -0.0611 -0.6822 -1.0110
 4418SOL     OW24715   2.992   1.108   4.597  0.1628 -0.0110 -0.3766
 4418SOL    HW124716   3.074   1.095   4.645 -0.6203  2.0192  1.5584
 4418SOL    HW224717   2.959   1.192   4.629 -1.9968  0.3207 -3.4785
 4419SOL     OW24718   0.700   3.741  16.122 -0.0961 -0.3057  0.3334
 4419SOL    HW124719   0.722   3.723  16.214 -0.9757  0.1121  0.6269
 4419SOL    HW224720   0.644   3.667  16.100 -1.5789  1.4049 -1.6430
 4420SOL     OW24721   3.261   4.567   3.244  0.3177 -0.6446  0.0645
 4420SOL    HW124722   3.333   4.562   3.181  2.4979 -0.5925  2.5233
 4420SOL    HW224723   3.231   4.478   3.264 -0.9605 -0.2924 -0.3314
 4421SOL     OW24724   2.237   2.129   8.114 -0.2672 -0.0282  0.3728
 4421SOL    HW124725   2.288   2.162   8.040  0.3485 -0.1110  0.7605
 4421SOL    HW224726   2.299   2.067   8.152  0.6166  1.1148  0.8166
 4422SOL     OW24727   2.612   1.582   6.534  0.0309  0.9829 -0.3508
 4422SOL    HW124728   2.665   1.575   6.454  0.3907  1.8324 -0.1862
 4422SOL    HW224729   2.672   1.641   6.580  2.5665 -1.4637 -0.5214
 4423SOL     OW24730   0.901   0.483   0.296 -0.1939  0.3309  0.0201
 4423SOL    HW124731   0.906   0.523   0.209  0.6048  0.0754 -0.0586
 4423SOL    HW224732   0.995   0.469   0.312  0.0371  0.4220 -1.2711
 4424SOL     OW24733   2.439   0.260   4.611  0.0474  0.0451  0.4186
 4424SOL    HW124734   2.498   0.335   4.598  0.3378  0.0808  1.9485
 4424SOL    HW224735   2.369   0.299   4.664 -0.4395  2.4118 -1.9078
 4425SOL     OW24736   2.655   3.380   3.667 -0.4145  0.2366  0.8168
 4425SOL    HW124737   2.565   3.412   3.665 -0.6263 -0.3489  0.8540
 4425SOL    HW224738   2.664   3.334   3.750  1.8042 -0.2066  0.3375
 4426SOL     OW24739   2.896   2.636   4.512  0.4864  0.1318  0.2456
 4426SOL    HW124740   2.848   2.683   4.580  1.3067  1.3400 -0.0156
 4426SOL    HW224741   2.962   2.703   4.493  0.1316  0.5516  0.4990
 4427SOL     OW24742   3.300   1.298   1.497  0.0517 -0.1910  0.0677
 4427SOL    HW124743   3.339   1.341   1.573 -1.1686  2.6961 -0.9550
 4427SOL    HW224744   3.261   1.219   1.534 -0.3918 -0.3274 -0.6916
 4428SOL     OW24745   1.486   4.362  16.562  0.4034 -0.3404  0.2078
 4428SOL    HW124746   1.455   4.364  16.471 -0.0085  0.5887  0.3761
 4428SOL    HW224747   1.581   4.363  16.549  0.4212 -0.0371  0.3726
 4429SOL     OW24748   4.490   3.839   8.869  0.0196  0.1401  0.0311
 4429SOL    HW124749   4.442   3.800   8.942 -1.0590 -1.3305 -1.4606
 4429SOL    HW224750   4.442   3.826   8.787  0.6649  1.0752 -0.4911
 4430SOL     OW24751   0.075   4.360   9.094  0.2108  0.2882 -0.0825
 4430SOL    HW124752   0.076   4.436   9.153  1.7836 -1.0001  1.5321
 4430SOL    HW224753   4.723   4.316   9.131 -0.6170  0.4627 -1.5449
 4431SOL     OW24754   4.159   2.318   3.774  0.4821 -0.5088 -0.1049
 4431SOL    HW124755   4.130   2.227   3.783 -0.5151 -0.3782 -2.0173
 4431SOL    HW224756   4.252   2.304   3.792  0.5233 -1.3872 -0.9647
 4432SOL     OW24757   1.643   1.341   8.785 -0.1960 -0.4687 -0.2741
 4432SOL    HW124758   1.644   1.275   8.716 -0.4867 -1.1864  0.4048
 4432SOL    HW224759   1.736   1.346   8.807 -0.2136  0.2825 -0.3723
 4433SOL     OW24760   0.650   1.258   7.713 -0.2066  0.3277  0.1883
 4433SOL    HW124761   0.591   1.289   7.782  2.8924  2.5456  1.8212
 4433SOL    HW224762   0.724   1.318   7.721 -0.6253  1.0925 -1.4990
 4434SOL     OW24763   0.109   0.845   8.180 -0.4908  0.1029 -0.3934
 4434SOL    HW124764   0.196   0.810   8.160 -0.0204  0.7993  0.4415
 4434SOL    HW224765   0.074   0.865   8.093  0.7320  1.0961 -0.6660
 4435SOL     OW24766   2.922   1.844   1.457  0.1514  0.2611  0.2344
 4435SOL    HW124767   2.849   1.782   1.463  0.1260  0.3447  0.7452
 4435SOL    HW224768   3.000   1.790   1.472  0.5555  0.6101 -0.6210
 4436SOL     OW24769   2.264   2.896   2.724  0.1137  0.3518  0.3341
 4436SOL    HW124770   2.216   2.813   2.713  0.6670  0.1080 -0.2630
 4436SOL    HW224771   2.259   2.904   2.819 -1.5359 -2.5869  0.5143
 4437SOL     OW24772   1.666   0.004   7.805  0.1229 -0.2544 -0.2219
 4437SOL    HW124773   1.654   4.653   7.747 -1.5369  0.3829 -0.6960
 4437SOL    HW224774   1.595   0.064   7.782 -1.6219 -1.5799  1.6887
 4438SOL     OW24775   2.443   2.199   9.077 -0.3961  0.1039  0.0022
 4438SOL    HW124776   2.509   2.178   9.011  0.1867  0.7053  0.3844
 4438SOL    HW224777   2.500   2.245   9.139 -0.0826  0.6749 -0.7004
 4439SOL     OW24778   3.751   0.707   1.157 -0.9282  0.1690 -0.2611
 4439SOL    HW124779   3.738   0.796   1.125  0.2563  1.0647  1.7391
 4439SOL    HW224780   3.764   0.714   1.251  1.7237  0.2622 -0.6106
 4440SOL     OW24781   1.374   1.020  12.296  0.2587 -0.0268 -0.7077
 4440SOL    HW124782   1.431   1.096  12.307 -0.5764  0.4282  0.3928
 4440SOL    HW224783   1.370   1.011  12.201  0.5491  1.2368 -0.8421
 4441SOL     OW24784   3.778   3.635   5.831  0.1281  0.1218 -0.0431
 4441SOL    HW124785   3.773   3.675   5.744  0.3557  2.5381  1.0603
 4441SOL    HW224786   3.756   3.711   5.885  0.0370  1.7147 -2.3365
 4442SOL     OW24787   2.196   4.077   2.482 -0.5029 -0.7476 -0.0876
 4442SOL    HW124788   2.276   4.126   2.501  0.2156 -1.7367 -0.5699
 4442SOL    HW224789   2.196   4.015   2.554 -0.2177 -2.8398 -1.8883
 4443SOL     OW24790   2.156   1.189   6.654 -0.0028 -0.0052  0.1513
 4443SOL    HW124791   2.215   1.124   6.616  0.1174  0.9668 -1.3081
 4443SOL    HW224792   2.220   1.243   6.700  0.4082 -0.7829  0.4973
 4444SOL     OW24793   0.777   4.666   2.129  0.1324 -0.0799 -0.2419
 4444SOL    HW124794   0.841   4.712   2.182  0.2542 -1.8430  1.1448
 4444SOL    HW224795   0.696   4.687   2.175  1.4733  0.5866  1.8058
 4445SOL     OW24796   2.536   3.723   7.872 -0.5841 -0.0887 -0.2711
 4445SOL    HW124797   2.498   3.810   7.858  0.2142  0.1690 -0.8454
 4445SOL    HW224798   2.482   3.678   7.808  1.1033 -0.0997 -1.6802
 4446SOL     OW24799   2.448   3.349  17.250  0.3947  0.5352 -0.1470
 4446SOL    HW124800   2.528   3.392  17.223 -0.3861  1.1001 -1.5839
 4446SOL    HW224801   2.473   3.263  17.282 -1.3858 -0.2096 -0.7103
 4447SOL     OW24802   3.108   0.954   7.850  0.2491 -0.5304  0.0285
 4447SOL    HW124803   3.095   0.913   7.936  0.9553 -0.7120  0.0427
 4447SOL    HW224804   3.180   1.012   7.874  1.6806 -1.7671 -1.2837
 4448SOL     OW24805   4.644   0.230   5.739 -0.0668  0.1874 -0.8511
 4448SOL    HW124806   4.663   0.298   5.674 -1.1097  2.3373  1.1016
 4448SOL    HW224807   4.715   0.167   5.723  0.2738  0.5468 -0.7580
 4449SOL     OW24808   3.643   3.243   7.755 -0.0216  0.3704 -0.4173
 4449SOL    HW124809   3.653   3.275   7.666 -0.9223  0.5730 -0.4373
 4449SOL    HW224810   3.685   3.157   7.755 -1.3825 -0.2898 -0.1956
 4450SOL     OW24811   2.567   1.801   3.777  0.1200 -0.7227  0.0328
 4450SOL    HW124812   2.648   1.753   3.795  0.5583  0.6978  1.7119
 4450SOL    HW224813   2.554   1.772   3.686 -1.1884 -1.9698  0.6238
 4451SOL     OW24814   3.674   3.503   4.920  0.0000 -0.1558 -0.0058
 4451SOL    HW124815   3.754   3.459   4.948  0.9291  1.4785 -0.0538
 4451SOL    HW224816   3.614   3.461   4.982 -0.9817 -2.0194 -2.2230
 4452SOL     OW24817   0.748   1.772  14.888 -0.3266 -0.5488 -0.4751
 4452SOL    HW124818   0.804   1.840  14.926 -1.0036 -1.2117  1.7076
 4452SOL    HW224819   0.661   1.811  14.876  0.5870  2.0755  1.3135
 4453SOL     OW24820   1.388   4.449   2.285 -0.2260 -0.1170  0.6751
 4453SOL    HW124821   1.404   4.385   2.216  0.8139  0.3853  0.4462
 4453SOL    HW224822   1.318   4.503   2.249  0.2518 -0.2671 -0.4836
 4454SOL     OW24823   3.470   1.129   8.396  0.3896  0.3294 -0.2356
 4454SOL    HW124824   3.546   1.085   8.359 -0.0431 -0.7922  0.2081
 4454SOL    HW224825   3.503   1.211   8.434 -2.4229  0.3431  2.2079
 4455SOL     OW24826   3.652   3.312   2.583 -0.6061 -0.6998 -0.3499
 4455SOL    HW124827   3.636   3.402   2.555 -0.1052 -0.2175  0.9065
 4455SOL    HW224828   3.612   3.308   2.670  0.1686  1.1064  0.0803
 4456SOL     OW24829   2.741   0.341  10.113 -0.7464  0.4120  0.0474
 4456SOL    HW124830   2.772   0.311  10.028 -1.5602 -0.8908  0.1940
 4456SOL    HW224831   2.829   0.346  10.151 -0.7948 -1.9900  0.4861
 4457SOL     OW24832   2.180   2.128   9.020  0.5466 -0.3349  0.0164
 4457SOL    HW124833   2.270   2.147   9.045  0.4928 -2.1655  1.5564
 4457SOL    HW224834   2.172   2.195   8.952 -0.8257 -0.5398 -0.0287
 4458SOL     OW24835   1.266   2.496   2.222  0.7650  0.0485  0.2078
 4458SOL    HW124836   1.272   2.570   2.162 -0.9105  0.2544  0.3032
 4458SOL    HW224837   1.358   2.469   2.219  1.5521  2.7238  0.3802
 4459SOL     OW24838   4.510   3.621  11.908 -0.2751  0.2268  0.0140
 4459SOL    HW124839   4.439   3.664  11.859  1.5522 -0.3431 -3.1021
 4459SOL    HW224840   4.535   3.696  11.962 -0.8204  0.2902  0.1776
 4460SOL     OW24841   0.860   3.519  17.267 -0.1378  0.3736 -0.0409
 4460SOL    HW124842   0.844   3.595  17.211 -0.0466  0.0071 -0.5691
 4460SOL    HW224843   0.864   3.457  17.194  0.0059  1.0681 -0.6260
 4461SOL     OW24844   0.611   2.300  10.907 -0.0177  0.8527  0.7906
 4461SOL    HW124845   0.572   2.354  10.837  0.3437  2.2751  1.6927
 4461SOL    HW224846   0.538   2.241  10.926 -0.2086  0.7567 -0.2506
 4462SOL     OW24847   1.107   3.540   1.882  0.3516 -0.6352 -0.2404
 4462SOL    HW124848   1.027   3.588   1.902 -0.8375 -2.1066 -1.4790
 4462SOL    HW224849   1.097   3.541   1.786  1.1328  1.6833 -0.2827
 4463SOL     OW24850   3.081   4.436   6.967  0.1555  0.5053  0.0952
 4463SOL    HW124851   3.020   4.369   6.997  1.4460 -0.9108 -0.4751
 4463SOL    HW224852   3.103   4.406   6.878  1.3299  2.3160 -0.2247
 4464SOL     OW24853   1.482   3.932  15.906  0.2242 -0.8364  0.1672
 4464SOL    HW124854   1.475   3.893  15.819 -2.3815  1.9832 -0.8651
 4464SOL    HW224855   1.461   3.858  15.963  0.5581  0.0678  1.4666
 4465SOL     OW24856   4.309   3.625   5.117  0.1673 -0.0093 -0.0013
 4465SOL    HW124857   4.319   3.717   5.093  0.0548  0.2477  0.9071
 4465SOL    HW224858   4.281   3.594   5.031  0.9776  2.0244 -0.9999
 4466SOL     OW24859   2.118   3.723   3.973  0.5486 -0.2897  0.6945
 4466SOL    HW124860   2.132   3.797   3.913  0.2047 -0.9088 -0.1524
 4466SOL    HW224861   2.100   3.645   3.920  1.6129  1.8357 -2.8023
 4467SOL     OW24862   0.916   1.566   9.567 -0.3330  0.7064  0.2543
 4467SOL    HW124863   0.893   1.647   9.614  0.1350 -0.2691  2.1967
 4467SOL    HW224864   1.011   1.562   9.577 -0.1894 -0.7812 -1.9376
 4468SOL     OW24865   1.855   3.781   5.603  0.2797 -0.9334  0.1704
 4468SOL    HW124866   1.766   3.775   5.569  0.6440  2.5886 -1.3997
 4468SOL    HW224867   1.877   3.873   5.618 -1.4176 -0.7767  1.7684
 4469SOL     OW24868   3.729   3.505   3.320 -0.0454 -0.5533  0.4070
 4469SOL    HW124869   3.791   3.524   3.250  1.0032 -1.6882  1.0208
 4469SOL    HW224870   3.667   3.448   3.274  0.6270 -1.8587  1.1177
 4470SOL     OW24871   2.094   2.555   5.791  0.2805 -0.3867  0.4359
 4470SOL    HW124872   2.181   2.564   5.752 -0.3091 -1.7229 -1.1556
 4470SOL    HW224873   2.042   2.529   5.715  1.5758 -1.0874 -0.2086
 4471SOL     OW24874   2.479   0.386   5.562 -0.7669  0.1151 -0.2060
 4471SOL    HW124875   2.409   0.425   5.511 -1.9155 -2.0401 -0.2981
 4471SOL    HW224876   2.530   0.464   5.583  0.7693 -1.2761  1.2581
 4472SOL     OW24877   0.749   3.913   7.108 -0.0247 -0.2496  0.8351
 4472SOL    HW124878   0.829   3.914   7.056 -0.9898 -0.2638 -0.6296
 4472SOL    HW224879   0.774   3.843   7.169  0.4925 -0.3816  0.4700
 4473SOL     OW24880   3.557   2.887   7.363 -0.1170  0.8073 -0.2232
 4473SOL    HW124881   3.513   2.940   7.297  0.1107  0.4150 -0.6884
 4473SOL    HW224882   3.529   2.803   7.326 -0.7094  0.4411  1.0431
 4474SOL     OW24883   4.009   0.048   8.943 -0.5478  0.5251 -0.7200
 4474SOL    HW124884   3.933   0.024   8.997 -1.5584 -0.1958 -2.4710
 4474SOL    HW224885   3.991   0.140   8.922  0.8386  0.8201 -0.6392
 4475SOL     OW24886   3.003   1.259   7.979  0.1506 -0.6192 -0.4492
 4475SOL    HW124887   2.913   1.287   7.957 -0.0877  0.8416  2.3983
 4475SOL    HW224888   2.994   1.182   8.035  0.6655 -0.2488  0.1365
 4476SOL     OW24889   3.201   4.332  14.601 -0.1854 -0.3989  0.2670
 4476SOL    HW124890   3.174   4.332  14.692  0.8850  1.8361  0.5961
 4476SOL    HW224891   3.177   4.422  14.576 -0.4032 -0.2502  1.0327
 4477SOL     OW24892   0.795   0.836  16.077  0.3421  0.0587 -1.0056
 4477SOL    HW124893   0.781   0.927  16.048 -0.3293  0.0509 -0.6845
 4477SOL    HW224894   0.879   0.819  16.033  1.4962 -1.0782  1.6624
 4478SOL     OW24895   3.085   2.817   1.712 -0.2048 -0.0956 -0.1789
 4478SOL    HW124896   3.059   2.887   1.652 -1.6956 -1.4517 -1.1048
 4478SOL    HW224897   3.060   2.730   1.680  0.1843 -0.3228  0.1306
 4479SOL     OW24898   3.354   3.347   8.448  0.1610  0.1159  0.6060
 4479SOL    HW124899   3.328   3.326   8.538  0.6521  1.8202  1.1682
 4479SOL    HW224900   3.269   3.319   8.415  0.1383  0.6166  0.2437
 4480SOL     OW24901   2.372   2.635   1.302  0.5512  0.3562  0.2055
 4480SOL    HW124902   2.392   2.542   1.289  2.0638  0.8628 -1.0715
 4480SOL    HW224903   2.399   2.652   1.211 -0.8177  1.5117  0.0247
 4481SOL     OW24904   3.144   2.642   8.764  0.2041 -0.0766 -0.0667
 4481SOL    HW124905   3.111   2.558   8.795 -0.9643  0.4913  0.2166
 4481SOL    HW224906   3.198   2.663   8.840  0.8249 -0.0570 -0.5052
 4482SOL     OW24907   3.591   3.214   1.270 -0.0659 -0.1350 -0.1268
 4482SOL    HW124908   3.682   3.209   1.300  0.1430  2.2721 -0.3412
 4482SOL    HW224909   3.563   3.280   1.334 -0.1951  2.1236 -2.4966
 4483SOL     OW24910   2.250   0.863   5.436 -0.3952  0.0633  0.6769
 4483SOL    HW124911   2.189   0.876   5.363  0.9212  2.2102 -0.0493
 4483SOL    HW224912   2.193   0.836   5.508 -1.3807  1.3618  0.3835
 4484SOL     OW24913   3.933   4.649   4.196 -0.1642  0.0636 -0.2952
 4484SOL    HW124914   3.916   4.555   4.210  1.8511 -0.1869  0.4286
 4484SOL    HW224915   3.917   4.679   4.285  0.3920  1.0809 -0.5372
 4485SOL     OW24916   2.073   2.943   7.724  0.1033 -0.0649  0.5952
 4485SOL    HW124917   2.137   2.876   7.704 -0.4799 -0.6905  0.8326
 4485SOL    HW224918   2.123   3.024   7.733  1.9785 -1.3716  1.7447
 4486SOL     OW24919   1.276   0.040   1.078 -0.6412 -0.1848  0.4348
 4486SOL    HW124920   1.247   0.104   1.013 -0.2269 -1.7773 -1.3445
 4486SOL    HW224921   1.269   4.687   1.021 -1.1822 -0.2112  0.5338
 4487SOL     OW24922   0.447   1.884   4.758 -0.2248 -0.1467 -0.4911
 4487SOL    HW124923   0.419   1.860   4.846 -0.1297 -1.1137 -0.7264
 4487SOL    HW224924   0.445   1.980   4.754  2.8141  0.0550  2.6250
 4488SOL     OW24925   4.662   0.686  17.076 -0.2892  0.1588 -0.2886
 4488SOL    HW124926   4.650   0.591  17.079  1.7342 -0.0905  0.1541
 4488SOL    HW224927   4.709   0.704  16.995  0.5652  1.1130  0.4130
 4489SOL     OW24928   0.656   4.218   3.552  0.6640  0.0873  0.0761
 4489SOL    HW124929   0.561   4.214   3.569  0.8668 -2.0777  0.6530
 4489SOL    HW224930   0.652   4.217   3.456 -0.5361  0.6136  0.1135
 4490SOL     OW24931   3.714   1.616   2.278 -0.1704  0.2994 -0.0593
 4490SOL    HW124932   3.633   1.569   2.296 -1.4817  2.4103 -0.5680
 4490SOL    HW224933   3.681   1.705   2.281  0.9569  0.6564  1.6193
 4491SOL     OW24934   3.660   0.591  17.143  0.1523 -0.0932 -0.1821
 4491SOL    HW124935   3.634   0.668  17.193  1.7519  1.8009 -2.2853
 4491SOL    HW224936   3.668   0.523  17.210  0.3035  1.0988  0.9944
 4492SOL     OW24937   1.304   3.785   9.891  0.7134  0.1671  0.5987
 4492SOL    HW124938   1.233   3.722   9.875 -0.4065  2.2863 -2.7421
 4492SOL    HW224939   1.262   3.850   9.947  0.7362  1.9343 -1.4469
 4493SOL     OW24940   3.374   0.212   4.880 -0.5087 -0.2007 -0.2379
 4493SOL    HW124941   3.409   0.241   4.964  0.3497 -2.0992  0.0416
 4493SOL    HW224942   3.287   0.182   4.907 -1.3162  0.5860 -1.9326
 4494SOL     OW24943   2.546   0.561   6.443 -0.1404  0.0235 -0.1015
 4494SOL    HW124944   2.490   0.592   6.372  0.7474 -0.9584 -1.2250
 4494SOL    HW224945   2.497   0.584   6.522  1.2218 -0.8693  1.0151
 4495SOL     OW24946   2.990   0.850   3.403  0.1139 -0.4641 -0.1738
 4495SOL    HW124947   2.961   0.913   3.470 -2.3095 -0.6746 -1.0436
 4495SOL    HW224948   3.080   0.833   3.429  0.6010  0.5228 -1.2054
 4496SOL     OW24949   1.440   0.343   4.259 -0.1414 -0.2950  0.3329
 4496SOL    HW124950   1.377   0.411   4.238  1.7984  1.3146 -0.3067
 4496SOL    HW224951   1.417   0.266   4.207  0.7694 -0.2332 -0.1775
 4497SOL     OW24952   3.062   1.018   8.229  0.8807 -0.4012  0.6564
 4497SOL    HW124953   3.027   0.953   8.168 -1.0275 -0.3293  1.6742
 4497SOL    HW224954   3.130   0.977   8.283  1.1375 -0.0383  0.6032
 4498SOL     OW24955   1.945   2.497   8.842 -0.1759 -0.3834 -0.4953
 4498SOL    HW124956   1.866   2.522   8.892  0.2645 -0.6047  0.3117
 4498SOL    HW224957   1.982   2.580   8.812 -0.2615 -0.4164 -0.6918
 4499SOL     OW24958   0.651   1.492   3.277  0.0297 -0.2701 -0.1278
 4499SOL    HW124959   0.583   1.431   3.248 -0.2758 -0.3032  0.6778
 4499SOL    HW224960   0.726   1.447   3.237  1.6389  0.7400  1.7957
 4500SOL     OW24961   0.300   3.569   7.117  0.2294  0.8201 -0.1031
 4500SOL    HW124962   0.282   3.515   7.194 -0.7120 -0.5114 -1.2624
 4500SOL    HW224963   0.384   3.614   7.133  0.2487  0.1950  1.5528
 4501SOL     OW24964   2.147   2.783   3.135  0.0031 -0.3232  0.8137
 4501SOL    HW124965   2.234   2.785   3.174 -0.1476 -2.1501  1.2419
 4501SOL    HW224966   2.105   2.859   3.177 -4.4042 -2.6733  0.6292
 4502SOL     OW24967   3.050   1.770   7.997  0.1664 -0.2203 -0.5702
 4502SOL    HW124968   3.072   1.709   7.927 -1.5886 -3.2404  1.4984
 4502SOL    HW224969   2.957   1.754   8.016  0.0075 -1.9247 -2.6960
 4503SOL     OW24970   3.959   2.748   3.750 -1.0101  0.4179  0.0224
 4503SOL    HW124971   3.959   2.661   3.790  1.2456  0.1956 -0.4680
 4503SOL    HW224972   3.979   2.736   3.657  0.4211 -2.3303  0.6710
 4504SOL     OW24973   3.092   3.485   7.844  0.0385  0.1604  0.6379
 4504SOL    HW124974   3.151   3.555   7.872 -0.7018  0.9798  0.1583
 4504SOL    HW224975   3.158   3.429   7.805  0.8146  0.9840  0.7729
 4505SOL     OW24976   4.251   1.834   2.539 -0.0499 -0.6076 -0.2262
 4505SOL    HW124977   4.282   1.750   2.505  0.0631 -1.9806  3.2558
 4505SOL    HW224978   4.169   1.808   2.581 -0.5703  1.2385 -0.1176
 4506SOL     OW24979   0.858   3.701   7.273  0.5704  0.2702 -0.0729
 4506SOL    HW124980   0.949   3.717   7.249  0.6067 -2.1429 -1.5468
 4506SOL    HW224981   0.860   3.707   7.368 -2.6193  2.3460 -0.1178
 4507SOL     OW24982   3.587   4.478   2.767 -0.0991  0.1449  0.3157
 4507SOL    HW124983   3.680   4.484   2.788 -0.0687  1.1602 -0.1124
 4507SOL    HW224984   3.588   4.517   2.680  2.6151 -0.3363  0.1322
 4508SOL     OW24985   3.247   0.614   6.735  0.2412 -0.3867 -0.2573
 4508SOL    HW124986   3.266   0.551   6.805  1.5447 -0.0557 -0.3193
 4508SOL    HW224987   3.312   0.684   6.739 -0.6430  0.5413 -1.8067
 4509SOL     OW24988   0.193   2.814   7.582 -0.1687 -0.3623 -0.4458
 4509SOL    HW124989   0.159   2.895   7.543 -2.2518  0.0413  2.1990
 4509SOL    HW224990   0.191   2.758   7.504 -1.7122  2.4066 -2.4063
 4510SOL     OW24991   3.879   0.685   7.609 -0.2621  0.1966  0.4557
 4510SOL    HW124992   3.966   0.685   7.651  0.2255  2.4831 -0.5523
 4510SOL    HW224993   3.898   0.697   7.516  0.2705  0.8851  0.6480
 4511SOL     OW24994   2.727   4.361   5.002 -0.1215  0.1236  0.4042
 4511SOL    HW124995   2.674   4.439   4.987  1.1122  0.7411 -0.7311
 4511SOL    HW224996   2.664   4.297   4.969  0.5506  0.3325 -1.2923
 4512SOL     OW24997   3.365   3.878  14.403 -0.6240 -0.2367  1.1004
 4512SOL    HW124998   3.424   3.804  14.419 -2.0554 -1.4914  0.6566
 4512SOL    HW224999   3.281   3.832  14.412 -0.4401 -1.0306 -1.1801
 4513SOL     OW25000   0.719   1.487  16.810 -0.0590  0.2024 -0.2124
 4513SOL    HW125001   0.675   1.572  16.812 -0.1110  0.1749 -0.1939
 4513SOL    HW225002   0.755   1.498  16.722 -1.3578 -0.2312 -0.7850
 4514SOL     OW25003   1.700   0.585   2.590  0.0756 -0.4255  0.2115
 4514SOL    HW125004   1.763   0.519   2.620 -0.9953 -0.2214  2.9643
 4514SOL    HW225005   1.766   0.654   2.583 -0.1061 -0.2546  0.2077
 4515SOL     OW25006   2.455   3.267  11.451  0.4731 -0.4375  0.5372
 4515SOL    HW125007   2.378   3.318  11.426 -0.3062 -3.2166 -2.7046
 4515SOL    HW225008   2.490   3.328  11.516 -0.8490 -0.3772  1.1832
 4516SOL     OW25009   3.526   2.816  15.282  0.4014 -0.3816 -0.1021
 4516SOL    HW125010   3.519   2.792  15.374  0.8309  1.5091  0.4068
 4516SOL    HW225011   3.464   2.889  15.275 -0.3952 -1.0199  0.2359
 4517SOL     OW25012   3.328   1.248   7.696 -0.3302  0.3153 -0.1870
 4517SOL    HW125013   3.254   1.293   7.738  0.3323  1.6723 -0.4798
 4517SOL    HW225014   3.354   1.197   7.772 -1.0195  2.2614  1.3462
 4518SOL     OW25015   2.865   3.919   8.447  0.0388 -0.2983  0.0104
 4518SOL    HW125016   2.855   3.936   8.541  1.0766  0.4852 -0.0271
 4518SOL    HW225017   2.920   3.841   8.451  0.3488  0.0348  1.9776
 4519SOL     OW25018   0.066   1.731   0.921  0.6277  0.0996  0.4739
 4519SOL    HW125019   0.125   1.656   0.930  1.6257  0.7459 -0.6744
 4519SOL    HW225020   0.061   1.746   0.826 -1.2350 -1.4120  0.3231
 4520SOL     OW25021   2.840   4.146   2.009 -0.3090 -0.0119  0.0239
 4520SOL    HW125022   2.828   4.052   1.993 -0.6279 -0.0051  0.2356
 4520SOL    HW225023   2.934   4.138   2.024 -0.5302  0.4599  1.6472
 4521SOL     OW25024   1.453   4.281   7.722 -0.3015 -0.0581  0.0280
 4521SOL    HW125025   1.456   4.323   7.808 -0.6862  0.6220 -0.2921
 4521SOL    HW225026   1.396   4.207   7.744  0.3040 -1.0711 -1.8099
 4522SOL     OW25027   1.862   3.344   0.751  0.3942 -0.1825 -0.8048
 4522SOL    HW125028   1.929   3.413   0.746 -0.1187  0.3699 -0.0739
 4522SOL    HW225029   1.788   3.388   0.709 -0.6028 -1.2146 -0.1359
 4523SOL     OW25030   2.065   0.706   3.544  0.1427  0.5619  0.2184
 4523SOL    HW125031   1.977   0.743   3.535 -0.8932 -2.1364 -0.8466
 4523SOL    HW225032   2.113   0.750   3.474  2.2552 -0.2342  1.1849
 4524SOL     OW25033   1.008   0.186   5.569  0.1650  0.2558 -0.1750
 4524SOL    HW125034   1.099   0.191   5.597 -1.0029  1.1949  3.4614
 4524SOL    HW225035   1.008   0.149   5.480 -1.0081 -0.9236  0.3050
 4525SOL     OW25036   3.844   0.692   2.992 -0.2575  0.8651  0.0546
 4525SOL    HW125037   3.794   0.740   2.926  2.6421  0.4725 -2.4312
 4525SOL    HW225038   3.901   0.642   2.933 -1.9955 -0.6016 -0.3966
 4526SOL     OW25039   3.414   1.029   8.654  0.3481  0.2147  0.3355
 4526SOL    HW125040   3.399   1.059   8.564 -0.2700 -0.0522  0.3536
 4526SOL    HW225041   3.462   1.103   8.692  0.4388 -0.4637  1.5450
 4527SOL     OW25042   3.522   4.175  14.022 -0.2147  0.2538 -0.3900
 4527SOL    HW125043   3.520   4.094  14.073  0.1158 -0.9368 -2.2389
 4527SOL    HW225044   3.502   4.141  13.934  4.0545  0.2752 -1.3788
 4528SOL     OW25045   4.369   4.019   0.083 -0.0303  0.3164  0.5688
 4528SOL    HW125046   4.400   4.103   0.117  0.5742  0.4455 -0.3180
 4528SOL    HW225047   4.407   4.027  17.694 -0.6513 -1.6133  0.1146
 4529SOL     OW25048   0.748   2.124   2.974  0.6358  0.0640  0.1755
 4529SOL    HW125049   0.732   2.207   2.929  1.3442  0.3380  0.4299
 4529SOL    HW225050   0.661   2.084   2.976  1.3444 -1.3651  2.0118
 4530SOL     OW25051   2.982   0.398   8.174  0.1670 -0.0608 -0.2152
 4530SOL    HW125052   2.891   0.376   8.191  0.3013 -0.4408  0.0134
 4530SOL    HW225053   2.981   0.473   8.115 -0.6608  1.0099  1.1328
 4531SOL     OW25054   4.029   0.886   3.673 -0.1486  0.5223 -0.9037
 4531SOL    HW125055   4.100   0.883   3.610  0.1951 -1.8218 -0.4031
 4531SOL    HW225056   4.063   0.949   3.737 -1.9188  1.1733 -0.6010
 4532SOL     OW25057   3.628   4.248  15.071 -0.3791  0.3719 -0.6373
 4532SOL    HW125058   3.720   4.236  15.094 -1.1228 -2.5308  0.7579
 4532SOL    HW225059   3.613   4.332  15.114 -2.1774  0.4258 -1.3495
 4533SOL     OW25060   0.239   3.643   0.921 -0.0421 -0.2988  0.6671
 4533SOL    HW125061   0.281   3.560   0.946  0.5581  0.0256  0.7557
 4533SOL    HW225062   0.318   3.677   0.879 -1.1022  0.0506 -1.0386
 4534SOL     OW25063   3.782   2.107  16.887  0.3122 -0.0075  0.4415
 4534SOL    HW125064   3.845   2.044  16.922 -0.7945 -1.4309 -0.1773
 4534SOL    HW225065   3.734   2.056  16.822 -0.9394 -0.1741  1.4970
 4535SOL     OW25066   0.414   1.516  16.007 -0.4394  0.5466  0.0054
 4535SOL    HW125067   0.484   1.531  15.944 -2.0415  2.8700 -1.2135
 4535SOL    HW225068   0.415   1.596  16.060 -0.2875 -1.9092  3.7255
 4536SOL     OW25069   3.230   2.657   5.558  0.2108 -0.2358  0.2465
 4536SOL    HW125070   3.196   2.641   5.646  0.5040 -0.0824  0.3861
 4536SOL    HW225071   3.201   2.577   5.514  1.1592 -0.9197  0.8830
 4537SOL     OW25072   2.352   0.751   7.958  0.0069  0.3147 -0.5176
 4537SOL    HW125073   2.259   0.746   7.934 -0.5623  5.3566  0.6170
 4537SOL    HW225074   2.406   0.711   7.890  0.9004  2.1878 -0.9140
 4538SOL     OW25075   1.459   0.151   3.577 -0.4518  0.2421  0.0230
 4538SOL    HW125076   1.372   0.162   3.541 -1.5442  0.0724  2.6203
 4538SOL    HW225077   1.461   0.065   3.534 -2.9383  0.8056 -1.1859
 4539SOL     OW25078   1.990   1.132   6.358  0.5959  0.1166 -0.2548
 4539SOL    HW125079   2.075   1.107   6.397  1.7361  0.0132 -2.8419
 4539SOL    HW225080   1.991   1.227   6.374  0.3453  0.2049 -0.7868
 4540SOL     OW25081   4.639   1.856   2.812 -0.2611 -0.3037  0.0665
 4540SOL    HW125082   4.723   1.894   2.787 -0.8582 -0.3505 -2.0673
 4540SOL    HW225083   4.569   1.911   2.776 -0.5220 -1.2770 -0.8975
 4541SOL     OW25084   0.901   0.501   8.064  0.1234  0.1356 -0.3392
 4541SOL    HW125085   0.934   0.568   8.004 -1.2222  1.6340  0.5896
 4541SOL    HW225086   0.968   0.507   8.132 -0.8852 -0.8733  0.7384
 4542SOL     OW25087   2.489   3.550   3.143  0.1184 -0.5394 -0.8266
 4542SOL    HW125088   2.429   3.613   3.103 -0.8614  0.3389  2.1120
 4542SOL    HW225089   2.428   3.504   3.200 -0.9599  0.1824 -1.4073
 4543SOL     OW25090   0.775   3.393   5.053  0.3838  0.5313 -0.0900
 4543SOL    HW125091   0.721   3.315   5.071  0.1158  0.5748 -0.7076
 4543SOL    HW225092   0.718   3.448   4.999  1.1731  1.8681  0.4487
 4544SOL     OW25093   2.274   2.638  11.872 -0.8244  0.0554  0.7785
 4544SOL    HW125094   2.216   2.601  11.939 -0.6886 -1.3750  0.1151
 4544SOL    HW225095   2.222   2.621  11.793  1.7443 -2.5906 -0.3581
 4545SOL     OW25096   2.146   2.389   8.426  0.5761 -0.1599  0.1094
 4545SOL    HW125097   2.084   2.324   8.459  0.9830 -0.3647  0.4562
 4545SOL    HW225098   2.222   2.378   8.482  0.5958 -0.2420  0.0661
 4546SOL     OW25099   0.410   2.988   6.057  0.0108  0.1312 -0.6681
 4546SOL    HW125100   0.449   2.957   5.975  2.6800  0.1634  0.5905
 4546SOL    HW225101   0.349   2.915   6.067 -1.0570  1.4056  2.0896
 4547SOL     OW25102   2.693   4.542   6.397 -0.2796 -0.6555 -0.1987
 4547SOL    HW125103   2.664   4.634   6.398  0.8824 -0.2937  1.2884
 4547SOL    HW225104   2.632   4.504   6.460 -1.7336  1.5075 -0.2903
 4548SOL     OW25105   0.154   2.833   8.107 -0.7092 -0.2807 -0.7140
 4548SOL    HW125106   0.184   2.874   8.189  1.2310  0.9122 -1.9921
 4548SOL    HW225107   0.237   2.802   8.070 -1.3312 -1.8570 -0.7444
 4549SOL     OW25108   2.554   2.784   3.887  0.1084  0.1559 -0.5446
 4549SOL    HW125109   2.546   2.713   3.951  0.3769  1.1822  0.6240
 4549SOL    HW225110   2.643   2.781   3.853  0.6005  1.8371  0.6009
 4550SOL     OW25111   3.824   1.470   1.907 -0.1219  0.0745 -0.5488
 4550SOL    HW125112   3.804   1.446   1.817 -0.5993  0.6751 -0.5959
 4550SOL    HW225113   3.819   1.565   1.909 -0.8072  0.0043  1.5490
 4551SOL     OW25114   2.109   3.994   5.655  0.7909 -0.3758 -0.5301
 4551SOL    HW125115   2.160   4.042   5.721  1.1467 -1.3951 -0.0575
 4551SOL    HW225116   2.175   3.938   5.615  1.6794  1.1179 -1.1275
 4552SOL     OW25117   2.332   4.047  11.571 -0.5123 -0.2581 -0.3771
 4552SOL    HW125118   2.266   4.078  11.633  0.7182  0.6711  0.4641
 4552SOL    HW225119   2.331   3.954  11.594 -0.8944 -0.1792 -0.0651
 4553SOL     OW25120   3.794   1.207  17.267  0.3804  0.2130 -0.0868
 4553SOL    HW125121   3.803   1.129  17.211 -1.9011  0.8362 -1.3234
 4553SOL    HW225122   3.707   1.187  17.300  0.8013  0.1028  0.9517
 4554SOL     OW25123   3.823   1.453  17.492  0.4675  1.0076  0.2044
 4554SOL    HW125124   3.764   1.522  17.523 -0.9360 -0.2912  0.4202
 4554SOL    HW225125   3.893   1.440  17.556  1.3563  1.3597 -0.7037
 4555SOL     OW25126   3.972   3.510   5.989  0.7557  0.6906  0.0202
 4555SOL    HW125127   3.897   3.535   5.934  0.6783 -1.1853 -0.7064
 4555SOL    HW225128   4.044   3.528   5.929 -0.5972  0.9486 -1.5333
 4556SOL     OW25129   4.005   3.476   4.352  0.3343  0.0112  0.1825
 4556SOL    HW125130   3.913   3.468   4.378  0.2687 -0.3841 -0.1743
 4556SOL    HW225131   4.014   3.571   4.342  0.4675 -0.3242 -2.8058
 4557SOL     OW25132   4.180   1.327   7.977 -0.0703 -0.4771 -0.7396
 4557SOL    HW125133   4.119   1.398   7.956  2.1704  0.9030 -2.5479
 4557SOL    HW225134   4.233   1.330   7.898 -0.4194 -0.9724 -0.9868
 4558SOL     OW25135   4.154   4.208   3.312 -0.8917 -0.3810 -0.1582
 4558SOL    HW125136   4.060   4.189   3.313 -0.4139 -2.6962  0.5020
 4558SOL    HW225137   4.168   4.220   3.406  1.5128 -0.0213 -0.5667
 4559SOL     OW25138   2.381   1.733   4.524  0.3567  0.2195  0.0909
 4559SOL    HW125139   2.342   1.808   4.570  1.1569 -1.7424  3.9469
 4559SOL    HW225140   2.454   1.709   4.581 -1.0046 -1.0382  1.2995
 4560SOL     OW25141   3.632   1.735   9.426 -0.0894 -0.4677  0.7626
 4560SOL    HW125142   3.601   1.661   9.479 -1.7307 -1.0783 -1.0586
 4560SOL    HW225143   3.699   1.775   9.480  0.1853  1.1104 -0.7779
 4561SOL     OW25144   2.661   3.928   3.093 -0.3011  0.3913 -0.4088
 4561SOL    HW125145   2.636   3.951   3.004 -0.8347 -0.1304 -0.3977
 4561SOL    HW225146   2.722   3.999   3.115  0.2014 -0.8338  2.2206
 4562SOL     OW25147   1.922   0.202   3.567  0.2635 -0.2731  0.2848
 4562SOL    HW125148   1.952   0.265   3.501 -2.6395  1.6331  0.7746
 4562SOL    HW225149   1.827   0.219   3.563  0.7678  2.4921  0.3734
 4563SOL     OW25150   0.656   4.071   6.903 -1.1633  0.1096 -0.5660
 4563SOL    HW125151   0.567   4.044   6.926 -0.2609 -1.2074  1.3804
 4563SOL    HW225152   0.692   4.033   6.984 -0.1842  1.3927 -0.4068
 4564SOL     OW25153   3.544   4.343   3.222 -0.2980 -0.6719  0.7147
 4564SOL    HW125154   3.589   4.287   3.285  0.7239 -2.1348 -1.3214
 4564SOL    HW225155   3.547   4.283   3.148  1.0324  0.6331 -0.2875
 4565SOL     OW25156   3.284   2.213   0.546 -0.5866 -0.2530 -0.7354
 4565SOL    HW125157   3.212   2.157   0.576 -0.0136  0.8244  2.5910
 4565SOL    HW225158   3.356   2.159   0.575 -1.5656 -0.3019  1.5716
 4566SOL     OW25159   1.014   3.010   4.176  0.2847 -0.3608 -0.3388
 4566SOL    HW125160   0.959   2.943   4.217  0.6971  0.6579  1.8804
 4566SOL    HW225161   1.075   2.951   4.132 -0.0363 -1.1329  0.2498
 4567SOL     OW25162   3.182   1.942   5.562 -0.2037 -0.2752 -0.2157
 4567SOL    HW125163   3.168   1.933   5.656  0.3826 -2.3568 -0.3056
 4567SOL    HW225164   3.125   2.014   5.537 -0.1437 -0.4980 -1.0181
 4568SOL     OW25165   3.083   1.021   6.723 -0.0603 -0.1999  0.6251
 4568SOL    HW125166   3.085   1.030   6.819 -0.6050  1.7884  0.4673
 4568SOL    HW225167   3.098   0.927   6.715  1.5776  0.2165 -1.1340
 4569SOL     OW25168   0.152   3.364   1.885  0.4104 -0.9382  0.2752
 4569SOL    HW125169   0.214   3.412   1.939  0.2131  1.5229 -1.6980
 4569SOL    HW225170   0.071   3.397   1.924  0.3465 -0.6954 -0.0615
 4570SOL     OW25171   1.669   3.434   6.721  0.6341 -0.5823  0.0388
 4570SOL    HW125172   1.756   3.452   6.684 -0.1773 -1.2282 -2.1698
 4570SOL    HW225173   1.682   3.405   6.812  1.3797  1.5324  0.6141
 4571SOL     OW25174   0.025   0.373  16.751 -0.0274  0.0264 -0.0605
 4571SOL    HW125175   0.024   0.297  16.693  1.6819  0.7139 -0.9786
 4571SOL    HW225176   0.119   0.376  16.770  0.2895 -2.1409 -1.3038
 4572SOL     OW25177   0.072   2.946   3.478 -0.0244  0.1706 -0.0411
 4572SOL    HW125178   0.103   3.023   3.431 -1.4953  0.8662  0.1090
 4572SOL    HW225179   0.002   2.975   3.537  1.6957  1.6994  1.2530
 4573SOL     OW25180   3.468   3.775   8.406  0.0224 -0.5034  0.4166
 4573SOL    HW125181   3.518   3.840   8.456 -0.1117  0.0256 -0.1399
 4573SOL    HW225182   3.516   3.773   8.323 -2.2801  2.8488 -0.9817
 4574SOL     OW25183   2.359   4.080   3.894  0.0189  0.1052  0.2905
 4574SOL    HW125184   2.394   4.114   3.812 -1.2838  1.9536  0.5194
 4574SOL    HW225185   2.277   4.128   3.899 -0.7314 -1.0134 -1.3806
 4575SOL     OW25186   0.175   4.314   8.849  0.1063 -0.0031  0.0878
 4575SOL    HW125187   0.167   4.344   8.939 -1.0017 -1.7891  0.5783
 4575SOL    HW225188   0.147   4.390   8.797  1.8584 -0.6968 -1.8814
 4576SOL     OW25189   1.876   3.056  16.913  0.2257  0.7170 -0.1605
 4576SOL    HW125190   1.829   3.131  16.950 -4.5291 -1.7542 -1.0687
 4576SOL    HW225191   1.962   3.083  16.881  2.0745 -4.4720  0.2994
 4577SOL     OW25192   0.065   1.221   3.345 -0.0573 -0.1315  0.5136
 4577SOL    HW125193   0.061   1.270   3.427 -0.9051  0.6402  0.0117
 4577SOL    HW225194   0.059   1.131   3.379  0.6638  0.0653  1.1651
 4578SOL     OW25195   1.854   2.939  14.132  1.0272  0.2832  0.9117
 4578SOL    HW125196   1.860   3.030  14.104 -0.0316  0.1361  0.2014
 4578SOL    HW225197   1.916   2.944  14.205  1.6784  2.4624  0.1959
 4579SOL     OW25198   1.819   0.556   3.320 -0.1104  0.6679 -0.3348
 4579SOL    HW125199   1.771   0.500   3.259 -0.4537  1.2592 -0.6109
 4579SOL    HW225200   1.908   0.540   3.286  1.3287  1.1421  3.2045
 4580SOL     OW25201   0.090   2.629   2.684 -0.0445 -0.6205  0.7588
 4580SOL    HW125202   0.124   2.547   2.648  0.3755 -0.0716 -0.0849
 4580SOL    HW225203   4.721   2.633   2.663  0.0856  1.3670  0.5380
 4581SOL     OW25204   2.439   2.825   5.743 -0.4222 -1.0344 -0.0011
 4581SOL    HW125205   2.436   2.880   5.665  1.6838 -2.9884 -1.4633
 4581SOL    HW225206   2.345   2.821   5.760 -0.7110  0.6785 -1.1593
 4582SOL     OW25207   4.277   3.789  12.139 -0.3000 -0.1148 -0.1646
 4582SOL    HW125208   4.297   3.810  12.048 -0.6888  1.5324  0.1273
 4582SOL    HW225209   4.309   3.867  12.186  1.4661 -0.6969 -0.3718
 4583SOL     OW25210   0.761   3.249  17.092  0.0559 -0.2138 -0.0503
 4583SOL    HW125211   0.683   3.202  17.065  0.0419 -0.3645  0.2569
 4583SOL    HW225212   0.778   3.297  17.011 -0.5815 -1.0623 -0.6754
 4584SOL     OW25213   2.752   0.691   8.848  0.3262 -0.4096 -0.0364
 4584SOL    HW125214   2.834   0.700   8.798  1.6584  0.6243  2.3369
 4584SOL    HW225215   2.788   0.693   8.937 -0.3599  1.5496  0.1995
 4585SOL     OW25216   2.244   0.992   9.310  0.3293 -0.4243 -0.3327
 4585SOL    HW125217   2.304   0.918   9.320  0.9705  0.1041 -0.3066
 4585SOL    HW225218   2.304   1.055   9.348 -0.3607 -0.9788  1.6619
 4586SOL     OW25219   1.946   3.036   8.787  0.1282 -0.6897  0.0245
 4586SOL    HW125220   2.008   2.967   8.764 -0.7476 -1.2196 -0.7763
 4586SOL    HW225221   1.906   3.007   8.868  1.6732  0.2521  1.1199
 4587SOL     OW25222   4.254   1.331  11.114  0.2306 -0.2418  0.0665
 4587SOL    HW125223   4.241   1.271  11.188  0.3480  1.0834  1.1575
 4587SOL    HW225224   4.332   1.380  11.138  0.9131 -1.1984 -0.1785
 4588SOL     OW25225   3.349   3.193  10.530 -0.5596 -0.4157  0.1214
 4588SOL    HW125226   3.363   3.238  10.447  0.3148 -1.3289 -0.2311
 4588SOL    HW225227   3.440   3.202  10.559 -0.3886 -2.7007  0.3385
 4589SOL     OW25228   3.836   1.736   1.195  0.3812 -0.1838 -0.6541
 4589SOL    HW125229   3.808   1.825   1.213 -0.6978 -1.1406  2.2870
 4589SOL    HW225230   3.905   1.755   1.132  3.3197 -4.3426  1.3522
 4590SOL     OW25231   0.044   1.882   9.973 -0.5699  0.4796 -0.5201
 4590SOL    HW125232   0.121   1.831   9.949  0.2844  2.1919 -1.4008
 4590SOL    HW225233   0.002   1.808  10.016  0.1434 -0.8143 -2.0628
 4591SOL     OW25234   3.979   2.051   1.756  0.0488 -0.0357  0.5120
 4591SOL    HW125235   4.060   2.098   1.737 -0.2462  0.7328  1.1912
 4591SOL    HW225236   3.924   2.100   1.695 -0.5200 -3.0786 -1.4809
 4592SOL     OW25237   1.824   4.566   7.451  0.0228  0.3195 -0.1439
 4592SOL    HW125238   1.890   4.636   7.453  0.1480  0.1421  1.4846
 4592SOL    HW225239   1.741   4.605   7.477 -0.0002  0.0684  0.1565
 4593SOL     OW25240   3.834   1.047   3.437  0.4676 -0.2672  0.2734
 4593SOL    HW125241   3.918   1.092   3.437 -0.1019  0.7962  1.1683
 4593SOL    HW225242   3.801   1.078   3.521 -0.1075  0.7005 -0.3050
 4594SOL     OW25243   2.067   1.713  10.336  0.2155 -0.4008  0.5828
 4594SOL    HW125244   2.146   1.709  10.283 -0.3837 -1.8063 -0.1949
 4594SOL    HW225245   2.097   1.691  10.424 -1.5841 -0.9241  1.0854
 4595SOL     OW25246   0.662   0.962  10.970  0.3728  0.5805  0.1366
 4595SOL    HW125247   0.568   0.979  10.972  0.2865 -0.1163  1.9046
 4595SOL    HW225248   0.681   0.955  10.876 -0.2629  0.0056  0.0539
 4596SOL     OW25249   2.657   3.530   9.377  0.4590  0.4898  0.5681
 4596SOL    HW125250   2.650   3.626   9.374  1.1690  0.5069 -0.4285
 4596SOL    HW225251   2.677   3.506   9.468 -1.4772 -0.6457  0.7059
 4597SOL     OW25252   0.312   3.581   3.263 -0.2780 -0.2254 -0.0060
 4597SOL    HW125253   0.398   3.621   3.246 -0.0159 -0.7753  0.0300
 4597SOL    HW225254   0.336   3.489   3.250 -0.2833 -0.2418  0.1028
 4598SOL     OW25255   3.640   1.627  17.620 -0.2422 -0.3394 -0.1023
 4598SOL    HW125256   3.677   1.588  17.698 -0.9229  0.8487  0.8258
 4598SOL    HW225257   3.566   1.668  17.666  1.9834  1.5743  1.7880
 4599SOL     OW25258   1.360   0.293   7.449  0.0888 -0.0793  0.3278
 4599SOL    HW125259   1.347   0.351   7.524 -2.6776  0.7693 -0.8118
 4599SOL    HW225260   1.437   0.338   7.413  0.0568  1.5664  2.3522
 4600SOL     OW25261   2.657   2.495   4.378 -0.0966  0.6064 -0.3350
 4600SOL    HW125262   2.620   2.407   4.376  0.7229  0.2603 -0.1719
 4600SOL    HW225263   2.707   2.488   4.458  2.3713 -0.2498 -1.9574
 4601SOL     OW25264   4.248   0.915   2.411 -0.0352  0.1903  0.0159
 4601SOL    HW125265   4.181   0.860   2.451 -1.6679  1.0980 -1.4848
 4601SOL    HW225266   4.255   0.886   2.321  0.7237  0.5781 -0.0585
 4602SOL     OW25267   1.860   2.894   6.021 -0.2485 -0.3902 -0.5120
 4602SOL    HW125268   1.920   2.922   6.090 -0.7730  0.1141 -0.2568
 4602SOL    HW225269   1.907   2.830   5.968  0.7315 -1.8224  2.0989
 4603SOL     OW25270   0.414   1.380   5.066 -0.0163 -0.1650 -0.1306
 4603SOL    HW125271   0.448   1.426   4.990 -2.0502 -0.0878 -1.0041
 4603SOL    HW225272   0.482   1.313   5.074  0.7712  0.9460  2.3518
 4604SOL     OW25273   3.643   2.733  17.331 -0.8357  0.7623 -0.4262
 4604SOL    HW125274   3.574   2.701  17.389 -0.7173  1.4460  0.1014
 4604SOL    HW225275   3.674   2.647  17.303  0.8771  0.3063  2.8445
 4605SOL     OW25276   3.611   0.051   5.687 -0.4043  0.1502 -0.5777
 4605SOL    HW125277   3.592   0.008   5.771  1.5046  1.3347  0.4762
 4605SOL    HW225278   3.706   0.038   5.693 -0.4163 -0.5851 -1.9920
 4606SOL     OW25279   0.925   1.081  10.966  0.2360  0.4554 -0.7200
 4606SOL    HW125280   0.984   1.049  10.897 -0.6528  1.1102 -1.7799
 4606SOL    HW225281   0.855   1.019  10.950  0.1373  0.8415 -1.7595
 4607SOL     OW25282   3.867   4.563   7.256 -0.3871 -0.8725 -0.3476
 4607SOL    HW125283   3.872   4.467   7.249  0.0513 -0.8322 -0.6259
 4607SOL    HW225284   3.860   4.589   7.164 -0.7725  0.5824  0.1047
 4608SOL     OW25285   2.909   3.312   6.740 -0.1597  0.2883  0.0477
 4608SOL    HW125286   2.863   3.389   6.708 -0.9431  0.4665  1.5630
 4608SOL    HW225287   2.983   3.288   6.684 -0.0088  1.0418 -0.0632
 4609SOL     OW25288   0.908   3.608   6.325 -0.3212  0.3131 -0.7534
 4609SOL    HW125289   0.855   3.635   6.250 -0.8853  1.7128  0.1370
 4609SOL    HW225290   0.875   3.523   6.354  2.5527 -0.7202 -0.5187
 4610SOL     OW25291   2.419   0.550  13.997  0.1737 -0.4693  0.2754
 4610SOL    HW125292   2.413   0.467  14.044  0.6112 -2.1780 -2.6688
 4610SOL    HW225293   2.442   0.532  13.906 -0.0268 -1.2611  0.3893
 4611SOL     OW25294   3.886   2.891  16.855  0.2657 -0.2168  0.0951
 4611SOL    HW125295   3.894   2.899  16.950  0.0319 -0.5266  0.1403
 4611SOL    HW225296   3.808   2.940  16.830 -0.1709 -0.8210  0.2886
 4612SOL     OW25297   1.231   2.444  10.742 -0.1689 -0.1258  0.2080
 4612SOL    HW125298   1.147   2.415  10.707  1.1030  0.0752 -2.9829
 4612SOL    HW225299   1.196   2.514  10.797  2.3520  0.7932  0.6391
 4613SOL     OW25300   0.603   1.179   6.054  0.4802  0.0092 -0.4132
 4613SOL    HW125301   0.587   1.085   6.055  3.1001 -0.4336 -0.3621
 4613SOL    HW225302   0.640   1.183   5.966  0.4830  0.5348 -0.3908
 4614SOL     OW25303   0.850   3.090  17.282 -0.2266  0.3562  0.3591
 4614SOL    HW125304   0.935   3.101  17.324  1.0012 -0.6328 -1.8955
 4614SOL    HW225305   0.842   3.169  17.229  1.5917 -0.2686 -0.8256
 4615SOL     OW25306   1.046   3.724   4.448 -0.3576  0.2526 -0.7859
 4615SOL    HW125307   1.035   3.753   4.358 -0.6246 -0.1478 -0.8830
 4615SOL    HW225308   1.104   3.796   4.472 -0.4453  1.0575 -2.9878
 4616SOL     OW25309   4.689   3.775   1.651 -0.0839 -0.2525  0.0798
 4616SOL    HW125310   0.025   3.824   1.707  1.2082 -0.8413 -0.8061
 4616SOL    HW225311   4.608   3.792   1.700 -1.1605 -2.0619 -1.0844
 4617SOL     OW25312   4.566   0.863   5.032 -0.1421  0.3437  0.3062
 4617SOL    HW125313   4.629   0.926   5.067 -0.7376  1.7045 -1.0343
 4617SOL    HW225314   4.489   0.918   5.018 -0.7969 -0.4879  0.6734
 4618SOL     OW25315   4.545   0.791   4.685 -0.2306 -0.4193  0.1196
 4618SOL    HW125316   4.460   0.747   4.683  0.5706 -2.0364  1.2668
 4618SOL    HW225317   4.584   0.745   4.760  0.7177 -0.4565 -0.3908
 4619SOL     OW25318   2.418   1.852   9.395  0.0338  0.5567  0.7314
 4619SOL    HW125319   2.347   1.870   9.456  1.1242  1.3705  1.7618
 4619SOL    HW225320   2.489   1.911   9.421 -0.5210 -0.1385  3.7988
 4620SOL     OW25321   3.842   0.187   4.093 -0.1687  0.4429 -0.4123
 4620SOL    HW125322   3.798   0.197   4.008 -0.9451  1.5593  0.1210
 4620SOL    HW225323   3.846   0.092   4.105  1.3578  0.4160 -1.0619
 4621SOL     OW25324   0.079   0.765   3.564 -0.2886  0.4597 -0.8232
 4621SOL    HW125325   0.019   0.691   3.572  2.2206 -1.1659  2.7466
 4621SOL    HW225326   0.063   0.802   3.477 -0.5680  1.0720 -0.5113
 4622SOL     OW25327   0.407   0.726   3.486  0.1746  0.5865  0.3758
 4622SOL    HW125328   0.344   0.747   3.555 -2.0685 -0.0099 -1.4635
 4622SOL    HW225329   0.411   0.631   3.481 -0.8354  0.5377  0.3798
 4623SOL     OW25330   0.363   1.920  10.939 -0.4476  0.5116 -0.2609
 4623SOL    HW125331   0.456   1.941  10.928 -0.5023  0.2102 -1.3250
 4623SOL    HW225332   0.346   1.868  10.860 -1.8989  1.1856 -0.3917
 4624SOL     OW25333   1.357   1.729   4.409  0.2052  0.0835 -0.2250
 4624SOL    HW125334   1.319   1.674   4.477 -0.2839  0.2705 -0.3463
 4624SOL    HW225335   1.385   1.806   4.458 -1.6176 -0.7393  2.0949
 4625SOL     OW25336   4.348   1.803   6.319  0.2096  0.7888 -0.1154
 4625SOL    HW125337   4.356   1.882   6.371 -1.6357  2.2352 -2.0549
 4625SOL    HW225338   4.392   1.741   6.378 -0.0238  1.2860  0.5682
 4626SOL     OW25339   0.101   2.973  17.570 -0.3424  0.2736  0.8526
 4626SOL    HW125340   0.108   2.998  17.478 -2.3865  0.0223  0.6307
 4626SOL    HW225341   0.085   3.060  17.608  2.5616  1.6731 -1.1787
 4627SOL     OW25342   1.321   1.161   8.047 -0.0773  0.1998 -0.3177
 4627SOL    HW125343   1.256   1.228   8.066  1.0151  0.7400  1.6010
 4627SOL    HW225344   1.393   1.209   8.007 -0.8708  1.3437 -0.3568
 4628SOL     OW25345   3.527   4.073  11.721 -0.7195 -0.4106 -0.6375
 4628SOL    HW125346   3.530   4.147  11.782 -1.2634  1.8867 -3.3770
 4628SOL    HW225347   3.599   4.098  11.664 -0.4267  2.6731  1.0826
 4629SOL     OW25348   3.758   0.510   9.119 -0.0117  0.1643  0.4292
 4629SOL    HW125349   3.670   0.546   9.116 -0.1664 -0.1009  1.9717
 4629SOL    HW225350   3.756   0.443   9.051  0.3918 -0.1440  0.7213
 4630SOL     OW25351   0.819   0.746   1.776  0.3571  0.4791  0.2785
 4630SOL    HW125352   0.852   0.745   1.686 -2.6415  1.2567 -0.8216
 4630SOL    HW225353   0.899   0.732   1.827  1.0733  0.0081 -0.9477
 4631SOL     OW25354   0.370   3.105   7.061  0.5017  0.0977 -0.1505
 4631SOL    HW125355   0.303   3.113   6.994  0.5383 -0.2948 -0.2321
 4631SOL    HW225356   0.332   3.043   7.124  2.3505 -0.5894  0.2951
 4632SOL     OW25357   4.326   1.282   9.770  0.0699  0.0896  0.1402
 4632SOL    HW125358   4.392   1.271   9.840  0.6124 -1.6583 -0.6285
 4632SOL    HW225359   4.387   1.317   9.705 -0.5920 -0.8289 -0.9669
 4633SOL     OW25360   2.395   1.479  14.908  0.2254 -0.1298  0.2543
 4633SOL    HW125361   2.305   1.488  14.938  0.2563  2.1887 -0.3855
 4633SOL    HW225362   2.423   1.565  14.938 -0.1991  0.5582 -1.3649
 4634SOL     OW25363   3.716   3.366   7.527  0.2003  0.0882 -0.2111
 4634SOL    HW125364   3.667   3.338   7.449 -0.7313 -2.2234  1.1906
 4634SOL    HW225365   3.693   3.458   7.519 -0.2824 -0.3804 -4.1125
 4635SOL     OW25366   0.581   1.104   7.491 -0.1937 -0.1836 -0.1733
 4635SOL    HW125367   0.587   1.161   7.567  1.8335  1.3849 -1.5181
 4635SOL    HW225368   0.612   1.022   7.530 -3.6857  0.1273  3.2120
 4636SOL     OW25369   1.739   3.516   9.072  0.0536 -0.3629  0.3867
 4636SOL    HW125370   1.785   3.482   9.149 -1.8136  0.2447  1.7799
 4636SOL    HW225371   1.704   3.599   9.105 -1.5369 -0.5135 -0.9389
 4637SOL     OW25372   2.337   3.879   9.792  0.3485 -0.3144 -0.0678
 4637SOL    HW125373   2.373   3.941   9.855 -0.7493  0.5564 -0.3104
 4637SOL    HW225374   2.416   3.866   9.740  0.9451 -0.7400  0.9381
 4638SOL     OW25375   3.282   3.020  13.859  0.1793 -0.2630  0.3898
 4638SOL    HW125376   3.227   2.972  13.921 -1.6987  1.4794  0.0630
 4638SOL    HW225377   3.361   3.025  13.913 -0.0230 -2.6776  0.9316
 4639SOL     OW25378   3.511   0.352   6.775 -0.3765 -0.6282 -0.0063
 4639SOL    HW125379   3.489   0.396   6.693 -0.8648  1.8944  1.4796
 4639SOL    HW225380   3.438   0.386   6.826  1.8523 -0.0611  2.8007
 4640SOL     OW25381   1.585   1.016  16.481  0.4182 -0.4365  0.0682
 4640SOL    HW125382   1.597   1.044  16.390 -0.2480  2.2224  0.8076
 4640SOL    HW225383   1.660   0.956  16.490 -0.1791 -1.0262  1.0731
 4641SOL     OW25384   1.459   4.158   7.393 -0.1857 -0.1170  0.1562
 4641SOL    HW125385   1.381   4.106   7.372 -0.6896  0.7355 -0.0995
 4641SOL    HW225386   1.458   4.132   7.485  0.4479 -0.2294  0.1324
 4642SOL     OW25387   1.169   2.258   6.408 -0.2831 -0.3279 -0.2832
 4642SOL    HW125388   1.247   2.215   6.370  0.0737 -1.0493  1.2606
 4642SOL    HW225389   1.173   2.227   6.499  0.2314 -1.0706 -0.5530
 4643SOL     OW25390   2.193   3.844   2.239 -0.1919  0.4385 -0.1783
 4643SOL    HW125391   2.287   3.837   2.220 -0.2731  1.5472 -0.9772
 4643SOL    HW225392   2.186   3.830   2.333  1.0443  2.7114  0.2476
 4644SOL     OW25393   0.913   2.760   2.448 -0.5981  0.3299 -0.2774
 4644SOL    HW125394   0.919   2.667   2.469 -0.0466  0.1508 -1.2154
 4644SOL    HW225395   0.818   2.761   2.455 -0.6876 -2.5523 -1.2019
 4645SOL     OW25396   2.043   2.969   4.116 -0.4092  0.1166  0.5571
 4645SOL    HW125397   2.043   3.063   4.136  0.4834 -0.2753  2.3515
 4645SOL    HW225398   1.959   2.959   4.070 -0.3968  1.1504  0.3094
 4646SOL     OW25399   0.422   1.587  12.785  0.3636 -0.0169  0.3561
 4646SOL    HW125400   0.469   1.617  12.863 -1.0708  1.7880  0.5263
 4646SOL    HW225401   0.358   1.532  12.829  0.5641 -0.0697  0.5747
 4647SOL     OW25402   1.859   1.026   2.366 -0.1668  0.1513 -0.2612
 4647SOL    HW125403   1.822   1.036   2.453  0.4633  1.2876 -0.1140
 4647SOL    HW225404   1.863   1.118   2.341 -2.9727  0.7330  1.5066
 4648SOL     OW25405   0.688   3.277   5.432  0.1747  0.3799 -0.9097
 4648SOL    HW125406   0.710   3.236   5.348  0.9414 -1.9121  0.4074
 4648SOL    HW225407   0.774   3.284   5.472  0.8831  1.2692 -2.5795
 4649SOL     OW25408   0.883   2.008   3.949  0.7263  0.2464  0.7315
 4649SOL    HW125409   0.908   2.057   3.871  0.8842 -0.2229  0.4906
 4649SOL    HW225410   0.942   2.049   4.012  1.1466 -0.8359  1.0453
 4650SOL     OW25411   2.970   4.426   7.260 -0.8945  0.1358 -0.4218
 4650SOL    HW125412   3.041   4.396   7.202  0.2379  2.2090 -0.0946
 4650SOL    HW225413   2.893   4.431   7.204 -1.2195 -1.9001 -0.1491
 4651SOL     OW25414   2.562   0.407   1.790  0.2756  0.0593 -0.4434
 4651SOL    HW125415   2.633   0.449   1.839 -0.9473 -0.4508  1.7544
 4651SOL    HW225416   2.522   0.469   1.730 -1.6816 -0.8160 -0.0580
 4652SOL     OW25417   1.367   1.119   6.009 -0.2390  0.0990 -0.7144
 4652SOL    HW125418   1.385   1.169   5.930  0.0164  1.2995  0.1115
 4652SOL    HW225419   1.277   1.147   6.026 -0.6763 -0.8354 -1.4862
 4653SOL     OW25420   3.886   0.001  14.442  0.3921 -0.5829  0.1942
 4653SOL    HW125421   3.911   0.021  14.352  0.5278  2.4638  0.8861
 4653SOL    HW225422   3.801   0.045  14.448  0.2826 -0.6285 -1.0067
 4654SOL     OW25423   3.826   3.709   8.966  0.5109  0.3807 -0.0560
 4654SOL    HW125424   3.778   3.705   8.883 -0.5036  0.4857  0.5287
 4654SOL    HW225425   3.908   3.749   8.936 -0.8073  2.3328 -0.9947
 4655SOL     OW25426   2.849   4.022   8.692  0.2209 -0.5708 -0.3166
 4655SOL    HW125427   2.908   3.977   8.753 -1.3718 -0.4739  1.2976
 4655SOL    HW225428   2.771   4.022   8.748  0.5316 -1.3497  0.1255
 4656SOL     OW25429   0.347   2.938  16.937  0.2931  0.7508 -0.5070
 4656SOL    HW125430   0.270   2.994  16.947  0.2454  0.6337 -0.2054
 4656SOL    HW225431   0.400   2.993  16.879 -0.2654  3.2462  1.3552
 4657SOL     OW25432   2.845   1.377   3.918  0.2176  0.0145 -0.1220
 4657SOL    HW125433   2.891   1.329   3.850 -0.5635  0.5682 -1.0432
 4657SOL    HW225434   2.905   1.449   3.941  0.7400  0.1910 -2.0751
 4658SOL     OW25435   3.462   1.597   1.507  0.2495 -0.4904  0.2332
 4658SOL    HW125436   3.417   1.560   1.583 -1.3369  1.3697  0.1883
 4658SOL    HW225437   3.549   1.613   1.543  0.1810  1.5113 -0.4990
 4659SOL     OW25438   1.934   2.750   2.951 -0.0343 -0.0907 -0.2697
 4659SOL    HW125439   2.006   2.776   3.010 -0.5856 -1.9598  1.2171
 4659SOL    HW225440   1.886   2.691   3.009  2.4932 -0.6611  1.2406
 4660SOL     OW25441   4.220   4.168   8.358  0.4644  0.4561 -0.2756
 4660SOL    HW125442   4.142   4.206   8.398 -1.7893 -2.8677 -1.5210
 4660SOL    HW225443   4.294   4.226   8.377  0.5325  0.4119 -0.4089
 4661SOL     OW25444   1.855   1.583  10.925 -0.1651  0.0351  0.1991
 4661SOL    HW125445   1.762   1.604  10.919 -0.0114  0.5058 -0.4808
 4661SOL    HW225446   1.889   1.662  10.882  1.5804 -0.7886  0.0613
 4662SOL     OW25447   2.448   1.621  12.813 -0.5025  0.6162 -0.1605
 4662SOL    HW125448   2.461   1.528  12.831 -1.4176  0.7286  1.0402
 4662SOL    HW225449   2.528   1.628  12.761 -0.3658 -2.0787 -0.3584
 4663SOL     OW25450   3.737   0.919   5.260  0.3832 -0.2756 -0.1918
 4663SOL    HW125451   3.787   0.846   5.223  0.1134 -1.4414  1.7488
 4663SOL    HW225452   3.803   0.974   5.302 -0.3581  0.5961 -0.1739
 4664SOL     OW25453   0.432   4.422  14.370 -0.0653  0.2311  0.2878
 4664SOL    HW125454   0.487   4.355  14.328 -1.2281 -0.0367 -0.8170
 4664SOL    HW225455   0.500   4.480  14.405 -0.4182  1.8388 -1.6422
 4665SOL     OW25456   1.958   0.809   5.872  0.3683  0.4546 -0.2767
 4665SOL    HW125457   1.947   0.848   5.958  0.2105 -0.0175 -0.0867
 4665SOL    HW225458   1.873   0.801   5.828 -0.0516 -1.6542  0.9022
 4666SOL     OW25459   2.649   3.996   1.022 -0.8502 -0.1895 -0.0135
 4666SOL    HW125460   2.680   3.917   1.065  0.7162  1.0380  1.1333
 4666SOL    HW225461   2.584   4.021   1.087  1.0374 -0.1112  1.8647
 4667SOL     OW25462   1.498   1.503   4.268 -0.1218 -0.3153 -0.6623
 4667SOL    HW125463   1.448   1.557   4.330  2.2110  2.3023 -1.0335
 4667SOL    HW225464   1.428   1.473   4.210 -0.5744 -0.2171 -0.1644
 4668SOL     OW25465   0.197   2.012  10.717  0.6495  0.7383 -0.4534
 4668SOL    HW125466   0.186   2.107  10.711 -0.9118  0.4967 -1.3383
 4668SOL    HW225467   0.134   1.990  10.785  0.7098 -0.5618 -0.8204
 4669SOL     OW25468   4.486   1.963   2.516 -0.3667  0.1303 -0.0532
 4669SOL    HW125469   4.432   1.889   2.490 -0.2097 -0.0649  0.1769
 4669SOL    HW225470   4.415   2.026   2.530 -1.7053 -1.1109 -1.2793
 4670SOL     OW25471   1.095   3.938   9.658 -0.1114  0.3338  0.4958
 4670SOL    HW125472   1.075   3.990   9.735  3.1105 -1.1286  2.3414
 4670SOL    HW225473   1.170   3.980   9.616  0.5620 -1.2649  0.0731
 4671SOL     OW25474   2.925   4.591  16.064  0.0864 -0.4228 -0.2723
 4671SOL    HW125475   2.850   4.578  16.123 -1.2126  0.9772 -1.6201
 4671SOL    HW225476   2.958   4.505  16.087  1.0563  0.4727  1.6797
 4672SOL     OW25477   2.606   0.079  13.498 -0.3018 -0.1239  0.3362
 4672SOL    HW125478   2.563   0.149  13.448 -1.3398 -1.6469 -0.9165
 4672SOL    HW225479   2.685   0.055  13.450  0.1761 -0.8921  1.5001
 4673SOL     OW25480   2.430   0.274   0.879 -0.3281 -0.4301  0.1597
 4673SOL    HW125481   2.481   0.217   0.822  1.4817  0.1569  1.2176
 4673SOL    HW225482   2.436   0.357   0.831  0.5028  0.0276  1.0606
 4674SOL     OW25483   0.984   2.125   8.582  0.3451  0.3878  0.0532
 4674SOL    HW125484   0.960   2.201   8.635 -0.0957  0.6373 -0.5040
 4674SOL    HW225485   1.041   2.079   8.644  1.5900  0.4280 -1.0759
 4675SOL     OW25486   1.719   3.778   2.696  0.2065 -0.4471  0.0368
 4675SOL    HW125487   1.652   3.736   2.643  0.2983  0.6520 -0.9705
 4675SOL    HW225488   1.694   3.871   2.701 -1.1292 -0.7936 -0.2187
 4676SOL     OW25489   2.268   1.808   7.623  0.1682 -0.0148  0.7648
 4676SOL    HW125490   2.293   1.900   7.611 -1.0784  0.4252  1.5195
 4676SOL    HW225491   2.177   1.813   7.595  0.4976 -0.8813 -0.4912
 4677SOL     OW25492   2.026   3.693  13.733 -0.0315  0.3468  0.4854
 4677SOL    HW125493   2.067   3.655  13.654 -2.7372  0.3105 -0.9083
 4677SOL    HW225494   2.081   3.657  13.803  2.4333 -0.0043 -1.6197
 4678SOL     OW25495   0.637   2.838   7.888 -0.1287 -0.4632 -0.0787
 4678SOL    HW125496   0.721   2.859   7.847 -1.5873  0.1253 -2.7292
 4678SOL    HW225497   0.668   2.809   7.974  0.6679 -2.4913 -1.0611
 4679SOL     OW25498   1.010   0.137   1.450 -0.2332  0.1031  0.2454
 4679SOL    HW125499   1.094   0.181   1.440 -0.4526  0.3075 -0.7489
 4679SOL    HW225500   0.979   0.124   1.360 -0.7048  2.9243 -0.0083
 4680SOL     OW25501   4.468   0.877   8.955  0.2290  0.3072 -0.1137
 4680SOL    HW125502   4.508   0.961   8.981  1.5017  0.1171 -1.4627
 4680SOL    HW225503   4.433   0.905   8.871 -2.9665 -2.5113  0.3169
 4681SOL     OW25504   3.715   3.510  16.194  0.1083  0.1069  0.3880
 4681SOL    HW125505   3.722   3.586  16.136  1.7043  1.4585  2.3225
 4681SOL    HW225506   3.803   3.528  16.228  0.6729 -0.8425 -0.5841
 4682SOL     OW25507   4.620   0.401  17.007 -0.2851  0.1827 -0.3884
 4682SOL    HW125508   4.668   0.361  16.936  2.5545  2.0995  0.4430
 4682SOL    HW225509   4.578   0.320  17.038 -0.2753  0.3709  0.1264
 4683SOL     OW25510   2.145   1.954   5.802  0.5906 -0.1746  0.4376
 4683SOL    HW125511   2.156   1.879   5.742 -1.0421  1.9660 -2.5510
 4683SOL    HW225512   2.061   1.935   5.844  0.9879 -3.5320 -0.2925
 4684SOL     OW25513   3.436   1.697   6.481 -0.1540 -0.1862 -0.0661
 4684SOL    HW125514   3.448   1.622   6.423  0.4278 -0.1241 -0.0252
 4684SOL    HW225515   3.508   1.677   6.541 -0.6599 -0.5725  0.4145
 4685SOL     OW25516   0.562   3.076  15.562 -0.2858 -0.1817  0.2451
 4685SOL    HW125517   0.504   3.003  15.540 -0.6796  0.6485 -1.4270
 4685SOL    HW225518   0.635   3.034  15.608  0.1579  0.5044  0.1609
 4686SOL     OW25519   4.188   3.639  17.172  0.1185  0.3381  0.3021
 4686SOL    HW125520   4.184   3.552  17.133 -2.1344  0.9135 -0.7166
 4686SOL    HW225521   4.192   3.704  17.102  0.3004 -0.1276 -0.1167
 4687SOL     OW25522   3.384   1.959   7.965 -0.4312  0.2080 -0.0123
 4687SOL    HW125523   3.386   2.020   7.891 -2.4808 -0.0396 -0.2777
 4687SOL    HW225524   3.319   1.896   7.934 -0.0515  0.9787 -2.3669
 4688SOL     OW25525   3.879   0.325   5.978 -0.0348 -0.1836 -0.1696
 4688SOL    HW125526   3.953   0.385   5.984  0.3812 -0.8166  1.0400
 4688SOL    HW225527   3.866   0.312   5.883  1.5973 -4.6359  0.2138
 4689SOL     OW25528   2.462   2.691   1.060  0.3759 -0.3069  0.9839
 4689SOL    HW125529   2.491   2.668   0.972 -0.0085 -3.3362  1.6187
 4689SOL    HW225530   2.377   2.730   1.042  0.6841 -0.7755 -1.4578
 4690SOL     OW25531   4.092   2.451   4.807  0.1658  0.1542  0.2168
 4690SOL    HW125532   4.010   2.434   4.761  0.0117  0.0739  0.5268
 4690SOL    HW225533   4.140   2.435   4.725 -2.5091 -0.6106 -1.2190
 4691SOL     OW25534   3.900   2.413   8.323  0.0942  0.0373 -0.5814
 4691SOL    HW125535   3.865   2.484   8.269  1.2099 -0.0677 -1.4626
 4691SOL    HW225536   3.855   2.345   8.272  0.3557 -0.0383 -0.7098
 4692SOL     OW25537   1.245   3.217   7.141 -0.0485 -0.1363  0.0474
 4692SOL    HW125538   1.180   3.240   7.076 -2.0344 -1.9906  1.3821
 4692SOL    HW225539   1.282   3.138   7.101  0.7294  0.5763 -0.6501
 4693SOL     OW25540   2.202   3.913  12.265 -0.2369 -0.5303 -0.4123
 4693SOL    HW125541   2.260   3.838  12.280 -0.4561 -0.2457  1.8295
 4693SOL    HW225542   2.255   3.970  12.209 -1.0248 -0.2132 -0.8408
 4694SOL     OW25543   3.257   0.871  15.571  0.1787 -0.5195 -0.0206
 4694SOL    HW125544   3.230   0.781  15.590 -0.9832 -0.7985 -3.0696
 4694SOL    HW225545   3.186   0.907  15.518 -0.7494 -0.6745  1.1091
 4695SOL     OW25546   2.456   1.722   5.203 -0.1841 -0.1327 -0.3356
 4695SOL    HW125547   2.421   1.689   5.286 -0.5315  0.1741 -0.3585
 4695SOL    HW225548   2.497   1.803   5.234  0.2886 -0.9481  1.1447
 4696SOL     OW25549   2.101   3.381   9.080 -0.0554  0.1987 -0.6485
 4696SOL    HW125550   2.048   3.399   9.003  0.5245  1.8731 -0.6465
 4696SOL    HW225551   2.025   3.376   9.138  2.4787 -0.8809  2.5659
 4697SOL     OW25552   2.594   3.210   2.223 -0.6542 -0.3268  0.1913
 4697SOL    HW125553   2.530   3.140   2.219 -1.5942  0.6366 -1.7408
 4697SOL    HW225554   2.635   3.215   2.136 -1.4132  0.8806 -0.1049
 4698SOL     OW25555   1.146   1.121  14.593 -0.7634 -0.6632 -0.6451
 4698SOL    HW125556   1.205   1.159  14.528  1.3165 -3.2702 -0.2977
 4698SOL    HW225557   1.070   1.115  14.536  0.3804  0.9785 -2.3364
 4699SOL     OW25558   2.415   3.684   8.748 -0.0211 -0.1811 -1.1989
 4699SOL    HW125559   2.480   3.703   8.681  1.9974  2.4299  1.4516
 4699SOL    HW225560   2.337   3.709   8.698 -0.9069  0.0711  0.2852
 4700SOL     OW25561   0.842   3.921   5.594 -0.5141  0.3965 -0.0535
 4700SOL    HW125562   0.756   3.916   5.553 -0.1940  0.8070 -0.7784
 4700SOL    HW225563   0.826   3.970   5.675 -0.9398  0.2446 -0.0488
 4701SOL     OW25564   3.024   0.756   6.799 -0.1750 -0.1217  0.0493
 4701SOL    HW125565   3.108   0.711   6.792 -0.1612  0.0002 -0.5838
 4701SOL    HW225566   2.990   0.731   6.885  1.4195  1.7965  1.2177
 4702SOL     OW25567   0.058   3.736  12.064  0.4996 -0.6212  0.3418
 4702SOL    HW125568   0.085   3.690  11.985  1.4424  1.7475 -0.7280
 4702SOL    HW225569   4.699   3.782  12.052  0.2825 -1.6121 -1.9103
 4703SOL     OW25570   0.572   1.890  12.446  0.4752  0.6385  0.6408
 4703SOL    HW125571   0.544   1.979  12.467 -1.0295 -0.0564  1.6299
 4703SOL    HW225572   0.592   1.850  12.530 -3.5529 -0.1923  1.2187
 4704SOL     OW25573   3.416   0.924   0.690 -0.1054 -0.9016  0.1700
 4704SOL    HW125574   3.440   0.987   0.622 -1.0439 -1.3102 -0.5443
 4704SOL    HW225575   3.505   0.912   0.723 -0.5997 -2.1808  1.0152
 4705SOL     OW25576   0.654   2.786   2.551 -0.6166 -0.1925 -0.2104
 4705SOL    HW125577   0.576   2.756   2.504 -2.0675 -2.5070  3.7666
 4705SOL    HW225578   0.615   2.839   2.620 -0.5899 -1.2695  0.6363
 4706SOL     OW25579   1.532   4.078  12.580  0.0434 -0.5450  0.3584
 4706SOL    HW125580   1.540   4.030  12.662  3.2093  0.4140  0.5955
 4706SOL    HW225581   1.620   4.080  12.543  0.1521  3.2444  0.7927
 4707SOL     OW25582   0.939   3.316   1.352 -0.3755 -0.1786 -0.3642
 4707SOL    HW125583   0.949   3.336   1.445 -1.7866  0.9993 -0.4661
 4707SOL    HW225584   0.910   3.225   1.362 -1.2763  0.2985  1.3071
 4708SOL     OW25585   3.715   3.907   4.157 -0.3796 -0.8482 -0.0742
 4708SOL    HW125586   3.784   3.938   4.098 -0.6089  1.7205  0.9774
 4708SOL    HW225587   3.664   3.988   4.165  0.4110 -0.1914 -1.6833
 4709SOL     OW25588   3.388   3.326   0.110  0.4033  0.6354 -0.0790
 4709SOL    HW125589   3.373   3.248   0.163 -2.3091  1.3277  0.2089
 4709SOL    HW225590   3.449   3.283   0.050  1.0110  1.5700 -0.1341
 4710SOL     OW25591   4.678   0.768  11.533  0.5491  0.4372  0.1362
 4710SOL    HW125592   4.705   0.719  11.611 -1.5020 -2.3303 -0.8599
 4710SOL    HW225593   0.034   0.810  11.503 -1.3199  3.1178 -1.1072
 4711SOL     OW25594   3.041   2.975   7.956  1.1919  0.0044 -0.2322
 4711SOL    HW125595   2.997   2.898   7.920 -2.0484  0.8422  1.9135
 4711SOL    HW225596   2.969   3.026   7.993  2.0856  0.7790  0.4383
 4712SOL     OW25597   1.938   4.494  16.374  0.3590 -0.0018 -0.3021
 4712SOL    HW125598   1.878   4.420  16.370  0.5016  0.0947 -3.7368
 4712SOL    HW225599   1.888   4.570  16.343  3.5577  1.3717 -2.0728
 4713SOL     OW25600   0.867   2.517   4.333 -0.4227  0.0354  0.3055
 4713SOL    HW125601   0.924   2.542   4.261 -0.7048 -0.2011  0.0020
 4713SOL    HW225602   0.788   2.570   4.320 -1.2885 -1.0636  1.0277
 4714SOL     OW25603   0.787   1.800   2.368  0.2317 -0.1485 -0.3733
 4714SOL    HW125604   0.792   1.894   2.390 -0.0037 -0.5677  1.4962
 4714SOL    HW225605   0.882   1.786   2.362  0.0573 -1.9998  1.1839
 4715SOL     OW25606   0.896   2.904  14.883  0.0147 -0.0874  0.6930
 4715SOL    HW125607   0.868   2.884  14.793 -0.6498 -0.1980  0.9213
 4715SOL    HW225608   0.854   2.988  14.903  0.8659  0.6540 -0.6472
 4716SOL     OW25609   2.913   4.138   3.812  0.8039  0.4465  0.2160
 4716SOL    HW125610   3.001   4.102   3.823  0.2611 -1.4065 -1.6076
 4716SOL    HW225611   2.876   4.068   3.758 -0.5259  1.9865 -0.8558
 4717SOL     OW25612   3.040   1.674   5.706  1.0780  0.1005  0.3839
 4717SOL    HW125613   3.012   1.695   5.795  1.5632  0.9259  0.3395
 4717SOL    HW225614   3.135   1.666   5.714  1.0580 -0.1213  0.4154
 4718SOL     OW25615   2.178   3.461   4.921 -0.1400 -0.2678 -0.2395
 4718SOL    HW125616   2.112   3.519   4.959  0.0711  0.2268 -0.6273
 4718SOL    HW225617   2.155   3.450   4.828  1.1619 -0.2427 -0.5669
 4719SOL     OW25618   3.955   2.404   0.056 -0.4368  0.2224 -0.4657
 4719SOL    HW125619   4.018   2.449  17.698  0.5761 -1.2652 -0.5330
 4719SOL    HW225620   3.922   2.477   0.108 -1.8473  0.0521 -1.1279
 4720SOL     OW25621   0.132   2.984  16.323 -0.1081  0.6236  0.0245
 4720SOL    HW125622   0.072   3.058  16.316 -0.3711  0.3720 -0.4357
 4720SOL    HW225623   0.115   2.943  16.407 -1.0210  1.0205  0.0291
 4721SOL     OW25624   1.786   0.617  15.373 -0.0033  0.4925 -0.7120
 4721SOL    HW125625   1.847   0.668  15.321 -0.4541  1.1118 -0.6382
 4721SOL    HW225626   1.708   0.627  15.317  0.5369  2.1659 -1.1676
 4722SOL     OW25627   0.722   0.986  13.978 -0.0578 -0.0005  0.3353
 4722SOL    HW125628   0.665   0.956  14.049  1.6322  1.4438  2.2733
 4722SOL    HW225629   0.801   0.988  14.032 -0.9202  1.2774  1.5256
 4723SOL     OW25630   0.048   4.324   4.998  0.0278 -0.1571  0.4281
 4723SOL    HW125631   0.090   4.338   4.913 -0.0353  0.3739  0.4869
 4723SOL    HW225632   4.688   4.367   4.985  0.6397  0.6918 -0.6769
 4724SOL     OW25633   1.397   2.763  11.357  0.3896 -0.2934  0.1919
 4724SOL    HW125634   1.426   2.852  11.336 -0.5468 -0.0373  0.0230
 4724SOL    HW225635   1.443   2.753  11.440  2.0739  1.9492 -0.4775
 4725SOL     OW25636   2.638   4.140  12.043  0.2919  0.0414  0.1007
 4725SOL    HW125637   2.717   4.094  12.014  1.5717  1.1856  1.8113
 4725SOL    HW225638   2.684   4.223  12.055 -2.1244  1.6915 -1.8764
 4726SOL     OW25639   3.768   3.328   6.345 -0.4644 -0.4789 -0.0065
 4726SOL    HW125640   3.856   3.366   6.342 -0.2628 -0.9624 -0.2264
 4726SOL    HW225641   3.746   3.340   6.437 -2.5599 -1.8029 -0.3531
 4727SOL     OW25642   4.275   0.949  11.382 -0.2726 -0.2813  0.1581
 4727SOL    HW125643   4.187   0.920  11.361 -0.7303  1.7934 -0.8193
 4727SOL    HW225644   4.266   1.039  11.350 -2.0811 -0.5898 -0.1636
 4728SOL     OW25645   3.166   2.591   3.209  0.2106  0.1194  0.1035
 4728SOL    HW125646   3.260   2.580   3.225  0.5309  1.2355 -0.9629
 4728SOL    HW225647   3.133   2.661   3.264 -0.0407 -0.3509  0.5484
 4729SOL     OW25648   0.319   1.663   2.351  0.4622  0.8491  0.2593
 4729SOL    HW125649   0.353   1.722   2.285  0.0546  0.3556 -0.3863
 4729SOL    HW225650   0.387   1.596   2.342  1.6570  2.5662 -3.3266
 4730SOL     OW25651   0.967   1.983   8.950  0.5049 -0.0570  0.3239
 4730SOL    HW125652   0.916   1.998   9.029  0.5825 -0.5438  0.4671
 4730SOL    HW225653   1.044   2.033   8.977 -1.7841  2.2855  2.4467
 4731SOL     OW25654   2.072   2.622   0.122 -0.2061  0.2718 -0.0344
 4731SOL    HW125655   2.130   2.617   0.198  0.8591 -2.8611 -1.0658
 4731SOL    HW225656   2.019   2.694   0.157 -0.8089  0.5683 -1.5691
 4732SOL     OW25657   1.462   0.512   5.903  0.4066  0.2022  0.3803
 4732SOL    HW125658   1.465   0.605   5.926 -1.8831  0.5626 -0.7946
 4732SOL    HW225659   1.474   0.471   5.988 -0.7088  0.7301  0.7971
 4733SOL     OW25660   2.819   2.282   5.910 -0.0187 -0.2443 -0.6436
 4733SOL    HW125661   2.766   2.332   5.972 -1.5477  0.6077 -2.6334
 4733SOL    HW225662   2.770   2.201   5.917  1.3655 -0.7965  2.5615
 4734SOL     OW25663   3.787   1.794   3.424 -0.0445  0.2514 -0.2680
 4734SOL    HW125664   3.700   1.825   3.400 -0.7835  0.0228  2.1748
 4734SOL    HW225665   3.765   1.702   3.407  1.4017 -0.5463  2.1895
 4735SOL     OW25666   4.429   4.232   6.610 -0.1270  0.0624  0.0506
 4735SOL    HW125667   4.399   4.300   6.549 -2.7054 -1.1465 -0.0667
 4735SOL    HW225668   4.344   4.197   6.639  1.1462 -1.5348  1.8125
 4736SOL     OW25669   1.223   0.208   0.871  0.1446  0.1965 -0.9765
 4736SOL    HW125670   1.309   0.243   0.848  0.0727  0.6623 -0.5545
 4736SOL    HW225671   1.172   0.249   0.801  1.5167  1.6813 -1.1150
 4737SOL     OW25672   3.885   0.378  17.426  0.4845 -0.0283  0.1889
 4737SOL    HW125673   3.874   0.286  17.449  0.8018  0.2691  1.4981
 4737SOL    HW225674   3.856   0.426  17.503 -0.4585 -0.4273  0.0839
 4738SOL     OW25675   4.118   4.161   0.128  0.2451  0.3281 -0.0361
 4738SOL    HW125676   4.190   4.109   0.092  1.0115  1.5862 -0.3112
 4738SOL    HW225677   4.055   4.099   0.166  0.3657 -0.5032 -1.1750
 4739SOL     OW25678   4.044   1.824   1.026 -0.6357 -0.3434  0.2378
 4739SOL    HW125679   4.082   1.793   0.944  1.3433 -0.8701  1.3309
 4739SOL    HW225680   4.046   1.919   1.021 -1.8774 -0.4310 -1.5524
 4740SOL     OW25681   1.985   4.066   6.077 -0.1235  0.2742  0.7162
 4740SOL    HW125682   1.918   4.129   6.050 -1.6837 -1.4934  0.4907
 4740SOL    HW225683   2.024   4.109   6.154  1.6805  1.5089 -0.8698
 4741SOL     OW25684   4.223   2.522   9.907 -0.2915 -0.3133 -0.3336
 4741SOL    HW125685   4.132   2.509   9.934  0.0257 -2.7358 -0.3926
 4741SOL    HW225686   4.253   2.433   9.885 -0.9470 -0.4458 -0.6910
 4742SOL     OW25687   4.471   4.074   4.113 -0.2531 -0.1626 -0.1190
 4742SOL    HW125688   4.436   4.151   4.158 -0.7346  0.2837 -1.2392
 4742SOL    HW225689   4.453   4.005   4.176  0.0237 -1.1913 -1.1541
 4743SOL     OW25690   3.017   2.559  10.721  0.0778 -0.6611 -0.0586
 4743SOL    HW125691   3.024   2.610  10.640 -0.4750  1.1185  1.0143
 4743SOL    HW225692   3.038   2.469  10.694 -0.0366 -0.9721  0.8978
 4744SOL     OW25693   3.779   4.691   5.416 -0.3911 -0.7502 -0.5418
 4744SOL    HW125694   3.839   4.682   5.491 -1.1218 -1.1275 -0.0050
 4744SOL    HW225695   3.779   4.606   5.373  2.2431  0.9101 -3.8438
 4745SOL     OW25696   3.522   3.377   5.110 -0.2178 -0.0363  0.2095
 4745SOL    HW125697   3.432   3.350   5.089 -0.2453 -0.7552  1.2568
 4745SOL    HW225698   3.512   3.437   5.183 -0.6513  0.8137 -0.5400
 4746SOL     OW25699   4.081   4.565  14.251  0.3902  0.0158 -0.9759
 4746SOL    HW125700   4.011   4.605  14.199  0.5070  1.0070 -0.3666
 4746SOL    HW225701   4.129   4.643  14.279  0.2422 -1.1106  2.4859
 4747SOL     OW25702   2.675   2.123  16.867  0.0148  0.0968  0.4925
 4747SOL    HW125703   2.763   2.110  16.830 -1.0294 -1.0718 -1.5713
 4747SOL    HW225704   2.636   2.162  16.788  1.9261  0.4135 -0.3024
 4748SOL     OW25705   1.397   1.379   5.490 -0.2021 -0.1589  0.2117
 4748SOL    HW125706   1.412   1.449   5.427 -0.8508 -0.1120  0.1090
 4748SOL    HW225707   1.371   1.427   5.569 -0.1335  1.2137 -0.6134
 4749SOL     OW25708   3.557   0.232   3.423 -0.4644 -0.1438 -0.3927
 4749SOL    HW125709   3.488   0.183   3.469  1.5186 -0.8376  1.8713
 4749SOL    HW225710   3.515   0.210   3.340 -0.4288 -0.1628 -0.4057
 4750SOL     OW25711   4.323   3.849  14.556 -0.5767  0.1686  0.2046
 4750SOL    HW125712   4.273   3.775  14.591 -1.0856  0.2184 -0.4251
 4750SOL    HW225713   4.394   3.801  14.513 -0.6210 -0.1858  0.5222
 4751SOL     OW25714   4.453   2.955  10.976 -0.5466  0.3599 -0.2738
 4751SOL    HW125715   4.373   2.912  11.007 -0.5556  0.1537 -0.5869
 4751SOL    HW225716   4.436   2.994  10.891  2.1384  0.6297 -0.6720
 4752SOL     OW25717   1.016   4.580   1.883 -0.7374 -0.0663 -0.2851
 4752SOL    HW125718   0.984   4.492   1.863  3.5360 -1.7550  0.2700
 4752SOL    HW225719   0.973   4.627   1.811 -3.7494  0.8395  2.0908
 4753SOL     OW25720   4.443   4.476   5.629  0.2188  0.2562 -0.2688
 4753SOL    HW125721   4.432   4.406   5.694 -2.2138  0.9262  0.0519
 4753SOL    HW225722   4.509   4.536   5.662  0.9983 -1.1147  0.6784
 4754SOL     OW25723   2.744   1.734   2.066 -0.4568 -0.2621  0.0439
 4754SOL    HW125724   2.727   1.641   2.083 -1.0749  0.2230  2.0225
 4754SOL    HW225725   2.716   1.766   2.151  0.5548  0.4692  0.1102
 4755SOL     OW25726   4.496   0.362  14.762 -0.0589  0.4801 -0.0301
 4755SOL    HW125727   4.567   0.399  14.710 -0.0903  0.0156 -0.3972
 4755SOL    HW225728   4.483   0.419  14.838 -0.3963 -0.6109  0.7248
 4756SOL     OW25729   3.192   3.179  13.643  0.3837  0.0240 -0.2455
 4756SOL    HW125730   3.201   3.121  13.719  0.5373 -0.6806 -0.7967
 4756SOL    HW225731   3.266   3.234  13.667  1.6856 -2.6512  1.8303
 4757SOL     OW25732   3.411   1.292   4.092  0.6135 -0.6307 -0.1058
 4757SOL    HW125733   3.472   1.229   4.053  1.7140  1.0692 -1.1384
 4757SOL    HW225734   3.441   1.282   4.183 -0.5782  2.6458  0.6449
 4758SOL     OW25735   3.361   1.938  11.348  0.0897 -0.1023  0.5986
 4758SOL    HW125736   3.366   2.033  11.359 -0.5727 -0.1278  1.1084
 4758SOL    HW225737   3.270   1.932  11.378 -0.3226 -1.3219 -0.9322
 4759SOL     OW25738   0.356   3.398   2.981 -0.0529 -0.6807 -0.0604
 4759SOL    HW125739   0.336   3.316   2.935  0.5974 -1.8119  1.6532
 4759SOL    HW225740   0.433   3.378   3.034  0.7813 -1.3569 -1.5288
 4760SOL     OW25741   1.728   0.129   0.515  0.8075 -0.1387 -0.4972
 4760SOL    HW125742   1.738   0.133   0.420 -0.6646 -2.1958 -0.7249
 4760SOL    HW225743   1.736   0.037   0.541  0.8669  0.5025  1.7409
 4761SOL     OW25744   0.128   4.372   4.737  0.4929 -0.6904 -0.5640
 4761SOL    HW125745   0.110   4.412   4.652  1.8065 -2.0845 -1.5048
 4761SOL    HW225746   0.221   4.392   4.749  0.1572  1.9767 -2.5171
 4762SOL     OW25747   3.633   3.741   3.954 -0.4337  0.3030 -0.0219
 4762SOL    HW125748   3.554   3.737   4.009 -0.9983  0.6929 -0.8101
 4762SOL    HW225749   3.698   3.762   4.021 -0.6727  0.0584  0.2933
 4763SOL     OW25750   3.005   2.255   1.163 -0.2812 -0.0109 -0.1875
 4763SOL    HW125751   2.930   2.237   1.105  0.0074 -0.1760 -0.5150
 4763SOL    HW225752   3.040   2.336   1.126  0.1994  0.4724  1.3606
 4764SOL     OW25753   1.672   4.018   0.974 -0.0086  0.0992  0.1260
 4764SOL    HW125754   1.714   4.103   0.961  0.6390  0.1010  2.2086
 4764SOL    HW225755   1.705   3.965   0.901  0.3401 -0.0989  0.4239
 4765SOL     OW25756   3.124   0.926   1.732  0.6770 -0.0742 -0.0372
 4765SOL    HW125757   3.069   0.918   1.811  0.4671  0.8098 -0.0848
 4765SOL    HW225758   3.081   0.867   1.670  0.0503 -2.7727  2.9456
 4766SOL     OW25759   1.035   0.182  15.658  0.4600 -0.2392  0.2522
 4766SOL    HW125760   1.020   0.273  15.683  0.8521  0.0558 -0.5922
 4766SOL    HW225761   1.091   0.154  15.730 -2.4121 -4.1225  1.0073
 4767SOL     OW25762   2.687   4.202   4.283 -0.5846 -0.0885 -0.0914
 4767SOL    HW125763   2.771   4.215   4.237 -1.3167 -1.9215 -1.9572
 4767SOL    HW225764   2.672   4.111   4.257  1.5236 -0.0438 -1.5412
 4768SOL     OW25765   2.769   1.823   6.634 -0.2181 -0.3089 -0.3599
 4768SOL    HW125766   2.766   1.787   6.723  3.4099  1.0969  0.3358
 4768SOL    HW225767   2.697   1.886   6.629 -0.3257 -0.2492  1.8707
 4769SOL     OW25768   0.589   2.892   3.674  0.5074  0.2283  0.2588
 4769SOL    HW125769   0.503   2.877   3.635  0.6641  2.8666 -1.0841
 4769SOL    HW225770   0.650   2.910   3.602 -0.5875 -0.5132 -0.8478
 4770SOL     OW25771   1.290   0.166   4.864  0.4455 -0.3316  0.1025
 4770SOL    HW125772   1.326   0.087   4.825 -0.2300 -0.1508 -0.8925
 4770SOL    HW225773   1.302   0.151   4.958  0.3629 -1.4297 -0.0698
 4771SOL     OW25774   3.012   2.802   1.326  0.0565 -0.4055 -0.0212
 4771SOL    HW125775   3.076   2.786   1.396  1.3021  0.7138 -0.9028
 4771SOL    HW225776   2.941   2.741   1.344  0.5576 -0.0552  3.1117
 4772SOL     OW25777   0.678   0.777   6.382 -0.0317  0.8236  0.0219
 4772SOL    HW125778   0.609   0.793   6.318 -1.1676 -0.5877  0.9059
 4772SOL    HW225779   0.627   0.717   6.435  0.4150  0.6961  0.3092
 4773SOL     OW25780   0.443   4.440   9.637 -0.1643  0.2604  0.1212
 4773SOL    HW125781   0.493   4.361   9.615  1.6018  1.6771 -0.9794
 4773SOL    HW225782   0.359   4.397   9.622  0.6647 -0.4326 -2.6843
 4774SOL     OW25783   1.647   3.148   4.455  0.0272  0.3177  0.2292
 4774SOL    HW125784   1.636   3.053   4.451  1.8534  0.0997  0.2826
 4774SOL    HW225785   1.629   3.162   4.548 -2.1203  1.5154 -0.3605
 4775SOL     OW25786   3.724   1.491   3.889  0.4662 -0.2081  0.3665
 4775SOL    HW125787   3.642   1.529   3.858 -0.0352 -0.6040  1.2227
 4775SOL    HW225788   3.698   1.430   3.957 -1.5281  0.1972 -0.0515
 4776SOL     OW25789   1.367   0.616   2.868  0.2453 -0.1462  0.3848
 4776SOL    HW125790   1.277   0.603   2.898 -0.0227  2.3521  0.6603
 4776SOL    HW225791   1.402   0.528   2.876  0.1824 -0.1643  0.4581
 4777SOL     OW25792   3.230   3.822   1.015 -0.7570 -0.6202  0.3646
 4777SOL    HW125793   3.282   3.876   0.956 -3.3838  1.1108 -0.3381
 4777SOL    HW225794   3.283   3.744   1.036 -1.2889 -0.3719  2.5919
 4778SOL     OW25795   4.045   4.033   6.637 -0.3149  0.0035  0.0658
 4778SOL    HW125796   4.077   3.943   6.634  1.0244  0.4578  0.8488
 4778SOL    HW225797   4.009   4.047   6.724  1.9041 -0.4365  1.0492
 4779SOL     OW25798   4.634   3.705   4.553 -0.0665 -0.2149  0.6875
 4779SOL    HW125799   4.632   3.609   4.556 -3.7779 -0.1519 -0.2826
 4779SOL    HW225800   4.541   3.725   4.565 -0.5692 -1.0496 -1.9154
 4780SOL     OW25801   3.065   1.160  14.160 -0.2957 -0.3571 -0.1601
 4780SOL    HW125802   3.097   1.153  14.070  1.6091  2.8281  0.2664
 4780SOL    HW225803   2.995   1.095  14.156 -2.1502  1.6537 -0.6087
 4781SOL     OW25804   0.997   0.283   8.867  0.0483 -0.8886  0.7792
 4781SOL    HW125805   0.985   0.258   8.776 -0.2590 -1.5360  0.9963
 4781SOL    HW225806   1.084   0.324   8.859  0.5847 -2.1977 -0.1727
 4782SOL     OW25807   4.207   1.072   2.902 -0.4734 -0.4102  0.4516
 4782SOL    HW125808   4.226   1.028   2.819 -1.7606  0.6417 -0.4076
 4782SOL    HW225809   4.167   1.153   2.870  1.5475 -0.0537 -1.1573
 4783SOL     OW25810   0.807   2.560   5.377 -0.2435  0.2491  0.4312
 4783SOL    HW125811   0.768   2.510   5.305  1.7972  0.0211 -0.5092
 4783SOL    HW225812   0.814   2.497   5.449  0.7192 -0.4393 -0.2609
 4784SOL     OW25813   3.665   0.942   0.789 -0.4860 -0.8774  0.2403
 4784SOL    HW125814   3.725   0.873   0.760  0.0582  0.2700 -1.2908
 4784SOL    HW225815   3.698   0.944   0.879 -2.2511  0.2348  0.8763
 4785SOL     OW25816   0.346   2.293   2.341  0.2475 -0.1073  0.0867
 4785SOL    HW125817   0.432   2.283   2.301 -0.7736 -0.9756 -1.8984
 4785SOL    HW225818   0.287   2.249   2.279  2.1312 -0.7171 -1.2679
 4786SOL     OW25819   0.758   3.980  16.332 -0.1536  0.1842 -0.5631
 4786SOL    HW125820   0.690   4.033  16.292 -0.9863 -1.8745 -1.9212
 4786SOL    HW225821   0.717   3.905  16.376  1.3992  0.8100  1.9379
 4787SOL     OW25822   2.862   2.139   0.482 -0.1106  0.2459  0.6068
 4787SOL    HW125823   2.773   2.127   0.514 -0.8190 -0.6166 -1.7500
 4787SOL    HW225824   2.845   2.133   0.388  0.5358  0.8984  0.4489
 4788SOL     OW25825   2.951   3.337   2.941 -0.6423  0.6876  0.1085
 4788SOL    HW125826   3.006   3.416   2.946  0.8426 -0.3983  0.9455
 4788SOL    HW225827   2.935   3.334   2.847  0.9526 -1.4057 -0.0872
 4789SOL     OW25828   1.372   0.873   9.262  0.1221  0.2818 -0.2621
 4789SOL    HW125829   1.394   0.880   9.355 -1.4645  0.7921  0.0738
 4789SOL    HW225830   1.440   0.806   9.251 -1.8194 -1.4987 -1.6416
 4790SOL     OW25831   1.385   1.683   2.173 -0.1058 -0.3541 -0.0621
 4790SOL    HW125832   1.354   1.609   2.225  0.6462 -0.6230 -0.0037
 4790SOL    HW225833   1.359   1.746   2.241 -0.3795 -0.3240 -0.1948
 4791SOL     OW25834   3.300   4.186   8.644  0.1223  0.0077  0.0920
 4791SOL    HW125835   3.350   4.240   8.583  1.3584 -2.9970 -1.5095
 4791SOL    HW225836   3.246   4.136   8.582  0.5457 -2.1761  1.4738
 4792SOL     OW25837   2.624   3.818   9.303 -0.2904 -0.1349 -0.0429
 4792SOL    HW125838   2.718   3.838   9.297 -0.3397 -0.0680 -0.6195
 4792SOL    HW225839   2.597   3.842   9.214 -1.0648  0.3102  0.3176
 4793SOL     OW25840   3.279   3.761   3.753  0.4937 -0.3225  0.2410
 4793SOL    HW125841   3.229   3.835   3.790 -1.7409 -1.6037 -0.1992
 4793SOL    HW225842   3.368   3.787   3.733 -0.5711  3.5007  0.4368
 4794SOL     OW25843   3.825   3.785  14.388  0.3619 -0.8987 -0.2682
 4794SOL    HW125844   3.750   3.844  14.395 -0.0828 -1.5392  0.4738
 4794SOL    HW225845   3.807   3.708  14.442  0.9185 -0.1357  0.9932
 4795SOL     OW25846   1.954   2.809   5.678 -0.8330  0.3381 -0.0342
 4795SOL    HW125847   1.946   2.815   5.583  2.7673 -1.7679 -0.4545
 4795SOL    HW225848   1.869   2.767   5.695  0.6415 -2.1666  1.0990
 4796SOL     OW25849   0.463   1.007   4.936 -0.3827 -0.3811  0.8843
 4796SOL    HW125850   0.530   1.041   4.995  0.3769 -0.3801  0.0340
 4796SOL    HW225851   0.443   0.920   4.971 -1.9875 -0.5361 -0.3801
 4797SOL     OW25852   0.810   3.282   7.189 -0.3021  0.4325  0.7369
 4797SOL    HW125853   0.759   3.351   7.147 -0.2833  0.5045  0.8329
 4797SOL    HW225854   0.762   3.264   7.270 -0.0442 -2.4760  0.2728
 4798SOL     OW25855   0.575   1.874   5.569 -0.9930 -0.0555 -0.0385
 4798SOL    HW125856   0.574   1.959   5.613  0.4459  0.7025 -1.4516
 4798SOL    HW225857   0.483   1.874   5.542 -1.1908  1.0234  0.6230
 4799SOL     OW25858   3.534   2.998   9.510  0.0873  0.0734  0.1793
 4799SOL    HW125859   3.626   2.984   9.533 -0.1927 -0.7042  0.8096
 4799SOL    HW225860   3.494   2.916   9.538 -0.7233  0.8257  1.2206
 4800SOL     OW25861   0.607   2.248   1.058  0.5416  0.6694 -0.2982
 4800SOL    HW125862   0.648   2.165   1.083 -0.0992 -0.0446 -1.6690
 4800SOL    HW225863   0.689   2.292   1.035  1.0846 -0.6355 -0.8901
 4801SOL     OW25864   0.347   2.750   5.216 -0.0614 -0.1868  0.2621
 4801SOL    HW125865   0.441   2.749   5.230  0.1480  0.5346 -1.1171
 4801SOL    HW225866   0.348   2.818   5.148 -1.0314 -2.3787 -1.9292
 4802SOL     OW25867   0.114   2.314   8.849 -0.0849 -0.7164 -0.3214
 4802SOL    HW125868   0.175   2.368   8.900 -0.3479  1.4335 -2.3156
 4802SOL    HW225869   0.175   2.242   8.828 -2.1911 -2.5487 -0.1675
 4803SOL     OW25870   3.762   2.880   3.963  0.1606 -0.5596 -0.2908
 4803SOL    HW125871   3.674   2.893   3.999  0.2297  0.3672 -0.4524
 4803SOL    HW225872   3.797   2.834   4.039 -3.3419  0.7333  2.0882
 4804SOL     OW25873   0.626   0.946  11.470  0.3139 -0.1797 -0.4778
 4804SOL    HW125874   0.603   0.879  11.406 -0.7573 -1.4744  1.2607
 4804SOL    HW225875   0.582   1.022  11.431 -0.1011 -0.7955 -1.1959
 4805SOL     OW25876   1.929   2.515   5.572  0.5267  0.0314 -0.1056
 4805SOL    HW125877   1.881   2.560   5.503  0.4009 -1.8463 -1.2584
 4805SOL    HW225878   1.867   2.508   5.644  0.7235  2.9376  0.3113
 4806SOL     OW25879   0.330   2.738   6.840  0.5832  0.1089 -0.2112
 4806SOL    HW125880   0.311   2.820   6.795  3.5730  0.6708 -0.4799
 4806SOL    HW225881   0.377   2.768   6.918  0.7010 -0.9557  0.1284
 4807SOL     OW25882   1.073   4.486   9.568 -0.6686 -0.4869 -0.5468
 4807SOL    HW125883   1.131   4.479   9.643 -1.2476 -0.9278 -0.1413
 4807SOL    HW225884   1.144   4.474   9.505 -0.8084 -0.8230 -0.6417
 4808SOL     OW25885   1.906   3.632   7.720  0.2736  0.1216 -0.0274
 4808SOL    HW125886   1.953   3.638   7.803  2.0474  1.2441 -1.1024
 4808SOL    HW225887   1.976   3.613   7.657  1.7718 -1.0913  1.9727
 4809SOL     OW25888   2.564   0.182   7.527  0.1992  0.5976  0.0526
 4809SOL    HW125889   2.516   0.114   7.573  1.6340 -0.1183  0.4910
 4809SOL    HW225890   2.657   0.164   7.540  0.6073  0.8668 -2.3466
 4810SOL     OW25891   3.366   4.649   7.100  0.1057 -0.4508 -0.3039
 4810SOL    HW125892   3.425   4.692   7.163 -1.1810  3.2261 -1.6339
 4810SOL    HW225893   3.398   4.560   7.114  1.5651  0.1453  0.1736
 4811SOL     OW25894   0.500   4.172   6.517  0.0345  0.7777  0.1174
 4811SOL    HW125895   0.412   4.149   6.487 -0.2512  0.7697  0.9586
 4811SOL    HW225896   0.536   4.193   6.431 -0.4970  0.8851 -0.0778
 4812SOL     OW25897   0.894   3.499  14.249 -0.8285 -0.2093 -0.2721
 4812SOL    HW125898   0.819   3.475  14.303  0.6856  0.0781  1.9474
 4812SOL    HW225899   0.872   3.587  14.218  1.6785  0.3468 -0.4475
 4813SOL     OW25900   0.368   2.646   7.992  0.0993 -0.0761  0.0662
 4813SOL    HW125901   0.462   2.637   7.980 -0.1422  0.2487 -2.1250
 4813SOL    HW225902   0.323   2.601   7.921 -1.5979  0.9293  0.4929
 4814SOL     OW25903   0.037   0.188   0.500  0.3527 -0.1026  0.0981
 4814SOL    HW125904   4.687   0.248   0.505 -1.1399 -1.9463  0.2537
 4814SOL    HW225905   0.081   0.190   0.585  1.7405 -0.1018 -0.6108
 4815SOL     OW25906   1.699   1.452   6.872 -0.4557  0.1340  0.5769
 4815SOL    HW125907   1.745   1.379   6.832 -1.8075 -1.0593  1.1739
 4815SOL    HW225908   1.606   1.441   6.851 -0.6881  1.2122  1.0159
 4816SOL     OW25909   2.580   4.308   9.206 -0.4275 -0.0008  0.3668
 4816SOL    HW125910   2.505   4.271   9.159  1.4523  0.4073 -2.9746
 4816SOL    HW225911   2.561   4.402   9.206 -0.5756 -0.0232 -0.4816
 4817SOL     OW25912   1.713   1.684  15.650 -0.1531 -0.2067 -0.3486
 4817SOL    HW125913   1.703   1.746  15.722 -0.9312  0.8574 -1.3737
 4817SOL    HW225914   1.725   1.745  15.578 -0.5412  0.5708  0.2501
 4818SOL     OW25915   2.591   1.892   7.771  0.0050  0.2671  0.0676
 4818SOL    HW125916   2.660   1.872   7.708 -1.2149 -0.5643 -1.0170
 4818SOL    HW225917   2.568   1.980   7.744  0.9782  0.5634  0.1911
 4819SOL     OW25918   0.926   1.781   9.354 -0.2566 -0.0719 -0.0787
 4819SOL    HW125919   0.971   1.739   9.281 -0.5621  0.3752 -0.5175
 4819SOL    HW225920   0.870   1.710   9.385  0.5952 -0.4991  0.5076
 4820SOL     OW25921   0.954   2.153   5.460  0.3346  0.2260  0.0374
 4820SOL    HW125922   1.007   2.131   5.537  0.7436 -0.9538 -0.5794
 4820SOL    HW225923   1.018   2.189   5.398  0.1926 -0.3432 -0.4395
 4821SOL     OW25924   3.655   2.217   1.703  0.1810 -0.7388  0.2568
 4821SOL    HW125925   3.606   2.190   1.625 -0.0307  1.1077 -0.2353
 4821SOL    HW225926   3.734   2.246   1.659 -0.4476  2.4658  1.2643
 4822SOL     OW25927   4.221   1.426   5.465  0.6147  0.1505 -0.3927
 4822SOL    HW125928   4.205   1.462   5.378 -0.3914 -0.7368 -0.5715
 4822SOL    HW225929   4.242   1.506   5.514  1.9642  0.2260 -1.1049
 4823SOL     OW25930   0.834   2.403   0.143 -0.0347  0.4758 -0.9889
 4823SOL    HW125931   0.753   2.426   0.189  0.5923 -0.3304  0.5390
 4823SOL    HW225932   0.840   2.488   0.100 -1.7722  0.2216 -1.7439
 4824SOL     OW25933   3.129   2.593   9.294  0.0324  0.6253 -0.1655
 4824SOL    HW125934   3.169   2.510   9.268 -1.2880 -0.5174  1.4733
 4824SOL    HW225935   3.211   2.637   9.320  1.2696 -2.1824  0.6893
 4825SOL     OW25936   2.610   0.450  16.097  0.5487  0.0768  0.2843
 4825SOL    HW125937   2.557   0.521  16.134  0.8984  1.1445 -1.2663
 4825SOL    HW225938   2.568   0.366  16.115  1.2338 -0.2568  0.3252
 4826SOL     OW25939   2.259   3.651   8.346  0.8159 -0.4920 -0.2484
 4826SOL    HW125940   2.220   3.576   8.392 -0.4535  0.4246  0.1463
 4826SOL    HW225941   2.253   3.722   8.409  0.8070 -2.0949  1.5650
 4827SOL     OW25942   2.684   1.578   1.150 -0.3301  0.4692 -0.4427
 4827SOL    HW125943   2.761   1.579   1.094 -0.6969  2.0471 -0.9138
 4827SOL    HW225944   2.618   1.523   1.107 -1.1863  0.6910  0.5970
 4828SOL     OW25945   2.489   3.433   7.045 -0.0691 -0.2456 -0.1740
 4828SOL    HW125946   2.397   3.431   7.070  0.1679 -0.3766  0.6736
 4828SOL    HW225947   2.480   3.450   6.951 -0.4804 -0.2734 -0.1372
 4829SOL     OW25948   1.404   1.623   0.173  0.6923  0.0629  0.1058
 4829SOL    HW125949   1.329   1.612   0.115  0.5762 -1.3371  0.5445
 4829SOL    HW225950   1.383   1.711   0.205 -0.4166  0.2535 -1.1355
 4830SOL     OW25951   1.159   2.172  13.150 -0.0698  0.2626 -0.3064
 4830SOL    HW125952   1.249   2.205  13.148 -0.1608  0.3650 -2.3819
 4830SOL    HW225953   1.157   2.115  13.074 -1.9087  0.0112 -0.0631
 4831SOL     OW25954   0.438   3.335   3.329  0.0851 -0.5754  0.0478
 4831SOL    HW125955   0.489   3.384   3.393  0.8740 -1.5896  0.2010
 4831SOL    HW225956   0.514   3.300   3.283  0.1040 -0.9687  0.3735
 4832SOL     OW25957   1.215   3.057   2.400  0.3475 -0.3208 -0.3189
 4832SOL    HW125958   1.222   2.974   2.448 -0.1968 -1.1243 -1.6207
 4832SOL    HW225959   1.303   3.094   2.403 -0.0368  0.5847 -0.4346
 4833SOL     OW25960   0.425   2.782  15.143  0.6616 -0.0003  0.1583
 4833SOL    HW125961   0.504   2.790  15.196  0.3948  1.4790  0.3356
 4833SOL    HW225962   0.464   2.829  15.069 -1.4889  0.9976 -0.3228
 4834SOL     OW25963   3.400   2.336   7.979  0.1042  0.1471  0.1545
 4834SOL    HW125964   3.422   2.254   7.934  1.6894  0.9239 -0.4560
 4834SOL    HW225965   3.352   2.386   7.913 -1.2722 -0.1810  0.9092
 4835SOL     OW25966   1.422   3.954   6.714  0.1770  0.2796 -0.2324
 4835SOL    HW125967   1.509   3.925   6.740 -1.3349 -1.5838  2.7184
 4835SOL    HW225968   1.370   3.881   6.748 -0.3690 -0.0326 -1.7168
 4836SOL     OW25969   4.028   3.001  11.794 -0.2180  0.5128  0.6758
 4836SOL    HW125970   4.053   2.920  11.749 -1.0971  1.1070 -0.8598
 4836SOL    HW225971   3.940   3.022  11.766 -0.4401  0.1649  1.1123
 4837SOL     OW25972   2.742   4.465   7.066  0.4073 -0.1090  0.6091
 4837SOL    HW125973   2.771   4.496   6.980  2.6476 -2.9996  0.3243
 4837SOL    HW225974   2.686   4.391   7.043 -1.0630  0.7761  1.3260
 4838SOL     OW25975   3.025   1.773   7.384  0.5112  0.6444 -0.3509
 4838SOL    HW125976   3.034   1.720   7.305 -2.7836  2.0642 -1.6748
 4838SOL    HW225977   3.079   1.849   7.363  0.7484  0.6047  0.1113
 4839SOL     OW25978   0.094   2.592   4.179 -0.3596  0.0333  0.8139
 4839SOL    HW125979   0.144   2.532   4.123  1.0347  1.4004  0.5875
 4839SOL    HW225980   0.084   2.658   4.110 -3.1939  0.0805  1.2827
 4840SOL     OW25981   4.081   1.204  11.320  0.1039  0.2322  0.0160
 4840SOL    HW125982   4.037   1.158  11.248 -0.0647 -0.6025  0.6574
 4840SOL    HW225983   4.004   1.199  11.377  0.6391 -2.2123  0.5054
 4841SOL     OW25984   1.359   3.608   1.942 -0.0756 -0.4462 -0.0268
 4841SOL    HW125985   1.352   3.675   1.874  0.3090 -1.2822 -0.8811
 4841SOL    HW225986   1.273   3.567   1.934 -0.2027 -0.0451 -0.7014
 4842SOL     OW25987   0.807   0.973  15.276 -0.4025 -0.0813  0.0635
 4842SOL    HW125988   0.720   1.001  15.248 -1.0093 -2.0207 -0.0378
 4842SOL    HW225989   0.833   0.923  15.198 -0.6890  2.1706 -1.4799
 4843SOL     OW25990   2.449   2.703   4.934 -0.1817  0.3599 -0.0430
 4843SOL    HW125991   2.475   2.781   4.885 -0.4386  1.1055  0.9982
 4843SOL    HW225992   2.434   2.749   5.017  0.3199  0.8481 -0.2262
 4844SOL     OW25993   4.032   3.401   6.487  0.6709  0.9294  0.1989
 4844SOL    HW125994   4.058   3.423   6.398  0.7431  1.1756  0.2830
 4844SOL    HW225995   4.113   3.427   6.531  0.6875  1.9586 -0.4580
 4845SOL     OW25996   0.710   4.152   7.337 -0.0647 -0.2581  0.4329
 4845SOL    HW125997   0.771   4.222   7.312  0.6646 -0.5521  1.3903
 4845SOL    HW225998   0.701   4.097   7.259 -0.0690 -1.2587  1.1403
 4846SOL     OW25999   0.928   2.546   4.055 -0.2673  0.0210 -0.2656
 4846SOL    HW126000   0.855   2.555   3.994 -1.1358 -0.1659  0.7517
 4846SOL    HW226001   0.998   2.568   3.993 -1.4276  0.9185 -1.2513
 4847SOL     OW26002   3.065   2.513   2.979  0.1517 -0.2300 -0.0004
 4847SOL    HW126003   3.082   2.586   2.919  0.6883 -1.0104 -0.7931
 4847SOL    HW226004   3.103   2.555   3.056  2.7287  0.3897 -1.6048
 4848SOL     OW26005   1.153   0.697   2.603  0.2384  0.2530 -0.6509
 4848SOL    HW126006   1.233   0.746   2.624 -1.0912  1.8262  0.7688
 4848SOL    HW226007   1.171   0.661   2.517 -3.4928 -0.6435 -1.0652
 4849SOL     OW26008   4.351   1.894   4.685  0.1691 -0.0397 -0.1082
 4849SOL    HW126009   4.393   1.938   4.759 -1.1310  2.6620 -0.9875
 4849SOL    HW226010   4.305   1.830   4.738 -1.4644  0.2650 -1.1619
 4850SOL     OW26011   4.015   1.454   7.422 -0.1496 -0.5207  0.5089
 4850SOL    HW126012   4.024   1.529   7.481 -0.1310  0.2544 -0.4891
 4850SOL    HW226013   4.081   1.470   7.355 -1.7776  0.2207 -0.9246
 4851SOL     OW26014   1.026   2.464   8.203  0.3561 -0.2556  0.5856
 4851SOL    HW126015   0.978   2.514   8.268  1.1619  0.0470  0.9535
 4851SOL    HW226016   1.057   2.401   8.269  3.5195  1.5440  0.8348
 4852SOL     OW26017   4.516   3.282  17.431 -0.4153  0.1043  0.5848
 4852SOL    HW126018   4.562   3.366  17.428 -0.2886 -0.1715 -4.3965
 4852SOL    HW226019   4.565   3.236  17.363 -0.1434  1.8130 -0.3699
 4853SOL     OW26020   2.419   1.161  13.681  0.0829 -0.3263 -0.5937
 4853SOL    HW126021   2.435   1.223  13.610  0.6786 -1.0915 -1.1254
 4853SOL    HW226022   2.328   1.131  13.673 -0.0431 -0.1340  0.0965
 4854SOL     OW26023   3.429   1.190   1.286  0.3226  0.0894  0.1743
 4854SOL    HW126024   3.509   1.152   1.323 -0.6147 -1.3598  0.6899
 4854SOL    HW226025   3.378   1.216   1.363  0.2011 -1.3980  0.5981
 4855SOL     OW26026   2.153   1.502   5.545 -0.8068 -0.6826  0.4018
 4855SOL    HW126027   2.166   1.407   5.538  0.9174 -0.5758  2.1715
 4855SOL    HW226028   2.062   1.499   5.514  0.1598 -1.9150 -2.2819
 4856SOL     OW26029   0.594   3.897   5.497 -0.1517 -0.7799  0.4520
 4856SOL    HW126030   0.581   3.903   5.402 -0.7551  0.1324  0.5858
 4856SOL    HW226031   0.520   3.950   5.527  0.2880 -0.3612  0.7935
 4857SOL     OW26032   1.745   1.182   3.186 -0.0343 -0.4174  0.2535
 4857SOL    HW126033   1.693   1.227   3.120  0.6942 -1.3860 -0.9658
 4857SOL    HW226034   1.774   1.107   3.135  0.0448  0.1573 -0.5397
 4858SOL     OW26035   3.385   0.872  13.415  0.2057  0.2569  0.4619
 4858SOL    HW126036   3.466   0.849  13.462 -0.1450  1.0676  1.4511
 4858SOL    HW226037   3.397   0.845  13.324 -0.9791  0.2473  0.3124
 4859SOL     OW26038   2.958   4.344   4.822  0.0274  0.3852  0.3091
 4859SOL    HW126039   2.872   4.345   4.863 -0.8584  1.2934 -1.5822
 4859SOL    HW226040   3.012   4.288   4.878 -0.2545 -0.2985 -0.0994
 4860SOL     OW26041   3.840   2.253   5.391 -0.1589 -0.2726 -0.6908
 4860SOL    HW126042   3.834   2.237   5.485  0.5802  0.6520 -0.4932
 4860SOL    HW226043   3.875   2.168   5.364  2.0497 -0.1873  1.9857
 4861SOL     OW26044   2.605   0.079   6.379  0.5365 -0.2954 -0.0460
 4861SOL    HW126045   2.641   0.152   6.430  1.8110 -2.1066  1.6369
 4861SOL    HW226046   2.572   0.130   6.305 -3.3479 -2.0977  0.4126
 4862SOL     OW26047   2.211   3.173  16.665  0.3363  0.2270 -0.4622
 4862SOL    HW126048   2.211   3.184  16.760  0.0080 -0.2216 -0.4088
 4862SOL    HW226049   2.121   3.193  16.641  0.2500 -1.4245 -1.5320
 4863SOL     OW26050   3.386   3.568   7.889  0.3356  0.0426  0.1912
 4863SOL    HW126051   3.365   3.487   7.842 -0.2024  0.1334  0.2758
 4863SOL    HW226052   3.433   3.628   7.831  0.3093 -0.6986 -0.6139
 4864SOL     OW26053   2.627   4.130   7.207  0.2279  0.2147  0.0883
 4864SOL    HW126054   2.609   4.202   7.266  0.9241 -0.6989  1.4144
 4864SOL    HW226055   2.717   4.106   7.231  0.2152 -1.8936 -1.8805
 4865SOL     OW26056   2.464   0.627   7.734  0.4902  0.0400 -0.0391
 4865SOL    HW126057   2.462   0.670   7.648  1.0060 -1.3292 -0.7398
 4865SOL    HW226058   2.469   0.538   7.699 -3.2729  0.4646 -1.7081
 4866SOL     OW26059   4.586   1.250   5.623  0.9083  0.1243  0.7592
 4866SOL    HW126060   4.493   1.228   5.634  0.8095 -0.1401 -0.5431
 4866SOL    HW226061   4.592   1.273   5.530 -0.6824  1.6564  1.0341
 4867SOL     OW26062   2.382   0.772   9.061 -0.0402  0.5882 -0.2422
 4867SOL    HW126063   2.296   0.755   9.099  0.2225 -1.3080 -0.5084
 4867SOL    HW226064   2.430   0.691   9.079 -1.2833 -0.1745 -0.3355
 4868SOL     OW26065   3.058   4.116   8.380  0.4230 -0.4578 -0.3951
 4868SOL    HW126066   2.987   4.051   8.386 -0.8692  0.9473 -0.6385
 4868SOL    HW226067   3.105   4.080   8.305  2.1392 -0.9747  0.9227
 4869SOL     OW26068   2.962   4.665  13.647  0.1326  0.4215  0.0321
 4869SOL    HW126069   2.967   0.016  13.707  1.1498  0.1440  0.2870
 4869SOL    HW226070   2.879   4.620  13.666 -0.7144  2.3477  0.9262
 4870SOL     OW26071   3.076   3.168   9.730 -0.2438  0.3425  0.3320
 4870SOL    HW126072   3.170   3.183   9.723  0.1539 -1.7427  1.1365
 4870SOL    HW226073   3.064   3.102   9.662 -2.2774  0.3907  0.6466
 4871SOL     OW26074   3.012   2.619   0.275  0.1015  0.1277  0.2683
 4871SOL    HW126075   2.956   2.693   0.300 -2.0913 -0.8788 -1.6477
 4871SOL    HW226076   3.001   2.563   0.352  1.1281 -0.9022 -0.3386
 4872SOL     OW26077   3.782   1.597   0.197 -0.3413  0.0211  0.3984
 4872SOL    HW126078   3.831   1.679   0.191 -0.7332  0.2524  0.3425
 4872SOL    HW226079   3.728   1.619   0.273  0.2092 -0.8850  1.0401
 4873SOL     OW26080   0.946   2.690   7.308  0.5477 -0.2556 -0.2435
 4873SOL    HW126081   0.893   2.700   7.230 -1.1796 -0.4346  0.9076
 4873SOL    HW226082   0.907   2.765   7.354 -0.7026 -0.4100 -1.0781
 4874SOL     OW26083   3.977   4.658   2.132  0.4521 -0.0886 -0.3323
 4874SOL    HW126084   4.027   4.593   2.181  0.5899  0.4033  0.1817
 4874SOL    HW226085   3.890   4.621   2.148  0.3266  0.2516 -0.2244
 4875SOL     OW26086   2.436   0.091   9.378 -0.2238 -0.4259  0.1974
 4875SOL    HW126087   2.397   0.088   9.466 -0.9328 -0.0477 -0.1082
 4875SOL    HW226088   2.388   0.163   9.337 -0.7379 -0.5559  0.5730
 4876SOL     OW26089   0.884   2.536   4.859 -0.1285 -0.5121  0.4557
 4876SOL    HW126090   0.845   2.457   4.820 -0.1457 -0.1165 -0.3151
 4876SOL    HW226091   0.974   2.508   4.877  0.5887  1.0788 -0.7087
 4877SOL     OW26092   3.386   3.402  14.439 -0.1531 -0.0168  0.2143
 4877SOL    HW126093   3.451   3.374  14.375  0.4481 -1.4193  1.4344
 4877SOL    HW226094   3.333   3.323  14.444  3.2006 -2.1341  2.2889
 4878SOL     OW26095   1.081   0.718   1.891  0.2549  0.1831  0.0916
 4878SOL    HW126096   1.086   0.640   1.946 -0.8351  0.5678  0.7294
 4878SOL    HW226097   1.100   0.781   1.960 -0.5845  0.0923  0.3959
 4879SOL     OW26098   4.648   0.071   4.693 -0.0106 -0.1104 -0.7573
 4879SOL    HW126099   4.690   0.083   4.608  2.9248  0.7700  0.8140
 4879SOL    HW226100   4.632   0.161   4.721 -1.0609 -0.1072 -1.3736
 4880SOL     OW26101   2.207   3.807   6.607 -0.0793 -0.2495 -0.5807
 4880SOL    HW126102   2.244   3.852   6.530 -0.4779  0.2467 -0.4804
 4880SOL    HW226103   2.154   3.876   6.647 -0.2654 -1.1283  0.6933
 4881SOL     OW26104   2.500   4.361   7.955 -0.2484  0.4531  0.3987
 4881SOL    HW126105   2.544   4.317   7.882 -2.8110 -0.6139 -0.4973
 4881SOL    HW226106   2.553   4.439   7.968 -1.1635  1.0959  0.2395
 4882SOL     OW26107   0.943   4.073   6.351  0.5330 -0.2508 -0.3387
 4882SOL    HW126108   0.988   4.054   6.269 -0.8758  3.5496 -1.9718
 4882SOL    HW226109   0.916   4.163   6.335 -0.4209 -0.7874 -1.7622
 4883SOL     OW26110   1.629   2.066   3.408  0.1597  0.0244  0.0174
 4883SOL    HW126111   1.642   2.136   3.344  0.1553  1.5676  1.6954
 4883SOL    HW226112   1.621   1.988   3.352 -0.5940 -1.8004  2.6444
 4884SOL     OW26113   4.190   3.819  14.976  0.3484 -0.0247 -0.4004
 4884SOL    HW126114   4.197   3.758  15.049  2.3102 -1.5098 -1.8263
 4884SOL    HW226115   4.117   3.876  14.999 -0.7420 -0.4283 -2.8611
 4885SOL     OW26116   2.637   3.556   7.428  0.3127  0.0564 -0.1225
 4885SOL    HW126117   2.587   3.476   7.410 -1.7430  1.2840  0.0963
 4885SOL    HW226118   2.624   3.601   7.345  2.2031 -0.1381 -0.5060
 4886SOL     OW26119   2.858   1.455  10.919  0.2313  0.4972 -0.1639
 4886SOL    HW126120   2.860   1.550  10.933  1.8141  0.4214  0.0580
 4886SOL    HW226121   2.796   1.421  10.983 -0.3108  1.8693  0.0408
 4887SOL     OW26122   2.828   3.060   2.064 -0.3804 -0.0619  0.1261
 4887SOL    HW126123   2.847   2.990   2.002  4.0261  2.3717 -1.2888
 4887SOL    HW226124   2.781   3.131   2.020 -2.9505 -0.6446  1.9112
 4888SOL     OW26125   1.641   1.131   5.814 -0.2966  0.1755  0.2889
 4888SOL    HW126126   1.670   1.104   5.726 -1.5742  1.2443 -0.4613
 4888SOL    HW226127   1.557   1.176   5.802 -0.1274  0.6187  0.7640
 4889SOL     OW26128   0.382   1.302   0.603  0.0049  0.6077  0.2773
 4889SOL    HW126129   0.457   1.283   0.660 -0.6788  1.5453  1.4922
 4889SOL    HW226130   0.410   1.266   0.519 -0.3284  0.5276  0.2017
 4890SOL     OW26131   3.542   3.273   7.329 -0.8450  0.6807  0.3614
 4890SOL    HW126132   3.500   3.189   7.349 -0.1304  0.7082  1.9606
 4890SOL    HW226133   3.592   3.261   7.249 -1.9568 -1.8162  0.0303
 4891SOL     OW26134   3.818   2.333   0.577 -0.0762  0.5999  0.0033
 4891SOL    HW126135   3.907   2.352   0.546 -0.3541  2.2747  0.2178
 4891SOL    HW226136   3.765   2.406   0.544  0.5733  1.4009  0.7500
 4892SOL     OW26137   1.917   4.425  12.799  0.0027  0.2664  0.3358
 4892SOL    HW126138   2.007   4.410  12.830 -0.6563  0.1014  2.1987
 4892SOL    HW226139   1.910   4.520  12.790  0.6082  0.3265  0.4642
 4893SOL     OW26140   3.617   1.758   5.009  0.1176  0.1196 -0.3736
 4893SOL    HW126141   3.585   1.671   5.034 -0.9186  0.9825  1.2949
 4893SOL    HW226142   3.558   1.810   5.064 -0.1240 -0.0219 -0.4985
 4894SOL     OW26143   1.567   2.534  15.692  0.0760 -0.9542 -0.1343
 4894SOL    HW126144   1.652   2.497  15.714  1.8843  2.6373 -1.0779
 4894SOL    HW226145   1.539   2.486  15.614  0.7262 -1.8121  0.1613
 4895SOL     OW26146   4.535   2.871   0.186 -0.0938  0.7858 -0.3838
 4895SOL    HW126147   4.537   2.965   0.169 -0.7342  1.1835  1.7804
 4895SOL    HW226148   4.596   2.872   0.260  1.7162 -1.0720 -1.8208
 4896SOL     OW26149   3.548   3.525   5.956 -0.2919 -0.3446 -0.0760
 4896SOL    HW126150   3.636   3.558   5.937 -0.8037  1.8465  1.3934
 4896SOL    HW226151   3.526   3.596   6.016  1.5643 -0.2673  0.4977
 4897SOL     OW26152   1.280   0.239   5.597  0.0414 -0.4367 -0.0804
 4897SOL    HW126153   1.359   0.197   5.630  0.3654  0.8402  0.7723
 4897SOL    HW226154   1.295   0.333   5.607 -1.3362 -0.0372 -1.6742
 4898SOL     OW26155   0.211   1.812  15.245 -0.1647  0.4730 -0.6040
 4898SOL    HW126156   0.255   1.787  15.164  1.3199  0.7621  0.1076
 4898SOL    HW226157   0.202   1.721  15.275  0.7255  0.7758  0.5501
 4899SOL     OW26158   0.832   3.805  12.527  0.0073 -0.0096  0.4781
 4899SOL    HW126159   0.792   3.851  12.454 -1.8330 -1.2512  0.7272
 4899SOL    HW226160   0.777   3.829  12.602  0.3899  1.4175  0.3040
 4900SOL     OW26161   0.784   1.152   5.083 -0.1116 -0.2856 -0.1253
 4900SOL    HW126162   0.707   1.149   5.140 -0.4338 -0.3289 -0.5657
 4900SOL    HW226163   0.841   1.224   5.109 -1.6162  0.7136  0.4063
 4901SOL     OW26164   0.060   0.795   7.169 -0.1577 -0.3814 -0.0211
 4901SOL    HW126165   0.029   0.885   7.169 -0.2907 -0.4450 -2.1443
 4901SOL    HW226166   0.068   0.802   7.074  0.6669 -0.3343  0.0512
 4902SOL     OW26167   2.914   1.996  16.651  0.0357  0.5283  0.1532
 4902SOL    HW126168   2.866   2.058  16.596 -3.6424 -2.7892 -0.3868
 4902SOL    HW226169   2.870   1.915  16.624  1.3378 -0.3840  0.7727
 4903SOL     OW26170   2.457   2.331   5.899 -0.3074 -0.1439  0.0174
 4903SOL    HW126171   2.512   2.386   5.843 -0.5539 -0.8249 -0.8783
 4903SOL    HW226172   2.384   2.316   5.839  1.1563 -0.8411 -1.5867
 4904SOL     OW26173   4.411   3.211  10.362  0.0303 -0.4996 -0.0792
 4904SOL    HW126174   4.469   3.252  10.425  2.4298 -3.4049 -0.4023
 4904SOL    HW226175   4.445   3.259  10.287 -0.1040  1.2567  0.9951
 4905SOL     OW26176   4.712   0.839  12.892 -0.2154 -0.3266  0.7452
 4905SOL    HW126177   0.055   0.890  12.848  0.4260  0.1905  2.3429
 4905SOL    HW226178   4.633   0.893  12.888  0.7011  0.9357 -0.3440
 4906SOL     OW26179   1.452   2.097   6.210  0.3385 -0.2708  0.0199
 4906SOL    HW126180   1.538   2.136   6.224 -0.6984  1.0622  2.7103
 4906SOL    HW226181   1.428   2.136   6.126  3.3505 -2.0954 -1.7167
 4907SOL     OW26182   2.531   1.554   3.601 -0.3455 -0.0090 -0.1538
 4907SOL    HW126183   2.515   1.461   3.617 -0.7611 -0.1386 -1.3047
 4907SOL    HW226184   2.524   1.576   3.508  0.1403  0.0933 -0.1662
 4908SOL     OW26185   2.580   0.171   5.062 -0.6174  0.2970 -0.4979
 4908SOL    HW126186   2.533   0.182   5.145 -0.4897 -0.5160 -0.3211
 4908SOL    HW226187   2.599   0.263   5.043  2.4360 -0.2360 -0.1061
 4909SOL     OW26188   1.288   1.083  11.738  0.5181 -0.1154  0.4435
 4909SOL    HW126189   1.193   1.074  11.725  0.8688  1.0446 -3.1124
 4909SOL    HW226190   1.301   1.162  11.685 -1.0124 -0.5589 -0.5887
 4910SOL     OW26191   3.748   4.660   3.949 -0.0511  0.8474 -0.3046
 4910SOL    HW126192   3.826   4.610   3.974 -2.6493 -1.9879  2.0762
 4910SOL    HW226193   3.712   4.602   3.883  2.1154 -2.6261  1.5682
 4911SOL     OW26194   2.812   3.825   0.805 -0.5134 -0.4617 -0.0597
 4911SOL    HW126195   2.773   3.765   0.742 -1.7586  0.0891  0.1759
 4911SOL    HW226196   2.731   3.872   0.825  1.0817  1.1850  2.6225
 4912SOL     OW26197   4.324   1.127  15.585 -0.0802  0.2719 -0.1947
 4912SOL    HW126198   4.271   1.161  15.657 -1.2800  0.3372 -1.1074
 4912SOL    HW226199   4.266   1.130  15.509 -1.3755 -0.2624  0.7929
 4913SOL     OW26200   0.685   4.149   2.675  0.0999 -0.0449  0.8610
 4913SOL    HW126201   0.636   4.229   2.656  0.4424 -0.0026  0.1582
 4913SOL    HW226202   0.613   4.106   2.720  0.6977 -1.4049  0.5101
 4914SOL     OW26203   2.474   2.800   9.169  0.0967  0.5332 -0.1800
 4914SOL    HW126204   2.448   2.735   9.234 -1.2769  1.3036  0.0361
 4914SOL    HW226205   2.565   2.804   9.197  0.6046  1.3165 -1.9190
 4915SOL     OW26206   3.054   1.736  10.056 -0.0950 -0.2466  0.1556
 4915SOL    HW126207   3.148   1.736  10.073 -0.0914  0.6924  0.1245
 4915SOL    HW226208   3.041   1.764   9.965  0.6849 -1.1079 -0.2220
 4916SOL     OW26209   3.963   1.298   3.808 -0.5702  0.2255 -0.2988
 4916SOL    HW126210   3.916   1.368   3.854  0.6512  0.5305  0.4774
 4916SOL    HW226211   3.885   1.267   3.762 -0.0183 -0.9905 -0.4111
 4917SOL     OW26212   2.031   3.648   7.427 -0.5899  0.5191 -0.3861
 4917SOL    HW126213   2.083   3.684   7.354 -0.5985 -1.7395 -1.5139
 4917SOL    HW226214   2.090   3.595   7.480 -2.5469 -0.7170  0.5539
 4918SOL     OW26215   1.734   0.444  15.574  0.2117  0.4516  0.4044
 4918SOL    HW126216   1.813   0.449  15.628  1.8195  1.7535 -2.0608
 4918SOL    HW226217   1.761   0.504  15.505 -0.8072  0.4388 -0.0047
 4919SOL     OW26218   1.172   0.586   3.543 -0.0949 -0.8904 -0.2176
 4919SOL    HW126219   1.202   0.669   3.580 -1.2492  0.3773 -2.0884
 4919SOL    HW226220   1.198   0.587   3.450  0.4417  0.2646 -0.0613
 4920SOL     OW26221   0.905   3.394   1.616  0.0065 -0.4024 -0.4959
 4920SOL    HW126222   0.870   3.315   1.659  0.2879 -0.1794  0.1418
 4920SOL    HW226223   0.881   3.467   1.673 -1.2190  0.8583 -2.6294
 4921SOL     OW26224   4.449   0.669   9.104 -0.1616 -0.0338 -0.4517
 4921SOL    HW126225   4.442   0.750   9.054 -1.8858 -0.3830 -0.7588
 4921SOL    HW226226   4.417   0.702   9.187  1.6892 -0.5477  0.4682
 4922SOL     OW26227   0.455   3.711  11.587 -0.3560  0.7041 -0.6203
 4922SOL    HW126228   0.520   3.640  11.591 -1.4333 -0.2189  0.5203
 4922SOL    HW226229   0.427   3.705  11.496 -1.1081 -0.9192 -0.2843
 4923SOL     OW26230   4.071   2.816   7.169  0.0703 -0.2170  0.0494
 4923SOL    HW126231   3.977   2.813   7.185  0.0375  0.4099 -0.0422
 4923SOL    HW226232   4.080   2.734   7.121 -1.0876  0.8662 -2.0102
 4924SOL     OW26233   2.436   0.770   3.921  0.1167  0.5806 -0.4078
 4924SOL    HW126234   2.477   0.733   3.999 -1.2603 -0.4151 -0.1744
 4924SOL    HW226235   2.439   0.865   3.934  1.2148  0.5292 -0.3179
 4925SOL     OW26236   4.671   0.307  11.043  0.1940  0.0831 -0.3195
 4925SOL    HW126237   4.660   0.246  10.970 -0.7330  0.0651 -0.1613
 4925SOL    HW226238   4.596   0.284  11.098  0.6399  1.4474  0.8653
 4926SOL     OW26239   1.196   4.664  16.944  0.5555 -0.3281 -0.1825
 4926SOL    HW126240   1.113   4.663  16.896  1.5789  2.0812 -1.9720
 4926SOL    HW226241   1.212   4.571  16.963  0.0282 -0.1814  0.9799
 4927SOL     OW26242   1.572   2.300   8.742  0.0385 -0.4609 -0.4101
 4927SOL    HW126243   1.503   2.366   8.740  0.6651  0.2142  0.0353
 4927SOL    HW226244   1.635   2.342   8.682 -0.5857 -0.7698 -1.2754
 4928SOL     OW26245   4.280   3.384   7.791  0.4664 -0.4051 -0.1311
 4928SOL    HW126246   4.316   3.429   7.715  1.6060  0.3439  0.8475
 4928SOL    HW226247   4.267   3.293   7.765 -0.6588 -0.3466  0.2110
 4929SOL     OW26248   2.991   1.889   0.359 -0.4352 -0.0998  0.4927
 4929SOL    HW126249   3.078   1.925   0.342 -0.1769 -0.4484  1.0535
 4929SOL    HW226250   2.939   1.968   0.344 -0.9118 -0.4649  0.2181
 4930SOL     OW26251   4.162   2.517   6.815 -0.8424 -0.0344  0.0833
 4930SOL    HW126252   4.160   2.440   6.758  0.1328  0.4153 -0.5517
 4930SOL    HW226253   4.094   2.566   6.769 -0.0494  1.2090  0.2403
 4931SOL     OW26254   2.858   3.370   2.673 -0.2711  0.1595  0.0948
 4931SOL    HW126255   2.791   3.322   2.625  0.2377 -1.1933  0.7414
 4931SOL    HW226256   2.859   3.449   2.619  1.3556 -0.5279 -0.8682
 4932SOL     OW26257   3.278   3.510   4.439  0.0111  0.2272 -0.5100
 4932SOL    HW126258   3.294   3.574   4.369  1.6674 -0.2990 -0.6274
 4932SOL    HW226259   3.314   3.431   4.399  2.5183  0.5770  1.0902
 4933SOL     OW26260   3.072   4.595  15.651  0.1972 -0.8159  0.2273
 4933SOL    HW126261   3.075   4.528  15.719  3.1013 -0.6374  0.2639
 4933SOL    HW226262   3.161   4.586  15.617  0.2710 -0.5234  0.3451
 4934SOL     OW26263   2.746   1.431   6.916 -0.1497  0.7968 -0.2687
 4934SOL    HW126264   2.836   1.399   6.912 -0.2222  0.6879 -0.9860
 4934SOL    HW226265   2.702   1.396   6.839 -2.6822  0.9790  1.0654
 4935SOL     OW26266   2.174   1.650   9.995  0.1395  0.0144  0.4051
 4935SOL    HW126267   2.207   1.680  10.080 -0.3161 -1.3875  1.0818
 4935SOL    HW226268   2.172   1.556  10.010 -0.3709 -0.1106 -0.4644
 4936SOL     OW26269   3.581   2.682   9.918  0.1726 -0.2238 -0.0024
 4936SOL    HW126270   3.535   2.654   9.840 -0.9308 -0.4891  0.7360
 4936SOL    HW226271   3.657   2.722   9.874 -1.3326  0.6070 -1.8205
 4937SOL     OW26272   4.084   2.651  17.671  0.1187 -0.5324 -0.8651
 4937SOL    HW126273   4.117   2.659   0.063 -1.6072 -2.4622 -0.0478
 4937SOL    HW226274   4.046   2.736  17.649  1.2668  0.4185  0.8505
 4938SOL     OW26275   1.180   0.083   7.983  0.3990  0.1218  0.0674
 4938SOL    HW126276   1.190   0.158   7.926 -0.9550 -0.5271 -1.0246
 4938SOL    HW226277   1.089   0.063   7.962 -0.2511  1.0659  2.0080
 4939SOL     OW26278   2.991   1.681  15.513 -0.1018  0.4506  0.2665
 4939SOL    HW126279   2.966   1.680  15.605 -0.9377 -1.2226  0.0211
 4939SOL    HW226280   3.081   1.714  15.514 -0.4602  1.3617  2.0027
 4940SOL     OW26281   3.472   1.709   7.501 -0.1001  0.2113  0.1303
 4940SOL    HW126282   3.560   1.747   7.507 -0.3142  0.5748  0.9046
 4940SOL    HW226283   3.447   1.786   7.451  2.6697  0.5622 -0.7213
 4941SOL     OW26284   4.131   1.780   4.293  0.1717 -0.2223 -0.0381
 4941SOL    HW126285   4.198   1.819   4.237 -0.2002  0.4832  0.0112
 4941SOL    HW226286   4.178   1.743   4.369  0.4321 -1.9958 -1.0531
 4942SOL     OW26287   1.977   4.595  14.650  0.2186  0.3979  0.0192
 4942SOL    HW126288   2.046   4.608  14.585  0.0409  3.2554  0.4323
 4942SOL    HW226289   1.959   4.684  14.678 -1.5538 -0.1835  0.7155
 4943SOL     OW26290   2.854   0.013  13.386  0.3594  0.1885  0.0572
 4943SOL    HW126291   2.902   4.711  13.464  0.1605  0.1761  0.1755
 4943SOL    HW226292   2.904   0.090  13.359  1.3320 -0.3697  0.2868
 4944SOL     OW26293   3.061   2.372   8.797 -0.1975 -0.0149  0.5905
 4944SOL    HW126294   3.143   2.346   8.838 -1.2207 -1.1620  1.8940
 4944SOL    HW226295   3.015   2.288   8.801 -2.3834  1.1594  0.2229
 4945SOL     OW26296   0.319   3.782  12.076 -0.5093 -0.8818  0.3836
 4945SOL    HW126297   0.225   3.766  12.080 -0.9927  2.1425  0.9650
 4945SOL    HW226298   0.328   3.794  11.982 -0.2053  0.1531  0.5418
 4946SOL     OW26299   0.499   1.247  15.934  0.4122 -0.6035  0.4622
 4946SOL    HW126300   0.450   1.212  15.860 -0.2612 -0.5195  0.8728
 4946SOL    HW226301   0.463   1.331  15.963  1.6909  0.4253 -0.8815
 4947SOL     OW26302   0.878   0.400   5.194  0.3074  0.4447 -0.6544
 4947SOL    HW126303   0.945   0.390   5.127  0.3041  0.4535 -0.6591
 4947SOL    HW226304   0.852   0.308   5.190 -1.0451  0.7516  0.8825
 4948SOL     OW26305   0.919   0.690   9.166  0.1784  0.1256 -0.5276
 4948SOL    HW126306   0.904   0.646   9.082  0.6336  0.8861 -1.0118
 4948SOL    HW226307   1.011   0.695   9.194 -0.2452 -0.9884  1.0234
 4949SOL     OW26308   0.152   2.574  15.105 -0.2520 -0.4550  0.2825
 4949SOL    HW126309   0.205   2.584  15.026 -3.0239  1.8984 -1.3202
 4949SOL    HW226310   0.186   2.490  15.135 -2.8854 -1.4680  0.4341
 4950SOL     OW26311   3.172   2.036   9.473 -0.5222 -0.2320 -0.6855
 4950SOL    HW126312   3.217   2.010   9.554 -0.8014  1.3067 -0.0518
 4950SOL    HW226313   3.238   2.012   9.408  1.5448 -0.3764  1.4677
 4951SOL     OW26314   1.388   3.792   6.198  0.1792 -0.5892 -0.3704
 4951SOL    HW126315   1.454   3.742   6.245  0.9406  1.7401  1.0302
 4951SOL    HW226316   1.388   3.756   6.109 -0.2039  1.1269 -1.0581
 4952SOL     OW26317   1.540   3.721  15.676 -0.3787  0.3670 -0.3286
 4952SOL    HW126318   1.629   3.739  15.647 -1.3078  3.5645 -1.1374
 4952SOL    HW226319   1.493   3.686  15.599 -0.6100 -3.1291  1.3945
 4953SOL     OW26320   3.163   0.042   3.072 -0.1457  0.9304  0.6694
 4953SOL    HW126321   3.139   0.010   2.985  0.5495  0.0780  0.7843
 4953SOL    HW226322   3.172   4.681   3.116 -0.4395  1.4273  1.6827
 4954SOL     OW26323   3.452   2.620   6.107  0.0074  0.2385  0.4320
 4954SOL    HW126324   3.489   2.536   6.134 -0.0116 -0.6898 -2.4515
 4954SOL    HW226325   3.529   2.674   6.124  2.5335 -3.5051  0.8084
 4955SOL     OW26326   4.263   3.642  14.177  0.0822 -0.2731  0.3853
 4955SOL    HW126327   4.212   3.715  14.211  0.8054 -0.1413  1.1870
 4955SOL    HW226328   4.208   3.576  14.219 -1.2133  2.5027  3.0758
 4956SOL     OW26329   4.506   4.635   5.174 -0.0346  0.0118 -0.9351
 4956SOL    HW126330   4.567   4.650   5.246  0.0873  0.9041 -1.2191
 4956SOL    HW226331   4.436   4.586   5.218  0.6685  0.9988  1.3012
 4957SOL     OW26332   3.416   2.996   8.899  0.0180 -0.4623 -0.1069
 4957SOL    HW126333   3.412   2.997   8.803  1.1825 -1.8578 -0.1706
 4957SOL    HW226334   3.474   2.919   8.905 -0.5608 -0.8073  0.9557
 4958SOL     OW26335   0.619   0.013   5.068  0.1502  0.3585  0.1526
 4958SOL    HW126336   0.678   0.070   5.117  0.7172  0.1957 -0.3283
 4958SOL    HW226337   0.540   0.064   5.053  0.5555  0.7714 -0.5588
 4959SOL     OW26338   4.520   2.066   4.502  0.2090  0.8124  0.1237
 4959SOL    HW126339   4.475   2.010   4.565  0.0344  0.0071 -0.7014
 4959SOL    HW226340   4.604   2.061   4.547  0.8096  0.1841 -1.0591
 4960SOL     OW26341   3.894   2.758  16.426 -0.4563  0.3958  0.6676
 4960SOL    HW126342   3.853   2.701  16.361  1.3030 -0.1296  0.0248
 4960SOL    HW226343   3.815   2.797  16.464  0.1503  1.8036  0.4861
 4961SOL     OW26344   2.560   3.486   2.281  0.0604 -0.1163 -0.3099
 4961SOL    HW126345   2.610   3.404   2.286  1.0884  0.4583 -1.2372
 4961SOL    HW226346   2.590   3.512   2.194  0.4525  1.6530  0.3581
 4962SOL     OW26347   2.770   0.734   8.332  0.0846 -0.3812  0.7290
 4962SOL    HW126348   2.757   0.829   8.332  1.9688 -0.1396  1.4381
 4962SOL    HW226349   2.707   0.723   8.403 -0.9671 -0.0822 -0.1497
 4963SOL     OW26350   0.327   1.108   3.928 -0.1638  0.6727  0.1002
 4963SOL    HW126351   0.372   1.027   3.953  0.2480  0.3034 -1.7773
 4963SOL    HW226352   0.277   1.118   4.008 -1.0047  0.1634 -0.3644
 4964SOL     OW26353   2.777   1.809   4.051 -0.3940 -0.1810  0.2604
 4964SOL    HW126354   2.688   1.842   4.037  0.0144  0.5034 -0.7052
 4964SOL    HW226355   2.746   1.736   4.104 -0.3609  1.2363  2.2299
 4965SOL     OW26356   2.695   2.772   5.245 -0.0422 -0.1389  0.4944
 4965SOL    HW126357   2.690   2.681   5.217 -1.7823  0.7137 -2.0323
 4965SOL    HW226358   2.757   2.773   5.317  1.1764  1.4950 -0.5822
 4966SOL     OW26359   2.282   1.763   4.985 -0.1093 -0.3368  0.0940
 4966SOL    HW126360   2.339   1.737   5.058 -0.1476  3.4002  1.4669
 4966SOL    HW226361   2.226   1.685   4.986  0.2750 -0.6217 -0.5732
 4967SOL     OW26362   1.491   2.778  12.590  0.3424 -0.3503 -0.7234
 4967SOL    HW126363   1.525   2.861  12.556 -1.3843  0.0844 -1.4093
 4967SOL    HW226364   1.568   2.724  12.605  0.5734 -0.5577 -2.6882
 4968SOL     OW26365   2.561   3.440   8.203 -0.2089  0.3536 -0.2269
 4968SOL    HW126366   2.598   3.528   8.206 -0.7794  0.5166  1.9264
 4968SOL    HW226367   2.540   3.428   8.296  0.8271  1.4905  0.1472
 4969SOL     OW26368   3.579   4.294   9.359 -0.1407  0.3057 -0.5260
 4969SOL    HW126369   3.506   4.351   9.335 -0.0462  1.8114  2.7967
 4969SOL    HW226370   3.555   4.211   9.317 -1.9236  0.7532 -0.3955
 4970SOL     OW26371   3.968   2.421   3.627  0.0082  0.1303 -0.5737
 4970SOL    HW126372   4.052   2.408   3.672 -0.5952 -0.2528  0.4173
 4970SOL    HW226373   3.985   2.487   3.559  0.8069  2.1671  1.6237
 4971SOL     OW26374   4.384   1.208  17.084  0.0928  0.3254  0.0246
 4971SOL    HW126375   4.407   1.116  17.074 -3.1000 -0.2501 -2.0886
 4971SOL    HW226376   4.437   1.252  17.018 -0.3134 -0.9621 -1.1677
 4972SOL     OW26377   2.984   3.971   3.577  0.4566 -0.3425 -0.0904
 4972SOL    HW126378   3.050   3.903   3.560 -1.5423 -2.0539 -1.0295
 4972SOL    HW226379   2.941   3.923   3.648  0.8029  1.2948  1.2179
 4973SOL     OW26380   0.234   1.519   0.843 -0.2560  0.4770 -0.0529
 4973SOL    HW126381   0.194   1.431   0.844 -1.5891  1.1144  2.2139
 4973SOL    HW226382   0.325   1.501   0.866 -0.4785 -0.0886  0.3869
 4974SOL     OW26383   0.802   2.064   2.483 -0.2473 -0.3332 -0.0336
 4974SOL    HW126384   0.715   2.102   2.499 -0.3527 -1.1343  1.2847
 4974SOL    HW226385   0.822   2.123   2.409 -1.9442 -1.0179 -1.0529
 4975SOL     OW26386   1.802   2.243  16.932 -0.0028 -0.9212 -0.2437
 4975SOL    HW126387   1.758   2.267  17.014 -1.5219  0.9891 -1.6105
 4975SOL    HW226388   1.888   2.264  16.968 -0.3473 -1.2007  0.7535
 4976SOL     OW26389   0.268   0.647   5.312  0.6700 -0.4313  0.5353
 4976SOL    HW126390   0.237   0.560   5.338 -2.1652  0.1849 -0.7809
 4976SOL    HW226391   0.188   0.697   5.329  1.2712  1.0452 -0.9355
 4977SOL     OW26392   1.927   0.411   4.637  0.9755 -0.0083  0.4170
 4977SOL    HW126393   1.837   0.381   4.650  0.2341  0.8503 -2.5649
 4977SOL    HW226394   1.897   0.499   4.614 -1.1082 -0.3925  1.6863
 4978SOL     OW26395   0.526   3.152  16.492 -0.2365  0.0348  0.7230
 4978SOL    HW126396   0.590   3.175  16.559  1.1539 -0.0511 -0.5636
 4978SOL    HW226397   0.554   3.061  16.480 -0.8584 -0.2624  1.5863
 4979SOL     OW26398   0.444   0.999   6.946  0.8486  0.1095 -0.2478
 4979SOL    HW126399   0.514   0.975   7.007  1.0395  0.0093 -0.5061
 4979SOL    HW226400   0.412   0.910   6.929 -1.1593  0.4512  1.6692
 4980SOL     OW26401   0.165   2.411  14.728  0.2086  0.6637 -0.6019
 4980SOL    HW126402   0.206   2.442  14.647  0.2283 -1.3182 -1.3596
 4980SOL    HW226403   0.229   2.348  14.761  0.0737  1.0654  0.4401
 4981SOL     OW26404   1.627   0.778   6.823  0.6088  0.4917 -0.6539
 4981SOL    HW126405   1.702   0.833   6.846  2.0907 -0.3568 -3.4487
 4981SOL    HW226406   1.648   0.727   6.744  3.7083 -0.9422  1.0884
 4982SOL     OW26407   0.102   1.719   5.174 -0.4860  0.3461 -0.4177
 4982SOL    HW126408   0.078   1.743   5.264  0.9778  4.4573 -1.1322
 4982SOL    HW226409   0.044   1.644   5.161 -0.7391  0.4312  0.1954
 4983SOL     OW26410   1.178   1.582   9.668 -0.1094  0.1988  0.5583
 4983SOL    HW126411   1.260   1.565   9.714  1.9184  0.2024 -3.0341
 4983SOL    HW226412   1.190   1.665   9.621 -1.2264  0.7437  1.2500
 4984SOL     OW26413   1.667   1.041   7.164  0.3202  0.0356 -0.0621
 4984SOL    HW126414   1.624   1.099   7.101  1.2484  1.3200  0.4991
 4984SOL    HW226415   1.724   1.108   7.202  1.5292 -0.8232 -0.3559
 4985SOL     OW26416   1.659   3.360   0.388 -0.0809  0.0387  0.2592
 4985SOL    HW126417   1.666   3.403   0.473  0.7791  0.7636 -0.1686
 4985SOL    HW226418   1.580   3.396   0.348 -0.2903 -0.0306  0.6105
 4986SOL     OW26419   0.535   3.185  10.898  0.5977  0.2042 -0.4255
 4986SOL    HW126420   0.625   3.159  10.918  1.3619  1.8860 -1.7029
 4986SOL    HW226421   0.547   3.188  10.803  2.2328  0.6113 -0.2045
 4987SOL     OW26422   2.212   3.337   6.168  0.1446  0.1397 -0.4241
 4987SOL    HW126423   2.244   3.328   6.078  3.7170 -1.4911  1.0067
 4987SOL    HW226424   2.118   3.340   6.151  0.0142 -0.2211  0.2519
 4988SOL     OW26425   3.998   3.088   4.980  0.4232 -0.2790 -0.7252
 4988SOL    HW126426   3.971   3.017   5.039  2.7186  0.0465  0.7125
 4988SOL    HW226427   4.089   3.093   5.007  0.2051  1.4367 -0.3457
 4989SOL     OW26428   2.918   0.885   5.819 -0.0488 -0.4298  0.1632
 4989SOL    HW126429   2.878   0.843   5.743  0.3320  1.0265 -0.8399
 4989SOL    HW226430   2.987   0.927   5.767  2.2779 -3.2267  0.9841
 4990SOL     OW26431   3.028   3.698   8.508 -0.2270 -0.3698 -0.0304
 4990SOL    HW126432   3.053   3.609   8.483  1.7785  0.1623  0.0820
 4990SOL    HW226433   3.106   3.719   8.560 -0.1057  0.7985 -0.6854
 4991SOL     OW26434   1.859   3.423   7.443  0.1665 -0.4987 -0.0070
 4991SOL    HW126435   1.916   3.499   7.437  0.2402 -0.4459  1.2063
 4991SOL    HW226436   1.894   3.372   7.517 -1.6540 -2.0209 -0.2034
 4992SOL     OW26437   2.119   2.395  16.199 -0.2144 -0.0363  0.2394
 4992SOL    HW126438   2.106   2.473  16.254  0.2736  0.1709  0.0580
 4992SOL    HW226439   2.191   2.347  16.239 -0.4295 -0.1871  0.4445
 4993SOL     OW26440   3.197   3.585   0.754 -0.9038 -0.0910 -0.1082
 4993SOL    HW126441   3.109   3.588   0.791 -1.1641  2.1833 -0.8839
 4993SOL    HW226442   3.222   3.677   0.763 -3.0725  0.2591  2.3133
 4994SOL     OW26443   0.624   2.312   4.941  0.1732 -0.1768  0.3146
 4994SOL    HW126444   0.669   2.295   4.858 -0.9648  0.0822 -0.3599
 4994SOL    HW226445   0.538   2.288   4.907  0.3957 -0.2201 -0.2125
 4995SOL     OW26446   3.313   1.674   5.766 -0.5739  0.1931 -0.1875
 4995SOL    HW126447   3.371   1.605   5.799 -0.7707 -0.4084 -1.0872
 4995SOL    HW226448   3.337   1.750   5.818  0.9005  1.3408 -2.5287
 4996SOL     OW26449   3.533   4.137   4.235 -0.1392 -0.3975  0.2182
 4996SOL    HW126450   3.438   4.129   4.231 -0.0704 -1.0976  0.0984
 4996SOL    HW226451   3.544   4.086   4.315 -0.6594 -1.4532 -0.3955
 4997SOL     OW26452   4.016   2.482   2.960  0.1480 -0.3119  0.1214
 4997SOL    HW126453   4.008   2.446   3.049 -0.2626  0.6085  0.4532
 4997SOL    HW226454   4.110   2.468   2.943 -0.1788 -0.9296 -1.1848
 4998SOL     OW26455   0.398   2.742   3.942  0.0885 -0.3513  0.2148
 4998SOL    HW126456   0.415   2.656   3.904  0.6291 -0.2969  0.3367
 4998SOL    HW226457   0.490   2.765   3.956  0.6750 -0.7714 -2.9038
 4999SOL     OW26458   4.704   2.538   9.083  0.1935  0.0346 -0.6399
 4999SOL    HW126459   0.061   2.556   9.132 -0.7010 -0.9933  1.2275
 4999SOL    HW226460   4.665   2.621   9.110 -0.7459 -0.5233 -0.2861
 5000SOL     OW26461   2.042   1.378   2.326 -0.3094 -0.0378 -0.4486
 5000SOL    HW126462   1.982   1.323   2.274  0.5852 -0.0730 -1.4439
 5000SOL    HW226463   2.018   1.358   2.416  0.3060 -1.8176 -0.6760
 5001SOL     OW26464   1.550   0.788  13.020  0.3416  0.0272 -0.1468
 5001SOL    HW126465   1.605   0.865  13.034  1.5923 -1.0148  0.7210
 5001SOL    HW226466   1.609   0.735  12.967  0.7032 -0.8138  1.1012
 5002SOL     OW26467   1.928   1.326   2.571  0.1271 -0.1319  0.5771
 5002SOL    HW126468   1.884   1.394   2.624  0.3108 -2.1470  3.3146
 5002SOL    HW226469   1.862   1.257   2.577 -0.8544  0.8839  1.5614
 5003SOL     OW26470   3.491   3.857  13.400 -0.0867 -0.6441 -0.0615
 5003SOL    HW126471   3.513   3.825  13.312  0.3899  0.3138 -0.2826
 5003SOL    HW226472   3.578   3.867  13.438 -0.4936 -0.2976  0.7764
 5004SOL     OW26473   2.654   3.220   8.401 -0.1693 -0.3457 -0.9210
 5004SOL    HW126474   2.725   3.279   8.377  0.8554 -0.6093  1.5135
 5004SOL    HW226475   2.655   3.238   8.494  0.5360  1.7160 -1.3368
 5005SOL     OW26476   0.851   1.405  14.389 -0.1641  0.0170 -0.3973
 5005SOL    HW126477   0.761   1.428  14.412 -0.0452 -0.8105  0.8403
 5005SOL    HW226478   0.907   1.478  14.414  0.9295 -1.1774  0.5999
 5006SOL     OW26479   2.980   1.934   0.877  0.0954  0.3519 -0.0346
 5006SOL    HW126480   2.900   1.883   0.883  0.3537 -0.1964 -1.2290
 5006SOL    HW226481   2.976   1.947   0.782 -0.2348  0.8007  0.0403
 5007SOL     OW26482   1.422   2.934   4.622 -0.5913  0.1616  0.3835
 5007SOL    HW126483   1.420   2.984   4.704 -0.5948  0.1349  0.3997
 5007SOL    HW226484   1.349   2.964   4.569  0.4624 -2.3433 -2.4824
 5008SOL     OW26485   3.998   3.022   8.022  0.3032 -0.0710  0.1106
 5008SOL    HW126486   4.019   2.946   8.078  1.6802 -0.5125 -1.0138
 5008SOL    HW226487   4.071   3.028   7.960 -1.0150  1.1238 -1.3170
 5009SOL     OW26488   2.870   3.969   9.288 -0.1566 -0.4011 -0.1292
 5009SOL    HW126489   2.859   4.029   9.215  1.1304 -1.3186 -1.0826
 5009SOL    HW226490   2.837   4.024   9.359 -0.1269 -0.8471  0.2358
 5010SOL     OW26491   0.143   3.789  12.659 -0.2356  0.5325  0.0837
 5010SOL    HW126492   0.146   3.724  12.729 -0.7897 -0.7130 -1.0365
 5010SOL    HW226493   0.159   3.745  12.575 -1.0444  2.6307 -1.1828
 5011SOL     OW26494   3.528   0.639   9.077 -0.1311  0.0066  0.7167
 5011SOL    HW126495   3.537   0.680   8.991  0.3344 -0.7494  0.4044
 5011SOL    HW226496   3.529   0.717   9.133 -0.1581  0.2624  0.3616
 5012SOL     OW26497   1.228   0.281   7.802  0.0940  0.5039 -0.2118
 5012SOL    HW126498   1.272   0.351   7.754  0.8174  0.3350  0.2048
 5012SOL    HW226499   1.149   0.278   7.747  0.9813 -0.4228 -1.4435
 5013SOL     OW26500   1.275   0.702   0.204 -0.8691  0.1571  0.0114
 5013SOL    HW126501   1.241   0.717   0.292  0.7997 -0.3714  0.7503
 5013SOL    HW226502   1.350   0.644   0.220 -1.3945 -0.6235 -0.3243
 5014SOL     OW26503   3.826   1.156   4.565  0.5642  0.1136  0.3766
 5014SOL    HW126504   3.773   1.080   4.585 -0.2334 -0.1156 -2.5890
 5014SOL    HW226505   3.814   1.219   4.636  1.9054  0.5930  0.1871
 5015SOL     OW26506   2.047   0.033   4.514 -0.8521 -0.1957 -0.2112
 5015SOL    HW126507   2.114   0.023   4.581 -1.0767  2.4193  0.4061
 5015SOL    HW226508   1.994   0.095   4.564  1.6635 -0.9515  3.3909
 5016SOL     OW26509   4.363   3.556   0.188 -0.0810 -0.1247 -0.0708
 5016SOL    HW126510   4.370   3.642   0.147 -0.0129  0.4960  1.2471
 5016SOL    HW226511   4.327   3.503   0.117 -0.4744  2.2158 -1.6393
 5017SOL     OW26512   4.427   1.430   6.234 -0.0674  0.4775  0.3333
 5017SOL    HW126513   4.407   1.468   6.320  0.0537  1.0223  0.1201
 5017SOL    HW226514   4.511   1.386   6.250 -0.9694 -1.2645  0.2942
 5018SOL     OW26515   4.057   3.607   2.037 -0.0402 -0.2729  0.2763
 5018SOL    HW126516   4.044   3.512   2.039  1.3525 -0.4619  0.8716
 5018SOL    HW226517   4.143   3.612   1.996 -0.7491 -1.6028 -1.3786
 5019SOL     OW26518   4.537   2.759   1.981  0.0666 -0.1359 -0.5303
 5019SOL    HW126519   4.619   2.715   2.002  1.1300  1.1920 -1.9365
 5019SOL    HW226520   4.537   2.746   1.886 -0.5876  2.7763 -0.9102
 5020SOL     OW26521   4.513   2.055  17.041  0.1187 -0.7363  0.0464
 5020SOL    HW126522   4.482   2.002  17.115  0.7614  1.4987  1.9159
 5020SOL    HW226523   4.436   2.106  17.018  0.7263  0.1263 -0.0719
 5021SOL     OW26524   3.064   3.009  12.632  0.3519 -0.2213  0.1411
 5021SOL    HW126525   2.975   3.044  12.626 -0.3391 -1.5554  2.5506
 5021SOL    HW226526   3.112   3.090  12.613  0.3694  0.0100  1.2007
 5022SOL     OW26527   3.146   2.331   4.620 -0.0094 -0.9271  0.1217
 5022SOL    HW126528   3.176   2.250   4.578  1.2483 -0.4439  0.0663
 5022SOL    HW226529   3.178   2.399   4.560 -1.2076 -2.5120 -2.2943
 5023SOL     OW26530   0.800   4.547   4.899  0.1075 -0.7154  0.0351
 5023SOL    HW126531   0.804   4.593   4.815  0.6731 -0.7266  0.0545
 5023SOL    HW226532   0.758   4.612   4.955 -1.1206 -0.1613 -1.5263
 5024SOL     OW26533   4.436   1.304   7.216 -0.0191  0.2308 -0.7410
 5024SOL    HW126534   4.422   1.244   7.143 -0.1572  0.8746 -1.2389
 5024SOL    HW226535   4.525   1.337   7.205 -0.4148  1.4288 -0.4207
 5025SOL     OW26536   4.570   0.629   3.261  0.0171  0.4933 -0.6148
 5025SOL    HW126537   4.575   0.581   3.178  0.8178 -0.9000  0.2315
 5025SOL    HW226538   4.478   0.624   3.283  0.7023  0.4314  2.1389
 5026SOL     OW26539   3.807   0.840   8.755 -0.3707  0.5263 -0.2040
 5026SOL    HW126540   3.842   0.812   8.839 -2.9441 -0.3686  0.5940
 5026SOL    HW226541   3.849   0.924   8.738  0.0700 -0.0344 -1.9069
 5027SOL     OW26542   3.010   4.606  12.307  0.6041  0.0515 -0.0917
 5027SOL    HW126543   2.969   4.684  12.346  1.2236  0.5339 -0.4137
 5027SOL    HW226544   3.064   4.588  12.384 -0.7867 -1.1528  0.6083
 5028SOL     OW26545   4.094   4.507   6.056 -0.6077  0.4493 -0.4363
 5028SOL    HW126546   4.149   4.544   5.987  0.3328  0.0240  0.0774
 5028SOL    HW226547   4.144   4.548   6.127 -0.4668  0.7331 -0.6992
 5029SOL     OW26548   2.371   1.791   7.888 -0.4208 -0.0279  0.1900
 5029SOL    HW126549   2.457   1.827   7.869 -0.6094 -0.3759 -1.3020
 5029SOL    HW226550   2.340   1.798   7.798  2.2979 -2.4065 -0.9028
 5030SOL     OW26551   1.242   1.471   8.829 -0.6088 -0.1516 -0.0586
 5030SOL    HW126552   1.303   1.531   8.873 -2.8499  1.9416  0.1756
 5030SOL    HW226553   1.216   1.419   8.905  1.8406  0.1837  1.0258
 5031SOL     OW26554   2.514   1.976   4.596 -0.1772 -0.4963 -0.3799
 5031SOL    HW126555   2.545   2.066   4.589  3.1931 -1.7122 -1.5492
 5031SOL    HW226556   2.436   1.971   4.652  1.1907  1.4499  1.6969
 5032SOL     OW26557   3.441   2.462   4.030  0.0895  0.9997 -0.3685
 5032SOL    HW126558   3.450   2.395   3.962  3.6888  1.8853 -0.7432
 5032SOL    HW226559   3.358   2.507   4.012 -1.0356 -1.5015 -1.5371
 5033SOL     OW26560   1.696   3.553   8.683 -0.1932  0.2322 -0.3730
 5033SOL    HW126561   1.625   3.490   8.667 -0.1208 -0.0698  0.4515
 5033SOL    HW226562   1.675   3.608   8.759 -2.2008  1.0919 -1.5305
 5034SOL     OW26563   3.280   0.234   6.234  0.3921 -0.1351 -0.0947
 5034SOL    HW126564   3.200   0.276   6.266  1.4654  1.3156  0.6905
 5034SOL    HW226565   3.251   0.197   6.151 -0.0691 -0.4198  0.1956
 5035SOL     OW26566   1.173   0.334   3.898 -0.0354 -0.0571 -0.1849
 5035SOL    HW126567   1.221   0.276   3.956 -0.8722 -0.5263  0.0194
 5035SOL    HW226568   1.245   0.346   3.836 -0.2459 -2.4694 -0.9017
 5036SOL     OW26569   3.078   2.614   6.731  0.0389  0.6389  0.3073
 5036SOL    HW126570   3.135   2.621   6.654  0.7055 -0.7774  0.6709
 5036SOL    HW226571   3.106   2.535   6.777 -1.2156  0.2679  0.4152
 5037SOL     OW26572   1.833   1.935   6.385  0.7399 -0.4132 -0.7952
 5037SOL    HW126573   1.755   1.978   6.422  0.6727 -0.6207 -0.6954
 5037SOL    HW226574   1.907   1.994   6.402  0.2724 -0.5629  1.7914
 5038SOL     OW26575   0.600   4.568   8.028  0.1705 -0.1201 -0.0299
 5038SOL    HW126576   0.582   4.661   8.040  1.3433 -0.0731  1.3910
 5038SOL    HW226577   0.540   4.526   8.089 -0.5211  1.2806  0.2578
 5039SOL     OW26578   4.653   2.390   6.546 -0.4205 -0.4940 -0.2168
 5039SOL    HW126579   0.017   2.361   6.522  0.1075  0.5724  0.4276
 5039SOL    HW226580   4.670   2.444   6.624  1.5481 -0.3323 -0.7607
 5040SOL     OW26581   2.774   2.071   2.910  0.3677  0.3940 -0.2082
 5040SOL    HW126582   2.844   2.076   2.976 -0.9051 -1.3492  1.2893
 5040SOL    HW226583   2.706   2.127   2.946  2.1894  1.6757  1.2621
 5041SOL     OW26584   4.006   3.181   1.598 -0.2284  0.1880 -1.0656
 5041SOL    HW126585   4.032   3.248   1.661 -0.5553  0.5673 -1.3344
 5041SOL    HW226586   4.091   3.170   1.555 -0.4265  0.4272 -1.5214
 5042SOL     OW26587   1.670   1.329  14.184  0.1913 -0.5557 -0.8876
 5042SOL    HW126588   1.759   1.297  14.202  0.2082  0.0166  0.0182
 5042SOL    HW226589   1.620   1.254  14.217  2.1506 -1.3052  0.4437
 5043SOL     OW26590   3.143   3.751  14.446  0.2261  0.3629 -0.5016
 5043SOL    HW126591   3.105   3.703  14.373  1.0185 -0.4568 -0.3730
 5043SOL    HW226592   3.067   3.746  14.504  0.7079 -1.9669 -0.0786
 5044SOL     OW26593   3.013   3.251   9.206 -0.5460  0.2434 -0.1380
 5044SOL    HW126594   2.968   3.335   9.220  2.1852  1.5449  0.8241
 5044SOL    HW226595   3.092   3.253   9.259 -2.3587 -2.0395  2.6299
 5045SOL     OW26596   2.436   0.638  16.206 -0.6477  0.1031  0.4060
 5045SOL    HW126597   2.394   0.708  16.156 -0.2481  0.6195  0.7964
 5045SOL    HW226598   2.441   0.670  16.296 -1.9894  1.3121  0.0483
 5046SOL     OW26599   2.724   3.914   7.670  0.5714 -0.3066 -0.6368
 5046SOL    HW126600   2.693   3.996   7.709  1.3394 -0.8920  1.1848
 5046SOL    HW226601   2.684   3.916   7.583  0.2668  0.6468 -0.4776
 5047SOL     OW26602   1.453   2.771   2.221 -0.7844 -0.1436 -0.2829
 5047SOL    HW126603   1.444   2.723   2.138 -1.8373 -0.1583 -0.1606
 5047SOL    HW226604   1.412   2.850   2.187  1.7936 -0.6185 -4.4570
 5048SOL     OW26605   0.614   1.701   7.965  0.3184 -0.3007 -0.2560
 5048SOL    HW126606   0.675   1.770   7.990 -0.3054  0.1303  0.0943
 5048SOL    HW226607   0.603   1.644   8.042 -0.5993 -0.6005 -0.6020
 5049SOL     OW26608   2.887   3.515   3.628 -0.2664 -0.2831  0.0612
 5049SOL    HW126609   2.804   3.467   3.634 -0.4959  0.3125  1.8666
 5049SOL    HW226610   2.851   3.572   3.560  1.1200  1.4674  0.7905
 5050SOL     OW26611   0.958   0.952   5.030 -0.2169 -0.0864  0.3411
 5050SOL    HW126612   0.895   1.024   5.034  1.6860  1.5682  0.4955
 5050SOL    HW226613   0.993   0.966   4.942 -3.0116 -1.2839 -0.9319
 5051SOL     OW26614   2.725   4.170   2.546 -0.4204  0.2949 -0.3831
 5051SOL    HW126615   2.816   4.171   2.576 -0.3176  0.5086 -0.7048
 5051SOL    HW226616   2.700   4.259   2.571 -1.8392 -0.1521 -0.2184
 5052SOL     OW26617   1.814   4.374  14.368  1.2213  0.2362 -0.1840
 5052SOL    HW126618   1.782   4.400  14.454 -2.3812 -1.6590 -0.9743
 5052SOL    HW226619   1.909   4.371  14.378  1.0552  1.2095  1.5275
 5053SOL     OW26620   1.776   0.154   8.345  0.5785 -0.1367  0.2679
 5053SOL    HW126621   1.748   0.180   8.257  1.4644 -0.2438 -0.0458
 5053SOL    HW226622   1.709   0.088   8.364  0.5645 -0.4195 -0.7891
 5054SOL     OW26623   0.310   3.793  10.852  0.9087 -0.2938  0.2620
 5054SOL    HW126624   0.355   3.852  10.913  0.9895 -1.0289  0.9245
 5054SOL    HW226625   0.225   3.780  10.895  0.2459 -0.0887 -0.9956
 5055SOL     OW26626   0.938   3.681   5.759 -0.3394 -0.0851 -0.2722
 5055SOL    HW126627   0.946   3.693   5.664  1.2217 -0.3656 -0.1786
 5055SOL    HW226628   0.848   3.706   5.777 -0.6306 -2.7547  2.0094
 5056SOL     OW26629   4.039   2.250   7.857 -0.2286 -0.4468 -0.1467
 5056SOL    HW126630   4.072   2.332   7.893  0.0963 -0.1794 -1.0407
 5056SOL    HW226631   4.014   2.204   7.937 -3.3408 -0.4163 -1.1149
 5057SOL     OW26632   1.697   3.868   1.947 -0.1993  0.0606 -0.1224
 5057SOL    HW126633   1.646   3.787   1.949  0.7883 -0.5501  1.0203
 5057SOL    HW226634   1.784   3.828   1.958  0.3928  1.9983  2.4151
 5058SOL     OW26635   0.756   0.709  13.219 -0.2773 -0.4869  0.3364
 5058SOL    HW126636   0.769   0.773  13.149  0.1686 -0.0034  0.8562
 5058SOL    HW226637   0.660   0.703  13.227  0.1076 -2.3157  3.3808
 5059SOL     OW26638   2.202   4.475  16.486  0.2231  0.0862  0.1133
 5059SOL    HW126639   2.116   4.496  16.451  0.3932 -0.8947 -0.9087
 5059SOL    HW226640   2.215   4.546  16.549 -0.1062 -0.8959  1.2935
 5060SOL     OW26641   2.440   1.840   8.797 -0.2149  0.3197 -0.3548
 5060SOL    HW126642   2.404   1.751   8.798 -0.2565  0.3427  0.1237
 5060SOL    HW226643   2.361   1.890   8.818 -1.3638 -2.4210  1.8030
 5061SOL     OW26644   1.618   3.722   0.005 -0.2721  0.0167 -0.6548
 5061SOL    HW126645   1.690   3.745  17.643  0.8383 -0.1628  0.5970
 5061SOL    HW226646   1.590   3.809   0.032 -0.0562 -0.6007  1.5470
 5062SOL     OW26647   2.119   1.515   6.977 -0.3244  0.2877  0.2739
 5062SOL    HW126648   2.197   1.479   6.936 -0.4367 -1.0003  1.1878
 5062SOL    HW226649   2.061   1.527   6.902 -1.0363  0.8961  0.9247
 5063SOL     OW26650   4.603   0.180   9.600 -0.0086  0.3620  0.0878
 5063SOL    HW126651   4.550   0.248   9.558  0.7479  1.3225  0.6848
 5063SOL    HW226652   4.596   0.227   9.684  1.7000 -0.6078  0.7755
 5064SOL     OW26653   0.190   3.426   3.846  0.1718 -0.3563 -0.5446
 5064SOL    HW126654   0.169   3.355   3.905  2.5658  0.3425  1.1193
 5064SOL    HW226655   0.152   3.503   3.889  0.3682 -2.1657  2.8512
 5065SOL     OW26656   4.264   0.232   4.788  0.2657  0.0395 -0.6613
 5065SOL    HW126657   4.222   0.294   4.847 -0.8393 -0.1405 -1.2531
 5065SOL    HW226658   4.341   0.195   4.830 -0.8737 -2.0131 -0.3608
 5066SOL     OW26659   4.018   3.287  15.399 -0.5115 -0.0917 -0.0637
 5066SOL    HW126660   3.948   3.351  15.387 -1.1750 -0.3040  2.6599
 5066SOL    HW226661   4.064   3.318  15.477 -1.6760 -1.3459  1.1403
 5067SOL     OW26662   1.364   0.795   1.054 -0.6226  0.3338 -0.0385
 5067SOL    HW126663   1.335   0.876   1.011 -0.4241 -0.6163 -1.9488
 5067SOL    HW226664   1.282   0.775   1.100  0.0331  0.4891  1.2058
 5068SOL     OW26665   4.449   1.803  13.909 -0.0891 -0.3659  0.0905
 5068SOL    HW126666   4.444   1.757  13.825 -2.9068 -1.0168  0.6150
 5068SOL    HW226667   4.372   1.858  13.898 -0.7380 -1.1704  0.6073
 5069SOL     OW26668   2.385   0.133   9.684 -0.0301  0.1927 -0.5202
 5069SOL    HW126669   2.332   0.206   9.714  1.3596 -0.3645  3.2701
 5069SOL    HW226670   2.465   0.181   9.665  0.0799  0.4481  0.6306
 5070SOL     OW26671   1.017   3.582   9.990 -0.4320 -0.1794 -0.1892
 5070SOL    HW126672   0.971   3.500   9.970  0.1620 -0.5911  0.1269
 5070SOL    HW226673   1.039   3.626   9.908  1.4741  4.5575  2.8664
 5071SOL     OW26674   4.624   0.530   3.513  0.3135  0.0901 -0.5203
 5071SOL    HW126675   4.576   0.529   3.431 -2.7930 -2.3165  1.3081
 5071SOL    HW226676   4.697   0.480   3.477  0.4758 -0.9324  1.2367
 5072SOL     OW26677   2.859   2.545   4.813 -0.1420  0.3196 -0.3267
 5072SOL    HW126678   2.874   2.459   4.773 -1.8141 -0.3199  0.4347
 5072SOL    HW226679   2.862   2.511   4.902  2.4989  0.4277 -0.3850
 5073SOL     OW26680   0.560   1.646   6.798 -0.5603 -0.8516 -0.0815
 5073SOL    HW126681   0.607   1.594   6.863 -0.6702 -0.9806 -0.1047
 5073SOL    HW226682   0.548   1.729   6.845  0.4617 -0.1295 -1.1137
 5074SOL     OW26683   2.756   2.640   6.177 -0.4064 -0.3436  0.0135
 5074SOL    HW126684   2.759   2.639   6.082  2.7086 -3.5774  0.1805
 5074SOL    HW226685   2.791   2.728   6.194  0.3924 -0.9583  1.6286
 5075SOL     OW26686   4.250   4.200   8.862 -0.1485 -0.0305 -0.0062
 5075SOL    HW126687   4.249   4.119   8.914  0.9224 -0.4829 -0.6685
 5075SOL    HW226688   4.165   4.238   8.881 -0.9733 -0.3637 -3.0439
 5076SOL     OW26689   3.876   3.760  13.743 -0.1676 -0.0594  0.3765
 5076SOL    HW126690   3.909   3.775  13.654 -1.2833 -0.1448 -0.0539
 5076SOL    HW226691   3.839   3.672  13.736  0.0213 -0.1542  0.5661
 5077SOL     OW26692   2.598   2.406   9.191  0.4206 -0.0102  0.4727
 5077SOL    HW126693   2.560   2.486   9.227 -0.8271 -0.2552 -0.3008
 5077SOL    HW226694   2.662   2.437   9.127 -1.1018  1.1069 -0.5037
 5078SOL     OW26695   1.078   2.366   3.797  0.9427  0.0536  0.1209
 5078SOL    HW126696   1.166   2.348   3.764  0.9778  0.1985  0.1390
 5078SOL    HW226697   1.072   2.460   3.783  2.6604  0.3698  1.5642
 5079SOL     OW26698   0.137   2.059  14.516  0.1985  0.2817 -0.8662
 5079SOL    HW126699   0.067   2.000  14.489 -0.9295  1.1735  0.1013
 5079SOL    HW226700   0.090   2.125  14.566  1.4064 -0.8791  1.7655
 5080SOL     OW26701   0.391   2.944   3.460 -0.1414 -0.7334  0.1775
 5080SOL    HW126702   0.353   2.978   3.379 -1.8316  0.3601  1.4287
 5080SOL    HW226703   0.316   2.949   3.519 -0.6216  0.7207 -0.5350
 5081SOL     OW26704   1.843   1.330   3.871  0.3223  0.1881  0.3659
 5081SOL    HW126705   1.923   1.329   3.923  0.8435 -0.7960 -0.4568
 5081SOL    HW226706   1.876   1.300   3.786 -0.8472 -2.0895  0.7400
 5082SOL     OW26707   1.897   4.528   8.339 -0.0340 -0.4058 -0.1283
 5082SOL    HW126708   1.860   4.604   8.384  1.4378  1.0754 -1.4300
 5082SOL    HW226709   1.834   4.530   8.267 -2.5001 -0.4659  2.0409
 5083SOL     OW26710   1.677   3.675   5.916  0.1241  0.4050  0.4886
 5083SOL    HW126711   1.583   3.660   5.924 -0.0898  0.1041 -2.4712
 5083SOL    HW226712   1.696   3.732   5.990  0.5649  1.9532 -0.7959
 5084SOL     OW26713   1.497   0.724  16.424 -0.3525 -0.1793 -0.4350
 5084SOL    HW126714   1.488   0.687  16.512 -1.8678  0.1111 -0.4590
 5084SOL    HW226715   1.510   0.813  16.455  0.7351 -0.0151 -1.3853
 5085SOL     OW26716   4.695   3.187   2.757  0.2242  0.1586  0.1996
 5085SOL    HW126717   4.678   3.177   2.851  2.0486  0.4963  0.5642
 5085SOL    HW226718   4.662   3.272   2.730  0.1542  0.2099  0.4487
 5086SOL     OW26719   0.871   1.413  15.790 -0.1377  0.9646  0.5920
 5086SOL    HW126720   0.793   1.468  15.788 -1.5617 -1.0491  0.8626
 5086SOL    HW226721   0.913   1.438  15.708  1.1862  1.8468  1.5170
 5087SOL     OW26722   4.050   1.116   8.956  0.7703 -0.0075 -0.4020
 5087SOL    HW126723   4.076   1.081   9.041  3.2332  1.9652 -0.3369
 5087SOL    HW226724   3.959   1.126   8.983  0.5330 -0.4653 -1.0251
 5088SOL     OW26725   2.601   3.726  10.997 -0.0300  0.7201 -0.1383
 5088SOL    HW126726   2.667   3.719  10.928 -0.3313 -0.8085 -0.2674
 5088SOL    HW226727   2.610   3.819  11.018  0.8452  0.9022 -1.3870
 5089SOL     OW26728   2.895   1.329   4.676  0.0611 -0.4007 -0.4419
 5089SOL    HW126729   2.932   1.323   4.764  1.6962 -0.8286 -1.1479
 5089SOL    HW226730   2.814   1.379   4.684  0.8200  0.6266  0.8037
 5090SOL     OW26731   4.130   1.663   1.851 -0.3224 -0.1192  0.0746
 5090SOL    HW126732   4.053   1.683   1.798 -0.9862 -0.2756  0.9768
 5090SOL    HW226733   4.139   1.572   1.824 -2.0925 -0.6032  1.1614
 5091SOL     OW26734   1.826   1.553   1.334 -0.5234  0.0432 -0.1274
 5091SOL    HW126735   1.888   1.621   1.307 -1.4137  0.9891  0.2115
 5091SOL    HW226736   1.782   1.594   1.408  0.2193  0.8283 -0.1165
 5092SOL     OW26737   0.729   3.565  17.635 -0.2941  0.0876  0.1013
 5092SOL    HW126738   0.695   3.654  17.646 -0.6653  0.1707 -1.6778
 5092SOL    HW226739   0.728   3.540   0.029 -0.9320  0.2041  0.1240
 5093SOL     OW26740   1.947   2.823   5.377  0.0598  0.3888 -0.3464
 5093SOL    HW126741   1.883   2.761   5.341  1.2320 -0.0768 -1.6434
 5093SOL    HW226742   1.946   2.885   5.304  2.3774  1.4132  0.5216
 5094SOL     OW26743   0.625   2.843   2.959  0.2029 -0.1549 -0.2718
 5094SOL    HW126744   0.575   2.885   2.889  0.0553  1.8286  1.0141
 5094SOL    HW226745   0.703   2.814   2.913  0.6915 -0.3864  0.7095
 5095SOL     OW26746   0.519   1.234  12.824 -0.6101  0.1088 -0.1661
 5095SOL    HW126747   0.503   1.293  12.898  0.3912 -1.4090  1.2331
 5095SOL    HW226748   0.602   1.205  12.860 -1.0847  0.3109  1.0961
 5096SOL     OW26749   2.837   0.093   9.631 -0.4085  0.0088  0.0165
 5096SOL    HW126750   2.749   0.093   9.592 -0.6204  1.1298  0.4749
 5096SOL    HW226751   2.877   0.011   9.603  0.6572  1.7896 -3.7146
 5097SOL     OW26752   0.519   1.360  17.318  0.3278  0.2690 -0.0447
 5097SOL    HW126753   0.490   1.428  17.378 -2.4162  1.4049 -2.7033
 5097SOL    HW226754   0.473   1.278  17.336 -1.0628  0.6056 -2.1538
 5098SOL     OW26755   3.134   3.719   6.413 -0.3242 -0.1860  0.2766
 5098SOL    HW126756   3.132   3.635   6.367  2.8745 -0.0661 -0.0891
 5098SOL    HW226757   3.178   3.772   6.346 -1.5473 -0.2017 -0.5284
 5099SOL     OW26758   3.820   2.026   1.238 -0.0209  0.5835 -0.1472
 5099SOL    HW126759   3.802   2.088   1.168 -0.7130  0.5695  0.0174
 5099SOL    HW226760   3.909   2.053   1.264  0.0545  1.8208 -1.6794
 5100SOL     OW26761   4.403   1.224  10.617 -0.1814 -0.0137 -0.0559
 5100SOL    HW126762   4.431   1.296  10.674  0.9149 -0.6049  0.1436
 5100SOL    HW226763   4.484   1.208  10.569  1.6584  3.5138  1.8967
 5101SOL     OW26764   0.348   4.384   5.382  0.7966 -0.2131  0.7340
 5101SOL    HW126765   0.328   4.325   5.309 -0.3560  1.0001  0.0698
 5101SOL    HW226766   0.394   4.455   5.338 -0.9270  1.3233  1.4194
 5102SOL     OW26767   2.910   0.518   4.069 -0.0260  0.6434 -0.2671
 5102SOL    HW126768   2.851   0.454   4.109 -1.1625  0.7921 -1.7082
 5102SOL    HW226769   2.901   0.498   3.976  0.8901 -0.4894 -0.1121
 5103SOL     OW26770   4.013   4.365   4.761 -0.3181 -0.5402  0.0642
 5103SOL    HW126771   3.992   4.431   4.695  0.9778 -1.1246 -0.9366
 5103SOL    HW226772   3.974   4.410   4.837  2.0543  0.0919  0.9118
 5104SOL     OW26773   1.253   0.905   8.007 -0.0992 -0.1443 -0.4247
 5104SOL    HW126774   1.293   0.991   8.014  0.5059 -0.4710  0.0665
 5104SOL    HW226775   1.195   0.917   7.931  0.4981 -1.7860 -1.1369
 5105SOL     OW26776   1.389   3.276   0.544 -0.0921 -0.3746  0.5415
 5105SOL    HW126777   1.451   3.335   0.588  0.1488  0.2843 -0.6805
 5105SOL    HW226778   1.314   3.290   0.602 -1.0333  1.9500 -1.2579
 5106SOL     OW26779   3.838   2.133   0.111  0.0159 -0.2722 -0.5942
 5106SOL    HW126780   3.907   2.200   0.115 -1.8358  1.6650 -1.6480
 5106SOL    HW226781   3.759   2.180   0.134  2.6272  2.4373  2.8878
 5107SOL     OW26782   1.453   4.388   7.985  0.0518  0.2349 -0.0802
 5107SOL    HW126783   1.431   4.473   8.022  1.2109 -0.2533  1.7003
 5107SOL    HW226784   1.461   4.326   8.057  1.0945  1.3797  0.7762
 5108SOL     OW26785   4.478   1.003  12.890 -0.6360  0.3026  0.1753
 5108SOL    HW126786   4.524   1.076  12.931 -1.0820  0.4110  0.4787
 5108SOL    HW226787   4.417   1.045  12.829  0.3143  1.3959 -0.0222
 5109SOL     OW26788   0.717   2.983  10.662  0.2502 -0.2094 -0.7308
 5109SOL    HW126789   0.635   2.944  10.633  0.8792 -2.3103  0.3531
 5109SOL    HW226790   0.702   3.078  10.666 -2.3759 -0.6035 -0.8895
 5110SOL     OW26791   3.296   4.487   1.484 -0.2215 -0.1487 -0.3823
 5110SOL    HW126792   3.255   4.511   1.567  0.9231  2.2028 -0.4708
 5110SOL    HW226793   3.234   4.528   1.424 -0.3921  1.9412  1.1807
 5111SOL     OW26794   1.333   0.718  17.169  0.2085 -0.3855 -0.0635
 5111SOL    HW126795   1.397   0.714  17.099 -1.4828  0.0184 -1.6298
 5111SOL    HW226796   1.253   0.742  17.121  0.9857  1.6943 -0.2840
 5112SOL     OW26797   3.332   0.235   9.439 -0.1084  0.4838  0.2053
 5112SOL    HW126798   3.265   0.176   9.472 -0.2830  0.7843  0.3795
 5112SOL    HW226799   3.320   0.307   9.501  1.0471  1.9514 -1.2449
 5113SOL     OW26800   0.547   1.748   7.229 -0.8801  0.1321 -0.1062
 5113SOL    HW126801   0.466   1.702   7.209 -0.7800  0.4210 -1.2002
 5113SOL    HW226802   0.592   1.682   7.282 -1.2889 -0.1905 -0.1666
 5114SOL     OW26803   4.352   1.056   3.762  0.2071  0.6963 -0.2896
 5114SOL    HW126804   4.272   1.084   3.806  0.7192  0.0618  1.0433
 5114SOL    HW226805   4.372   0.982   3.819 -0.4823  1.0621  0.4134
 5115SOL     OW26806   0.707   1.352   2.651  0.5558  0.5655  0.0527
 5115SOL    HW126807   0.721   1.313   2.565  1.0058  1.4706 -0.2888
 5115SOL    HW226808   0.761   1.430   2.638 -0.8792  1.2500 -1.8000
 5116SOL     OW26809   1.649   0.404   3.157 -0.4811  0.3752  0.0410
 5116SOL    HW126810   1.691   0.440   3.079 -2.8695  0.4985 -1.1895
 5116SOL    HW226811   1.666   0.311   3.144  2.1016  1.1812 -2.2659
 5117SOL     OW26812   2.344   3.421   0.916  0.0554 -0.3285 -0.3012
 5117SOL    HW126813   2.352   3.391   1.006  3.8074 -2.0727 -1.2346
 5117SOL    HW226814   2.419   3.480   0.906 -0.4550  0.0159 -2.1824
 5118SOL     OW26815   2.933   4.711  12.588  0.4343  0.5608 -0.2204
 5118SOL    HW126816   2.978   4.665  12.659 -0.3708 -0.0316 -0.0862
 5118SOL    HW226817   3.004   0.046  12.565 -0.4391  0.8282 -2.2551
 5119SOL     OW26818   3.315   2.733   2.243  0.3984 -0.0278  0.2652
 5119SOL    HW126819   3.290   2.814   2.199  1.3500  1.3458  2.2676
 5119SOL    HW226820   3.342   2.687   2.163 -0.6278 -0.5689  0.2264
 5120SOL     OW26821   4.452   4.302  17.053  0.2869 -0.1157  0.0136
 5120SOL    HW126822   4.538   4.315  17.013 -0.8439  0.1933 -2.2885
 5120SOL    HW226823   4.408   4.377  17.012  0.9198 -0.7351 -1.7751
 5121SOL     OW26824   4.703   0.415  11.324  0.0704 -0.2767 -0.1841
 5121SOL    HW126825   4.654   0.368  11.257 -0.7113  1.1019 -0.5742
 5121SOL    HW226826   0.021   0.344  11.373  3.1687  2.7985  1.6190
 5122SOL     OW26827   2.299   1.597  16.682  0.0753 -0.4596 -0.0539
 5122SOL    HW126828   2.348   1.679  16.692 -0.3688 -0.1977 -0.0212
 5122SOL    HW226829   2.210   1.632  16.673 -0.4445 -1.7703  0.0658
 5123SOL     OW26830   1.567   0.880   9.800  0.2403  0.4653 -0.1094
 5123SOL    HW126831   1.506   0.894   9.873  1.1464  1.7681  0.4023
 5123SOL    HW226832   1.601   0.792   9.817 -0.8000  0.9004  4.2803
 5124SOL     OW26833   3.509   2.309   6.767 -0.2776 -0.0280  0.1373
 5124SOL    HW126834   3.505   2.216   6.744 -1.9671  0.2818 -0.8080
 5124SOL    HW226835   3.543   2.353   6.689 -0.5832 -0.0186  0.0119
 5125SOL     OW26836   0.964   1.461   9.859 -0.0639 -0.1358 -0.0538
 5125SOL    HW126837   1.019   1.504   9.793  2.4532 -2.4917  0.5425
 5125SOL    HW226838   0.918   1.535   9.900  2.1800  0.9375  0.4864
 5126SOL     OW26839   2.659   0.955   3.762 -0.0414 -0.1977 -0.5866
 5126SOL    HW126840   2.651   1.046   3.732  1.6345  0.5299  1.1805
 5126SOL    HW226841   2.732   0.925   3.708 -0.5661 -1.2896 -0.6820
 5127SOL     OW26842   4.470   2.862   6.825 -0.1014  0.2679 -0.4858
 5127SOL    HW126843   4.547   2.871   6.770 -0.4039  1.4946 -0.6935
 5127SOL    HW226844   4.419   2.940   6.803 -0.5542  0.5934  1.6993
 5128SOL     OW26845   0.466   3.694   2.282  0.0958  0.0516 -0.1502
 5128SOL    HW126846   0.455   3.726   2.372  0.1129 -3.5668  1.1376
 5128SOL    HW226847   0.530   3.756   2.247  0.6311 -1.2278 -1.4128
 5129SOL     OW26848   0.933   0.953   5.764  0.1860  0.1643 -0.2849
 5129SOL    HW126849   0.877   0.876   5.754  2.7581 -1.5824 -1.2900
 5129SOL    HW226850   1.010   0.940   5.710  0.6920 -0.0852  0.4938
 5130SOL     OW26851   2.195   1.782   5.599 -0.1897  0.0756  0.2941
 5130SOL    HW126852   2.284   1.791   5.564 -0.0671  0.6148  0.7507
 5130SOL    HW226853   2.170   1.695   5.567  2.0671 -0.6175  0.3825
 5131SOL     OW26854   2.286   2.366   7.106 -0.2365  0.5756  0.1948
 5131SOL    HW126855   2.265   2.407   7.022  1.7245 -0.1250 -0.6255
 5131SOL    HW226856   2.311   2.443   7.156 -0.0653 -1.4115  3.1532
 5132SOL     OW26857   4.388   1.496   4.295 -0.5900  0.3017  0.4199
 5132SOL    HW126858   4.351   1.548   4.367  0.8804 -0.5896  1.8110
 5132SOL    HW226859   4.382   1.408   4.331 -2.6502  0.1737 -0.2278
 5133SOL     OW26860   2.567   1.780  16.741 -0.6009 -0.5924 -0.1854
 5133SOL    HW126861   2.647   1.748  16.699 -0.3737  0.7876 -0.7974
 5133SOL    HW226862   2.580   1.772  16.835 -1.4967  2.1393  0.1737
 5134SOL     OW26863   3.568   2.205  17.027  0.5546 -0.2883  0.2406
 5134SOL    HW126864   3.649   2.179  16.983 -0.2259 -1.4395 -0.5064
 5134SOL    HW226865   3.603   2.240  17.110 -2.5543  1.7130  0.6977
 5135SOL     OW26866   2.280   2.763   7.655 -0.7740 -0.0174  0.5638
 5135SOL    HW126867   2.328   2.842   7.677 -1.7869  0.6978  0.1917
 5135SOL    HW226868   2.340   2.732   7.587 -1.2994 -0.1337  0.1444
 5136SOL     OW26869   3.014   4.552   5.149  0.2353  0.0200 -0.5030
 5136SOL    HW126870   3.013   4.602   5.230 -0.7963 -0.4235 -0.2363
 5136SOL    HW226871   3.073   4.482   5.179 -1.1035 -0.3065  1.3603
 5137SOL     OW26872   2.451   3.880   6.720  0.0970  0.1071 -0.0003
 5137SOL    HW126873   2.375   3.856   6.668 -0.3182 -2.7891  1.8981
 5137SOL    HW226874   2.504   3.926   6.655 -0.0013  1.2461  0.7275
 5138SOL     OW26875   1.740   0.108   3.062  0.2323 -0.4434 -0.0095
 5138SOL    HW126876   1.692   0.114   2.979  0.4687 -1.0493 -0.1938
 5138SOL    HW226877   1.830   0.089   3.035 -0.3652 -2.0269 -0.8870
 5139SOL     OW26878   2.219   2.574   2.607 -0.1054 -0.1391 -0.4396
 5139SOL    HW126879   2.257   2.498   2.563  0.3789  0.6147 -1.2992
 5139SOL    HW226880   2.235   2.643   2.543  0.2350 -0.4784 -0.7173
 5140SOL     OW26881   2.151   0.320  16.838  0.2614  0.9385  0.0628
 5140SOL    HW126882   2.132   0.264  16.913  1.4459  0.3215 -0.1019
 5140SOL    HW226883   2.099   0.399  16.854  0.0999  0.6117  1.1520
 5141SOL     OW26884   3.155   3.283   2.616  0.3993 -0.7153 -0.6625
 5141SOL    HW126885   3.104   3.209   2.582 -0.9657  0.7792 -1.8178
 5141SOL    HW226886   3.083   3.343   2.634  1.3184 -0.0987  0.9487
 5142SOL     OW26887   0.724   4.709   8.376  0.3753  0.0854 -0.1610
 5142SOL    HW126888   0.640   4.666   8.394  0.8049 -0.3447  0.8427
 5142SOL    HW226889   0.784   4.638   8.399 -2.1521 -2.2315 -0.7356
 5143SOL     OW26890   4.049   4.040   2.662 -0.2177  0.4775  0.3720
 5143SOL    HW126891   4.052   4.098   2.738 -0.0524  0.2108  0.5699
 5143SOL    HW226892   4.070   3.955   2.702  0.4356  1.5251  2.2428
 5144SOL     OW26893   2.191   4.682   0.985 -0.3147  0.0031 -0.5127
 5144SOL    HW126894   2.145   4.620   1.043 -0.9762 -0.1552 -1.2064
 5144SOL    HW226895   2.284   4.672   1.006 -0.5080 -0.9215 -0.0589
 5145SOL     OW26896   0.196   2.954   5.507  0.0099  0.1094 -0.0974
 5145SOL    HW126897   0.144   3.003   5.444 -0.8956  1.0151  1.3835
 5145SOL    HW226898   0.127   2.925   5.566  0.6330 -1.2622 -0.0266
 5146SOL     OW26899   4.026   3.436   4.739 -0.3423  0.0905  0.5113
 5146SOL    HW126900   3.995   3.371   4.676  0.2298 -0.4451  0.7804
 5146SOL    HW226901   3.967   3.414   4.811 -1.9210 -0.4196 -0.9262
 5147SOL     OW26902   3.392   1.961  11.937 -0.5209 -0.5083 -0.0957
 5147SOL    HW126903   3.482   1.993  11.932  0.1416 -2.2456  0.7170
 5147SOL    HW226904   3.422   1.872  11.920 -1.4083 -0.4095 -2.1372
 5148SOL     OW26905   1.790   4.264  16.364 -0.1578 -0.4882 -0.5829
 5148SOL    HW126906   1.720   4.239  16.304 -0.3551 -1.3075 -0.0156
 5148SOL    HW226907   1.861   4.206  16.336  1.2367  0.5350  0.8231
 5149SOL     OW26908   2.757   1.763   5.682 -0.6780 -0.4588 -0.7150
 5149SOL    HW126909   2.848   1.743   5.703 -0.7934 -0.9952 -0.7234
 5149SOL    HW226910   2.713   1.783   5.764 -1.0479 -0.2535 -0.9598
 5150SOL     OW26911   4.674   2.714   5.510  0.6267 -0.0509 -0.0772
 5150SOL    HW126912   4.630   2.656   5.447  3.6696 -3.1923  0.6556
 5150SOL    HW226913   0.006   2.647   5.550  1.2169  0.6757  0.3139
 5151SOL     OW26914   2.823   0.245   8.460  1.0973 -0.4587  0.1867
 5151SOL    HW126915   2.779   0.291   8.389  1.0704 -0.8770 -0.0664
 5151SOL    HW226916   2.749   0.203   8.503  2.2228 -1.3780  1.2099
 5152SOL     OW26917   0.199   0.794   4.871  0.6047  0.2293  0.4114
 5152SOL    HW126918   0.267   0.814   4.935  1.0163  3.2394 -0.9828
 5152SOL    HW226919   0.147   0.726   4.914  1.0520 -1.4428 -1.6728
 5153SOL     OW26920   0.078   4.354   7.056 -0.0207  0.5759  0.4456
 5153SOL    HW126921   0.004   4.317   7.009 -0.7137  0.6903  1.4417
 5153SOL    HW226922   0.025   4.401   7.121  0.5946 -0.1477  1.4734
 5154SOL     OW26923   2.446   2.041  16.632 -0.5617  0.0832  0.1363
 5154SOL    HW126924   2.359   2.001  16.636 -0.7650  0.4990 -0.1207
 5154SOL    HW226925   2.502   1.979  16.679  0.8116  0.8983 -0.4304
 5155SOL     OW26926   4.095   3.792  14.336 -0.1189 -0.6141  0.0751
 5155SOL    HW126927   4.004   3.803  14.365  0.1452  0.3716  0.5106
 5155SOL    HW226928   4.126   3.882  14.343  0.8950 -0.9317 -0.3909
 5156SOL     OW26929   4.612   3.358  10.495 -0.5592 -1.0839 -0.1142
 5156SOL    HW126930   4.690   3.304  10.485  1.4678  2.1376 -1.7534
 5156SOL    HW226931   4.637   3.448  10.517 -1.8756 -0.6749 -0.2639
 5157SOL     OW26932   3.982   1.221   8.494  0.2224  0.2803 -0.6222
 5157SOL    HW126933   4.051   1.249   8.434  0.2397  0.0944 -0.6908
 5157SOL    HW226934   3.961   1.306   8.533  1.7045 -0.1835  1.2134
 5158SOL     OW26935   3.399   3.415   5.532 -0.0280 -0.6709  0.4543
 5158SOL    HW126936   3.344   3.485   5.566  1.5629 -0.4918  2.6843
 5158SOL    HW226937   3.455   3.457   5.467  0.2355 -0.5012  0.7868
 5159SOL     OW26938   0.752   2.758   4.662  0.2131  0.0539 -0.0837
 5159SOL    HW126939   0.743   2.663   4.656  0.9221  0.0980 -1.9041
 5159SOL    HW226940   0.775   2.780   4.752 -0.7809  2.0992 -0.3508
 5160SOL     OW26941   1.180   3.900   3.331  0.2879  0.0586  0.1354
 5160SOL    HW126942   1.186   3.957   3.407  0.0131 -2.9215  2.3585
 5160SOL    HW226943   1.108   3.941   3.282 -1.3874 -2.1578  0.7284
 5161SOL     OW26944   3.195   4.610   1.249  0.5736  0.1849  0.0249
 5161SOL    HW126945   3.112   4.562   1.242  0.1945  1.1099 -1.9082
 5161SOL    HW226946   3.186   4.683   1.187 -0.6198 -0.7394 -0.8991
 5162SOL     OW26947   3.537   1.545   1.954 -0.3508  0.6745 -0.0872
 5162SOL    HW126948   3.480   1.607   1.909  0.2915  1.5125  0.2402
 5162SOL    HW226949   3.615   1.597   1.977 -1.2527  1.3091  1.5719
 5163SOL     OW26950   0.170   2.022   3.401 -0.1394 -0.0009 -0.0178
 5163SOL    HW126951   0.199   2.000   3.313 -2.0503  1.7043 -1.0749
 5163SOL    HW226952   0.210   2.109   3.411 -1.5273  0.8120 -1.6407
 5164SOL     OW26953   1.207   2.480   5.463  0.1512  0.8061 -0.0222
 5164SOL    HW126954   1.167   2.443   5.384  1.3593 -1.6925  0.5417
 5164SOL    HW226955   1.299   2.457   5.449  0.0642 -0.9447  2.1960
 5165SOL     OW26956   2.794   2.785   4.740 -1.0242  0.0579  0.1836
 5165SOL    HW126957   2.801   2.697   4.778 -0.4616  0.7217  1.6182
 5165SOL    HW226958   2.814   2.840   4.815 -2.2274  1.7468 -0.7375
 5166SOL     OW26959   0.845   0.897   7.037 -0.0711 -0.1247  0.4609
 5166SOL    HW126960   0.875   0.809   7.062  0.2358 -0.2691 -0.4174
 5166SOL    HW226961   0.910   0.911   6.969  0.7896  0.2147  1.3584
 5167SOL     OW26962   4.548   4.226   5.347  0.0355 -0.3950 -0.2199
 5167SOL    HW126963   4.558   4.153   5.408  2.0382 -0.8153 -1.0557
 5167SOL    HW226964   4.637   4.259   5.357 -0.1856 -0.5460  2.1541
 5168SOL     OW26965   0.587   0.344   5.566  0.0936  0.1133 -0.3395
 5168SOL    HW126966   0.525   0.385   5.507 -2.0932 -1.2806  0.9572
 5168SOL    HW226967   0.642   0.414   5.602  1.3130 -1.0432  0.0481
 5169SOL     OW26968   4.085   1.520   6.760  0.0594 -0.1352  0.9948
 5169SOL    HW126969   4.159   1.483   6.809 -0.5621 -2.2780  0.3125
 5169SOL    HW226970   4.138   1.573   6.701 -0.8627  0.2130  0.4922
 5170SOL     OW26971   3.148   2.939   8.981  0.0499 -0.5027 -0.2558
 5170SOL    HW126972   3.230   2.913   8.939  1.0756 -0.1296  1.5183
 5170SOL    HW226973   3.161   2.925   9.075  0.0049 -0.9423 -0.3138
 5171SOL     OW26974   2.988   2.224   6.263  0.1587  0.5747  0.1105
 5171SOL    HW126975   2.901   2.184   6.268  0.4379 -0.0197  0.2942
 5171SOL    HW226976   3.047   2.150   6.280  0.9343  0.7287 -1.9476
 5172SOL     OW26977   1.450   2.869   3.775 -0.2306 -0.6021 -0.7755
 5172SOL    HW126978   1.407   2.839   3.855  1.3139  0.3694  0.3958
 5172SOL    HW226979   1.484   2.787   3.738 -0.5655 -1.4998  0.8816
 5173SOL     OW26980   0.540   3.051   4.607 -0.3971  0.1061  0.4281
 5173SOL    HW126981   0.587   3.055   4.524 -1.4531  0.4084 -0.1669
 5173SOL    HW226982   0.465   3.111   4.600 -0.4673 -0.1755 -1.2881
 5174SOL     OW26983   0.920   3.332  12.474 -0.1930  0.1551 -0.6791
 5174SOL    HW126984   0.942   3.406  12.418 -3.7342  1.4615 -0.3758
 5174SOL    HW226985   0.975   3.358  12.548 -1.9728 -2.8782  1.7438
 5175SOL     OW26986   2.992   3.752  15.229  0.1783  0.2097  0.2026
 5175SOL    HW126987   2.907   3.792  15.247  0.0746  0.0431  0.0774
 5175SOL    HW226988   3.032   3.733  15.314 -1.5405 -0.9552  0.7359
 5176SOL     OW26989   2.057   4.113  17.503 -0.0820 -0.4171 -0.0135
 5176SOL    HW126990   1.998   4.105  17.428  0.3504  3.4123 -0.7667
 5176SOL    HW226991   1.999   4.124  17.579 -0.0800  1.0048 -0.2037
 5177SOL     OW26992   1.258   3.583  12.447 -0.3740 -0.1271 -0.0697
 5177SOL    HW126993   1.268   3.661  12.392 -0.7168 -0.0046  0.0434
 5177SOL    HW226994   1.164   3.583  12.465  0.1540 -2.3549  2.6841
 5178SOL     OW26995   0.194   2.525  10.807  0.1436  0.3679  0.4795
 5178SOL    HW126996   0.205   2.552  10.898 -3.0746  0.7867  0.7550
 5178SOL    HW226997   0.181   2.611  10.767  1.2561  0.6151  0.6421
 5179SOL     OW26998   3.111   3.749   3.494  0.6688 -0.3010 -0.4013
 5179SOL    HW126999   3.175   3.726   3.561  0.2695 -1.8427 -0.5471
 5179SOL    HW227000   3.150   3.685   3.435  1.9906 -0.9558  1.1925
 5180SOL     OW27001   2.168   1.445  10.192 -0.2928 -0.0568  0.2894
 5180SOL    HW127002   2.119   1.514  10.236 -2.3521 -0.9399 -0.6362
 5180SOL    HW227003   2.107   1.372  10.183  0.1815 -0.3904 -0.2385
 5181SOL     OW27004   1.931   1.697  13.027 -0.0261 -0.1539 -0.4612
 5181SOL    HW127005   2.002   1.725  12.968  0.5360 -0.0482  0.2569
 5181SOL    HW227006   1.861   1.759  13.007 -0.0803 -0.6144 -1.6634
 5182SOL     OW27007   2.016   1.988   2.388  0.3889  0.2456  0.0564
 5182SOL    HW127008   1.998   1.896   2.406 -0.0450  0.2002 -0.5892
 5182SOL    HW227009   1.931   2.025   2.412 -0.4242 -1.0630 -0.8366
 5183SOL     OW27010   1.588   0.950   3.683 -0.5609  0.5786  0.0058
 5183SOL    HW127011   1.506   0.931   3.637 -0.8330  0.6366  0.4614
 5183SOL    HW227012   1.582   1.046   3.683  0.2307  0.6248  0.5465
 5184SOL     OW27013   2.353   1.681   4.200 -0.3703 -0.0020  0.2779
 5184SOL    HW127014   2.305   1.754   4.238  0.2309  1.6068 -2.0208
 5184SOL    HW227015   2.403   1.653   4.277  2.2310 -1.2671 -1.8467
 5185SOL     OW27016   1.339   3.261   8.881 -0.4854  0.3409 -0.2117
 5185SOL    HW127017   1.268   3.266   8.945  1.2077  1.2727  1.5763
 5185SOL    HW227018   1.353   3.349   8.848 -1.6058 -0.4220 -2.7493
 5186SOL     OW27019   3.582   1.546   5.415 -0.3958 -0.6355  0.0565
 5186SOL    HW127020   3.525   1.623   5.408 -0.0007 -0.4693 -1.2664
 5186SOL    HW227021   3.654   1.581   5.467 -0.5551 -1.6605  0.9610
 5187SOL     OW27022   3.897   2.435   8.983  0.7394  0.1209  0.4836
 5187SOL    HW127023   3.892   2.528   9.003  0.1568  0.8283 -2.9512
 5187SOL    HW227024   3.990   2.420   8.969  0.4254  0.0673 -1.5535
 5188SOL     OW27025   2.183   1.922   8.790 -0.7922  0.0264  0.0758
 5188SOL    HW127026   2.122   1.986   8.826 -0.2356 -0.4133  1.7935
 5188SOL    HW227027   2.148   1.838   8.820  0.2474  0.0124  1.2403
 5189SOL     OW27028   0.205   2.972   8.808  0.3816  0.5911 -0.5212
 5189SOL    HW127029   0.222   3.046   8.867  0.8688  0.7822 -0.9042
 5189SOL    HW227030   0.130   2.942   8.859  3.0129 -3.5060  0.9436
 5190SOL     OW27031   3.159   2.893  12.324  0.0367 -0.0168 -0.4867
 5190SOL    HW127032   3.184   2.807  12.290 -0.1988  0.4566 -1.8433
 5190SOL    HW227033   3.207   2.888  12.407 -0.4079 -2.0265 -0.3480
 5191SOL     OW27034   3.436   0.723   8.434 -0.4215  0.4706  0.0335
 5191SOL    HW127035   3.530   0.736   8.442 -0.0365 -1.9167 -0.5485
 5191SOL    HW227036   3.429   0.659   8.505  0.9721  0.2874  0.0019
 5192SOL     OW27037   3.325   0.705   4.530  0.1280 -0.0719 -0.0910
 5192SOL    HW127038   3.245   0.747   4.500  0.4115  0.5127 -0.0139
 5192SOL    HW227039   3.293   0.615   4.524 -1.4144  0.4740 -0.0453
 5193SOL     OW27040   4.589   0.727   9.963 -0.3868  0.2549  0.1678
 5193SOL    HW127041   4.524   0.666   9.998  0.4901 -0.2109  0.9931
 5193SOL    HW227042   4.663   0.668   9.947  0.6549  1.6872 -0.2836
 5194SOL     OW27043   1.854   0.923   6.919  0.0459 -0.5437 -0.2306
 5194SOL    HW127044   1.944   0.920   6.887  0.2237 -0.9364  0.2866
 5194SOL    HW227045   1.851   1.005   6.968 -1.8380  0.2891 -1.7315
 5195SOL     OW27046   2.902   2.769   4.067 -0.4407  0.7800  0.1311
 5195SOL    HW127047   2.876   2.763   4.159 -0.7313  0.1650  0.0039
 5195SOL    HW227048   2.852   2.706   4.015  1.8573 -1.1611  0.2833
 5196SOL     OW27049   4.425   2.245   6.525 -0.3033 -0.6142  0.6031
 5196SOL    HW127050   4.392   2.308   6.588 -2.9885  0.1475 -1.5451
 5196SOL    HW227051   4.504   2.289   6.497 -0.0981 -2.0490 -1.1274
 5197SOL     OW27052   3.166   3.185   6.612 -0.0758  0.1087  0.0277
 5197SOL    HW127053   3.223   3.187   6.535  0.6741 -1.0991  0.5508
 5197SOL    HW227054   3.110   3.108   6.600 -0.4073  0.4456 -0.5944
 5198SOL     OW27055   1.912   4.136   3.744  0.0768 -0.3936 -0.3316
 5198SOL    HW127056   1.980   4.135   3.677  1.9851 -1.5321  1.6294
 5198SOL    HW227057   1.939   4.056   3.790  3.3894 -0.5250 -2.5170
 5199SOL     OW27058   3.678   3.121   0.871  0.3058 -0.2340  0.3706
 5199SOL    HW127059   3.764   3.079   0.870  1.0578  1.3711 -1.0541
 5199SOL    HW227060   3.695   3.211   0.845  0.8286 -0.5318 -0.2847
 5200SOL     OW27061   1.835   0.141  16.804 -0.1221  0.5538  0.8878
 5200SOL    HW127062   1.801   0.172  16.888  0.4708  2.4638  0.4285
 5200SOL    HW227063   1.783   0.192  16.741  1.2393  2.4942  1.3431
 5201SOL     OW27064   2.846   2.065   1.568  0.2381 -0.1299  0.3644
 5201SOL    HW127065   2.883   1.981   1.542 -0.1132  0.7202 -2.9095
 5201SOL    HW227066   2.915   2.109   1.617 -0.9949 -1.1683  3.0401
 5202SOL     OW27067   4.212   0.469   4.070  0.2557  0.3815 -0.0936
 5202SOL    HW127068   4.235   0.386   4.029  0.1739 -0.8457  2.3505
 5202SOL    HW227069   4.122   0.449   4.096 -0.4202  0.3487 -2.4564
 5203SOL     OW27070   3.776   2.612  14.081  0.3993  0.8819  0.1704
 5203SOL    HW127071   3.802   2.520  14.093  1.4340  1.3907  1.7982
 5203SOL    HW227072   3.848   2.642  14.136  0.5860  1.0212 -0.1521
 5204SOL     OW27073   4.259   0.719   4.733 -0.7398  0.1397  0.2642
 5204SOL    HW127074   4.208   0.650   4.690 -1.0118 -0.1372  1.0338
 5204SOL    HW227075   4.214   0.803   4.720  0.4200  1.1055  2.4817
 5205SOL     OW27076   1.512   3.533   5.022 -0.6211  0.0495  0.5222
 5205SOL    HW127077   1.567   3.489   5.087 -0.8972  0.0970  0.7883
 5205SOL    HW227078   1.452   3.468   4.985  0.4863 -0.6243 -0.0801
 5206SOL     OW27079   0.055   1.572  10.608  0.2663 -0.1826 -0.0745
 5206SOL    HW127080   0.073   1.666  10.598  1.5797 -0.2885  1.3004
 5206SOL    HW227081   0.149   1.556  10.618  0.0901  0.2076  2.0164
 5207SOL     OW27082   0.555   0.585   4.273 -0.3989  0.0793 -0.1072
 5207SOL    HW127083   0.617   0.649   4.309 -1.5137 -0.1025  2.1780
 5207SOL    HW227084   0.478   0.639   4.252 -0.4187  0.7105  1.5705
 5208SOL     OW27085   0.913   2.266   5.052  0.7189  0.3656  0.1984
 5208SOL    HW127086   0.825   2.304   5.054  0.8792  0.9309 -3.4736
 5208SOL    HW227087   0.902   2.172   5.048  1.4780  0.1989  1.8425
 5209SOL     OW27088   1.867   0.587   6.073  0.2069  0.8305  0.6273
 5209SOL    HW127089   1.867   0.493   6.087 -1.3587  0.8761  0.9492
 5209SOL    HW227090   1.874   0.595   5.978  0.8053 -0.7186  0.5457
 5210SOL     OW27091   4.138   0.711  17.491  0.1707  0.1858  0.2058
 5210SOL    HW127092   4.190   0.754  17.559 -1.3053  1.2354  0.6859
 5210SOL    HW227093   4.159   0.758  17.411  0.9980  0.2555  0.4625
 5211SOL     OW27094   1.911   0.712   4.799  0.0197  0.2832  0.0099
 5211SOL    HW127095   1.912   0.688   4.707  0.2705 -1.2199  0.3946
 5211SOL    HW227096   1.831   0.763   4.808  1.3318  2.4710 -0.8831
 5212SOL     OW27097   4.156   3.502   8.010 -0.4404  0.4512  0.5016
 5212SOL    HW127098   4.188   3.463   7.929  0.0753 -3.7067  2.7021
 5212SOL    HW227099   4.130   3.580   7.961 -1.4367  1.3613  2.4320
 5213SOL     OW27100   0.696   2.468   3.514  0.0624  0.0716 -0.1582
 5213SOL    HW127101   0.641   2.496   3.441  0.4439 -0.4184 -0.6332
 5213SOL    HW227102   0.647   2.387   3.529 -0.5144  0.7322  1.5158
 5214SOL     OW27103   3.876   3.201   8.196  0.5957 -0.3820  0.9214
 5214SOL    HW127104   3.794   3.236   8.161  0.8524 -2.0225 -1.3845
 5214SOL    HW227105   3.899   3.142   8.124  0.0726  1.8048 -1.0595
 5215SOL     OW27106   2.587   4.445  12.786 -0.0302 -0.1844  0.0605
 5215SOL    HW127107   2.567   4.351  12.779 -0.5881 -0.1810  1.5222
 5215SOL    HW227108   2.659   4.439  12.723 -0.8814  0.7097 -0.9939
 5216SOL     OW27109   1.858   3.674   2.431 -0.9701 -0.1265 -0.0716
 5216SOL    HW127110   1.809   3.731   2.491 -0.9215 -0.1854  0.0231
 5216SOL    HW227111   1.850   3.738   2.360 -1.1521  0.7439  0.7412
 5217SOL     OW27112   3.238   4.268   8.885  0.1407  0.4167  0.2877
 5217SOL    HW127113   3.245   4.260   8.790 -2.1249  0.3005  0.1245
 5217SOL    HW227114   3.266   4.359   8.892 -0.6951  0.5701  1.5928
 5218SOL     OW27115   4.409   4.443   6.422  0.3030  0.1891  0.1787
 5218SOL    HW127116   4.481   4.502   6.400  1.5476 -1.6793 -0.7819
 5218SOL    HW227117   4.342   4.491   6.471 -0.1794  0.3177 -0.6018
 5219SOL     OW27118   4.167   4.490   2.254 -0.3358  0.5997 -0.2606
 5219SOL    HW127119   4.247   4.464   2.209  0.0312  1.0766  0.1197
 5219SOL    HW227120   4.134   4.407   2.289 -0.9318  0.2825 -1.5429
 5220SOL     OW27121   0.052   1.993   2.494  0.0749  0.4429  0.5381
 5220SOL    HW127122   4.683   1.970   2.493  0.0932  0.4075 -0.3330
 5220SOL    HW227123   0.085   1.940   2.567  0.8613  1.0122  0.5907
 5221SOL     OW27124   0.989   4.560   3.132  0.3040  0.2391 -0.0486
 5221SOL    HW127125   1.080   4.559   3.162  0.3880  0.5348 -0.2983
 5221SOL    HW227126   1.010   4.531   3.043  1.4164 -1.0442  0.6256
 5222SOL     OW27127   1.813   3.599   3.337 -0.2645 -0.6299  0.0336
 5222SOL    HW127128   1.837   3.661   3.269  1.1123 -1.1274  0.0622
 5222SOL    HW227129   1.753   3.653   3.388  2.2174  0.4813  1.8072
 5223SOL     OW27130   2.571   2.947   0.717 -0.1397 -0.0963  0.1811
 5223SOL    HW127131   2.653   2.979   0.679 -0.2937 -1.5344 -1.3945
 5223SOL    HW227132   2.532   3.011   0.776  3.4581  0.6795  1.6906
 5224SOL     OW27133   4.702   2.390   3.317  0.5890  0.2833  0.5866
 5224SOL    HW127134   4.658   2.351   3.242 -0.2918  1.5885  0.4280
 5224SOL    HW227135   4.667   2.328   3.381 -2.2493  1.5933  0.3247
 5225SOL     OW27136   1.591   4.368   3.420 -0.0301  0.1712  0.5005
 5225SOL    HW127137   1.674   4.323   3.404 -0.6691 -1.3374  1.4091
 5225SOL    HW227138   1.528   4.314   3.373  0.6700 -0.7901  0.6585
 5226SOL     OW27139   4.335   1.680   5.523 -0.8377 -0.5302 -0.1373
 5226SOL    HW127140   4.292   1.724   5.597  0.6557  0.9614 -0.1636
 5226SOL    HW227141   4.427   1.674   5.551 -0.2820  3.6213 -1.0956
 5227SOL     OW27142   1.455   0.447   3.419  0.2685 -0.2029  0.5984
 5227SOL    HW127143   1.383   0.510   3.416  0.6269  0.1356 -0.7932
 5227SOL    HW227144   1.484   0.457   3.328  0.4032  1.8970  0.8858
 5228SOL     OW27145   0.193   2.049  13.729  0.2044  0.0162 -0.0346
 5228SOL    HW127146   0.183   1.956  13.708 -1.4876  0.4771 -1.2376
 5228SOL    HW227147   0.213   2.045  13.822 -0.3020  0.4031  0.0885
 5229SOL     OW27148   1.190   3.525   5.269  0.1672  0.1304  0.0968
 5229SOL    HW127149   1.102   3.489   5.280  0.1694 -0.1932 -0.9840
 5229SOL    HW227150   1.175   3.619   5.258 -2.1079 -0.1618  0.8633
 5230SOL     OW27151   0.714   2.179  11.844  0.2056 -0.0875  0.6825
 5230SOL    HW127152   0.730   2.240  11.916  0.0715  3.2239 -2.0907
 5230SOL    HW227153   0.621   2.195  11.830  0.4819  1.6601  0.8959
 5231SOL     OW27154   0.908   0.892   3.334 -0.5411  0.4942 -0.1554
 5231SOL    HW127155   0.987   0.837   3.331 -0.1827  1.0472 -0.7176
 5231SOL    HW227156   0.892   0.899   3.428  1.7411  2.1550  0.1318
 5232SOL     OW27157   0.238   2.202   9.115  0.1773 -0.1769 -0.3395
 5232SOL    HW127158   0.261   2.278   9.061 -3.1954 -0.1481 -1.6813
 5232SOL    HW227159   0.242   2.233   9.205 -0.0076 -0.9303 -0.0735
 5233SOL     OW27160   1.011   2.885   6.390 -0.2826 -1.3376  0.0635
 5233SOL    HW127161   0.979   2.838   6.314 -2.0493  0.3582 -0.2547
 5233SOL    HW227162   0.997   2.976   6.364 -2.1782 -1.2297  1.4110
 5234SOL     OW27163   4.457   1.980   3.854  0.7114 -0.1017  0.4881
 5234SOL    HW127164   4.501   1.981   3.939 -1.4644 -0.5578  1.6241
 5234SOL    HW227165   4.471   1.889   3.829 -1.2703  0.1184 -1.4768
 5235SOL     OW27166   1.938   2.997  16.116  0.2796  0.4059  0.5227
 5235SOL    HW127167   1.856   2.948  16.124  0.1269  0.1090 -2.5541
 5235SOL    HW227168   1.982   2.936  16.057  0.5752  0.8324  0.2967
 5236SOL     OW27169   4.207   3.169  16.406 -0.1853  0.4763 -0.3552
 5236SOL    HW127170   4.290   3.134  16.374 -0.8375 -0.7591 -0.6845
 5236SOL    HW227171   4.142   3.110  16.368  0.5310 -1.8696  2.1220
 5237SOL     OW27172   0.674   1.343  13.634  0.2692  0.2302 -0.0324
 5237SOL    HW127173   0.700   1.257  13.603  0.3628 -0.7727  2.8359
 5237SOL    HW227174   0.653   1.381  13.548  0.3786  1.8900  0.6691
 5238SOL     OW27175   4.129   1.346   4.384  0.1324 -0.2356 -0.1904
 5238SOL    HW127176   4.098   1.432   4.414  1.9085  1.3875 -3.0051
 5238SOL    HW227177   4.136   1.289   4.461 -0.7643  1.9132  1.5016
 5239SOL     OW27178   0.739   3.269  12.779  0.0382 -0.9192 -0.0894
 5239SOL    HW127179   0.725   3.181  12.813 -1.0701 -0.5178  0.4792
 5239SOL    HW227180   0.831   3.280  12.804 -0.0596 -1.0349  0.3155
 5240SOL     OW27181   1.584   3.654   9.643 -0.1126 -0.3344  0.0363
 5240SOL    HW127182   1.552   3.564   9.651 -0.9847 -0.0733 -0.6431
 5240SOL    HW227183   1.660   3.639   9.587  0.2671 -0.9697  0.7077
 5241SOL     OW27184   2.039   2.681  16.738  0.0720 -0.0763  0.3222
 5241SOL    HW127185   2.045   2.595  16.780 -0.7385  1.1118  2.9047
 5241SOL    HW227186   2.024   2.731  16.818  0.7777 -0.1665  0.5102
 5242SOL     OW27187   2.382   1.747   0.224 -0.0316  0.5715 -0.7690
 5242SOL    HW127188   2.325   1.815   0.188 -2.2895  0.3778  2.4693
 5242SOL    HW227189   2.422   1.700   0.150 -0.0208 -1.2821  0.3935
 5243SOL     OW27190   1.254   0.283   2.484  0.2313  0.0631  0.3036
 5243SOL    HW127191   1.180   0.307   2.540 -0.2072  0.3739 -0.4157
 5243SOL    HW227192   1.318   0.341   2.526  0.3147  0.5286 -0.4717
 5244SOL     OW27193   0.228   2.010   4.454 -0.8497 -0.0670  0.3744
 5244SOL    HW127194   0.271   1.995   4.369 -0.5619  0.4845  0.4247
 5244SOL    HW227195   0.248   2.103   4.462 -0.4833 -0.1339  0.2721
 5245SOL     OW27196   0.223   1.360   5.236 -0.5483 -0.3696  0.0899
 5245SOL    HW127197   0.295   1.375   5.175 -0.9308  1.2383  0.0228
 5245SOL    HW227198   0.146   1.399   5.194  0.3550  1.3894  0.0468
 5246SOL     OW27199   4.451   0.965  12.162 -0.1855  0.4989  0.5624
 5246SOL    HW127200   4.382   0.935  12.103 -1.4394  1.9092  1.3365
 5246SOL    HW227201   4.402   0.987  12.241 -0.4145  1.0327  0.2694
 5247SOL     OW27202   4.446   2.886   2.922 -0.2143  0.3125  0.0995
 5247SOL    HW127203   4.499   2.806   2.919  0.1328  0.5518 -0.1787
 5247SOL    HW227204   4.473   2.928   2.840 -1.9198  0.6868 -0.2588
 5248SOL     OW27205   2.749   4.351   6.753 -0.6454 -0.6668 -0.4200
 5248SOL    HW127206   2.693   4.307   6.816 -0.3761 -1.4506 -0.7183
 5248SOL    HW227207   2.798   4.271   6.731  0.9662  1.0860 -3.3512
 5249SOL     OW27208   2.221   3.184   7.747  0.0266  0.5261  0.6801
 5249SOL    HW127209   2.306   3.218   7.717  0.2070  0.9801  1.7076
 5249SOL    HW227210   2.219   3.198   7.841 -2.9216  0.1067  0.6819
 5250SOL     OW27211   0.056   0.631   5.586  0.2826 -0.1247 -0.5255
 5250SOL    HW127212   0.028   0.540   5.583 -2.0514  0.6217 -1.0342
 5250SOL    HW227213   0.006   0.668   5.513 -0.9127 -0.6630  0.0271
 5251SOL     OW27214   1.601   4.376   0.997  0.0961 -0.2313 -0.1612
 5251SOL    HW127215   1.671   4.318   0.969  0.4265 -0.8165  1.8510
 5251SOL    HW227216   1.600   4.447   0.933  0.4110 -1.2805 -1.3244
 5252SOL     OW27217   0.997   2.606  17.616 -0.1308  0.5666 -0.0881
 5252SOL    HW127218   1.022   2.676  17.556  2.7181 -0.4110 -0.0447
 5252SOL    HW227219   0.902   2.598  17.613 -0.1108  0.0039  0.8947
 5253SOL     OW27220   1.672   3.758   8.856 -0.0278  0.0299  0.5136
 5253SOL    HW127221   1.627   3.831   8.899 -0.4920  1.5810 -2.6791
 5253SOL    HW227222   1.746   3.803   8.817  0.5256 -0.4420  1.0028
 5254SOL     OW27223   4.570   0.479   7.329 -0.4910  0.8094  0.0444
 5254SOL    HW127224   4.500   0.434   7.283  0.0238  0.4874 -0.4270
 5254SOL    HW227225   4.533   0.546   7.386 -1.2641  0.4379 -0.0334
 5255SOL     OW27226   4.586   4.257   1.682  0.1211 -0.5837  0.1823
 5255SOL    HW127227   4.556   4.346   1.662 -1.2867 -0.9531  0.6053
 5255SOL    HW227228   4.511   4.206   1.650  0.5300 -0.1461 -1.4828
 5256SOL     OW27229   0.638   4.188   6.219 -0.2912  0.2268 -0.0957
 5256SOL    HW127230   0.623   4.254   6.151  1.5595  2.9058  2.0687
 5256SOL    HW227231   0.724   4.217   6.250  1.5499 -2.6474 -2.6282
 5257SOL     OW27232   4.545   4.293  12.549  0.6842 -0.2141  0.2191
 5257SOL    HW127233   4.591   4.280  12.466  1.3309  0.6047  0.4508
 5257SOL    HW227234   4.563   4.207  12.586 -2.2701 -1.1746 -0.5662
 5258SOL     OW27235   1.537   2.340   6.768  0.4488 -0.4173  0.0314
 5258SOL    HW127236   1.548   2.325   6.862 -0.1456  2.0984  0.5039
 5258SOL    HW227237   1.451   2.380   6.756  1.5514  1.7296 -0.7492
 5259SOL     OW27238   2.101   3.687  14.005 -0.4347  0.0029 -0.1389
 5259SOL    HW127239   2.018   3.665  14.046 -0.1704  1.2859  1.0699
 5259SOL    HW227240   2.119   3.775  14.037 -1.4631  0.6147 -1.2376
 5260SOL     OW27241   2.957   1.040   3.591 -0.6685  0.4342 -0.3566
 5260SOL    HW127242   2.872   1.085   3.592  0.3695  2.4294 -0.2696
 5260SOL    HW227243   2.995   1.090   3.664 -1.3782 -0.3879  0.5811
 5261SOL     OW27244   3.796   2.418   2.774  0.4090 -0.2018 -0.6439
 5261SOL    HW127245   3.835   2.357   2.711  1.0814  0.0134 -0.4390
 5261SOL    HW227246   3.861   2.410   2.844 -0.8788 -1.8619  0.3566
 5262SOL     OW27247   1.345   3.747   3.104  0.4116 -0.0312 -0.8020
 5262SOL    HW127248   1.380   3.659   3.120 -0.4167 -0.2981 -0.4860
 5262SOL    HW227249   1.256   3.726   3.132  0.5351  0.8028  0.2202
 5263SOL     OW27250   4.296   0.240  16.943 -0.0333 -0.6549  0.0156
 5263SOL    HW127251   4.259   0.326  16.960 -0.0287 -0.3442 -1.5100
 5263SOL    HW227252   4.374   0.235  16.999  2.1761  1.5856 -2.8685
 5264SOL     OW27253   0.361   0.325   8.265 -0.2118  0.1535  0.3411
 5264SOL    HW127254   0.411   0.282   8.196 -1.6836 -1.1018  0.0410
 5264SOL    HW227255   0.356   0.416   8.233  1.4041  0.5115  1.1479
 5265SOL     OW27256   1.975   0.644   4.290 -0.3347 -0.7631 -0.2789
 5265SOL    HW127257   1.956   0.643   4.197 -1.6343  0.7121 -0.0219
 5265SOL    HW227258   1.995   0.553   4.310  0.0155 -0.3477  1.3319
 5266SOL     OW27259   3.610   2.221   0.215  0.2097 -0.3023  0.2551
 5266SOL    HW127260   3.564   2.173   0.284  0.1723  2.3938  2.0737
 5266SOL    HW227261   3.621   2.312   0.242 -0.5366  0.0584 -0.6566
 5267SOL     OW27262   3.713   3.641   7.475 -0.2283  0.1806 -0.9588
 5267SOL    HW127263   3.775   3.713   7.485 -2.1289  1.8239 -0.9184
 5267SOL    HW227264   3.649   3.659   7.543 -0.7531 -2.1562 -0.8239
 5268SOL     OW27265   1.695   2.308   5.694 -0.6695 -0.2312 -0.7421
 5268SOL    HW127266   1.703   2.215   5.675  2.4723 -0.3676  1.3840
 5268SOL    HW227267   1.700   2.297   5.789  0.1486 -1.3228 -0.9198
 5269SOL     OW27268   3.120   1.854   1.770 -0.5904  0.3012  0.2955
 5269SOL    HW127269   3.068   1.810   1.703  1.8379  0.1554 -1.5296
 5269SOL    HW227270   3.051   1.893   1.823 -1.8906 -0.9573 -0.4916
 5270SOL     OW27271   0.488   3.213   5.097 -0.1303 -0.0478  0.0052
 5270SOL    HW127272   0.415   3.185   5.041 -0.8944 -0.8186  1.3988
 5270SOL    HW227273   0.459   3.200   5.187  0.4178 -0.9487  0.0568
 5271SOL     OW27274   1.237   0.813  16.767 -0.2307  0.2441  0.2068
 5271SOL    HW127275   1.327   0.797  16.740  0.1113 -1.6133  2.4588
 5271SOL    HW227276   1.199   0.794  16.681  1.1537 -1.1775 -0.0975
 5272SOL     OW27277   2.283   4.645   3.021  0.1612  0.5717 -0.7096
 5272SOL    HW127278   2.374   4.649   3.051  0.6264 -0.8263 -1.9029
 5272SOL    HW227279   2.252   4.562   3.059  0.5953  1.3021  1.2131
 5273SOL     OW27280   0.436   3.804   0.535 -0.0393 -0.5239 -0.2324
 5273SOL    HW127281   0.421   3.869   0.467 -0.9702  0.2126  0.6896
 5273SOL    HW227282   0.364   3.742   0.524  0.7858 -0.8472 -4.1396
 5274SOL     OW27283   3.595   0.643   4.631 -0.2600  0.5503  0.2324
 5274SOL    HW127284   3.567   0.666   4.543  0.4162  0.2374 -0.0669
 5274SOL    HW227285   3.520   0.616   4.684 -0.4293 -0.0695 -0.3188
 5275SOL     OW27286   0.739   3.690  16.391 -0.5341 -0.0872  0.0378
 5275SOL    HW127287   0.717   3.605  16.429  0.3516  0.0099  0.7578
 5275SOL    HW227288   0.829   3.675  16.364  0.5736 -0.6134  3.9797
 5276SOL     OW27289   1.825   3.075  16.420  0.8837  0.7465  0.4809
 5276SOL    HW127290   1.779   3.085  16.503 -0.2200  2.5249 -0.3519
 5276SOL    HW227291   1.868   2.993  16.445  0.2535  0.4949  0.7189
 5277SOL     OW27292   1.538   0.879   7.382 -0.0332 -0.3475 -0.3198
 5277SOL    HW127293   1.534   0.969   7.417  0.9783 -0.0385 -0.9915
 5277SOL    HW227294   1.546   0.898   7.289  1.3879 -2.9107 -0.6986
 5278SOL     OW27295   2.411   2.059  11.545 -0.2961 -0.4560 -0.0700
 5278SOL    HW127296   2.477   2.031  11.482  0.1488  1.9877 -0.7022
 5278SOL    HW227297   2.474   2.095  11.608 -0.0251  1.1790 -1.2708
 5279SOL     OW27298   1.307   2.953   3.007 -0.4094  0.3165  0.9214
 5279SOL    HW127299   1.243   3.021   2.985 -0.3929  0.7866  2.2902
 5279SOL    HW227300   1.373   2.971   2.940  0.3295  1.5189  1.9598
 5280SOL     OW27301   0.790   1.107   4.774  0.5945 -0.0796 -0.0493
 5280SOL    HW127302   0.780   1.148   4.860 -0.9346  1.3967 -0.9316
 5280SOL    HW227303   0.871   1.148   4.744  0.7026 -0.7259 -0.6508
 5281SOL     OW27304   1.364   4.080   7.876 -0.1734  0.0058 -0.5648
 5281SOL    HW127305   1.279   4.117   7.901  0.0214  0.6445 -0.8531
 5281SOL    HW227306   1.407   4.097   7.960 -1.6969  1.3768 -0.0603
 5282SOL     OW27307   3.025   3.048   4.821 -0.0871 -0.2613 -0.1886
 5282SOL    HW127308   3.049   2.976   4.878  0.5608 -0.0680 -0.2157
 5282SOL    HW227309   3.111   3.067   4.782 -0.1585  1.9588  0.7392
 5283SOL     OW27310   1.916   3.414   9.283  0.3123  0.1686  0.1786
 5283SOL    HW127311   1.998   3.396   9.329 -0.9525 -2.2963  1.5051
 5283SOL    HW227312   1.874   3.329   9.297 -0.8009  0.5738 -0.6846
 5284SOL     OW27313   3.292   2.562   0.507 -0.4988 -0.1184 -0.2252
 5284SOL    HW127314   3.248   2.564   0.592 -2.1604  0.0361 -1.0878
 5284SOL    HW227315   3.227   2.507   0.463 -0.5886  0.0228 -0.2721
 5285SOL     OW27316   0.554   4.391   6.936 -0.2304  0.1179 -0.6203
 5285SOL    HW127317   0.486   4.338   6.977 -0.2474 -0.9665 -2.0793
 5285SOL    HW227318   0.556   4.475   6.983 -0.6884  2.2068 -4.3295
 5286SOL     OW27319   1.956   1.308   3.291 -0.4004 -0.2693  0.3311
 5286SOL    HW127320   1.888   1.257   3.248  0.2463 -1.1722  0.3758
 5286SOL    HW227321   1.982   1.381   3.234  1.8598  0.2539  2.0267
 5287SOL     OW27322   1.657   0.193   5.253  0.1367  0.2039 -0.7082
 5287SOL    HW127323   1.619   0.257   5.193 -2.0000  1.1919  1.7062
 5287SOL    HW227324   1.703   0.142   5.187 -0.7316 -1.1551 -0.2549
 5288SOL     OW27325   2.438   3.807   0.537 -0.5366  0.0650  0.1535
 5288SOL    HW127326   2.530   3.798   0.563 -0.0716  0.5794 -1.3482
 5288SOL    HW227327   2.449   3.816   0.443  1.7142  1.9457  0.5828
 5289SOL     OW27328   3.508   4.500   5.659  0.1055 -0.0191 -0.1590
 5289SOL    HW127329   3.469   4.456   5.584  0.7153 -0.6337 -0.1117
 5289SOL    HW227330   3.483   4.592   5.656  0.9821  0.2001 -0.6421
 5290SOL     OW27331   2.850   4.256  12.399 -0.3134 -0.4164  0.4662
 5290SOL    HW127332   2.916   4.281  12.335 -0.5185 -1.8942 -0.3118
 5290SOL    HW227333   2.829   4.164  12.381  0.2169 -0.3950 -0.2270
 5291SOL     OW27334   0.085   1.265   8.675  0.2165 -0.3072  0.3574
 5291SOL    HW127335   4.715   1.249   8.678 -0.0207  0.8808 -0.5302
 5291SOL    HW227336   0.124   1.181   8.649  0.8581 -0.1402  0.7758
 5292SOL     OW27337   1.701   3.246   3.932  0.4941 -0.2267 -0.0291
 5292SOL    HW127338   1.692   3.322   3.874  1.9955  1.2639  1.6881
 5292SOL    HW227339   1.649   3.182   3.883 -1.9802  1.8917 -0.1886
 5293SOL     OW27340   3.792   2.993   4.519 -0.1035 -0.0835 -0.2176
 5293SOL    HW127341   3.748   2.984   4.434  0.3997 -0.5795 -0.4304
 5293SOL    HW227342   3.863   2.929   4.512  1.2057  1.1442  1.6968
 5294SOL     OW27343   2.351   1.182  10.279 -0.0735  0.1441  0.3956
 5294SOL    HW127344   2.330   1.181  10.186 -0.5503  1.6019  0.4835
 5294SOL    HW227345   2.430   1.234  10.278 -0.0294  0.1018  1.6646
 5295SOL     OW27346   4.629   2.424   6.133  0.4276 -0.2340  0.5784
 5295SOL    HW127347   4.596   2.513   6.131  0.4512 -0.2741 -2.3064
 5295SOL    HW227348   4.550   2.371   6.121  0.6571 -0.4304 -0.0775
 5296SOL     OW27349   4.169   4.706  16.949 -0.1146 -0.0109 -0.1105
 5296SOL    HW127350   4.171   4.679  16.857  2.3903 -0.0821 -0.0502
 5296SOL    HW227351   4.204   0.070  16.937 -0.6056  0.5959  3.0555
 5297SOL     OW27352   3.575   3.934  14.692 -0.0645 -0.3451  0.5675
 5297SOL    HW127353   3.578   3.963  14.601 -0.5815 -0.5221  0.4938
 5297SOL    HW227354   3.627   3.854  14.684 -0.0492 -0.2461 -0.4201
 5298SOL     OW27355   4.084   3.827  15.903 -0.2757 -1.3048 -0.0938
 5298SOL    HW127356   4.045   3.914  15.894 -1.0520 -1.7172 -0.7036
 5298SOL    HW227357   4.147   3.840  15.833  1.3083  1.0223  1.7800
 5299SOL     OW27358   3.759   0.767  16.962 -0.1449 -0.0241 -0.4976
 5299SOL    HW127359   3.712   0.688  16.987 -1.0389  0.9430  0.8827
 5299SOL    HW227360   3.814   0.776  17.040  1.7937  0.4067 -1.9043
 5300SOL     OW27361   1.456   3.677   7.028 -0.0438 -0.3515  0.5933
 5300SOL    HW127362   1.459   3.684   7.123 -1.2652 -0.9122  0.6715
 5300SOL    HW227363   1.527   3.614   7.013  0.3151  0.7394 -2.2507
 5301SOL     OW27364   1.799   4.482  10.052  0.1476  0.3837 -0.0238
 5301SOL    HW127365   1.886   4.509  10.021  0.0500  0.6329 -0.0826
 5301SOL    HW227366   1.803   4.523  10.138  1.2819 -1.3735  0.7435
 5302SOL     OW27367   0.787   4.255   8.110 -0.1333  0.2218  0.6496
 5302SOL    HW127368   0.732   4.291   8.041 -0.8971  0.5281  1.4122
 5302SOL    HW227369   0.848   4.328   8.110  1.9570 -1.5282  0.8248
 5303SOL     OW27370   3.655   2.481   4.172  0.5579 -0.2512 -0.4698
 5303SOL    HW127371   3.719   2.420   4.134 -0.4055 -0.8395 -1.1360
 5303SOL    HW227372   3.586   2.467   4.107 -0.7768  1.4883  0.5798
 5304SOL     OW27373   4.362   3.678  16.308  0.0384 -0.1661 -0.2716
 5304SOL    HW127374   4.382   3.593  16.269  0.2157 -0.0129 -0.5110
 5304SOL    HW227375   4.287   3.706  16.255 -1.0609 -0.2031  1.2594
 5305SOL     OW27376   4.598   2.410   7.617 -0.1399 -0.1808  0.3955
 5305SOL    HW127377   4.597   2.331   7.671  0.2129  0.5286  1.4424
 5305SOL    HW227378   4.671   2.386   7.560 -0.5887  0.2435 -0.3581
 5306SOL     OW27379   4.135   1.815   8.974 -0.2179  0.1572 -0.2043
 5306SOL    HW127380   4.220   1.822   9.018 -1.8008 -0.6239  2.9597
 5306SOL    HW227381   4.087   1.757   9.033 -1.6662  1.2582 -0.3082
 5307SOL     OW27382   1.506   1.261   5.155  0.2866  0.2926  0.4025
 5307SOL    HW127383   1.497   1.237   5.062  0.3641  2.1216 -0.0769
 5307SOL    HW227384   1.433   1.214   5.194 -0.1987  0.6073 -0.1289
 5308SOL     OW27385   2.535   0.794  10.083 -0.1426 -0.0981 -0.0150
 5308SOL    HW127386   2.602   0.862  10.085 -0.7961  0.5447  0.0762
 5308SOL    HW227387   2.587   0.718  10.108  2.4193  0.9286 -2.2373
 5309SOL     OW27388   1.224   1.650  17.645  0.0262  0.7397  0.7361
 5309SOL    HW127389   1.164   1.580  17.619  0.1228  0.7106  0.5961
 5309SOL    HW227390   1.298   1.630  17.588 -0.9547  0.8874 -0.5969
 5310SOL     OW27391   4.185   2.774  12.790  0.0017  0.0946 -0.0882
 5310SOL    HW127392   4.179   2.715  12.714 -0.6057 -0.8355  0.6701
 5310SOL    HW227393   4.213   2.854  12.747  0.1151  0.5391  0.8240
 5311SOL     OW27394   0.101   4.336   5.704  0.0303  0.0777  0.3685
 5311SOL    HW127395   0.151   4.263   5.741 -1.1666 -1.3234 -0.8026
 5311SOL    HW227396   0.009   4.311   5.713 -0.1792  0.9383  0.5883
 5312SOL     OW27397   2.641   3.868   9.013  0.0216 -0.1402  0.1270
 5312SOL    HW127398   2.670   3.957   9.033  3.7827 -1.4723  0.6339
 5312SOL    HW227399   2.652   3.880   8.918 -0.8912 -0.9779 -0.0903
 5313SOL     OW27400   3.328   3.152   2.408  0.0468  0.7198 -0.1027
 5313SOL    HW127401   3.315   3.187   2.497 -0.6651  1.0571 -0.3448
 5313SOL    HW227402   3.325   3.057   2.418 -2.1124  0.8549  0.4302
 5314SOL     OW27403   2.162   3.566  13.546  0.1613  0.1954 -0.0103
 5314SOL    HW127404   2.224   3.524  13.605  1.5015 -0.1389 -1.6250
 5314SOL    HW227405   2.214   3.587  13.468  1.2603 -0.0186  0.6580
 5315SOL     OW27406   3.222   2.678  12.157 -0.3320 -0.3322  0.2179
 5315SOL    HW127407   3.182   2.607  12.108  1.1263 -2.1092  1.5813
 5315SOL    HW227408   3.274   2.633  12.224  0.7528  1.0360  0.3067
 5316SOL     OW27409   2.185   2.682  14.963 -0.0352 -0.4715  0.3902
 5316SOL    HW127410   2.121   2.636  14.909 -1.0978  1.6081 -0.1033
 5316SOL    HW227411   2.129   2.741  15.013 -0.4768 -1.4716  1.0822
 5317SOL     OW27412   4.021   1.666   3.558 -0.2793 -0.2005  0.3544
 5317SOL    HW127413   3.992   1.639   3.470 -1.4019 -1.2744  1.0583
 5317SOL    HW227414   3.941   1.707   3.592 -2.1855 -3.8523  0.2004
 5318SOL     OW27415   1.750   1.115   9.712 -0.1374  0.0473 -0.2821
 5318SOL    HW127416   1.804   1.106   9.790  1.1577 -0.2028 -1.1988
 5318SOL    HW227417   1.697   1.036   9.718 -0.4750  0.3430  0.5434
 5319SOL     OW27418   1.500   0.221   0.052 -0.4997  0.8533 -0.8021
 5319SOL    HW127419   1.431   0.220  17.684  0.5540  0.1141 -1.8915
 5319SOL    HW227420   1.578   0.201   0.001 -0.1740 -0.1410  0.1002
 5320SOL     OW27421   3.482   1.957   0.389 -0.0672 -0.5085 -0.5419
 5320SOL    HW127422   3.502   1.953   0.483 -0.0678  1.4882 -0.4687
 5320SOL    HW227423   3.536   1.882   0.362 -1.1611 -0.5384 -2.6384
 5321SOL     OW27424   1.741   1.907   7.425 -0.0030  0.2482 -0.3696
 5321SOL    HW127425   1.807   1.925   7.358 -1.2161  1.5733 -1.2089
 5321SOL    HW227426   1.786   1.838   7.473 -0.0328  0.9353  0.6349
 5322SOL     OW27427   1.128   2.613   3.866  0.4243 -0.0637  0.1432
 5322SOL    HW127428   1.219   2.622   3.894  0.4565  2.5646 -0.7307
 5322SOL    HW227429   1.116   2.673   3.793  0.0040  1.7410  1.6687
 5323SOL     OW27430   4.102   0.021   2.759 -0.0052  0.7770 -0.2974
 5323SOL    HW127431   4.112   4.675   2.823  1.5791  0.6939 -0.6266
 5323SOL    HW227432   4.116   4.705   2.673  3.0070 -1.5873  1.3112
 5324SOL     OW27433   4.548   0.436   2.874 -0.2103  0.0179 -0.0549
 5324SOL    HW127434   4.504   0.353   2.896 -1.1443  0.2130 -1.1549
 5324SOL    HW227435   4.596   0.411   2.795 -0.6152 -0.4745 -0.1496
 5325SOL     OW27436   3.421   2.308   3.513  0.3757  0.1011  0.2515
 5325SOL    HW127437   3.404   2.341   3.601  3.6190 -0.2676  1.0219
 5325SOL    HW227438   3.364   2.231   3.509 -1.8524  1.7955 -0.8341
 5326SOL     OW27439   2.292   3.603   8.084 -0.3483 -0.2283 -0.1117
 5326SOL    HW127440   2.385   3.616   8.069 -1.0288  2.0227 -2.2780
 5326SOL    HW227441   2.285   3.616   8.179  2.0209 -2.8680  0.4189
 5327SOL     OW27442   1.914   2.043  14.041  0.4409 -0.2466 -0.3674
 5327SOL    HW127443   1.980   2.112  14.036 -0.5057  0.6025 -1.2128
 5327SOL    HW227444   1.870   2.075  14.119  1.7799 -0.0117  0.2852
 5328SOL     OW27445   2.434   4.104  16.878 -0.0486  0.2996 -0.3050
 5328SOL    HW127446   2.449   4.083  16.786  2.8693 -0.1992  0.3029
 5328SOL    HW227447   2.393   4.191  16.872 -0.8991 -0.0157  1.0795
 5329SOL     OW27448   4.253   3.148   5.870  0.3390  0.0592  0.5030
 5329SOL    HW127449   4.238   3.169   5.962 -1.1753 -0.6328  0.4118
 5329SOL    HW227450   4.336   3.196   5.864  0.5551 -0.0496  2.5198
 5330SOL     OW27451   1.667   4.498   8.780  0.1650 -0.4863 -0.1150
 5330SOL    HW127452   1.679   4.586   8.745  1.2529 -0.4088  0.4636
 5330SOL    HW227453   1.687   4.445   8.704 -0.5993 -0.1692 -0.5428
 5331SOL     OW27454   0.268   2.996   3.206  0.3312  0.0866  0.2972
 5331SOL    HW127455   0.285   3.052   3.129 -2.9909  0.0317 -0.4744
 5331SOL    HW227456   0.175   2.982   3.189 -0.4121  3.5024  1.5072
 5332SOL     OW27457   0.932   3.129   6.297 -0.3476  0.3804  0.4387
 5332SOL    HW127458   0.895   3.104   6.213  1.9855 -0.5982 -0.3075
 5332SOL    HW227459   0.929   3.225   6.293 -0.6315  0.4648  2.6200
 5333SOL     OW27460   2.116   0.364   3.873 -0.1402  0.7047 -0.3829
 5333SOL    HW127461   2.203   0.396   3.850  0.4117  0.9005  1.9816
 5333SOL    HW227462   2.107   0.292   3.811 -1.8248 -0.2944  1.0223
 5334SOL     OW27463   2.446   2.331   2.066  0.2275  0.0663  0.2715
 5334SOL    HW127464   2.386   2.276   2.015  0.8879 -0.3783 -0.0231
 5334SOL    HW227465   2.508   2.268   2.103 -0.2447 -0.2348  0.5517
 5335SOL     OW27466   1.841   3.477   0.179 -0.4665 -0.2323  0.0959
 5335SOL    HW127467   1.800   3.416   0.240 -0.7167 -0.6400 -0.4746
 5335SOL    HW227468   1.888   3.539   0.235 -0.0602 -0.5525  0.1063
 5336SOL     OW27469   1.068   0.938   2.675  0.0026  0.4301  0.5107
 5336SOL    HW127470   0.995   0.962   2.733  1.2548  0.9019  1.8980
 5336SOL    HW227471   1.046   0.851   2.642 -0.1045  1.1733 -1.3554
 5337SOL     OW27472   2.189   3.646   9.161  0.2186  0.1455  0.0249
 5337SOL    HW127473   2.193   3.653   9.256 -3.2529  0.4183  0.1532
 5337SOL    HW227474   2.158   3.557   9.149  0.2267  0.1817 -0.2611
 5338SOL     OW27475   1.828   1.362   9.822  0.0964 -0.2829 -0.0384
 5338SOL    HW127476   1.888   1.368   9.748 -1.0823  1.6772 -0.8423
 5338SOL    HW227477   1.755   1.325   9.773  1.3724 -0.0130 -2.1420
 5339SOL     OW27478   1.119   0.375  15.029 -0.0428  0.1961  0.3210
 5339SOL    HW127479   1.024   0.368  15.042 -0.0120  2.1290  1.7034
 5339SOL    HW227480   1.119   0.288  14.990  0.1770  0.7144 -0.8157
 5340SOL     OW27481   1.148   2.858   2.598 -0.4394  0.2765  0.0511
 5340SOL    HW127482   1.196   2.780   2.567  0.4446  1.3056 -1.1854
 5340SOL    HW227483   1.060   2.837   2.567 -0.9984  0.2528  1.6364
 5341SOL     OW27484   0.319   2.192   6.334  0.1662 -0.7502  0.9347
 5341SOL    HW127485   0.382   2.237   6.278 -1.1978 -1.6564 -1.3461
 5341SOL    HW227486   0.296   2.113   6.285  0.3759  0.1895 -0.6903
 5342SOL     OW27487   1.906   1.509   9.267  0.6044 -0.1480 -0.3823
 5342SOL    HW127488   1.895   1.416   9.248  0.8770  0.0947 -1.7331
 5342SOL    HW227489   1.992   1.510   9.308 -0.2164 -0.0830  1.3611
 5343SOL     OW27490   0.882   4.495   7.687 -0.2675 -0.2272 -0.0315
 5343SOL    HW127491   0.886   4.509   7.782  1.4390 -0.0360 -0.1309
 5343SOL    HW227492   0.790   4.520   7.675 -1.1702 -2.0797  2.9936
 5344SOL     OW27493   2.217   4.443   2.184 -0.0546 -0.4734 -0.1260
 5344SOL    HW127494   2.285   4.389   2.223  0.9714 -0.0504 -1.3312
 5344SOL    HW227495   2.146   4.384   2.209  0.1215 -0.8627 -0.5562
 5345SOL     OW27496   2.478   1.009   6.721  0.1951  0.8439 -0.4823
 5345SOL    HW127497   2.448   1.062   6.795  1.8935  3.4703 -1.6889
 5345SOL    HW227498   2.570   1.003   6.747 -0.8750 -0.8257  2.8767
 5346SOL     OW27499   3.379   4.467   9.309  0.7486  0.4623 -0.6328
 5346SOL    HW127500   3.385   4.541   9.248 -1.3551  2.3541  1.4511
 5346SOL    HW227501   3.295   4.487   9.350  2.0109 -1.3538  2.8516
 5347SOL     OW27502   3.141   4.697   3.756  0.3258  0.1925  0.8860
 5347SOL    HW127503   3.045   4.694   3.764  0.1562  2.7533 -0.1126
 5347SOL    HW227504   3.152   4.671   3.665  2.8021  0.2921  1.1639
 5348SOL     OW27505   4.149   1.277   2.727 -0.1196  0.6501 -0.7585
 5348SOL    HW127506   4.154   1.263   2.632 -1.6530 -0.2207 -0.6973
 5348SOL    HW227507   4.233   1.321   2.742 -0.5815  0.4386  2.4379
 5349SOL     OW27508   1.248   4.165  14.608 -0.3174 -0.6942  0.6356
 5349SOL    HW127509   1.195   4.235  14.572  0.2844 -0.6939 -0.2401
 5349SOL    HW227510   1.328   4.209  14.636 -1.4962  1.1562  1.0565
 5350SOL     OW27511   4.508   2.348   9.061  0.0922 -0.0322  0.1118
 5350SOL    HW127512   4.572   2.280   9.082  2.2599  1.1978 -2.5015
 5350SOL    HW227513   4.565   2.423   9.077 -0.6211  0.4778  0.2730
 5351SOL     OW27514   0.932   0.400   7.401 -0.2114  0.3674  0.1072
 5351SOL    HW127515   0.842   0.390   7.368 -1.3146  1.3652  2.8755
 5351SOL    HW227516   0.976   0.347   7.334 -0.3568 -0.4403  0.6490
 5352SOL     OW27517   2.921   0.756   4.857 -0.2403 -0.1147  0.3802
 5352SOL    HW127518   2.977   0.703   4.914 -1.1285 -0.2664  1.1048
 5352SOL    HW227519   2.916   0.838   4.907  0.0254  0.9111 -1.2394
 5353SOL     OW27520   3.420   0.459   2.494 -0.2257  0.4808  0.3412
 5353SOL    HW127521   3.497   0.417   2.534  0.3681 -0.8286 -2.1573
 5353SOL    HW227522   3.365   0.383   2.473 -3.4249  3.0238 -0.3872
 5354SOL     OW27523   4.670   3.999   8.731  0.5205  0.4050 -0.2593
 5354SOL    HW127524   4.607   3.935   8.766 -2.7803  4.3611  0.9987
 5354SOL    HW227525   4.710   4.023   8.815 -0.3274  0.9170 -0.0053
 5355SOL     OW27526   3.789   4.261  13.444  0.2846 -0.0758 -1.0965
 5355SOL    HW127527   3.834   4.189  13.488 -1.7179 -1.5726 -1.4887
 5355SOL    HW227528   3.700   4.229  13.460  0.3384 -0.1743 -0.9959
 5356SOL     OW27529   3.571   2.234   0.691  0.2315 -0.2928  0.4463
 5356SOL    HW127530   3.556   2.328   0.702 -2.0262 -0.8505  2.1983
 5356SOL    HW227531   3.659   2.240   0.654 -1.1506 -0.2428 -2.8363
 5357SOL     OW27532   2.145   3.722   8.664  0.5346 -0.3350  0.7602
 5357SOL    HW127533   2.079   3.728   8.595  0.7219  1.2740  0.7336
 5357SOL    HW227534   2.129   3.634   8.700  0.1313 -0.9613 -0.9281
 5358SOL     OW27535   0.155   1.929  11.118 -0.4922  0.5604 -0.3444
 5358SOL    HW127536   0.151   1.835  11.136  2.6568  0.5635  0.3425
 5358SOL    HW227537   0.231   1.929  11.061  0.5248  2.0305  1.0013
 5359SOL     OW27538   2.743   1.568   1.663 -0.1931 -0.0568  0.0498
 5359SOL    HW127539   2.726   1.658   1.693  1.2439  0.2796 -0.1526
 5359SOL    HW227540   2.728   1.593   1.572 -1.8780 -1.4534 -0.0429
 5360SOL     OW27541   1.542   0.683  14.969 -0.3614 -0.3178  0.8655
 5360SOL    HW127542   1.601   0.730  14.910 -1.4672  0.4244  0.3509
 5360SOL    HW227543   1.504   0.626  14.902 -0.6637 -0.2743  1.0017
 5361SOL     OW27544   0.394   0.780   0.613 -0.0193  0.2572  0.2725
 5361SOL    HW127545   0.429   0.692   0.628  2.2979  1.0536 -0.4644
 5361SOL    HW227546   0.462   0.825   0.563 -0.6099 -0.4709 -1.2234
 5362SOL     OW27547   4.229   1.667   4.762  0.9294 -0.0308  0.3944
 5362SOL    HW127548   4.141   1.632   4.780  1.6160 -2.5007 -1.0050
 5362SOL    HW227549   4.263   1.600   4.703  2.5227  0.7265  0.4665
 5363SOL     OW27550   1.127   4.538   4.139  0.5839  0.2303  0.3408
 5363SOL    HW127551   1.050   4.537   4.196  1.1294 -0.7999  1.0685
 5363SOL    HW227552   1.101   4.611   4.083 -1.3403 -1.0806 -0.5012
 5364SOL     OW27553   2.065   1.764   9.159 -0.2099 -0.3577 -0.5696
 5364SOL    HW127554   2.050   1.670   9.155 -2.8356 -0.0780  3.1396
 5364SOL    HW227555   2.155   1.760   9.189 -0.2141  2.1506 -0.1787
 5365SOL     OW27556   3.250   4.558   8.922  0.0324  0.0426 -0.4983
 5365SOL    HW127557   3.326   4.592   8.970  0.7684 -0.6834 -1.1513
 5365SOL    HW227558   3.179   4.585   8.981  1.0561  0.1730  0.6840
 5366SOL     OW27559   2.072   1.062   2.033  0.6881 -0.3720 -0.3654
 5366SOL    HW127560   2.017   0.985   2.045 -0.2431  0.0414 -1.9262
 5366SOL    HW227561   2.018   1.133   1.998  2.5043  1.1743 -0.0070
 5367SOL     OW27562   0.625   2.060   8.520  0.4240 -0.5236  0.0010
 5367SOL    HW127563   0.694   2.008   8.479  0.9617 -0.4825  0.8603
 5367SOL    HW227564   0.564   2.071   8.447  1.6223 -0.6220 -1.0054
 5368SOL     OW27565   3.773   0.746   4.387 -0.5951  0.1954  0.7646
 5368SOL    HW127566   3.730   0.668   4.352 -0.4398 -0.2517  1.5825
 5368SOL    HW227567   3.697   0.804   4.390 -1.5880 -1.2403  2.9228
 5369SOL     OW27568   1.772   0.306   7.434  0.6679  0.5415  0.4757
 5369SOL    HW127569   1.867   0.296   7.440  0.5801 -0.2807  0.4952
 5369SOL    HW227570   1.751   0.227   7.383 -1.1513  0.4817  1.3359
 5370SOL     OW27571   4.606   1.506   3.033  0.1442 -0.3116  0.1994
 5370SOL    HW127572   4.584   1.577   3.093  1.5390  0.3808 -0.1037
 5370SOL    HW227573   4.648   1.444   3.093 -0.5426  1.4643  2.5316
 5371SOL     OW27574   3.513   3.013  17.394  0.1972 -0.1350  0.2637
 5371SOL    HW127575   3.608   3.017  17.404  0.2764 -1.0718 -0.1413
 5371SOL    HW227576   3.492   2.925  17.426  0.6870 -0.4255 -0.2161
 5372SOL     OW27577   2.497   1.353  12.810 -0.0601 -0.0968  0.1317
 5372SOL    HW127578   2.426   1.329  12.870 -0.1561  0.3190  0.1895
 5372SOL    HW227579   2.470   1.306  12.731  1.7650 -0.6228 -0.1612
 5373SOL     OW27580   1.016   0.188   9.998 -0.1225  0.0861 -0.4876
 5373SOL    HW127581   0.972   0.103   9.996  0.0173 -0.0111  0.4152
 5373SOL    HW227582   0.974   0.239   9.929 -2.4538  1.2452  1.8053
 5374SOL     OW27583   3.092   2.613   7.131  0.1713  0.0262  0.1979
 5374SOL    HW127584   3.050   2.670   7.196  0.2325  0.3786 -0.0751
 5374SOL    HW227585   3.139   2.556   7.192 -1.5986 -1.9912 -0.3064
 5375SOL     OW27586   4.529   4.454   7.270  0.2812 -0.0112  0.6670
 5375SOL    HW127587   4.599   4.517   7.284  0.7682 -0.2540 -0.6715
 5375SOL    HW227588   4.455   4.515   7.274  0.0204 -0.1786 -1.4650
 5376SOL     OW27589   2.729   4.682   6.011  0.3288 -0.2328  0.2999
 5376SOL    HW127590   2.674   0.028   6.045 -0.0748 -1.2442  1.7300
 5376SOL    HW227591   2.667   4.631   5.960 -0.1212  1.2671 -0.6410
 5377SOL     OW27592   4.310   4.469   8.008 -0.0273 -0.7908  0.2335
 5377SOL    HW127593   4.244   4.471   8.077 -0.4513  1.2854 -0.2298
 5377SOL    HW227594   4.314   4.374   7.993 -0.5888 -0.8448  0.4105
 5378SOL     OW27595   1.076   3.484   4.326 -0.4602 -0.0937 -0.4655
 5378SOL    HW127596   1.118   3.541   4.261  0.2353  1.3774  1.2825
 5378SOL    HW227597   1.049   3.539   4.399  1.9008 -0.2006  0.5062
 5379SOL     OW27598   2.112   1.682   8.870 -0.3606 -0.0556 -0.3776
 5379SOL    HW127599   2.198   1.645   8.846 -0.7864 -1.4008  0.1779
 5379SOL    HW227600   2.079   1.612   8.926  0.7758 -1.2837 -1.2248
 5380SOL     OW27601   4.384   4.034   6.250 -0.2680 -0.5469  0.2233
 5380SOL    HW127602   4.410   3.957   6.301 -0.3301 -0.7598 -0.0699
 5380SOL    HW227603   4.302   4.050   6.296  0.6083  1.7738  0.9682
 5381SOL     OW27604   3.222   0.915   8.417  0.2506  1.2909 -0.0147
 5381SOL    HW127605   3.307   0.888   8.451 -0.7836  0.4500  1.9248
 5381SOL    HW227606   3.170   0.835   8.417 -0.6206  1.8548 -0.4333
 5382SOL     OW27607   2.483   3.907  13.963 -0.3907  0.3935  0.0660
 5382SOL    HW127608   2.496   3.812  13.959 -3.1565  0.1618 -3.3541
 5382SOL    HW227609   2.505   3.923  14.054  1.0593 -0.7801 -0.0804
 5383SOL     OW27610   0.734   4.308  10.416  0.1899 -0.4471 -0.4449
 5383SOL    HW127611   0.671   4.308  10.344 -0.8249 -0.0939  0.4328
 5383SOL    HW227612   0.757   4.216  10.411 -0.7825 -0.7990  1.1994
 5384SOL     OW27613   4.113   1.815   3.749 -0.3793  0.0979 -0.0283
 5384SOL    HW127614   4.186   1.870   3.723  1.1020 -0.3437  3.2584
 5384SOL    HW227615   4.111   1.745   3.684 -0.0166 -0.4694  0.5785
 5385SOL     OW27616   3.711   1.718   7.991 -0.0676 -0.0963  0.3507
 5385SOL    HW127617   3.674   1.672   7.915  0.8441 -2.6630  1.4811
 5385SOL    HW227618   3.650   1.699   8.062  0.2953 -0.4843  0.5604
 5386SOL     OW27619   2.976   3.900   8.927  0.8348  0.1194 -0.1293
 5386SOL    HW127620   2.980   3.922   9.020  1.9031  0.2509 -0.2140
 5386SOL    HW227621   3.031   3.822   8.923 -1.0326 -1.2721  1.0083
 5387SOL     OW27622   0.297   2.290   3.393 -0.0197 -0.0134 -0.1888
 5387SOL    HW127623   0.350   2.287   3.313  0.7796  1.3841  0.2938
 5387SOL    HW227624   0.221   2.339   3.360  1.1762  1.1003 -1.3316
 5388SOL     OW27625   0.349   2.683   2.793  0.4329 -0.0546 -0.1172
 5388SOL    HW127626   0.272   2.645   2.751  0.3546 -1.7573  1.5383
 5388SOL    HW227627   0.321   2.774   2.794 -0.9949 -0.4713 -1.9126
 5389SOL     OW27628   2.640   0.186   3.424 -0.5372  0.0175  0.8235
 5389SOL    HW127629   2.587   0.165   3.347 -0.8395  0.0329  1.0290
 5389SOL    HW227630   2.729   0.171   3.390 -0.6477  0.7010  0.2308
 5390SOL     OW27631   2.969   0.365   6.952 -0.7067  0.2178  0.3699
 5390SOL    HW127632   2.935   0.447   6.988  0.0371  2.3479 -3.7592
 5390SOL    HW227633   2.909   0.295   6.978 -1.1599  0.0571 -1.1076
 5391SOL     OW27634   4.032   4.019  16.999 -0.2014 -0.5568  0.1493
 5391SOL    HW127635   4.103   4.082  16.982 -1.3444  0.7965  0.3579
 5391SOL    HW227636   4.083   3.955  17.049 -0.2726 -0.7332 -0.0093
 5392SOL     OW27637   3.455   1.541   5.050 -0.0723  0.2946 -0.1344
 5392SOL    HW127638   3.389   1.485   5.010 -0.8859  1.4973 -0.4736
 5392SOL    HW227639   3.405   1.583   5.120 -0.7061 -0.2530 -0.2595
 5393SOL     OW27640   3.048   4.719   9.297  0.0230 -0.1567  0.3280
 5393SOL    HW127641   3.052   0.060   9.367  1.5007  0.8248 -0.6920
 5393SOL    HW227642   3.032   4.639   9.347 -0.0667  1.0644  2.2686
 5394SOL     OW27643   4.513   3.452   6.485 -0.9358 -0.2686 -0.3254
 5394SOL    HW127644   4.582   3.423   6.544  0.0839  2.0150 -0.4025
 5394SOL    HW227645   4.548   3.529   6.440  0.7197  0.2148  1.7913
 5395SOL     OW27646   3.405   2.173   5.473 -0.1855 -0.1914 -0.2437
 5395SOL    HW127647   3.400   2.244   5.409 -0.2997  0.0391  0.0153
 5395SOL    HW227648   3.343   2.107   5.443 -0.0451 -1.0536  1.3770
 5396SOL     OW27649   1.353   2.347   7.080 -0.0125 -0.1715  0.0375
 5396SOL    HW127650   1.360   2.443   7.082  0.2603 -0.1625 -1.0430
 5396SOL    HW227651   1.319   2.317   7.164  0.0203  1.8292  0.7645
 5397SOL     OW27652   2.074   4.493   5.461 -0.7259  0.2738  0.1707
 5397SOL    HW127653   2.102   4.403   5.477 -2.0430 -0.0444  0.7589
 5397SOL    HW227654   2.018   4.486   5.384  1.0927 -0.1380 -1.1156
 5398SOL     OW27655   1.352   1.818   3.344  0.8097  0.2626  0.2958
 5398SOL    HW127656   1.343   1.806   3.439 -0.5541  1.4215  0.3329
 5398SOL    HW227657   1.445   1.830   3.330  0.3155  1.3937 -2.0713
 5399SOL     OW27658   0.641   3.908   6.094 -0.1054 -0.3336 -0.3264
 5399SOL    HW127659   0.665   3.987   6.141 -0.4218 -0.3044 -0.2120
 5399SOL    HW227660   0.602   3.855   6.164  0.8856  0.2348  0.6496
 5400SOL     OW27661   2.266   4.642   2.749 -0.0306 -0.7934 -0.3487
 5400SOL    HW127662   2.266   4.654   2.844  1.0283  1.4839 -0.6467
 5400SOL    HW227663   2.181   4.671   2.715  1.5866  1.0699 -2.8067
 5401SOL     OW27664   2.855   2.895  17.679 -0.6782 -0.4367 -0.1555
 5401SOL    HW127665   2.946   2.882  17.655  0.2015  1.7880  2.0024
 5401SOL    HW227666   2.821   2.818  17.633  0.5569  0.3439 -2.3797
 5402SOL     OW27667   1.040   2.097   6.807 -0.2382  0.2908  0.4472
 5402SOL    HW127668   1.135   2.111   6.808 -0.0821 -0.4569 -3.1589
 5402SOL    HW227669   1.017   2.172   6.861 -2.1911  0.0340 -0.0188
 5403SOL     OW27670   2.945   0.900  14.096 -0.4018  1.0565 -0.3025
 5403SOL    HW127671   2.885   0.915  14.022  0.5301 -1.0048 -1.4923
 5403SOL    HW227672   2.884   0.906  14.169 -0.3995 -0.0690 -0.2008
 5404SOL     OW27673   1.411   3.097   4.878 -0.3446 -0.1860 -0.1575
 5404SOL    HW127674   1.389   3.189   4.862  2.0510  0.3148 -0.5831
 5404SOL    HW227675   1.362   3.067   4.955  0.3863 -0.5382  0.1709
 5405SOL     OW27676   0.558   3.529  15.628 -0.0136 -0.3866  0.4023
 5405SOL    HW127677   0.555   3.459  15.562  2.1806  0.9269 -1.1250
 5405SOL    HW227678   0.508   3.509  15.707  1.2651 -2.0559  0.7888
 5406SOL     OW27679   3.053   4.047   5.729 -0.1694  0.2506 -0.6423
 5406SOL    HW127680   3.044   3.959   5.694 -2.3999 -0.0613  0.7382
 5406SOL    HW227681   2.975   4.095   5.702 -1.0812 -1.1961 -0.5866
 5407SOL     OW27682   0.501   1.970  16.687  0.3029  0.1655  0.3067
 5407SOL    HW127683   0.497   1.993  16.780  0.3159 -0.5866  0.4964
 5407SOL    HW227684   0.596   1.969  16.675  0.3874 -0.3140  0.9618
 5408SOL     OW27685   0.299   1.968  12.354  0.5581  0.1987  0.0476
 5408SOL    HW127686   0.389   1.937  12.366  1.4214  1.6131 -2.7811
 5408SOL    HW227687   0.249   1.929  12.426 -0.2051 -1.5082 -1.4304
 5409SOL     OW27688   1.449   0.658  16.698  0.0922  0.7107  0.0863
 5409SOL    HW127689   1.378   0.593  16.697 -0.4639  1.2984  0.8306
 5409SOL    HW227690   1.507   0.613  16.759 -0.2152 -0.7529 -0.6985
 5410SOL     OW27691   0.557   0.156   9.119 -0.4667 -0.3036  0.1232
 5410SOL    HW127692   0.563   0.179   9.026  2.0563  0.9473  0.5828
 5410SOL    HW227693   0.491   0.218   9.151  0.4136  2.1210 -2.7225
 5411SOL     OW27694   4.454   2.596   6.519  0.0561  0.0320 -0.5943
 5411SOL    HW127695   4.367   2.587   6.478 -0.0296  1.3082 -0.7112
 5411SOL    HW227696   4.493   2.521   6.475  0.6287 -0.0509  0.0613
 5412SOL     OW27697   0.560   3.017  16.792 -0.4395  0.5037  0.0081
 5412SOL    HW127698   0.604   3.096  16.760  2.0205 -0.7268  0.2984
 5412SOL    HW227699   0.617   3.007  16.869 -1.0378  1.1492  0.5331
 5413SOL     OW27700   1.773   1.756   6.116  0.3828  0.1381 -0.4279
 5413SOL    HW127701   1.697   1.701   6.138 -0.2125  1.5130  0.9577
 5413SOL    HW227702   1.792   1.794   6.202 -1.6589  1.3715 -0.5198
 5414SOL     OW27703   4.426   1.513   7.881  0.4965 -0.0880  0.0516
 5414SOL    HW127704   4.447   1.565   7.958 -2.1917  0.2419  0.5568
 5414SOL    HW227705   4.518   1.516   7.856  0.3207 -0.0525 -0.6023
 5415SOL     OW27706   4.271   3.528   6.649  0.1709 -0.5548  0.4540
 5415SOL    HW127707   4.300   3.550   6.738 -1.9649  1.0092  0.7492
 5415SOL    HW227708   4.356   3.511   6.609  0.6214 -0.1162  1.2227
 5416SOL     OW27709   4.329   0.288  16.387  0.0046  0.0248 -0.3206
 5416SOL    HW127710   4.296   0.356  16.329 -0.0770  1.4322  1.3525
 5416SOL    HW227711   4.272   0.317  16.459  0.0191 -0.5615 -0.0783
 5417SOL     OW27712   3.314   1.136   1.737  0.5780 -0.7480  0.2198
 5417SOL    HW127713   3.246   1.070   1.744  1.3970 -1.7096 -0.8571
 5417SOL    HW227714   3.390   1.078   1.745  1.8162  0.6338 -1.3907
 5418SOL     OW27715   1.781   1.996  12.529  0.3000 -0.4600  0.5317
 5418SOL    HW127716   1.724   2.045  12.469  0.4807  0.2169  0.9105
 5418SOL    HW227717   1.844   2.068  12.524  1.8483 -1.7679  1.0849
 5419SOL     OW27718   4.405   1.037  10.958  0.1689  0.9268 -0.0872
 5419SOL    HW127719   4.315   1.012  10.941 -0.0196  1.5253  0.0610
 5419SOL    HW227720   4.418   1.050  11.052  1.6672 -1.3282  0.0462
 5420SOL     OW27721   2.572   0.320   9.605  0.4709  0.4209  0.2719
 5420SOL    HW127722   2.612   0.290   9.524  0.3827 -0.3638  0.5190
 5420SOL    HW227723   2.625   0.394   9.632  3.3984 -0.9602 -1.6817
 5421SOL     OW27724   1.860   1.963   5.953  0.7424 -0.1050  0.1003
 5421SOL    HW127725   1.880   2.030   6.018  1.2370 -0.9943  0.8794
 5421SOL    HW227726   1.831   1.892   6.010  1.0800  0.0918  0.5231
 5422SOL     OW27727   4.109   0.133  10.316 -0.1017 -0.2554  0.1816
 5422SOL    HW127728   4.057   0.168  10.388  1.7840  0.1536  1.3397
 5422SOL    HW227729   4.177   0.085  10.363  0.4507 -0.4096 -0.7763
 5423SOL     OW27730   3.271   2.108   1.117 -0.3534  0.1029 -0.1904
 5423SOL    HW127731   3.331   2.127   1.044  2.5231 -2.7592  1.4388
 5423SOL    HW227732   3.222   2.190   1.123  0.7685  0.6173  1.9333
 5424SOL     OW27733   1.594   0.091   5.965 -0.2777 -0.5471  0.4971
 5424SOL    HW127734   1.565   0.005   5.936 -1.2526 -0.0174 -0.0913
 5424SOL    HW227735   1.688   0.097   5.950 -0.4187 -0.7900 -0.4440
 5425SOL     OW27736   2.995   1.010   0.640  0.1287  0.1120 -0.2245
 5425SOL    HW127737   3.053   0.964   0.579 -1.2036 -2.9865  0.8655
 5425SOL    HW227738   3.061   1.053   0.695 -0.3673  0.7616 -0.1322
 5426SOL     OW27739   0.973   1.704   8.517 -0.5091 -0.2012  0.0479
 5426SOL    HW127740   1.049   1.706   8.575  0.6143  1.7277 -1.4562
 5426SOL    HW227741   0.972   1.610   8.501 -1.8500  0.1727 -1.9782
 5427SOL     OW27742   3.639   2.035   4.358  0.0966  0.2320 -0.1753
 5427SOL    HW127743   3.678   1.956   4.396  0.5680  0.9118  0.7422
 5427SOL    HW227744   3.560   2.000   4.317  0.3694  0.5016 -0.9405
 5428SOL     OW27745   0.962   0.729   7.905 -0.3496 -0.4031  0.7295
 5428SOL    HW127746   1.010   0.706   7.825  0.0815 -2.7544  1.6624
 5428SOL    HW227747   0.882   0.763   7.865 -1.3060 -2.6534  0.7353
 5429SOL     OW27748   3.476   2.264   4.662  0.1671 -0.4151  0.1253
 5429SOL    HW127749   3.383   2.263   4.685  0.0866 -0.6606 -0.2048
 5429SOL    HW227750   3.493   2.344   4.711 -1.1380  0.3859 -0.7177
 5430SOL     OW27751   3.133   4.009   6.903  0.7287 -0.3819  0.3304
 5430SOL    HW127752   3.204   4.027   6.965  1.6254 -2.0237 -0.2228
 5430SOL    HW227753   3.186   3.990   6.825  1.9913  0.6423  0.9383
 5431SOL     OW27754   1.077   4.099   7.526  0.1860 -0.7293  0.3312
 5431SOL    HW127755   1.001   4.145   7.562  0.7168 -0.2484  0.8495
 5431SOL    HW227756   1.114   4.056   7.603 -0.6842  0.4918  1.4253
 5432SOL     OW27757   1.178   0.009   9.360  0.0063 -0.0117 -0.0321
 5432SOL    HW127758   1.274   0.009   9.369  0.1227  0.1325 -1.2757
 5432SOL    HW227759   1.154   0.068   9.431  1.4519  0.2115  0.2789
 5433SOL     OW27760   0.782   1.243  12.928 -0.0723  0.2356 -0.0338
 5433SOL    HW127761   0.770   1.331  12.891 -2.1282  0.5673  1.4006
 5433SOL    HW227762   0.865   1.249  12.975  0.5722  1.1977 -1.2854
 5434SOL     OW27763   4.701   2.057  13.378 -0.3695  0.0853 -0.3787
 5434SOL    HW127764   0.021   2.015  13.304  1.1695 -2.0017  1.7226
 5434SOL    HW227765   4.621   2.004  13.385 -2.0234  2.3030 -2.7253
 5435SOL     OW27766   2.984   3.821  12.177 -0.0479 -0.3982  0.0398
 5435SOL    HW127767   3.015   3.893  12.123 -1.4560  2.2413  2.7531
 5435SOL    HW227768   3.060   3.771  12.207 -0.3909 -1.3359 -0.6541
 5436SOL     OW27769   1.245   1.706   6.621 -0.2566  0.3895 -0.1154
 5436SOL    HW127770   1.323   1.705   6.676 -0.6481  0.9695  0.4372
 5436SOL    HW227771   1.179   1.704   6.690  0.8202 -1.1095  0.8814
 5437SOL     OW27772   0.139   3.386   2.332 -0.2661 -0.4154 -0.4007
 5437SOL    HW127773   0.137   3.431   2.248  1.0449  2.2378  0.9893
 5437SOL    HW227774   0.096   3.304   2.309 -0.3366 -0.2160 -0.9736
 5438SOL     OW27775   4.308   2.670   3.988  1.0280 -0.0753 -0.3438
 5438SOL    HW127776   4.384   2.639   4.037  2.7577  1.4375 -2.0942
 5438SOL    HW227777   4.333   2.660   3.896  0.2208  1.8025 -0.7593
 5439SOL     OW27778   3.299   1.875   0.071 -0.8266 -0.0059 -0.3165
 5439SOL    HW127779   3.228   1.820   0.038 -0.5614  0.9531 -2.4584
 5439SOL    HW227780   3.353   1.812   0.118 -1.2025  1.1109  1.6342
 5440SOL     OW27781   2.643   3.104   8.163 -0.6410  0.0478  0.6933
 5440SOL    HW127782   2.548   3.116   8.153  0.0383  4.1597 -1.0515
 5440SOL    HW227783   2.649   3.156   8.243 -0.4336 -2.0789  2.0595
 5441SOL     OW27784   4.609   0.154   3.740  0.6367  0.3200 -0.2288
 5441SOL    HW127785   4.678   0.172   3.676 -0.4679  0.3847 -1.3977
 5441SOL    HW227786   4.531   0.202   3.713  0.1420 -1.6824 -2.3146
 5442SOL     OW27787   1.602   2.217   2.928 -0.6432  0.3734  0.0956
 5442SOL    HW127788   1.669   2.219   2.860 -0.0267  0.4051  0.7056
 5442SOL    HW227789   1.536   2.176   2.871  1.5323 -1.9628 -0.7312
 5443SOL     OW27790   3.399   2.014   4.242 -0.4520  0.1937 -0.1950
 5443SOL    HW127791   3.315   1.988   4.203  0.0012  0.3658 -1.2972
 5443SOL    HW227792   3.448   2.046   4.166  3.6880 -0.3975  2.2699
 5444SOL     OW27793   4.565   1.957   3.056 -0.0412 -0.1041 -1.0165
 5444SOL    HW127794   4.535   1.883   3.110 -0.2408  0.2508 -0.6398
 5444SOL    HW227795   4.625   1.910   2.998 -0.7980 -0.8460 -1.1985
 5445SOL     OW27796   2.375   4.540  12.275 -0.5650  0.5135 -0.0061
 5445SOL    HW127797   2.300   4.485  12.299 -0.1783  0.2294  0.5422
 5445SOL    HW227798   2.437   4.468  12.261 -3.1613 -2.0858  1.8861
 5446SOL     OW27799   1.352   1.979   7.404  0.4928  0.1396  0.7914
 5446SOL    HW127800   1.408   1.973   7.481  0.9592 -2.2055  0.2730
 5446SOL    HW227801   1.270   1.932   7.421  0.5739 -0.5615 -0.7423
 5447SOL     OW27802   0.763   2.566   9.219  0.2708 -0.9922 -0.2159
 5447SOL    HW127803   0.843   2.584   9.170 -0.1216 -1.2041 -0.9355
 5447SOL    HW227804   0.748   2.654   9.256  0.5097 -0.7778 -0.6356
 5448SOL     OW27805   1.855   3.708  14.128  0.6100 -0.0716  0.3244
 5448SOL    HW127806   1.820   3.761  14.200 -0.2282  0.0164 -0.1492
 5448SOL    HW227807   1.866   3.783  14.069 -0.2122  0.2686  0.6071
 5449SOL     OW27808   2.578   2.088   3.849 -0.5055  0.1615 -0.3842
 5449SOL    HW127809   2.545   2.107   3.937 -1.6622  1.6695 -1.1435
 5449SOL    HW227810   2.575   1.993   3.846  1.4565  0.0839  0.0221
 5450SOL     OW27811   2.395   3.639  15.180  0.3172  0.4080  0.1742
 5450SOL    HW127812   2.383   3.562  15.235 -1.8491  0.2647 -0.5037
 5450SOL    HW227813   2.438   3.600  15.104  1.1347  2.8197 -0.5968
 5451SOL     OW27814   2.558   2.011   1.907  0.0796  0.3347 -0.6354
 5451SOL    HW127815   2.518   1.924   1.905 -0.8504  0.7246  1.6551
 5451SOL    HW227816   2.476   2.059   1.914 -1.1286 -1.3550 -2.7968
 5452SOL     OW27817   0.989   2.741   5.687 -0.2334  0.7402 -0.0764
 5452SOL    HW127818   0.921   2.771   5.747  0.1602  1.3299  0.0737
 5452SOL    HW227819   1.023   2.814   5.636 -1.7637 -0.2822 -2.5462
 5453SOL     OW27820   3.134   1.846   9.783 -0.3092 -0.0104  0.4560
 5453SOL    HW127821   3.174   1.932   9.772 -1.7237  0.9334  2.6241
 5453SOL    HW227822   3.216   1.797   9.790 -1.7453 -2.7018 -1.3933
 5454SOL     OW27823   4.340   3.152   3.026 -0.3075  0.1509  0.2654
 5454SOL    HW127824   4.295   3.077   3.063 -1.3418  1.7935  2.3633
 5454SOL    HW227825   4.401   3.107   2.968 -1.2109 -0.7180 -0.0162
 5455SOL     OW27826   0.886   2.318  10.904 -0.5223 -0.3162  0.2160
 5455SOL    HW127827   0.792   2.308  10.884 -0.7222  1.7387  0.0959
 5455SOL    HW227828   0.887   2.279  10.991  1.8616 -3.8807 -1.3823
 5456SOL     OW27829   3.853   2.776   2.519  0.8746 -0.3467  0.2306
 5456SOL    HW127830   3.766   2.772   2.479  0.5371 -0.6362  0.9779
 5456SOL    HW227831   3.833   2.758   2.611 -0.9258 -1.0245 -0.2875
 5457SOL     OW27832   1.719   2.035  11.159 -0.7426  0.2472  0.7128
 5457SOL    HW127833   1.809   2.045  11.127 -0.6397 -0.2918  0.8296
 5457SOL    HW227834   1.685   2.124  11.151 -0.6281  0.3969  1.9146
 5458SOL     OW27835   2.100   1.792   1.997  0.0240  0.3867 -0.1680
 5458SOL    HW127836   2.134   1.715   2.042 -2.1507  0.5719  1.7554
 5458SOL    HW227837   2.009   1.764   1.989 -0.0590  0.7591 -0.5552
 5459SOL     OW27838   4.083   1.071   4.190  0.0997 -0.4123  0.3138
 5459SOL    HW127839   4.045   1.041   4.273  0.2410 -0.3459  0.4018
 5459SOL    HW227840   4.061   0.994   4.138  1.0898  0.1174 -0.8728
 5460SOL     OW27841   3.197   3.005   9.305 -0.2205 -0.3620 -0.0596
 5460SOL    HW127842   3.235   3.088   9.332  0.6599 -1.6366  2.6890
 5460SOL    HW227843   3.141   2.988   9.381  0.0493 -1.8526 -0.1783
 5461SOL     OW27844   0.277   1.612   6.067 -0.1908  0.0292  0.2145
 5461SOL    HW127845   0.354   1.555   6.066 -0.2075 -0.0109  1.8607
 5461SOL    HW227846   0.209   1.548   6.046  0.7240 -1.3079  1.3348
 5462SOL     OW27847   3.772   0.971  14.932  0.1509  0.1164 -0.5452
 5462SOL    HW127848   3.868   0.969  14.924  0.1687  1.2683 -0.6918
 5462SOL    HW227849   3.757   0.904  14.998  2.5432  0.0879 -0.0304
 5463SOL     OW27850   2.371   4.145  10.946  0.6102 -0.1545 -0.3783
 5463SOL    HW127851   2.374   4.207  11.019  0.5462 -1.6221  0.8597
 5463SOL    HW227852   2.412   4.189  10.872 -0.1655  1.1186 -0.0430
 5464SOL     OW27853   1.868   0.013  11.687 -0.3339  0.1732  0.9137
 5464SOL    HW127854   1.894   0.103  11.668 -1.7971  0.8434  2.0497
 5464SOL    HW227855   1.822   4.706  11.609  1.0402  0.5158 -0.0266
 5465SOL     OW27856   0.885   3.102   4.481  0.3606  0.1587 -0.5489
 5465SOL    HW127857   0.930   3.141   4.556  2.8536 -1.6275 -1.1044
 5465SOL    HW227858   0.915   3.164   4.415 -1.9857  0.1193 -1.6469
 5466SOL     OW27859   1.483   4.012   7.633  0.3420  0.0565  0.0044
 5466SOL    HW127860   1.468   4.018   7.727  0.5949  1.6152 -0.0506
 5466SOL    HW227861   1.510   3.920   7.624  0.4927  0.2328 -1.3177
 5467SOL     OW27862   3.457   1.502   8.054  0.1926 -0.3870 -0.0121
 5467SOL    HW127863   3.373   1.486   8.011  0.1804 -0.2524 -0.0381
 5467SOL    HW227864   3.517   1.454   7.998 -0.5174  0.4948 -1.5286
 5468SOL     OW27865   2.258   2.359   3.711  0.2482  0.1191 -0.3402
 5468SOL    HW127866   2.349   2.335   3.694 -0.3790 -1.7306 -1.1259
 5468SOL    HW227867   2.257   2.434   3.771  1.3824 -1.0357  1.1083
 5469SOL     OW27868   0.980   3.485  11.583  0.1471  0.0243  0.8535
 5469SOL    HW127869   0.891   3.491  11.618  0.3014  2.1434  0.8283
 5469SOL    HW227870   0.974   3.480  11.488  0.9487  0.6381  0.7744
 5470SOL     OW27871   3.379   1.488   3.163  0.1616 -0.5011  0.2204
 5470SOL    HW127872   3.377   1.392   3.165 -1.6464 -0.4575  0.7548
 5470SOL    HW227873   3.474   1.496   3.172  0.1801  0.0488 -0.4848
 5471SOL     OW27874   0.533   3.541   7.627  0.0448 -0.8553 -0.9424
 5471SOL    HW127875   0.562   3.465   7.679  0.6644  0.3558  0.4798
 5471SOL    HW227876   0.455   3.573   7.672  1.3657 -2.5765  2.5354
 5472SOL     OW27877   2.292   2.261  17.394  0.4853 -0.1145 -0.4199
 5472SOL    HW127878   2.360   2.328  17.383  2.9200 -2.4858  0.2272
 5472SOL    HW227879   2.307   2.204  17.318  1.0622 -0.3424 -0.1351
 5473SOL     OW27880   2.797   0.232   9.866 -0.1034  0.1878 -0.4427
 5473SOL    HW127881   2.789   0.179   9.787 -0.1909 -0.4912  0.0202
 5473SOL    HW227882   2.849   0.307   9.837  0.9196 -0.7796 -1.1662
 5474SOL     OW27883   2.168   3.128   8.438  0.1084  0.0573  0.7502
 5474SOL    HW127884   2.187   3.218   8.466 -1.3518 -0.2380  2.6132
 5474SOL    HW227885   2.252   3.093   8.469  2.4699  4.6437 -0.4163
 5475SOL     OW27886   0.112   0.295   8.008  0.6219  0.1284  0.3439
 5475SOL    HW127887   0.076   0.267   7.924  0.7558 -0.5718  0.5249
 5475SOL    HW227888   0.037   0.333   8.053 -0.0226 -0.4839 -0.2162
 5476SOL     OW27889   4.049   2.066   2.022  0.0582 -0.2416  0.6919
 5476SOL    HW127890   4.023   1.981   2.057 -2.7922  0.1335 -0.5377
 5476SOL    HW227891   4.005   2.057   1.938  0.2614 -0.3495  0.5958
 5477SOL     OW27892   3.399   1.710   6.929  0.5032  0.2040 -0.8758
 5477SOL    HW127893   3.437   1.658   7.000  0.7268  1.0621 -0.3656
 5477SOL    HW227894   3.474   1.752   6.888  0.4063  0.2755 -0.9807
 5478SOL     OW27895   0.121   0.239   8.680 -0.0041  0.4288 -0.6213
 5478SOL    HW127896   0.181   0.250   8.606 -2.2553 -3.6438 -3.0526
 5478SOL    HW227897   0.184   0.224   8.750  0.5909 -0.8228 -1.4287
 5479SOL     OW27898   2.224   2.085   6.222  0.6418  0.3963  0.5400
 5479SOL    HW127899   2.272   2.167   6.209 -0.7729  1.1938  0.3983
 5479SOL    HW227900   2.267   2.041   6.149 -1.5030 -2.1638  0.8239
 5480SOL     OW27901   3.239   3.120   3.242  0.1730  0.6371 -0.0789
 5480SOL    HW127902   3.251   3.208   3.277 -1.7882  0.0415  2.1511
 5480SOL    HW227903   3.298   3.070   3.299 -2.4740 -1.4841  0.8209
 5481SOL     OW27904   4.344   0.940   4.092 -0.4861  0.3902 -0.0586
 5481SOL    HW127905   4.323   0.862   4.144 -3.5888 -0.3954 -2.5063
 5481SOL    HW227906   4.263   0.992   4.094  0.2687  1.4628  3.7030
 5482SOL     OW27907   1.781   1.561   2.628 -0.4683 -0.6058 -0.3334
 5482SOL    HW127908   1.726   1.603   2.562 -3.4625  0.8754  3.0556
 5482SOL    HW227909   1.717   1.521   2.688 -0.1450  2.0011  1.7172
 5483SOL     OW27910   3.236   1.748   3.357  0.3239 -0.2054 -0.4873
 5483SOL    HW127911   3.256   1.724   3.267 -1.2807 -0.6147 -0.7292
 5483SOL    HW227912   3.313   1.720   3.407  0.2182  0.1427 -0.1210
 5484SOL     OW27913   3.094   4.544   0.385 -0.3330  0.0776 -0.4748
 5484SOL    HW127914   3.045   4.462   0.394  0.9197 -0.6425 -0.1410
 5484SOL    HW227915   3.104   4.546   0.290  1.2961 -1.4005 -0.3318
 5485SOL     OW27916   3.691   2.622  11.771  0.4121 -0.2737 -0.1688
 5485SOL    HW127917   3.607   2.591  11.805 -0.5672  1.1798 -1.2417
 5485SOL    HW227918   3.739   2.621  11.853  1.0183  3.0916 -0.4548
 5486SOL     OW27919   1.353   4.551  14.666  0.4300  0.2336 -0.4307
 5486SOL    HW127920   1.381   4.468  14.629 -1.7254 -0.0455 -1.4441
 5486SOL    HW227921   1.424   4.554  14.730 -0.0119  3.8733 -0.0926
 5487SOL     OW27922   3.675   3.331  11.034 -0.0235  0.3408  0.1673
 5487SOL    HW127923   3.752   3.381  11.006  0.1875  1.3927  2.6507
 5487SOL    HW227924   3.664   3.355  11.126 -2.1717 -1.0211  0.2450
 5488SOL     OW27925   1.451   4.225   8.904 -1.0438 -0.3282  0.4856
 5488SOL    HW127926   1.433   4.302   8.958 -2.3893  0.5943 -1.2473
 5488SOL    HW227927   1.450   4.245   8.810 -1.4774  1.0601  0.7896
 5489SOL     OW27928   4.500   2.340   4.417 -0.0201 -0.3852 -0.0243
 5489SOL    HW127929   4.461   2.391   4.488 -0.9151 -0.9510 -0.1001
 5489SOL    HW227930   4.470   2.250   4.435  0.3578 -0.5956 -0.4334
 5490SOL     OW27931   1.427   1.993   4.769  0.3152 -0.0434 -0.0740
 5490SOL    HW127932   1.402   1.966   4.681 -0.5904  0.4005  0.0472
 5490SOL    HW227933   1.516   1.960   4.782  0.3881 -0.5682 -2.0363
 5491SOL     OW27934   0.030   1.618   2.801  0.1630  0.4862  0.0767
 5491SOL    HW127935   4.724   1.708   2.800  1.5323  0.9539  0.2485
 5491SOL    HW227936   4.704   1.577   2.871 -1.6926  1.2443 -0.8225
 5492SOL     OW27937   3.769   2.951   3.107  0.2043  0.0906 -0.5783
 5492SOL    HW127938   3.823   2.877   3.078  0.6760  0.0260  0.4682
 5492SOL    HW227939   3.833   3.006   3.153  1.3974  0.1742 -2.3441
 5493SOL     OW27940   3.716   0.906   3.751 -0.1621  0.2739  0.1285
 5493SOL    HW127941   3.811   0.905   3.753 -0.1453  1.7358  0.3174
 5493SOL    HW227942   3.696   0.813   3.742 -0.7047  0.3436  0.5382
 5494SOL     OW27943   3.469   2.477   4.812 -0.1347 -0.4011  0.3166
 5494SOL    HW127944   3.502   2.563   4.785 -1.8489 -0.4731 -2.0379
 5494SOL    HW227945   3.467   2.480   4.907  0.5539 -0.9967  0.3478
 5495SOL     OW27946   2.321   0.355   7.297  0.2061  0.2927 -0.4879
 5495SOL    HW127947   2.242   0.307   7.275  1.1966 -1.5749  0.0153
 5495SOL    HW227948   2.283   0.441   7.313 -1.1932 -0.1886 -1.1815
 5496SOL     OW27949   0.807   1.702   0.451  0.3433 -0.0340 -0.4672
 5496SOL    HW127950   0.812   1.624   0.395 -0.3666  0.1576 -0.7880
 5496SOL    HW227951   0.888   1.750   0.433  1.2352 -1.1847  0.4971
 5497SOL     OW27952   0.570   4.498   1.681  0.2302 -0.4931  0.2136
 5497SOL    HW127953   0.629   4.423   1.674 -0.5398 -1.1523  0.7360
 5497SOL    HW227954   0.485   4.457   1.663 -0.8768  0.7077  2.6175
 5498SOL     OW27955   0.943   2.698   6.199  0.5499 -0.3379 -0.2751
 5498SOL    HW127956   0.991   2.660   6.126  0.5920  1.1058 -0.9977
 5498SOL    HW227957   0.967   2.632   6.265 -0.1532  0.9064  1.2249
 5499SOL     OW27958   2.234   1.424   4.199  0.3559 -0.5133  0.1552
 5499SOL    HW127959   2.181   1.426   4.120 -1.0511 -0.7026  1.0862
 5499SOL    HW227960   2.261   1.515   4.207 -0.8596 -0.3288  2.0937
 5500SOL     OW27961   3.008   3.235   3.874 -0.0172 -0.2010  0.2903
 5500SOL    HW127962   2.927   3.284   3.882  0.2054  0.7821 -3.2220
 5500SOL    HW227963   3.070   3.301   3.841 -0.5529 -1.4435 -3.2930
 5501SOL     OW27964   2.706   1.686   1.407 -0.1863 -0.0939 -0.1626
 5501SOL    HW127965   2.622   1.726   1.385  1.1657  2.4004 -0.7312
 5501SOL    HW227966   2.728   1.638   1.327 -1.2648 -1.3511  0.2856
 5502SOL     OW27967   4.030   2.948   0.021  0.0929  0.3440  0.7390
 5502SOL    HW127968   3.947   2.994   0.025 -0.7615 -1.0529 -0.8219
 5502SOL    HW227969   4.064   2.965   0.109 -0.7206 -0.9866  1.3141
 5503SOL     OW27970   1.496   2.253  13.376 -0.3438  0.3889 -0.0076
 5503SOL    HW127971   1.448   2.236  13.295 -2.1634  0.8228  0.9780
 5503SOL    HW227972   1.421   2.269  13.433 -0.6738  0.0215 -0.3374
 5504SOL     OW27973   0.769   3.292   6.846 -0.7977  0.2421 -0.0314
 5504SOL    HW127974   0.765   3.353   6.921 -1.1596 -0.0309  0.1741
 5504SOL    HW227975   0.732   3.212   6.884 -2.7103  0.7934 -0.7393
 5505SOL     OW27976   2.648   1.507   4.881  0.3652 -0.0274  0.1891
 5505SOL    HW127977   2.650   1.491   4.787  0.5690 -0.3941  0.2577
 5505SOL    HW227978   2.689   1.593   4.885 -0.7566  0.6115 -1.7084
 5506SOL     OW27979   3.345   1.113   9.592  0.1669 -0.5971 -0.4645
 5506SOL    HW127980   3.325   1.145   9.680  0.2948 -0.9737 -0.2995
 5506SOL    HW227981   3.440   1.122   9.592 -0.0131  1.6848  1.8826
 5507SOL     OW27982   0.109   0.504   0.382 -0.5241 -0.6783 -0.4608
 5507SOL    HW127983   0.173   0.445   0.420  0.5344  0.5241 -0.3659
 5507SOL    HW227984   0.165   0.582   0.378  1.9400 -2.3565  1.1150
 5508SOL     OW27985   3.474   1.797   9.043  0.5012  0.2061  0.2923
 5508SOL    HW127986   3.461   1.772   8.951  1.1762  1.2256 -0.0789
 5508SOL    HW227987   3.383   1.819   9.065  0.0072 -2.4969  0.8833
 5509SOL     OW27988   0.631   3.276   1.523  0.1633 -0.2586  0.0772
 5509SOL    HW127989   0.686   3.256   1.599  1.1891  1.6584 -0.1445
 5509SOL    HW227990   0.573   3.201   1.526  0.4200 -0.4693 -0.2144
 5510SOL     OW27991   0.717   0.653   6.770  0.7093 -0.6895 -0.0379
 5510SOL    HW127992   0.686   0.583   6.827 -0.5124  0.6212  0.9002
 5510SOL    HW227993   0.739   0.717   6.838 -1.0051 -1.6718  1.4343
 5511SOL     OW27994   0.001   1.431   5.747 -0.0640 -0.4548  0.1748
 5511SOL    HW127995   4.664   1.360   5.729  0.6169 -0.0425 -3.8128
 5511SOL    HW227996   0.035   1.413   5.834  1.4694 -0.5814 -0.4333
 5512SOL     OW27997   4.573   1.650   5.623  0.2907 -0.2194 -0.2672
 5512SOL    HW127998   4.638   1.700   5.672 -0.9407 -1.4079  2.5994
 5512SOL    HW227999   4.594   1.568   5.668  2.1082  0.1782 -0.3845
 5513SOL     OW28000   0.703   3.377  13.031  0.2832  0.2421 -0.2578
 5513SOL    HW128001   0.635   3.434  13.067 -0.8721 -1.1571 -0.2858
 5513SOL    HW228002   0.653   3.330  12.965 -0.6650  0.1168  0.5539
 5514SOL     OW28003   0.677   4.043   3.081 -0.0417 -0.0562 -0.5539
 5514SOL    HW128004   0.758   4.081   3.046 -0.0075  0.3955  0.0093
 5514SOL    HW228005   0.654   4.115   3.140 -0.6133 -0.8943  0.2234
 5515SOL     OW28006   2.540   2.612   1.500 -0.1581  0.1496 -0.3006
 5515SOL    HW128007   2.464   2.627   1.443  1.2220  1.6252 -1.7453
 5515SOL    HW228008   2.561   2.703   1.522  2.2658 -0.3881 -0.4202
 5516SOL     OW28009   1.447   2.424   3.234  0.1215 -0.4912 -0.0902
 5516SOL    HW128010   1.458   2.488   3.163  1.5475 -0.8342 -0.1794
 5516SOL    HW228011   1.522   2.365   3.233  0.1042 -0.5180  0.1565
 5517SOL     OW28012   3.821   2.318   4.013  0.2415 -0.5407  0.2988
 5517SOL    HW128013   3.804   2.226   4.033 -1.3718 -0.7528 -2.1133
 5517SOL    HW228014   3.805   2.319   3.919  2.0379  0.9284  0.0014
 5518SOL     OW28015   0.423   2.607   4.878 -0.6953  0.0690 -0.1495
 5518SOL    HW128016   0.363   2.621   4.804  0.8171  1.1605 -1.1787
 5518SOL    HW228017   0.450   2.698   4.892  1.6330 -0.4373 -1.1641
 5519SOL     OW28018   4.326   3.135   8.524 -0.1597  0.6719 -0.3492
 5519SOL    HW128019   4.259   3.072   8.498 -1.6352  2.9621 -2.0423
 5519SOL    HW228020   4.362   3.154   8.437  0.3953 -1.8711 -0.6761
 5520SOL     OW28021   4.486   3.868   3.362 -0.1652 -0.0750  0.2872
 5520SOL    HW128022   4.495   3.799   3.297 -0.8833 -0.1066  0.2231
 5520SOL    HW228023   4.447   3.944   3.319 -1.4289 -0.9033 -0.0484
 5521SOL     OW28024   2.696   0.540   9.687 -0.3297 -0.0975 -0.3976
 5521SOL    HW128025   2.729   0.612   9.740 -1.0238  1.1198 -1.5994
 5521SOL    HW228026   2.745   0.545   9.605  0.7474 -0.1749  0.2424
 5522SOL     OW28027   4.537   2.618   7.433  0.4488 -0.1308  0.6964
 5522SOL    HW128028   4.480   2.595   7.360 -1.5921  0.4521  2.1009
 5522SOL    HW228029   4.504   2.558   7.499  2.9798 -0.5449  1.5608
 5523SOL     OW28030   1.890   4.033   2.856  0.2603  0.0493 -0.0333
 5523SOL    HW128031   1.934   3.984   2.787 -0.0392  0.3627 -0.4444
 5523SOL    HW228032   1.809   4.070   2.821  0.0395 -1.0045 -0.6451
 5524SOL     OW28033   1.942   0.355   5.150  0.3528 -0.0774 -1.6430
 5524SOL    HW128034   1.966   0.262   5.151  0.5976  0.0084  0.1234
 5524SOL    HW228035   2.001   0.381   5.221 -0.8971  1.1885 -1.0655
 5525SOL     OW28036   0.521   4.219   5.837  0.1553 -0.6178 -0.0048
 5525SOL    HW128037   0.614   4.224   5.812  0.5803  0.4373  1.7716
 5525SOL    HW228038   0.516   4.278   5.912 -2.9162  1.3605 -1.8097
 5526SOL     OW28039   1.074   0.630   3.948 -0.0170  0.0246 -0.2137
 5526SOL    HW128040   1.042   0.579   4.023  1.1754  0.8069  0.8318
 5526SOL    HW228041   1.070   0.561   3.883  2.7630 -0.0047 -0.3543
 5527SOL     OW28042   1.633   1.782   3.943  0.0448 -0.0680  0.3015
 5527SOL    HW128043   1.624   1.728   3.864 -0.4528  0.3457  0.0725
 5527SOL    HW228044   1.543   1.812   3.956 -0.9177 -2.1417 -1.5618
 5528SOL     OW28045   1.937   1.254   5.183  0.1368  0.5940 -0.3073
 5528SOL    HW128046   1.897   1.217   5.105 -0.5496  3.2913 -1.2274
 5528SOL    HW228047   1.942   1.346   5.158 -1.7698  0.8209  0.1514
 5529SOL     OW28048   2.434   2.022   6.954 -0.1811  0.7879 -0.4499
 5529SOL    HW128049   2.419   1.929   6.975  0.8341  0.9737  1.1413
 5529SOL    HW228050   2.470   2.048   7.039 -2.9015  0.4794  0.8165
 5530SOL     OW28051   0.485   2.405   6.605  0.1918  0.4584 -0.5882
 5530SOL    HW128052   0.444   2.406   6.519 -1.0837 -0.6039  0.0006
 5530SOL    HW228053   0.412   2.385   6.664  1.3062  1.6619  1.2202
 5531SOL     OW28054   1.902   2.466   2.241 -0.5066 -0.0896  0.2506
 5531SOL    HW128055   1.830   2.505   2.291 -1.2433 -1.3098  0.1402
 5531SOL    HW228056   1.851   2.417   2.176 -1.1391  0.1772  0.5480
 5532SOL     OW28057   3.478   4.382  10.346 -0.3868  0.3892  0.7568
 5532SOL    HW128058   3.540   4.439  10.391 -1.4900  1.0149  1.4703
 5532SOL    HW228059   3.543   4.313  10.335 -2.2137 -0.9690 -1.4392
 5533SOL     OW28060   2.084   2.083   7.299  0.2140  0.0465  0.3320
 5533SOL    HW128061   2.040   2.152   7.349 -0.8432  1.3182 -2.3250
 5533SOL    HW228062   2.171   2.124   7.294 -0.2969  0.8786 -1.6594
 5534SOL     OW28063   1.220   3.338   2.856  0.0208 -0.2662  0.4344
 5534SOL    HW128064   1.270   3.259   2.879 -1.9179 -2.0479 -1.5081
 5534SOL    HW228065   1.152   3.298   2.802  1.3576  0.7370 -1.9972
 5535SOL     OW28066   0.184   0.737   6.670  0.8017 -0.5118  0.1259
 5535SOL    HW128067   0.212   0.795   6.600  0.4620 -0.3514  0.1260
 5535SOL    HW228068   0.115   0.688   6.625  0.3848  0.9444 -0.8141
 5536SOL     OW28069   1.403   3.503   0.280  0.2266  0.3038  0.0454
 5536SOL    HW128070   1.330   3.564   0.275 -1.2924 -1.3340  2.5047
 5536SOL    HW228071   1.474   3.567   0.291  0.5414  0.0933 -0.7667
 5537SOL     OW28072   4.073   3.374   2.337 -0.4440  0.1006  0.4251
 5537SOL    HW128073   4.078   3.466   2.363  0.0664  0.6318 -1.5547
 5537SOL    HW228074   4.034   3.332   2.414 -0.2702 -0.0645  0.4231
 5538SOL     OW28075   2.093   0.502  10.710 -0.1741 -0.3531 -0.1426
 5538SOL    HW128076   2.121   0.594  10.716  2.0821 -1.0830  0.6311
 5538SOL    HW228077   2.000   0.510  10.730 -0.0030 -2.7307  1.5577
 5539SOL     OW28078   0.468   3.506   5.310 -0.2568 -0.2934  0.2596
 5539SOL    HW128079   0.500   3.544   5.228 -0.6612 -1.1062 -0.2745
 5539SOL    HW228080   0.546   3.519   5.364 -2.0406  2.3999  2.2051
 5540SOL     OW28081   1.062   3.203  13.251 -0.0874 -0.1521  0.3263
 5540SOL    HW128082   1.139   3.170  13.204  1.3026  0.9601  1.8338
 5540SOL    HW228083   1.073   3.161  13.336 -1.6124  0.0139  0.6130
 5541SOL     OW28084   3.342   2.206   7.475  0.1109 -0.4503 -0.9002
 5541SOL    HW128085   3.394   2.136   7.435  0.5744 -1.1168  0.8688
 5541SOL    HW228086   3.269   2.161   7.517  1.1115 -0.4153  0.8888
 5542SOL     OW28087   1.392   1.731   6.084  0.7604 -0.1109  0.5406
 5542SOL    HW128088   1.394   1.765   6.174 -0.3119  0.0839  0.4903
 5542SOL    HW228089   1.439   1.799   6.036  0.0567  0.3367  0.4856
 5543SOL     OW28090   2.964   1.986  10.729  0.7245  0.2462  0.1734
 5543SOL    HW128091   2.925   2.041  10.661 -0.4299 -0.5822  0.1805
 5543SOL    HW228092   2.946   2.034  10.809 -0.5945 -0.4292  0.2674
 5544SOL     OW28093   2.948   3.792  11.117 -0.5767  0.0657  0.1832
 5544SOL    HW128094   2.904   3.776  11.034  1.3190  1.7795 -1.1756
 5544SOL    HW228095   3.007   3.716  11.115 -0.4115  0.1720  0.8373
 5545SOL     OW28096   0.719   2.127   4.539 -0.2863  0.1461 -0.3573
 5545SOL    HW128097   0.685   2.043   4.508  1.6104  0.0075 -2.0262
 5545SOL    HW228098   0.741   2.154   4.451  0.2618 -0.3946 -0.3913
 5546SOL     OW28099   2.331   0.083   4.951  0.0052 -0.7910 -0.0476
 5546SOL    HW128100   2.336   0.032   5.032  0.0700 -3.1752 -1.5529
 5546SOL    HW228101   2.419   0.115   4.935 -0.8224  0.4365 -2.2320
 5547SOL     OW28102   0.953   0.966   8.758 -0.5142 -0.4336 -0.1701
 5547SOL    HW128103   1.003   0.998   8.833 -1.4607  0.5344  0.0607
 5547SOL    HW228104   0.997   1.003   8.682  0.6364 -0.8452  0.3071
 5548SOL     OW28105   2.057   1.904   5.050 -0.1048  0.4103 -0.0792
 5548SOL    HW128106   2.080   1.948   5.132  1.0433 -1.0752  0.4031
 5548SOL    HW228107   2.144   1.877   5.019 -0.8850 -1.0386 -1.0156
 5549SOL     OW28108   1.497   0.506   8.825  0.6649 -0.2524  0.1494
 5549SOL    HW128109   1.479   0.548   8.909 -2.9327 -1.7342  0.1057
 5549SOL    HW228110   1.510   0.413   8.842 -0.5988 -0.8598 -2.1589
 5550SOL     OW28111   2.459   3.093   0.904  1.6283  0.8070  0.2629
 5550SOL    HW128112   2.428   3.177   0.940  0.6197 -0.4535  2.3254
 5550SOL    HW228113   2.453   3.051   0.989 -2.0652  3.4547  1.3497
 5551SOL     OW28114   1.804   4.305   5.330 -0.3185 -0.0474  0.4978
 5551SOL    HW128115   1.773   4.301   5.420 -1.8833 -1.5218 -0.0977
 5551SOL    HW228116   1.829   4.215   5.307  0.8942  0.2726  0.5177
 5552SOL     OW28117   4.383   0.526   5.945  0.9815 -0.3520  0.1306
 5552SOL    HW128118   4.331   0.508   5.867  0.8387 -1.0532  0.3893
 5552SOL    HW228119   4.417   0.440   5.970  0.3609 -1.0001 -1.2698
 5553SOL     OW28120   4.358   2.176   3.057  0.3129 -0.4244 -0.0221
 5553SOL    HW128121   4.294   2.194   2.988  1.5652  0.4888 -0.9488
 5553SOL    HW228122   4.413   2.109   3.016  3.3211  0.7574  2.1153
 5554SOL     OW28123   0.593   4.094  10.835  0.0111  0.5272 -0.9869
 5554SOL    HW128124   0.526   4.055  10.891 -0.0943 -0.8000 -2.0605
 5554SOL    HW228125   0.638   4.149  10.899  0.0462 -0.5621 -0.0770
 5555SOL     OW28126   3.941   2.674   6.638  0.6418  0.0426  0.3800
 5555SOL    HW128127   4.030   2.708   6.647 -1.1155  4.4116  1.1760
 5555SOL    HW228128   3.924   2.682   6.545 -0.3271  0.2459  0.5751
 5556SOL     OW28129   0.147   3.279   8.798  0.4198  0.0420 -0.1252
 5556SOL    HW128130   0.139   3.243   8.710  1.9552  1.6743 -0.9323
 5556SOL    HW228131   0.242   3.277   8.808  0.0842  1.6043  3.4893
 5557SOL     OW28132   3.461   3.339  10.329  0.1203  0.3808 -0.1335
 5557SOL    HW128133   3.495   3.252  10.312 -0.0191 -0.2759  2.8550
 5557SOL    HW228134   3.537   3.396  10.316  0.6982 -0.3373  0.1388
 5558SOL     OW28135   4.495   3.907  14.345 -0.1433 -0.3119  0.1443
 5558SOL    HW128136   4.484   3.997  14.374  0.8065 -0.3824  0.7393
 5558SOL    HW228137   4.557   3.917  14.273  1.1376  0.5444  1.3664
 5559SOL     OW28138   2.263   3.335   2.652  0.1698 -0.0789  0.0325
 5559SOL    HW128139   2.263   3.358   2.559  2.9881 -1.7534 -0.3845
 5559SOL    HW228140   2.188   3.276   2.661  0.8053 -1.2026 -1.8642
 5560SOL     OW28141   0.372   3.911   9.236  0.0651  0.1657  0.0255
 5560SOL    HW128142   0.335   3.995   9.209 -0.6550 -1.0097 -2.7394
 5560SOL    HW228143   0.391   3.929   9.328 -2.2241 -0.9570  0.7271
 5561SOL     OW28144   2.515   3.990   5.808 -0.5269  0.0145 -0.6358
 5561SOL    HW128145   2.599   3.953   5.783 -0.2620  0.3906 -0.3108
 5561SOL    HW228146   2.516   3.958   5.899 -1.3253 -1.1129 -1.0222
 5562SOL     OW28147   4.516   0.384  15.910  0.3401 -0.0332  0.1873
 5562SOL    HW128148   4.490   0.322  15.841  2.3052  0.2051 -0.7743
 5562SOL    HW228149   4.514   0.466  15.860  2.9386  0.5183  1.0309
 5563SOL     OW28150   3.613   3.837   2.636  0.3883  0.1545  0.7948
 5563SOL    HW128151   3.708   3.849   2.641  0.0873  1.7550  2.4411
 5563SOL    HW228152   3.592   3.885   2.557  0.9162 -1.2902 -0.2221
 5564SOL     OW28153   0.480   1.236   8.968  0.7661 -0.5015  0.2746
 5564SOL    HW128154   0.537   1.194   9.032  1.1692 -0.3267  0.0323
 5564SOL    HW228155   0.413   1.169   8.956 -1.3975  1.4525  1.5241
 5565SOL     OW28156   3.929   1.078   5.325 -0.3517  0.4250  0.5972
 5565SOL    HW128157   3.932   1.144   5.394 -2.5515  1.6408 -0.4951
 5565SOL    HW228158   3.989   1.121   5.265  1.1721 -0.3958  1.5021
 5566SOL     OW28159   0.617   2.608   7.481  0.2530 -0.1927 -0.0619
 5566SOL    HW128160   0.672   2.555   7.423 -1.6760 -1.7376 -0.4605
 5566SOL    HW228161   0.617   2.696   7.442  1.2772  0.1917  0.7795
 5567SOL     OW28162   1.739   2.252   1.793 -0.6667  0.0612 -0.1090
 5567SOL    HW128163   1.670   2.187   1.778 -0.5108 -0.2019  0.3219
 5567SOL    HW228164   1.813   2.193   1.805 -1.1498 -0.7623 -1.2466
 5568SOL     OW28165   1.769   0.127   2.770 -0.2397 -0.5412  0.3575
 5568SOL    HW128166   1.812   0.210   2.748  0.4017 -0.7186  0.9422
 5568SOL    HW228167   1.683   0.139   2.728 -0.5129 -1.2092  0.7307
 5569SOL     OW28168   0.189   1.652   4.925  0.3120 -0.2931  0.6440
 5569SOL    HW128169   0.201   1.717   4.993 -1.2603  0.0328  0.6098
 5569SOL    HW228170   0.097   1.661   4.898  0.3067  1.7678  1.3903
 5570SOL     OW28171   0.069   3.011  16.634  0.3071 -0.3129  0.0246
 5570SOL    HW128172   0.089   3.005  16.727 -1.1641  3.5930  0.5739
 5570SOL    HW228173   0.143   3.062  16.602 -1.6383  1.6079 -1.4626
 5571SOL     OW28174   3.086   3.063   8.734 -0.0250 -0.0310  0.0264
 5571SOL    HW128175   3.064   2.972   8.717  1.7379 -0.5819  0.6648
 5571SOL    HW228176   3.104   3.060   8.828  0.6724  0.1674 -0.0997
 5572SOL     OW28177   0.204   1.858   5.964  0.7735  0.0139 -0.2654
 5572SOL    HW128178   0.282   1.912   5.947 -0.1738  1.2560 -0.6333
 5572SOL    HW228179   0.253   1.793   6.014 -0.8804 -2.5272 -1.9691
 5573SOL     OW28180   1.520   4.100   8.088 -0.1830  0.5254 -0.5877
 5573SOL    HW128181   1.482   4.147   8.162  0.3304  0.5491 -0.3390
 5573SOL    HW228182   1.610   4.128   8.104 -0.6506  2.1146 -0.8181
 5574SOL     OW28183   1.741   1.128   4.789  0.1380  0.1756  0.3661
 5574SOL    HW128184   1.805   1.117   4.718 -1.0524  0.7228 -0.7901
 5574SOL    HW228185   1.801   1.122   4.864  3.1744 -0.4105 -2.0886
 5575SOL     OW28186   2.819   0.762   0.470  0.1870 -0.7960  0.1590
 5575SOL    HW128187   2.755   0.831   0.450  0.2228 -1.5511 -2.4719
 5575SOL    HW228188   2.896   0.798   0.427 -0.0868  0.7594  0.9668
 5576SOL     OW28189   2.927   4.386  11.807 -0.2774  0.9876 -0.0089
 5576SOL    HW128190   2.950   4.466  11.760  0.0261  1.8038  1.5114
 5576SOL    HW228191   3.007   4.333  11.815 -0.6264  0.4929  0.2125
 5577SOL     OW28192   2.475   3.816   2.205  0.1358  0.1953  0.4316
 5577SOL    HW128193   2.498   3.736   2.159 -2.3637  0.1810 -0.8185
 5577SOL    HW228194   2.492   3.889   2.146  2.4232  0.4122  1.3698
 5578SOL     OW28195   3.381   4.403   5.859 -0.1701 -0.0552 -0.2074
 5578SOL    HW128196   3.433   4.431   5.784 -0.2202 -0.4375 -0.3848
 5578SOL    HW228197   3.307   4.463   5.855  0.1599  0.3284 -0.4981
 5579SOL     OW28198   1.079   1.414  12.267 -0.2661  0.4361 -0.4197
 5579SOL    HW128199   1.172   1.426  12.285 -0.5714  0.7401  0.9248
 5579SOL    HW228200   1.074   1.334  12.213  2.0699  0.9253 -1.3443
 5580SOL     OW28201   0.533   2.214   7.470  0.2180  0.2775 -0.4017
 5580SOL    HW128202   0.444   2.193   7.497  1.1473 -1.7212  1.0827
 5580SOL    HW228203   0.563   2.133   7.430 -1.6798 -0.1074 -1.0666
 5581SOL     OW28204   2.743   3.938  17.688 -0.1602  0.1310  0.5824
 5581SOL    HW128205   2.692   4.002   0.039 -0.0030  1.9942 -1.6182
 5581SOL    HW228206   2.833   3.967   0.007  0.7280 -1.1696 -1.7270
 5582SOL     OW28207   1.156   0.396   0.289 -0.2054  0.1096 -0.7785
 5582SOL    HW128208   1.209   0.472   0.262  1.1824 -0.9014 -0.9086
 5582SOL    HW228209   1.206   0.330   0.242  0.1196  0.3037 -0.7088
 5583SOL     OW28210   2.309   1.572  17.628 -0.2222  0.0009  0.4343
 5583SOL    HW128211   2.245   1.517  17.583  1.5213 -0.2772 -1.7703
 5583SOL    HW228212   2.267   1.580   0.014 -2.3406 -0.9873 -0.5303
 5584SOL     OW28213   2.191   0.079  13.088 -0.1695 -0.7374 -0.3969
 5584SOL    HW128214   2.242   0.057  13.010 -0.4458 -3.9724  0.3328
 5584SOL    HW228215   2.156   4.716  13.106  2.0464 -1.8537 -1.4718
 5585SOL     OW28216   2.810   0.945   0.085 -0.1709 -0.6098  0.0395
 5585SOL    HW128217   2.881   0.886   0.108 -0.3603 -0.1911  1.6784
 5585SOL    HW228218   2.862   1.017   0.050  2.4966 -2.3052  0.5346
 5586SOL     OW28219   2.834   4.609   3.682 -0.1421  0.4008 -0.2116
 5586SOL    HW128220   2.901   4.540   3.684 -0.2092  0.3554  0.4845
 5586SOL    HW228221   2.788   4.586   3.762  0.7309  0.1885  0.2279
 5587SOL     OW28222   0.257   0.624   2.918  0.1980  0.1012  0.8912
 5587SOL    HW128223   0.242   0.709   2.958  0.3813 -0.0936  1.3795
 5587SOL    HW228224   0.298   0.571   2.987  3.4860  0.9945 -0.3773
 5588SOL     OW28225   3.904   3.106   0.289 -0.2221 -0.3015  0.0708
 5588SOL    HW128226   3.834   3.162   0.255  1.5443  0.9655 -1.4741
 5588SOL    HW228227   3.978   3.148   0.244 -1.5411  0.3912 -1.4659
 5589SOL     OW28228   0.684   2.495   4.571 -0.4055 -0.2308 -0.4921
 5589SOL    HW128229   0.702   2.466   4.482 -1.9209  0.0530 -0.8913
 5589SOL    HW228230   0.706   2.421   4.628  1.1346  2.0478  1.8318
 5590SOL     OW28231   0.694   1.112   3.722  0.1918 -0.4654 -0.0395
 5590SOL    HW128232   0.689   1.196   3.768  1.2092  0.0220 -0.8026
 5590SOL    HW228233   0.688   1.050   3.794  1.5786  1.2701  1.5785
 5591SOL     OW28234   1.378   3.249   3.265  0.4093  0.2291 -0.4922
 5591SOL    HW128235   1.426   3.276   3.343  1.0068  2.2735 -1.5639
 5591SOL    HW228236   1.393   3.155   3.252 -0.3049 -0.1083  1.1225
 5592SOL     OW28237   3.869   1.509   0.463  0.1446  0.0401  0.2320
 5592SOL    HW128238   3.858   1.492   0.370 -2.8867  0.5142  0.4884
 5592SOL    HW228239   3.812   1.441   0.500  0.7360  0.2093  1.4817
 5593SOL     OW28240   1.638   0.110  11.476 -0.4529  0.3692  0.3883
 5593SOL    HW128241   1.592   0.087  11.396  0.0561 -2.2516  0.8380
 5593SOL    HW228242   1.723   0.093  11.435 -0.6401  0.9346 -0.2442
 5594SOL     OW28243   1.762   4.442  12.514 -0.0754 -0.0764  0.3561
 5594SOL    HW128244   1.780   4.492  12.593 -2.5880 -0.5769  1.2155
 5594SOL    HW228245   1.718   4.364  12.548 -0.6924 -0.6633 -1.7996
 5595SOL     OW28246   3.991   3.491   3.992  0.2143  0.5636 -0.1996
 5595SOL    HW128247   4.044   3.544   4.051 -0.2516 -0.1334  0.8358
 5595SOL    HW228248   4.014   3.528   3.907  1.7776  1.0518  0.4275
 5596SOL     OW28249   3.305   1.135  13.499  0.1858  0.3027 -0.0021
 5596SOL    HW128250   3.294   1.041  13.484 -0.4777  0.4366 -0.3628
 5596SOL    HW228251   3.331   1.141  13.591 -1.2176 -0.2792  0.4335
 5597SOL     OW28252   2.686   2.059   5.018  0.1121 -0.3792  0.6873
 5597SOL    HW128253   2.768   2.072   4.970  0.0560 -1.0345  0.4121
 5597SOL    HW228254   2.624   2.116   4.974 -0.1083 -0.0230  1.4608
 5598SOL     OW28255   1.548   4.239  14.323 -0.7750  0.1029 -0.1035
 5598SOL    HW128256   1.528   4.182  14.249  2.2923 -0.0128 -0.8607
 5598SOL    HW228257   1.632   4.282  14.305  0.2691 -1.1756  1.6943
 5599SOL     OW28258   3.449   3.669   1.948  0.0292  0.0750 -0.0002
 5599SOL    HW128259   3.408   3.583   1.957 -2.1048  0.7423 -3.3997
 5599SOL    HW228260   3.524   3.652   2.005  0.4361  1.4573 -0.1352
 5600SOL     OW28261   2.879   3.360   8.371  0.0082  0.3585 -0.8135
 5600SOL    HW128262   2.895   3.446   8.331 -0.1799  0.6845 -0.1879
 5600SOL    HW228263   2.966   3.322   8.366  0.0010  0.0481  1.3138
 5601SOL     OW28264   3.863   0.642  10.096  0.2288 -0.1390 -0.1394
 5601SOL    HW128265   3.786   0.697  10.108  1.4892  1.1894  1.9088
 5601SOL    HW228266   3.892   0.625  10.186  0.6517  1.3688  0.0058
 5602SOL     OW28267   2.801   2.001   7.081  0.1593  0.2814 -0.2364
 5602SOL    HW128268   2.841   1.919   7.050 -2.0540 -0.1917 -1.8747
 5602SOL    HW228269   2.828   2.008   7.173  1.8223  3.0852 -0.9493
 5603SOL     OW28270   2.884   1.434   1.952 -0.2329 -0.5806 -0.2241
 5603SOL    HW128271   2.824   1.392   2.013  0.9354 -1.6801  0.1523
 5603SOL    HW228272   2.836   1.438   1.869 -0.5589  2.2687  0.0823
 5604SOL     OW28273   1.070   0.974   5.285 -0.0729  0.1045 -0.9283
 5604SOL    HW128274   1.040   0.933   5.204  1.5926 -0.8117 -1.0668
 5604SOL    HW228275   0.998   1.032   5.311 -0.0474  0.2774 -1.2474
 5605SOL     OW28276   1.781   3.864   7.744  0.6141  0.1930 -0.2479
 5605SOL    HW128277   1.816   3.919   7.674  0.1924  0.5674 -0.1668
 5605SOL    HW228278   1.806   3.776   7.717  1.9084  1.0627 -1.8521
 5606SOL     OW28279   4.683   1.684   9.682 -0.0922 -0.1321 -0.1314
 5606SOL    HW128280   0.022   1.679   9.753  0.0135  0.6429 -0.1710
 5606SOL    HW228281   4.610   1.630   9.712  0.7374 -1.4433 -0.5049
 5607SOL     OW28282   4.299   3.620   1.925  0.3560 -0.0781 -0.7048
 5607SOL    HW128283   4.367   3.580   1.871 -0.2916 -0.6969 -1.0681
 5607SOL    HW228284   4.362   3.654   1.988 -1.4871  1.1547  0.4672
 5608SOL     OW28285   0.884   2.119  11.657 -0.0505  0.3113 -0.0566
 5608SOL    HW128286   0.836   2.123  11.740 -0.5948 -0.3039 -0.3448
 5608SOL    HW228287   0.953   2.063  11.693 -1.5841 -1.3078  0.3545
 5609SOL     OW28288   2.714   1.753   4.670 -0.1064  0.3008  0.5537
 5609SOL    HW128289   2.714   1.799   4.586  0.5762  0.6255  0.7292
 5609SOL    HW228290   2.808   1.737   4.675 -0.0171  0.3845 -1.0263
 5610SOL     OW28291   1.102   4.033   3.574  0.5566  0.5091 -0.2458
 5610SOL    HW128292   1.085   4.072   3.660  2.3542 -0.2191  0.4219
 5610SOL    HW228293   1.066   4.100   3.515 -0.6418 -0.5349 -0.7127
 5611SOL     OW28294   1.626   3.094  16.642  0.0182 -0.0644 -0.1775
 5611SOL    HW128295   1.601   3.018  16.694 -1.0939  1.7606  1.9227
 5611SOL    HW228296   1.550   3.115  16.587 -1.3170  0.8495  2.0194
 5612SOL     OW28297   1.378   4.136  12.862  0.2493  0.1567 -0.1535
 5612SOL    HW128298   1.358   4.210  12.804  1.3943  0.3754 -0.2808
 5612SOL    HW228299   1.451   4.097  12.814  0.4899 -0.2800  0.5694
 5613SOL     OW28300   0.233   1.353   7.235  0.3473  0.3760 -0.0353
 5613SOL    HW128301   0.232   1.281   7.172 -0.4628  0.6786 -0.3653
 5613SOL    HW228302   0.329   1.362   7.234  0.3169  0.7081 -0.2146
 5614SOL     OW28303   2.221   3.359  17.395  0.2796 -0.5336  0.1849
 5614SOL    HW128304   2.190   3.428  17.454  1.1626 -1.9458  2.3277
 5614SOL    HW228305   2.311   3.383  17.372 -0.3826  0.7478 -1.0611
 5615SOL     OW28306   2.766   1.254   2.889 -0.5487  0.1317  0.0627
 5615SOL    HW128307   2.731   1.224   2.805 -1.5129 -1.2931  0.9816
 5615SOL    HW228308   2.746   1.182   2.948  0.0898 -0.0969  0.0041
 5616SOL     OW28309   2.558   4.224   6.967 -0.6046 -0.2115  0.5023
 5616SOL    HW128310   2.609   4.163   7.020  0.9819  1.8754  1.3560
 5616SOL    HW228311   2.475   4.219   7.014  0.0928  0.5090  1.8049
 5617SOL     OW28312   2.814   2.232   6.939  0.1731  0.2389 -0.2977
 5617SOL    HW128313   2.728   2.271   6.923  0.5312  2.1431  2.3966
 5617SOL    HW228314   2.795   2.145   6.975  0.2012  0.4919  0.3379
 5618SOL     OW28315   0.473   4.629   2.581  0.6378  0.1645  0.1979
 5618SOL    HW128316   0.377   4.625   2.580  0.6976 -2.5116  4.2351
 5618SOL    HW228317   0.490   4.683   2.504  1.9806  0.2122  0.5234
 5619SOL     OW28318   1.811   0.367   6.664 -0.1779  0.1407  0.1182
 5619SOL    HW128319   1.728   0.413   6.655  0.1644  1.0208  1.4392
 5619SOL    HW228320   1.844   0.418   6.737  0.9011 -1.8234  1.0060
 5620SOL     OW28321   0.116   3.414  13.462 -0.4653 -0.4175 -0.2935
 5620SOL    HW128322   0.044   3.476  13.466 -0.6646 -0.6247 -0.5703
 5620SOL    HW228323   0.189   3.475  13.457 -0.5516 -0.2540  0.5048
 5621SOL     OW28324   1.702   0.629  10.061 -0.5934 -0.0918  0.2742
 5621SOL    HW128325   1.699   0.539  10.095 -1.4923 -0.4376 -0.6855
 5621SOL    HW228326   1.754   0.679  10.123 -0.3609 -0.9808  0.7983
 5622SOL     OW28327   0.823   2.579   2.654  0.1477  0.3111  0.3008
 5622SOL    HW128328   0.730   2.567   2.671  0.3268  0.2528  1.2866
 5622SOL    HW228329   0.822   2.673   2.638  0.8294  0.3401  0.4034
 5623SOL     OW28330   3.588   1.737  13.668  0.2092  0.1217 -0.6958
 5623SOL    HW128331   3.574   1.677  13.594  0.2377 -0.9968  0.2199
 5623SOL    HW228332   3.683   1.730  13.672  0.1722  1.2644  2.0154
 5624SOL     OW28333   2.071   3.284  14.055  0.8220 -0.3996 -0.1956
 5624SOL    HW128334   2.096   3.241  14.137  0.2846  0.7773  0.5871
 5624SOL    HW228335   1.985   3.312  14.085  1.1281 -0.8874  1.1499
 5625SOL     OW28336   4.543   4.572   6.086 -0.4008  0.0308 -0.2576
 5625SOL    HW128337   4.483   4.504   6.116  0.2303 -0.4680 -0.1190
 5625SOL    HW228338   4.618   4.570   6.146 -2.0079 -1.2080  1.7285
 5626SOL     OW28339   0.132   3.899   7.415 -0.2179 -0.0097 -0.0397
 5626SOL    HW128340   0.076   3.823   7.431  0.3629 -0.4491 -0.0605
 5626SOL    HW228341   0.158   3.910   7.506  1.4021 -2.4547 -0.1939
 5627SOL     OW28342   1.653   2.851  11.190  0.1174  0.7996  0.1050
 5627SOL    HW128343   1.599   2.917  11.234  0.0573  0.0188  1.2012
 5627SOL    HW228344   1.599   2.772  11.202 -0.0953  1.3996  3.1420
 5628SOL     OW28345   3.949   2.186  11.713 -0.1776  0.2141 -0.3610
 5628SOL    HW128346   4.011   2.172  11.784  0.5886 -1.6455 -1.4060
 5628SOL    HW228347   4.009   2.195  11.638  1.6330 -0.1499  1.0379
 5629SOL     OW28348   0.950   1.826  11.780 -0.5230 -0.9899 -0.6920
 5629SOL    HW128349   0.939   1.805  11.873 -1.3488 -0.3245 -0.6528
 5629SOL    HW228350   1.034   1.872  11.778 -0.8815 -0.2510  0.7616
 5630SOL     OW28351   0.420   0.782   6.268  0.2213 -0.4768  0.0290
 5630SOL    HW128352   0.362   0.808   6.339  1.3183 -2.0376  1.5030
 5630SOL    HW228353   0.359   0.724   6.223  2.2806 -2.1072 -0.6932
 5631SOL     OW28354   1.768   4.289   6.641  0.2774 -0.3463  0.6653
 5631SOL    HW128355   1.695   4.307   6.700  0.4119  0.9862  0.4288
 5631SOL    HW228356   1.840   4.278   6.704 -0.6138  3.1368  2.2970
 5632SOL     OW28357   0.560   0.588   3.815 -0.3664 -0.6645 -0.5475
 5632SOL    HW128358   0.497   0.532   3.769 -1.0328  0.6701 -1.2691
 5632SOL    HW228359   0.610   0.628   3.745  1.8132  1.8145  2.4219
 5633SOL     OW28360   2.062   3.251   5.350 -0.2011 -0.0645  0.0233
 5633SOL    HW128361   2.055   3.240   5.444 -1.0573  0.6234  0.0339
 5633SOL    HW228362   1.975   3.279   5.323  1.5833  5.3783 -0.0655
 5634SOL     OW28363   3.983   0.904  11.596 -0.4409 -0.5445 -0.1935
 5634SOL    HW128364   3.997   0.897  11.502 -0.0771  1.2434 -0.2690
 5634SOL    HW228365   4.056   0.849  11.627  1.2706  0.7961 -1.8953
 5635SOL     OW28366   4.405   3.565  11.271 -0.2880 -0.8398 -0.2863
 5635SOL    HW128367   4.345   3.598  11.338  2.1458  3.0675  0.0032
 5635SOL    HW228368   4.348   3.520  11.209 -2.0797  2.5791 -1.0661
 5636SOL     OW28369   1.909   3.149   8.373 -0.0735  0.1549  0.2905
 5636SOL    HW128370   1.897   3.244   8.376 -0.2199  0.2817 -3.8586
 5636SOL    HW228371   2.003   3.139   8.386 -0.2647 -1.6182  0.3713
 5637SOL     OW28372   4.014   1.945  16.895 -0.0838  0.4473 -0.3931
 5637SOL    HW128373   4.090   2.002  16.879 -2.2713  3.1436 -1.2332
 5637SOL    HW228374   4.028   1.883  16.823 -2.0678 -2.3221  1.5941
 5638SOL     OW28375   1.059   1.368   2.793  0.0982  0.0697  0.3176
 5638SOL    HW128376   0.987   1.350   2.732 -0.0960  1.4034  0.1430
 5638SOL    HW228377   1.044   1.460   2.815  1.3415  0.3908 -0.1564
 5639SOL     OW28378   4.561   0.252   9.062  0.2192 -0.0617 -0.0306
 5639SOL    HW128379   4.547   0.189   8.992 -2.1674  0.2927  0.1379
 5639SOL    HW228380   4.592   0.334   9.023 -2.7219  0.9421 -0.2600
 5640SOL     OW28381   2.783   1.095   6.692  0.0580  0.1899  0.0631
 5640SOL    HW128382   2.864   1.116   6.739 -1.4396  0.7015  2.3970
 5640SOL    HW228383   2.731   1.174   6.703  0.6516  0.4445  1.0497
 5641SOL     OW28384   3.436   3.768  16.337 -0.2759  0.3817 -0.2444
 5641SOL    HW128385   3.498   3.798  16.270  1.0806 -1.4042  0.1997
 5641SOL    HW228386   3.493   3.773  16.414 -0.3965 -3.5041  0.1003
 5642SOL     OW28387   1.058   2.031   2.570 -0.7229  0.2419 -0.8860
 5642SOL    HW128388   0.976   2.073   2.544  0.3561  2.2535 -1.0212
 5642SOL    HW228389   1.085   2.078   2.649 -2.2224 -0.1981 -0.0990
 5643SOL     OW28390   3.503   1.025  15.628  0.0488  0.1484 -0.1183
 5643SOL    HW128391   3.422   1.000  15.583  0.6305  1.7407 -2.0743
 5643SOL    HW228392   3.523   0.937  15.660  2.1506  0.8444  0.4588
 5644SOL     OW28393   4.619   0.144   2.556 -0.0751  0.5119  0.2231
 5644SOL    HW128394   4.695   0.141   2.498 -0.9453 -0.7224 -0.8477
 5644SOL    HW228395   4.559   0.080   2.518 -0.8987 -0.1278  2.6454
 5645SOL     OW28396   3.336   1.688  11.600 -0.2732 -0.0451  0.0970
 5645SOL    HW128397   3.266   1.742  11.563  0.3148  0.7328  0.1494
 5645SOL    HW228398   3.361   1.631  11.527  1.4140 -0.5193  1.0477
 5646SOL     OW28399   3.313   2.578   3.729  0.2881 -0.0882 -0.3517
 5646SOL    HW128400   3.288   2.616   3.813 -1.0195 -1.1341 -0.2742
 5646SOL    HW228401   3.400   2.560   3.765 -0.3506 -2.1319  0.1956
 5647SOL     OW28402   0.192   1.168   4.164 -0.1472 -0.6218 -0.1617
 5647SOL    HW128403   0.154   1.083   4.187 -2.1385  0.4341  0.4952
 5647SOL    HW228404   0.258   1.163   4.234 -1.1079  1.9107  0.9455
 5648SOL     OW28405   0.715   1.080  15.947  0.3925 -0.1548 -0.2315
 5648SOL    HW128406   0.742   1.065  15.856  0.6079  0.5157 -0.2817
 5648SOL    HW228407   0.665   1.161  15.935  0.6975  0.2012  0.9222
 5649SOL     OW28408   3.928   4.227  16.161  0.0153  0.3739  0.2740
 5649SOL    HW128409   3.884   4.159  16.211 -0.8142  1.0615  0.4869
 5649SOL    HW228410   4.000   4.249  16.220 -0.2160  1.3972  0.1815
 5650SOL     OW28411   2.905   1.837   9.635 -0.4279 -0.2037 -0.9845
 5650SOL    HW128412   2.931   1.766   9.577 -1.3480 -0.4354 -1.1095
 5650SOL    HW228413   2.985   1.849   9.687 -0.6008 -0.3318 -0.6832
 5651SOL     OW28414   3.197   2.372   2.168 -0.8069  0.0127  0.0017
 5651SOL    HW128415   3.141   2.426   2.112 -0.8345 -2.1593 -2.0884
 5651SOL    HW228416   3.145   2.389   2.247  1.7112 -1.5310  1.9957
 5652SOL     OW28417   4.694   1.502   4.685  0.6391  0.3346 -0.4735
 5652SOL    HW128418   4.702   1.430   4.621  0.5700  1.0106 -1.2420
 5652SOL    HW228419   0.026   1.566   4.641 -1.4712  1.2159 -1.8517
 5653SOL     OW28420   3.632   0.482   4.347  0.2161  0.1240  0.0560
 5653SOL    HW128421   3.661   0.390   4.344 -0.6224 -0.1891  1.5428
 5653SOL    HW228422   3.644   0.512   4.257  1.4156 -1.0533 -0.1756
 5654SOL     OW28423   4.161   2.455   8.897 -0.0464  0.7194 -0.3476
 5654SOL    HW128424   4.228   2.473   8.832  0.6986 -0.7778  0.0034
 5654SOL    HW228425   4.205   2.468   8.981 -0.3413 -2.3527  0.2756
 5655SOL     OW28426   4.150   2.555   2.251 -0.1345 -0.2157  0.3930
 5655SOL    HW128427   4.204   2.575   2.174 -0.6507 -3.2042 -0.7670
 5655SOL    HW228428   4.157   2.460   2.258  1.9228 -0.0321  0.7689
 5656SOL     OW28429   3.276   1.006  13.747 -0.5052 -0.0996  0.2739
 5656SOL    HW128430   3.332   0.932  13.772  0.0733  0.5339  0.8522
 5656SOL    HW228431   3.195   0.959  13.764 -0.7510  0.5922  0.9975
 5657SOL     OW28432   3.673   2.943   2.292  0.2679 -0.8186  0.1411
 5657SOL    HW128433   3.632   2.974   2.373  0.0919  1.4583 -0.8278
 5657SOL    HW228434   3.649   2.851   2.285  1.1392 -1.1307  1.2396
 5658SOL     OW28435   0.551   3.545   2.842 -0.0974  0.0157  0.0699
 5658SOL    HW128436   0.502   3.585   2.769 -0.7431  0.1836  0.5946
 5658SOL    HW228437   0.474   3.523   2.894  1.2698 -1.3709  1.5030
 5659SOL     OW28438   2.412   3.396   2.066  0.4614  0.1751  0.4608
 5659SOL    HW128439   2.462   3.478   2.068 -0.3637  0.6661  1.0323
 5659SOL    HW228440   2.438   3.356   1.983  0.2286 -1.9185  1.3858
 5660SOL     OW28441   3.597   1.338   1.465  0.4018  0.1014  0.7033
 5660SOL    HW128442   3.503   1.355   1.468  0.6007  1.3342 -0.4598
 5660SOL    HW228443   3.622   1.393   1.391  2.5384 -0.5702  0.9277
 5661SOL     OW28444   0.478   1.979   7.905 -0.1890 -0.6674 -0.5398
 5661SOL    HW128445   0.454   1.967   7.813 -1.3672  1.0370 -0.4585
 5661SOL    HW228446   0.565   2.017   7.895 -0.4457 -0.2429 -1.1844
 5662SOL     OW28447   2.732   4.516   8.981  0.0707  1.2235  0.0792
 5662SOL    HW128448   2.805   4.466   8.945 -1.3554  1.7821 -3.5479
 5662SOL    HW228449   2.684   4.532   8.900 -1.1385 -0.2291  0.5099
 5663SOL     OW28450   1.977   4.670   2.742 -0.1170  0.5157  0.1821
 5663SOL    HW128451   1.893   4.717   2.747  1.1698  2.8600 -0.1301
 5663SOL    HW228452   1.972   4.630   2.828  1.0356  0.3625  0.1815
 5664SOL     OW28453   0.336   3.248   4.615 -0.0522  0.2121 -0.4908
 5664SOL    HW128454   0.244   3.244   4.640 -0.2275  0.5062 -1.0888
 5664SOL    HW228455   0.356   3.320   4.675 -0.4231  0.2704 -0.4399
 5665SOL     OW28456   0.985   0.882  17.626 -0.5088  0.1785  0.1352
 5665SOL    HW128457   0.921   0.850  17.562  0.1916 -0.7248 -0.1125
 5665SOL    HW228458   1.052   0.814  17.614 -0.1314  0.6400 -0.3805
 5666SOL     OW28459   4.665   1.670  10.107  0.2482  0.2757  0.0640
 5666SOL    HW128460   4.685   1.603  10.173 -1.6379  0.0769  0.4437
 5666SOL    HW228461   4.578   1.640  10.079 -0.3162  0.5279  1.4900
 5667SOL     OW28462   3.047   3.625   5.772  0.9460  0.2469 -0.5810
 5667SOL    HW128463   3.137   3.614   5.804  0.2124  0.3611  1.4555
 5667SOL    HW228464   3.050   3.647   5.678  0.5397 -0.1055 -0.6745
 5668SOL     OW28465   2.023   3.711   4.992  0.4323 -0.2395 -1.0822
 5668SOL    HW128466   2.086   3.782   4.975  2.0417 -1.5999 -0.8024
 5668SOL    HW228467   1.959   3.733   4.924 -1.4198 -1.8461  0.1905
 5669SOL     OW28468   2.541   2.136  15.835 -0.1104  0.0230 -0.9859
 5669SOL    HW128469   2.617   2.148  15.892 -2.3093  2.0817  1.5377
 5669SOL    HW228470   2.499   2.217  15.865 -0.3042 -1.0076  1.4740
 5670SOL     OW28471   4.466   1.502  14.587 -0.2803  0.1868 -1.2657
 5670SOL    HW128472   4.377   1.471  14.574  0.7097 -1.8938 -2.9903
 5670SOL    HW228473   4.480   1.533  14.497  2.4684 -0.0627 -0.9486
 5671SOL     OW28474   0.322   2.935   0.024  0.4608  0.1128  0.2484
 5671SOL    HW128475   0.246   2.952  17.665  0.8111  0.1948 -0.1923
 5671SOL    HW228476   0.288   2.961   0.110  1.3669 -0.0523  0.6478
 5672SOL     OW28477   3.261   0.394  15.939  0.0027  0.1744  0.1595
 5672SOL    HW128478   3.228   0.474  15.980  0.8930  0.9095 -0.5830
 5672SOL    HW228479   3.223   0.394  15.851 -1.0473 -0.5457  0.6005
 5673SOL     OW28480   1.382   2.743   2.841  0.5301  0.2794 -0.3287
 5673SOL    HW128481   1.335   2.795   2.906 -0.6834 -0.4505 -0.6276
 5673SOL    HW228482   1.308   2.685   2.822 -0.2357  0.8475  0.9398
 5674SOL     OW28483   3.771   4.582   3.009 -0.1160 -0.2210  0.3180
 5674SOL    HW128484   3.701   4.639   3.040  2.6677  3.4643 -0.1368
 5674SOL    HW228485   3.842   4.636   3.044  0.3361 -1.4102  1.2342
 5675SOL     OW28486   1.078   4.380   2.711  0.0463 -0.1837  0.1427
 5675SOL    HW128487   1.158   4.389   2.658 -0.1903  1.9630  0.1799
 5675SOL    HW228488   1.034   4.304   2.671  2.1443 -1.0776 -0.4946
 5676SOL     OW28489   2.984   2.909   6.694  0.4701  0.2514  0.2672
 5676SOL    HW128490   2.899   2.951   6.700  0.8554  0.9815  0.6691
 5676SOL    HW228491   2.966   2.815   6.701  2.5708 -0.1362  0.5481
 5677SOL     OW28492   1.755   0.307  17.013 -0.3109  0.8897  0.4312
 5677SOL    HW128493   1.757   0.256  17.095 -2.6398  0.6465  0.3239
 5677SOL    HW228494   1.766   0.398  17.041 -1.5484  1.4168 -0.8367
 5678SOL     OW28495   2.617   0.004   8.269  0.1804 -0.1253  0.1347
 5678SOL    HW128496   2.579   0.087   8.297 -0.2232 -0.9322  2.0194
 5678SOL    HW228497   2.666   4.705   8.348  1.1483  3.1215  0.4998
 5679SOL     OW28498   2.202   1.283   2.620 -0.0981 -0.0407 -0.1240
 5679SOL    HW128499   2.110   1.300   2.602  0.0835  2.4707  1.4382
 5679SOL    HW228500   2.219   1.189   2.608  0.5167  0.0589 -0.0667
 5680SOL     OW28501   3.981   1.030   8.678  0.7619  1.4153 -0.1741
 5680SOL    HW128502   3.964   1.105   8.621  1.6033  0.5826 -1.5108
 5680SOL    HW228503   4.015   1.066   8.760  3.4296 -0.5664 -0.3951
 5681SOL     OW28504   0.499   1.820   3.233 -0.3948  0.1061  0.0436
 5681SOL    HW128505   0.448   1.741   3.248 -0.0871  0.0161  0.6587
 5681SOL    HW228506   0.557   1.799   3.160 -0.2491 -0.0172  0.1952
 5682SOL     OW28507   1.758   2.728   7.062  0.4631 -0.1405  0.7226
 5682SOL    HW128508   1.780   2.639   7.034 -0.1783 -0.0413 -0.1077
 5682SOL    HW228509   1.844   2.761   7.038 -0.3519  1.2214 -0.3692
 5683SOL     OW28510   0.497   2.603   2.995 -0.2580 -0.0330  0.3927
 5683SOL    HW128511   0.424   2.611   2.934  1.4245 -1.9865 -1.9060
 5683SOL    HW228512   0.511   2.698   3.002  1.0215 -0.0470 -1.9497
 5684SOL     OW28513   0.252   2.543  17.374  0.1450  0.5534 -0.3505
 5684SOL    HW128514   0.289   2.561  17.460  1.3890  0.7069 -0.9190
 5684SOL    HW228515   0.296   2.615  17.328 -1.9623  0.9176 -1.7977
 5685SOL     OW28516   4.524   1.220   8.653  0.2065 -0.1250  0.5208
 5685SOL    HW128517   4.455   1.283   8.673  0.6401  0.3987  0.3842
 5685SOL    HW228518   4.486   1.136   8.676 -1.4210  0.3327 -0.5016
 5686SOL     OW28519   3.237   2.367  12.524 -0.1803  0.4201 -0.5643
 5686SOL    HW128520   3.286   2.449  12.514  1.4742 -0.7390 -1.8595
 5686SOL    HW228521   3.297   2.302  12.489  1.2556  0.3657  1.9970
 5687SOL     OW28522   2.915   0.803  10.208 -0.1049  0.1291 -0.1328
 5687SOL    HW128523   2.868   0.847  10.137 -1.7781  0.5551  1.2442
 5687SOL    HW228524   2.850   0.739  10.237  0.2711 -0.9497 -1.6742
 5688SOL     OW28525   3.884   3.157  17.263 -0.0308 -0.2520 -0.0496
 5688SOL    HW128526   3.944   3.180  17.334  0.5537  1.0016 -0.9660
 5688SOL    HW228527   3.889   3.062  17.276  0.0661 -0.4456 -1.4723
 5689SOL     OW28528   3.257   0.349  11.304  0.1852 -0.8298 -0.6895
 5689SOL    HW128529   3.285   0.430  11.347  0.5764 -1.1621 -0.3247
 5689SOL    HW228530   3.234   0.386  11.219  1.1083  0.1745 -0.4985
 5690SOL     OW28531   1.766   2.944   7.563  0.7011  0.0568  0.3637
 5690SOL    HW128532   1.768   2.857   7.601  1.8037  0.1195  0.4680
 5690SOL    HW228533   1.810   2.999   7.628 -1.2119  0.0483  1.6576
 5691SOL     OW28534   3.627   1.115   6.713 -0.0138  0.0610  0.6559
 5691SOL    HW128535   3.691   1.133   6.782  1.6271  0.0961 -0.8701
 5691SOL    HW228536   3.611   1.207   6.693  2.5589  0.3942  0.1988
 5692SOL     OW28537   0.830   4.668  15.664 -0.2266  0.1852  0.0814
 5692SOL    HW128538   0.758   4.721  15.699 -1.1224 -0.3712 -0.9119
 5692SOL    HW228539   0.889   0.012  15.631 -0.7047  0.2296 -0.6799
 5693SOL     OW28540   4.540   2.861   6.562 -0.0664  0.0347 -0.5385
 5693SOL    HW128541   4.498   2.780   6.589  0.9179 -0.5942 -0.9068
 5693SOL    HW228542   4.610   2.834   6.503  2.1946  0.5650  1.8708
 5694SOL     OW28543   0.025   4.425   6.614 -0.2060 -0.0922  0.0327
 5694SOL    HW128544   0.071   4.508   6.622  0.9808 -0.4489 -2.8813
 5694SOL    HW228545   0.035   4.414   6.519  0.1002 -1.3475  0.2098
 5695SOL     OW28546   2.609   4.431   7.706  0.4423 -0.5115  0.3997
 5695SOL    HW128547   2.520   4.455   7.679 -0.3130 -2.8962  0.7141
 5695SOL    HW228548   2.652   4.516   7.718 -0.2862 -0.0733 -0.1031
 5696SOL     OW28549   1.904   3.590  11.584 -0.0249 -0.7560  1.1888
 5696SOL    HW128550   1.982   3.564  11.535  0.4825  3.6910 -0.3354
 5696SOL    HW228551   1.863   3.646  11.518 -1.7309 -1.2728  1.8081
 5697SOL     OW28552   3.894   4.475  16.972 -0.0388 -0.0419  0.5679
 5697SOL    HW128553   3.901   4.386  16.939 -2.5115  1.0869 -3.0610
 5697SOL    HW228554   3.986   4.498  16.978  0.1961 -0.9266  0.2712
 5698SOL     OW28555   0.368   3.476   1.648  0.2945  0.2651  0.1662
 5698SOL    HW128556   0.447   3.476   1.594  0.6179 -2.1873  0.6266
 5698SOL    HW228557   0.344   3.383   1.639  1.2065  0.0445 -0.0158
 5699SOL     OW28558   2.940   0.086  10.303  0.4878 -0.0282 -0.5553
 5699SOL    HW128559   2.957   0.073  10.397  0.7965  1.2793 -0.4356
 5699SOL    HW228560   2.849   0.115  10.299 -0.0735 -1.8402 -1.2352
 5700SOL     OW28561   2.198   4.710  16.637 -0.4462  0.0118  0.7261
 5700SOL    HW128562   2.288   0.013  16.654 -0.4551  0.6989 -0.3438
 5700SOL    HW228563   2.162   0.070  16.611 -1.4493 -1.0305 -1.2635
 5701SOL     OW28564   2.746   2.831   7.890 -0.2442  0.2340  0.1984
 5701SOL    HW128565   2.765   2.920   7.861 -1.7938  0.2056 -0.9106
 5701SOL    HW228566   2.660   2.809   7.855  1.3092 -1.0294 -2.8204
 5702SOL     OW28567   0.294   2.148   7.595 -0.0781  0.0174  0.2448
 5702SOL    HW128568   0.213   2.116   7.636 -0.6743  0.4882 -0.5816
 5702SOL    HW228569   0.328   2.202   7.667  0.9379  1.2628 -1.1581
 5703SOL     OW28570   4.122   4.479   8.205 -0.4149  0.0310  0.3288
 5703SOL    HW128571   4.060   4.444   8.141 -3.5614  0.6692  3.0713
 5703SOL    HW228572   4.077   4.496   8.288 -1.1558  2.2440 -0.5166
 5704SOL     OW28573   2.170   0.443   7.016  0.0944 -0.0093  0.1739
 5704SOL    HW128574   2.207   0.389   6.946 -0.9142 -1.6757  0.9387
 5704SOL    HW228575   2.235   0.510   7.035 -0.8311  0.2520  2.3553
 5705SOL     OW28576   1.651   0.215   0.895 -0.1140 -0.1489  0.4615
 5705SOL    HW128577   1.625   0.143   0.954 -0.2855  0.5982  1.2914
 5705SOL    HW228578   1.568   0.237   0.852 -0.0823  1.2921  1.1464
 5706SOL     OW28579   3.522   2.857   3.621 -0.3178 -0.0436 -0.3483
 5706SOL    HW128580   3.516   2.950   3.601 -3.2506  0.0404  1.0096
 5706SOL    HW228581   3.601   2.826   3.576 -0.0828 -0.3740  0.2871
 5707SOL     OW28582   1.779   3.797  14.606 -0.3383  0.3153  0.1472
 5707SOL    HW128583   1.692   3.822  14.575  2.0710  3.2820 -4.1860
 5707SOL    HW228584   1.813   3.886  14.617 -0.1338  0.2005  0.4282
 5708SOL     OW28585   0.226   4.637  13.146  0.8938  0.6224  0.4057
 5708SOL    HW128586   0.319   4.611  13.145  1.4780  2.7980 -1.0420
 5708SOL    HW228587   0.190   4.552  13.122  0.6403  0.5069  1.1990
 5709SOL     OW28588   2.069   3.983  11.737 -1.0097 -0.3103  0.4267
 5709SOL    HW128589   2.060   4.078  11.730  0.0932 -0.3944 -2.3192
 5709SOL    HW228590   2.036   3.955  11.651  0.5711 -0.9811  0.0271
 5710SOL     OW28591   0.785   0.202   6.242 -0.5852 -0.0173  0.3246
 5710SOL    HW128592   0.817   0.119   6.207  0.5633  0.7997 -0.5490
 5710SOL    HW228593   0.798   0.182   6.335  1.0573  1.0829  0.3196
 5711SOL     OW28594   3.644   2.470   6.256  0.0373  0.2640 -0.2573
 5711SOL    HW128595   3.677   2.455   6.168  0.8264  0.2334  0.0396
 5711SOL    HW228596   3.648   2.380   6.290 -1.7671 -0.0090 -0.7666
 5712SOL     OW28597   0.309   4.438   7.917  0.1425 -0.8132  0.5100
 5712SOL    HW128598   0.255   4.512   7.945 -0.7028 -0.5471 -1.8609
 5712SOL    HW228599   0.350   4.479   7.841  2.7231 -1.5951  1.4662
 5713SOL     OW28600   0.113   3.969   6.510 -0.3161 -0.5965 -0.2959
 5713SOL    HW128601   0.086   3.900   6.570 -0.1216 -0.7566 -0.3927
 5713SOL    HW228602   0.187   4.001   6.562 -0.6611 -3.8189  2.1795
 5714SOL     OW28603   0.967   3.567   6.620  0.2144  0.4562  0.1589
 5714SOL    HW128604   1.026   3.581   6.547  0.9482 -1.0875  0.4541
 5714SOL    HW228605   0.895   3.624   6.592  0.6654  0.1580 -1.5803
 5715SOL     OW28606   0.909   3.626   2.147  0.2910 -0.4967  0.0835
 5715SOL    HW128607   0.899   3.596   2.238 -0.8915 -0.4009 -0.0143
 5715SOL    HW228608   0.974   3.563   2.116  0.9151 -0.0584  0.4840
 5716SOL     OW28609   2.444   2.799   8.468  0.0534  0.7101 -0.2817
 5716SOL    HW128610   2.535   2.810   8.494  0.8277 -2.7569 -1.5589
 5716SOL    HW228611   2.415   2.888   8.486  0.5688  1.6805 -4.1032
 5717SOL     OW28612   3.141   1.275   5.603 -0.6161  0.7112 -0.1889
 5717SOL    HW128613   3.192   1.301   5.526 -1.2388  0.2044 -0.7791
 5717SOL    HW228614   3.059   1.325   5.599 -0.8298  0.4843  1.4513
 5718SOL     OW28615   3.495   0.139   6.424  0.9836 -0.2277 -0.8235
 5718SOL    HW128616   3.443   0.182   6.355  0.0122  0.7974  0.5517
 5718SOL    HW228617   3.474   0.193   6.500 -3.3688  0.7098 -2.6769
 5719SOL     OW28618   0.003   3.651   4.232  0.2123  0.2541 -0.1504
 5719SOL    HW128619   4.686   3.597   4.300 -0.3167  0.4385 -0.3294
 5719SOL    HW228620   4.697   3.741   4.247  0.6334  0.6545 -1.6736
 5720SOL     OW28621   3.811   4.438   2.166  0.1409 -0.7393 -0.2043
 5720SOL    HW128622   3.826   4.344   2.180 -0.6259 -1.0046 -1.1357
 5720SOL    HW228623   3.773   4.463   2.251 -1.5380 -0.2362 -1.1068
 5721SOL     OW28624   2.471   1.491   3.877  0.4195 -0.0677  0.0327
 5721SOL    HW128625   2.388   1.444   3.888 -0.0259  0.1476 -2.3738
 5721SOL    HW228626   2.451   1.553   3.807 -1.4783 -1.2105 -0.4513
 5722SOL     OW28627   3.035   4.374   7.524 -0.3650  0.8722 -0.6987
 5722SOL    HW128628   3.024   4.336   7.437  2.0523 -0.7531 -0.3148
 5722SOL    HW228629   3.000   4.313   7.588  1.2428 -0.8054 -1.3984
 5723SOL     OW28630   2.882   3.068   8.549  0.0821  0.1479 -0.4590
 5723SOL    HW128631   2.957   3.072   8.608 -0.8223 -0.3476  0.7190
 5723SOL    HW228632   2.831   3.145   8.572  0.7375  0.1067  1.0889
 5724SOL     OW28633   2.018   0.827   9.704 -0.0177  0.3086 -0.4405
 5724SOL    HW128634   1.957   0.825   9.777  0.0781  2.7869 -0.2950
 5724SOL    HW228635   1.965   0.807   9.626  1.6123  1.6673 -1.8946
 5725SOL     OW28636   3.644   1.396   7.891  0.8388  0.2087 -0.0905
 5725SOL    HW128637   3.726   1.374   7.847 -0.1939 -1.9004 -0.9586
 5725SOL    HW228638   3.646   1.328   7.957  1.2900 -0.5993 -0.9310
 5726SOL     OW28639   4.046   4.101   4.743  0.6602  0.3067 -0.0264
 5726SOL    HW128640   4.045   4.194   4.720  0.1756 -0.0689 -1.5663
 5726SOL    HW228641   4.117   4.076   4.684  0.1242  0.1998 -0.6372
 5727SOL     OW28642   4.659   1.051   7.157  0.2142 -0.5087  0.4302
 5727SOL    HW128643   0.008   1.096   7.116  0.6969 -3.1620 -1.6178
 5727SOL    HW228644   4.621   1.127   7.201 -0.3515 -0.8349  0.5108
 5728SOL     OW28645   2.262   4.204  13.171 -0.9580 -0.0929 -0.2782
 5728SOL    HW128646   2.238   4.121  13.130  1.7120  0.2953 -2.6514
 5728SOL    HW228647   2.232   4.186  13.260 -0.0087  1.0728  0.2843
 5729SOL     OW28648   1.652   2.470   2.348  0.1449  0.1987 -0.1000
 5729SOL    HW128649   1.597   2.474   2.426  1.7405  0.5865  1.0113
 5729SOL    HW228650   1.593   2.450   2.276  1.9518 -0.2652 -1.4587
 5730SOL     OW28651   0.199   3.812   8.978  0.2476 -0.2121  0.0389
 5730SOL    HW128652   0.154   3.807   9.062  1.9938 -2.0281  0.8787
 5730SOL    HW228653   0.157   3.882   8.927 -1.8964 -1.2829  0.3195
 5731SOL     OW28654   3.423   4.416  11.614  0.3686  0.4959  0.2165
 5731SOL    HW128655   3.487   4.377  11.554  0.2879  1.5525 -0.5664
 5731SOL    HW228656   3.359   4.459  11.557  2.1838  2.4060 -0.4114
 5732SOL     OW28657   2.878   1.016   3.128 -0.3148 -0.3104  0.0331
 5732SOL    HW128658   2.850   0.985   3.042  0.1470 -1.0174  0.1435
 5732SOL    HW228659   2.952   1.074   3.107  0.4504 -0.2918  2.8145
 5733SOL     OW28660   3.569   0.391   3.065  0.1428 -0.3643  0.0779
 5733SOL    HW128661   3.569   0.313   3.121 -1.8980  0.3520  1.0607
 5733SOL    HW228662   3.477   0.395   3.041  0.1493 -1.4620 -0.1559
 5734SOL     OW28663   2.952   1.696   5.425  0.4892  0.0018  0.8672
 5734SOL    HW128664   2.993   1.612   5.441  2.7028  0.4247 -2.7398
 5734SOL    HW228665   2.964   1.737   5.511  1.1327 -0.3654  0.9520
 5735SOL     OW28666   3.204   2.120   3.564  0.6541 -0.0417 -0.2739
 5735SOL    HW128667   3.197   2.057   3.636  0.2221 -0.7517 -0.9345
 5735SOL    HW228668   3.112   2.130   3.538  0.1315 -0.4236  1.4095
 5736SOL     OW28669   3.824   1.901  14.102 -0.5289  0.5836  0.2455
 5736SOL    HW128670   3.862   1.931  14.020 -2.3724  0.8000 -0.5301
 5736SOL    HW228671   3.754   1.844  14.070  1.9393 -1.7429 -0.9139
 5737SOL     OW28672   0.355   1.489   9.994 -0.4131 -0.3145 -0.1734
 5737SOL    HW128673   0.408   1.410   9.991 -1.6219 -1.1570  0.8967
 5737SOL    HW228674   0.305   1.477  10.075 -0.2403  0.9963  0.1214
 5738SOL     OW28675   0.279   2.954   8.520 -0.8928 -0.7093 -0.6175
 5738SOL    HW128676   0.351   2.892   8.531 -0.7554 -0.6565 -1.2130
 5738SOL    HW228677   0.247   2.953   8.610 -0.0833  2.0629 -0.3072
 5739SOL     OW28678   3.168   0.673   5.668 -0.0346 -0.2844 -0.1980
 5739SOL    HW128679   3.168   0.704   5.577  3.5955  1.5760  0.4751
 5739SOL    HW228680   3.096   0.610   5.675 -1.3005  1.1317 -0.4692
 5740SOL     OW28681   0.603   3.012   5.355 -0.5689  0.1125 -0.2577
 5740SOL    HW128682   0.514   3.021   5.321 -0.8635 -1.3567  0.1112
 5740SOL    HW228683   0.617   2.924   5.320 -2.1642 -0.5209  0.7415
 5741SOL     OW28684   3.330   2.362   8.878  0.0559  0.7122 -0.0017
 5741SOL    HW128685   3.354   2.417   8.803 -1.5495  0.0176 -1.0237
 5741SOL    HW228686   3.414   2.336   8.915  0.8034  2.9416 -0.1545
 5742SOL     OW28687   1.192   0.821   0.440  0.5652  0.3529  0.4748
 5742SOL    HW128688   1.164   0.781   0.523 -1.4308  1.2070  0.2001
 5742SOL    HW228689   1.129   0.893   0.433 -1.0735 -1.0551  0.6351
 5743SOL     OW28690   0.127   0.038   5.287  0.5628  0.3586  0.8231
 5743SOL    HW128691   0.070   0.041   5.210  0.3808  0.5410  0.9656
 5743SOL    HW228692   0.109   4.672   5.313  2.0293  0.0849  0.8558
 5744SOL     OW28693   2.225   0.963   7.613  0.5349  0.2759 -0.2560
 5744SOL    HW128694   2.144   0.987   7.567  0.4531  0.0582 -0.2282
 5744SOL    HW228695   2.202   1.015   7.690 -1.5139  1.4977 -1.7116
 5745SOL     OW28696   2.927   2.775   3.612  0.1151  0.0098 -0.4031
 5745SOL    HW128697   2.885   2.860   3.598 -2.6970 -1.1908  0.7956
 5745SOL    HW228698   2.851   2.721   3.590 -0.5052  1.0361 -0.7909
 5746SOL     OW28699   3.954   2.839  14.135  0.0883 -0.0477 -0.4861
 5746SOL    HW128700   4.009   2.769  14.172  1.9610  0.5176 -2.1882
 5746SOL    HW228701   4.007   2.918  14.127 -0.5828  0.6270  1.7474
 5747SOL     OW28702   2.079   4.212   5.463 -0.7663 -0.3929  0.2100
 5747SOL    HW128703   2.074   4.155   5.540 -0.0155 -0.6873  0.0370
 5747SOL    HW228704   2.015   4.172   5.404 -0.1220 -1.1030 -0.0055
 5748SOL     OW28705   3.724   3.052   0.553 -0.3221  0.2318  0.0158
 5748SOL    HW128706   3.784   3.013   0.489  0.5410  0.0610  0.9177
 5748SOL    HW228707   3.795   3.060   0.617 -0.4864  1.2045  0.0718
 5749SOL     OW28708   0.896   2.023  12.123 -0.2801  0.3506 -0.2209
 5749SOL    HW128709   0.871   2.057  12.037  1.4219  0.7288 -0.5718
 5749SOL    HW228710   0.907   1.930  12.103  2.1247 -0.0229  2.6590
 5750SOL     OW28711   0.502   1.913   6.892 -0.8890  0.0029 -0.7187
 5750SOL    HW128712   0.504   1.986   6.953 -1.4533 -1.7332  1.3910
 5750SOL    HW228713   0.412   1.930   6.865 -1.4738 -4.1695 -1.5109
 5751SOL     OW28714   2.665   0.289   2.827 -0.8226  0.4681 -0.4572
 5751SOL    HW128715   2.596   0.240   2.871 -0.2369  0.5065  0.5154
 5751SOL    HW228716   2.716   0.214   2.795 -1.9457 -0.3115 -0.4093
 5752SOL     OW28717   1.673   1.992   9.078  0.3080 -0.7947 -0.2979
 5752SOL    HW128718   1.621   2.012   9.000  1.2089 -2.7278 -1.3776
 5752SOL    HW228719   1.765   2.008   9.058 -0.2834  0.4319 -2.0363
 5753SOL     OW28720   0.949   0.373   8.601 -0.2055 -0.0309  0.5522
 5753SOL    HW128721   0.975   0.327   8.521 -0.3997  1.2944 -0.2744
 5753SOL    HW228722   0.994   0.457   8.592  0.3695 -0.5532 -1.4121
 5754SOL     OW28723   0.573   4.245  10.191  0.2802 -0.4739  0.1223
 5754SOL    HW128724   0.581   4.168  10.135 -2.4421 -1.0746  0.5604
 5754SOL    HW228725   0.503   4.223  10.252 -1.0744 -1.1245 -1.6518
 5755SOL     OW28726   3.869   2.631   0.578 -0.4847  0.3621 -0.0107
 5755SOL    HW128727   3.790   2.683   0.573  0.6932  2.0653 -0.6848
 5755SOL    HW228728   3.935   2.677   0.526 -0.7448 -0.3379 -0.9584
 5756SOL     OW28729   2.794   0.823   6.698  0.2692  0.1428 -0.4816
 5756SOL    HW128730   2.885   0.835   6.724  0.5406 -0.6597 -1.0934
 5756SOL    HW228731   2.779   0.913   6.667  1.5555  0.8523  0.9675
 5757SOL     OW28732   4.419   0.601   8.006 -0.1109  0.2926  0.2476
 5757SOL    HW128733   4.503   0.580   7.966 -0.1661  1.1236 -0.3012
 5757SOL    HW228734   4.392   0.673   7.948  0.4899  0.2735 -0.0564
 5758SOL     OW28735   3.821   4.439   7.602  0.0288 -0.0067 -0.0721
 5758SOL    HW128736   3.876   4.498   7.653 -2.4691 -0.6410  3.3421
 5758SOL    HW228737   3.790   4.382   7.672  0.1480  0.5547  0.4413
 5759SOL     OW28738   2.294   3.804  16.678 -0.0886 -0.2596  0.1043
 5759SOL    HW128739   2.260   3.893  16.686  0.2327 -0.0082 -1.4518
 5759SOL    HW228740   2.340   3.809  16.594 -1.4420 -1.0207 -0.6782
 5760SOL     OW28741   2.809   3.435   2.156 -0.0319  0.0188  0.1342
 5760SOL    HW128742   2.794   3.518   2.110  0.6156 -0.0412 -0.1878
 5760SOL    HW228743   2.784   3.372   2.088 -1.9016  0.7800  0.1033
 5761SOL     OW28744   1.243   2.982   0.784 -0.2117  0.0913 -0.4483
 5761SOL    HW128745   1.240   3.022   0.871  0.6924  0.9748 -0.8261
 5761SOL    HW228746   1.209   2.894   0.800 -1.1079 -0.0128 -2.9628
 5762SOL     OW28747   3.336   3.458  11.485 -0.2382 -0.0162 -0.4877
 5762SOL    HW128748   3.333   3.363  11.500 -0.3637  0.1740  0.6968
 5762SOL    HW228749   3.289   3.463  11.402 -0.3988  0.2304 -0.3814
 5763SOL     OW28750   3.964   0.568   2.795 -0.6654  0.2927 -0.5613
 5763SOL    HW128751   3.960   0.472   2.794  1.7160  0.2099 -1.3568
 5763SOL    HW228752   4.058   0.581   2.802 -0.7505  0.8836 -0.5746
 5764SOL     OW28753   1.373   3.755   7.309 -0.1565 -0.1141 -0.0905
 5764SOL    HW128754   1.413   3.810   7.376  0.7461  0.6775 -1.2748
 5764SOL    HW228755   1.356   3.679   7.365 -0.8884  1.1959  1.4667
 5765SOL     OW28756   1.721   3.263   5.521  0.1391  0.4038  0.1257
 5765SOL    HW128757   1.672   3.193   5.565  0.8569  0.2064  0.6045
 5765SOL    HW228758   1.761   3.216   5.448  0.2841 -0.4662  0.7546
 5766SOL     OW28759   2.121   4.103   9.537  0.5259 -0.0188  0.2609
 5766SOL    HW128760   2.203   4.132   9.498 -0.1475  1.6178  0.0501
 5766SOL    HW228761   2.058   4.170   9.511  0.0934 -0.1690  0.9265
 5767SOL     OW28762   0.421   4.488   3.182 -0.1537  0.1900  0.6148
 5767SOL    HW128763   0.354   4.449   3.237 -0.4352  0.8192  0.7200
 5767SOL    HW228764   0.468   4.557   3.229  2.1676 -2.4820  2.2345
 5768SOL     OW28765   0.561   3.508   1.999  0.4292  0.2894  0.2763
 5768SOL    HW128766   0.559   3.430   1.943 -0.3186  1.6313 -1.5682
 5768SOL    HW228767   0.602   3.477   2.080 -0.4782  1.1961  1.0955
 5769SOL     OW28768   2.596   4.002  11.328  0.0973 -0.0291 -0.0972
 5769SOL    HW128769   2.618   3.910  11.313  4.4443  0.9533  0.4525
 5769SOL    HW228770   2.544   3.978  11.405 -0.2619 -0.6377 -0.5309
 5770SOL     OW28771   1.361   0.376   9.420  0.3970  0.7512  0.4642
 5770SOL    HW128772   1.356   0.333   9.506 -0.2494 -0.0243  0.0337
 5770SOL    HW228773   1.270   0.388   9.395  0.6431 -0.6840 -1.1403
 5771SOL     OW28774   2.628   2.259   4.712  0.4748  0.7723 -0.1008
 5771SOL    HW128775   2.608   2.297   4.797 -1.7907 -0.7211  0.0138
 5771SOL    HW228776   2.724   2.262   4.716  0.4238  0.3697  1.3063
 5772SOL     OW28777   1.302   3.559   5.699 -0.1052 -0.2426  0.1441
 5772SOL    HW128778   1.282   3.640   5.651 -2.2581  0.3951  2.1065
 5772SOL    HW228779   1.348   3.515   5.628  1.4380 -0.8014  1.5108
 5773SOL     OW28780   0.557   1.318   4.529 -0.2097  0.2326 -0.3467
 5773SOL    HW128781   0.495   1.374   4.577  1.6616  1.8813  0.1639
 5773SOL    HW228782   0.516   1.321   4.443 -0.4895  0.3073 -0.2107
 5774SOL     OW28783   3.456   2.466   5.087 -0.0219  0.1566  0.7902
 5774SOL    HW128784   3.499   2.537   5.135 -1.2452  0.6992  1.1041
 5774SOL    HW228785   3.493   2.395   5.140 -2.1784 -1.6861 -0.1804
 5775SOL     OW28786   3.121   2.291   5.222  0.1312  0.0669 -0.5731
 5775SOL    HW128787   3.032   2.257   5.213 -0.9562  3.4105 -2.4620
 5775SOL    HW228788   3.116   2.376   5.179 -0.0783  0.8666  1.0397
 5776SOL     OW28789   2.752   1.697   6.881 -0.1576 -0.2481 -0.2445
 5776SOL    HW128790   2.821   1.723   6.942 -1.8945 -0.6853  1.9079
 5776SOL    HW228791   2.760   1.603   6.892  1.2717 -0.3504 -2.1302
 5777SOL     OW28792   3.077   4.164   5.961  0.0744 -0.4920 -0.3204
 5777SOL    HW128793   3.076   4.118   5.877 -0.9777 -2.1261  0.5806
 5777SOL    HW228794   3.054   4.254   5.939  1.1209 -0.0756  0.3198
 5778SOL     OW28795   2.625   2.175   4.161  0.5179 -0.0808  0.1499
 5778SOL    HW128796   2.531   2.165   4.173  0.6924  0.3976  1.9622
 5778SOL    HW228797   2.669   2.117   4.223  1.4432 -1.2010 -1.5604
 5779SOL     OW28798   2.693   2.576   7.163 -0.0018 -0.2646  0.1948
 5779SOL    HW128799   2.689   2.572   7.068  1.3294  0.0193  0.1255
 5779SOL    HW228800   2.756   2.507   7.184  0.6568  0.2461 -0.0989
 5780SOL     OW28801   2.376   2.112   4.233  0.3667 -0.1410  0.0312
 5780SOL    HW128802   2.303   2.089   4.175  1.1385 -0.8651 -0.6621
 5780SOL    HW228803   2.355   2.067   4.315 -2.4376  1.6361  0.2931
 5781SOL     OW28804   2.150   2.951  13.183 -0.4218  0.2438  0.0699
 5781SOL    HW128805   2.126   2.914  13.097  0.1337 -0.1885  0.1009
 5781SOL    HW228806   2.244   2.966  13.173 -0.0605 -2.0775 -0.0381
 5782SOL     OW28807   0.644   2.618   5.029  0.1112  0.0330  0.0644
 5782SOL    HW128808   0.674   2.578   4.948  3.1683  0.0723  1.1775
 5782SOL    HW228809   0.550   2.612   5.013 -0.0018 -1.6078  1.3381
 5783SOL     OW28810   1.595   1.407   2.229  0.0806 -0.0794  0.1618
 5783SOL    HW128811   1.588   1.464   2.306  1.5052  0.7966 -0.3439
 5783SOL    HW228812   1.513   1.359   2.229 -1.2465  2.1705  2.7773
 5784SOL     OW28813   0.848   2.737   7.038 -0.1422  0.1837 -0.3901
 5784SOL    HW128814   0.914   2.775   6.980 -0.4680  0.7117 -0.4134
 5784SOL    HW228815   0.783   2.701   6.978  1.4965 -1.3865 -1.2324
 5785SOL     OW28816   0.137   3.005   7.862  0.1350 -0.6312 -0.2768
 5785SOL    HW128817   0.109   2.975   7.948 -1.4690  0.6852 -0.3403
 5785SOL    HW228818   0.230   3.002   7.886  0.2140 -0.9309 -0.6183
 5786SOL     OW28819   3.456   2.186  15.315  0.1090  0.2960 -0.0386
 5786SOL    HW128820   3.520   2.170  15.245  1.0356  1.3170  0.5718
 5786SOL    HW228821   3.417   2.101  15.332  1.6724 -0.3812  0.2201
 5787SOL     OW28822   4.449   1.914   8.011 -0.1737  0.0813  0.0647
 5787SOL    HW128823   4.530   1.944   8.054  1.3610 -1.1538 -1.9455
 5787SOL    HW228824   4.391   1.925   8.086  0.9115  1.0574  0.7537
 5788SOL     OW28825   1.822   2.609  12.162  0.0439 -0.0802  0.4591
 5788SOL    HW128826   1.793   2.582  12.075  0.1972  0.3615  0.2730
 5788SOL    HW228827   1.756   2.672  12.191  0.8279  0.8652  0.1841
 5789SOL     OW28828   3.159   0.947  15.963  0.4409 -0.1227 -0.0997
 5789SOL    HW128829   3.072   0.985  15.952  1.3463  0.7410 -4.3738
 5789SOL    HW228830   3.174   0.956  16.057 -1.0788  1.4114  0.0087
 5790SOL     OW28831   0.681   3.958   9.438 -0.5034 -0.4506 -0.9060
 5790SOL    HW128832   0.671   3.878   9.489  1.0514 -0.1004 -0.0513
 5790SOL    HW228833   0.728   4.019   9.496 -0.2706 -1.3821 -0.1173
 5791SOL     OW28834   3.328   2.636   6.980  0.0948 -0.3433 -0.1397
 5791SOL    HW128835   3.313   2.702   6.912 -3.9145 -1.4195 -0.3255
 5791SOL    HW228836   3.243   2.628   7.024 -0.6562  0.3562 -1.4711
 5792SOL     OW28837   0.892   3.348   5.615 -0.2800  0.3370  0.1913
 5792SOL    HW128838   0.918   3.435   5.582  0.5390 -0.1706 -0.4988
 5792SOL    HW228839   0.971   3.328   5.666 -0.6674 -1.2937  0.1431
 5793SOL     OW28840   3.646   3.337   0.481  0.2203 -1.1520  0.4007
 5793SOL    HW128841   3.665   3.253   0.523  0.2680 -1.0993  0.4857
 5793SOL    HW228842   3.634   3.307   0.391  2.3837  1.2873 -0.6986
 5794SOL     OW28843   3.584   3.182  10.659  0.0440  0.4124 -0.0514
 5794SOL    HW128844   3.646   3.232  10.605 -0.3495  0.8027 -0.1364
 5794SOL    HW228845   3.641   3.105  10.667 -0.8536 -0.4552 -2.1589
 5795SOL     OW28846   3.829   0.214   7.495 -0.0194 -0.3120  0.1594
 5795SOL    HW128847   3.751   0.170   7.528 -0.9771  1.4307  0.2116
 5795SOL    HW228848   3.821   0.199   7.401 -2.3332  0.2110  0.2701
 5796SOL     OW28849   3.645   1.871   6.908  0.6835  0.2356  0.1761
 5796SOL    HW128850   3.718   1.849   6.850 -0.4896 -1.2261 -0.7712
 5796SOL    HW228851   3.683   1.847   6.992  1.3796 -0.2996 -0.2838
 5797SOL     OW28852   2.647   2.479   5.270  0.2300 -0.2276 -0.0813
 5797SOL    HW128853   2.554   2.496   5.287  0.4879 -0.5601  1.7434
 5797SOL    HW228854   2.673   2.429   5.347  1.5101 -0.4375 -0.6431
 5798SOL     OW28855   1.555   1.106  10.038 -0.0663 -0.1292 -0.0301
 5798SOL    HW128856   1.499   1.162   9.985 -1.0035 -1.2476 -0.2216
 5798SOL    HW228857   1.630   1.163  10.054 -1.9387  3.1132 -2.9580
 5799SOL     OW28858   2.259   0.995   6.091 -0.2573 -0.5427  0.2261
 5799SOL    HW128859   2.236   1.008   5.999 -1.4384 -2.1825  0.3008
 5799SOL    HW228860   2.298   1.077   6.123  1.4898 -1.2829  0.0157
 5800SOL     OW28861   2.479   3.892   7.007 -0.2048 -0.0293 -0.0016
 5800SOL    HW128862   2.401   3.924   7.052  0.4115  1.4116  0.0276
 5800SOL    HW228863   2.460   3.894   6.913 -0.0693 -0.2195 -0.0339
 5801SOL     OW28864   1.940   3.479   8.289  0.5327 -0.0023 -0.0996
 5801SOL    HW128865   1.988   3.458   8.209  1.6940  0.4004  0.4957
 5801SOL    HW228866   1.855   3.462   8.249  0.8838 -0.0778 -0.8234
 5802SOL     OW28867   3.197   1.579   4.704 -0.1422  0.1546 -0.2813
 5802SOL    HW128868   3.134   1.563   4.775  2.9610  2.8771  3.0565
 5802SOL    HW228869   3.268   1.522   4.733 -0.7792 -0.6424 -0.2798
 5803SOL     OW28870   1.085   1.285   4.314  0.3227  0.5244  0.1483
 5803SOL    HW128871   1.004   1.311   4.357 -0.0076 -1.4169  0.7213
 5803SOL    HW228872   1.056   1.233   4.238  1.1556 -0.6849  0.6650
 5804SOL     OW28873   1.074   3.594  13.474  0.3905 -0.5336  0.6336
 5804SOL    HW128874   1.062   3.572  13.382 -0.3587 -0.2170  0.6544
 5804SOL    HW228875   1.161   3.628  13.498  1.3282 -0.1376 -3.3644
 5805SOL     OW28876   3.643   4.380   5.229  0.6009  0.6385  0.9714
 5805SOL    HW128877   3.625   4.455   5.172  3.0461  0.8500  0.4463
 5805SOL    HW228878   3.730   4.401   5.264 -0.3357  1.4722  2.7774
 5806SOL     OW28879   4.721   3.383   4.864 -0.6405 -0.1581 -0.5853
 5806SOL    HW128880   0.033   3.468   4.836 -2.1930  0.3664 -0.9822
 5806SOL    HW228881   0.001   3.341   4.778 -0.1715 -1.7301  0.2103
 5807SOL     OW28882   4.535   3.108   5.689  0.0106  0.1715 -0.0503
 5807SOL    HW128883   4.494   3.076   5.608  2.1839  4.0183 -2.6761
 5807SOL    HW228884   4.597   3.037   5.702 -0.6262 -0.4312 -0.2764
 5808SOL     OW28885   4.160   1.645   8.272 -0.3438  0.3960  0.3161
 5808SOL    HW128886   4.150   1.739   8.289  1.7603  0.6712  0.1221
 5808SOL    HW228887   4.080   1.637   8.221 -0.0884  0.6083 -0.1218
 5809SOL     OW28888   4.139   1.971   3.009 -0.0490  0.4011  0.0787
 5809SOL    HW128889   4.079   1.905   2.974  2.5635 -0.1668 -3.2791
 5809SOL    HW228890   4.227   1.937   2.991  0.3981  1.0810  0.9499
 5810SOL     OW28891   0.053   0.409   2.329  0.5501  0.6185 -0.0433
 5810SOL    HW128892   0.048   0.444   2.418 -2.0986  2.3116 -0.8861
 5810SOL    HW228893   0.023   0.484   2.279 -1.2262 -0.2760 -0.3168
 5811SOL     OW28894   2.264   0.885  12.068 -0.1872 -0.3490  0.2880
 5811SOL    HW128895   2.321   0.864  11.994  1.0010  1.4884  0.6784
 5811SOL    HW228896   2.183   0.886  12.017  0.5411  1.0606 -0.8321
 5812SOL     OW28897   3.664   1.365   6.524  0.0197 -0.0337  0.6366
 5812SOL    HW128898   3.606   1.386   6.451  1.6523  1.5575 -0.2027
 5812SOL    HW228899   3.740   1.422   6.514  0.0277  0.0154  0.9534
 5813SOL     OW28900   3.917   2.537   0.821 -0.3208 -0.4370 -0.2219
 5813SOL    HW128901   3.845   2.478   0.799 -0.6912 -1.1108  2.8262
 5813SOL    HW228902   3.928   2.578   0.735 -0.7455  0.9800  0.3953
 5814SOL     OW28903   2.534   0.818   6.139  0.1924 -0.5861 -0.3986
 5814SOL    HW128904   2.504   0.819   6.048 -0.6242  1.7092 -0.1235
 5814SOL    HW228905   2.625   0.804   6.112  0.7741  0.8082  0.8096
 5815SOL     OW28906   3.376   0.659   8.193  0.0756  0.3670 -0.0708
 5815SOL    HW128907   3.459   0.625   8.160 -0.3709  0.7190 -1.5834
 5815SOL    HW228908   3.398   0.684   8.282 -0.5607 -0.5391  0.3320
 5816SOL     OW28909   4.459   3.749   2.106  1.1290  0.0277  0.1175
 5816SOL    HW128910   4.425   3.836   2.127  3.0091  0.2352  2.2760
 5816SOL    HW228911   4.497   3.725   2.190 -1.0120 -1.7815  0.5423
 5817SOL     OW28912   0.974   1.650   2.877  0.1550  0.0492  0.0811
 5817SOL    HW128913   0.893   1.604   2.898  0.3919 -0.6605 -0.5663
 5817SOL    HW228914   0.942   1.734   2.909 -2.0171 -0.9914  0.6000
 5818SOL     OW28915   1.523   0.166   5.712 -0.3216  0.1489  0.2485
 5818SOL    HW128916   1.543   0.185   5.803  0.3680 -2.0104  0.5471
 5818SOL    HW228917   1.530   0.071   5.703  0.8810  0.2759 -0.1618
 5819SOL     OW28918   4.629   3.488   3.312  0.4379  0.7726  0.5938
 5819SOL    HW128919   4.676   3.514   3.392  0.2569  1.6137  0.4255
 5819SOL    HW228920   4.705   3.499   3.256  0.3499 -0.6343  0.1884
 5820SOL     OW28921   1.776   0.364  15.949 -1.0658 -0.1303 -1.3188
 5820SOL    HW128922   1.769   0.413  15.867 -0.3149 -0.2041 -1.4294
 5820SOL    HW228923   1.843   0.302  15.919  0.3424  1.2083 -0.9571
 5821SOL     OW28924   2.475   4.508  13.674  0.0032  0.1684 -0.6260
 5821SOL    HW128925   2.475   4.417  13.704  0.5654  0.8681  1.4813
 5821SOL    HW228926   2.491   4.478  13.584  0.2232  1.4266 -0.9990
 5822SOL     OW28927   0.207   0.349   5.311 -0.1018 -0.2385  0.0362
 5822SOL    HW128928   0.202   0.254   5.302 -1.2509 -0.3237  1.5709
 5822SOL    HW228929   0.206   0.366   5.216  1.9752  0.7930  0.1905
 5823SOL     OW28930   2.274   2.869   5.077  0.7296 -0.0326 -0.2547
 5823SOL    HW128931   2.280   2.958   5.112 -0.9345 -0.4466  1.0725
 5823SOL    HW228932   2.218   2.828   5.142  0.0343 -0.1897 -0.9544
 5824SOL     OW28933   0.427   1.443   1.876  0.0318 -0.3160  0.2489
 5824SOL    HW128934   0.480   1.436   1.955 -0.3378 -0.0941  0.5130
 5824SOL    HW228935   0.345   1.480   1.909  0.9956 -0.1326  2.4123
 5825SOL     OW28936   4.581   1.825   4.396 -0.2576  0.5810  0.1357
 5825SOL    HW128937   4.669   1.804   4.428 -0.7006 -1.6399 -0.1505
 5825SOL    HW228938   4.569   1.915   4.427 -0.5611  0.5024  0.2479
 5826SOL     OW28939   1.160   3.248   4.441  0.2275 -0.1048  0.3242
 5826SOL    HW128940   1.252   3.251   4.467 -0.5013  1.1423  2.6805
 5826SOL    HW228941   1.149   3.343   4.433 -0.5843 -0.2211  0.0707
 5827SOL     OW28942   2.131   0.833  15.574  0.2984 -0.5175 -0.2264
 5827SOL    HW128943   2.120   0.805  15.665 -1.3562  2.2864  0.4248
 5827SOL    HW228944   2.223   0.857  15.579  0.1667  0.1617 -1.0525
 5828SOL     OW28945   1.689   0.047   8.697 -0.0106 -0.2538 -0.1736
 5828SOL    HW128946   1.772   0.025   8.654  1.3423 -0.3990  2.4968
 5828SOL    HW228947   1.639   0.100   8.634 -1.2104  0.0662  1.0577
 5829SOL     OW28948   1.694   3.097   7.811 -0.1833 -0.8815 -0.0077
 5829SOL    HW128949   1.666   3.035   7.879 -0.2691 -0.0381  0.7329
 5829SOL    HW228950   1.738   3.167   7.860 -0.4871  0.3947 -1.5351
 5830SOL     OW28951   0.025   3.841   6.728  0.3144  0.2134  0.0456
 5830SOL    HW128952   0.068   3.773   6.780 -1.1786 -0.8106 -0.0638
 5830SOL    HW228953   4.660   3.815   6.704  0.0460  1.1693  0.0187
 5831SOL     OW28954   0.224   1.568   3.236 -0.4340 -0.2534  0.2865
 5831SOL    HW128955   0.256   1.493   3.286 -3.2797 -0.1636  2.2302
 5831SOL    HW228956   0.139   1.588   3.274  0.7812 -1.7025  3.7509
 5832SOL     OW28957   4.300   1.117  12.728  0.3292  0.1517  0.0528
 5832SOL    HW128958   4.282   1.157  12.644 -1.1658  2.9147  1.7031
 5832SOL    HW228959   4.244   1.160  12.792 -0.0464  2.2574 -1.7286
 5833SOL     OW28960   4.441   2.064   5.488 -0.3133  0.4960 -0.6360
 5833SOL    HW128961   4.467   2.061   5.580  1.6160 -0.7426 -1.2037
 5833SOL    HW228962   4.502   2.127   5.449  1.8964 -1.6947 -0.7085
 5834SOL     OW28963   0.355   3.644   2.618  0.1887  0.4013  0.2020
 5834SOL    HW128964   0.289   3.707   2.590  1.6324  2.6762  1.9681
 5834SOL    HW228965   0.309   3.560   2.614  1.2405 -0.1267 -1.0011
 5835SOL     OW28966   0.135   0.835   7.883 -0.2425 -0.4868 -0.2433
 5835SOL    HW128967   0.163   0.803   7.797  0.5806  0.9615 -0.5117
 5835SOL    HW228968   0.220   0.820   7.925  0.1192 -0.0196 -0.8080
 5836SOL     OW28969   0.208   2.606  11.064  0.7748  0.0489 -0.6554
 5836SOL    HW128970   0.142   2.671  11.087  0.2649 -0.8268  0.3565
 5836SOL    HW228971   0.203   2.534  11.127  1.6971  0.4265 -0.1413
 5837SOL     OW28972   3.405   2.181   0.897  0.4589 -0.0239  0.0221
 5837SOL    HW128973   3.356   2.125   0.837  1.6954 -0.4085 -0.6195
 5837SOL    HW228974   3.462   2.227   0.835 -0.3682  0.3630 -0.4433
 5838SOL     OW28975   0.562   4.515   1.959 -0.2477  0.9737 -0.1549
 5838SOL    HW128976   0.637   4.570   1.982 -1.3822  2.5998 -0.3463
 5838SOL    HW228977   0.560   4.519   1.863 -0.0016  3.1603 -0.0745
 5839SOL     OW28978   0.476   2.189   4.077  0.3659 -0.2207  0.6061
 5839SOL    HW128979   0.566   2.218   4.093  0.9822 -2.6699  1.4415
 5839SOL    HW228980   0.475   2.171   3.983 -0.8029  0.0024  0.5784
 5840SOL     OW28981   4.249   2.104  16.891 -0.2735  0.2226 -0.0207
 5840SOL    HW128982   4.277   2.194  16.906  0.0273  0.0729  0.3395
 5840SOL    HW228983   4.301   2.087  16.812  0.2196  2.4519 -0.1683
 5841SOL     OW28984   3.911   1.042   2.741  0.6504  0.7055  0.0387
 5841SOL    HW128985   3.870   0.977   2.685  0.8365 -1.8906  2.8958
 5841SOL    HW228986   3.892   1.120   2.688 -0.0406  0.5801  0.1086
 5842SOL     OW28987   4.549   3.667   3.854  0.2609  0.1183  0.3828
 5842SOL    HW128988   4.542   3.571   3.855 -1.0167  0.2450  2.6818
 5842SOL    HW228989   4.482   3.688   3.919 -0.2470 -0.9042  0.1968
 5843SOL     OW28990   4.362   2.031   0.035  0.1956 -0.3596  0.1514
 5843SOL    HW128991   4.434   2.013   0.095  0.4605 -2.6792 -0.8742
 5843SOL    HW228992   4.369   2.127   0.037  0.4844 -0.3333 -2.4909
 5844SOL     OW28993   3.194   2.560   5.815 -0.4673  0.2644 -0.4344
 5844SOL    HW128994   3.143   2.610   5.878 -0.8115 -1.2147  0.4621
 5844SOL    HW228995   3.171   2.472   5.845  0.4708 -0.2441 -1.1922
 5845SOL     OW28996   3.837   2.163   5.641  0.5745  0.2507 -0.3337
 5845SOL    HW128997   3.794   2.107   5.706  0.9869  0.1973 -0.1040
 5845SOL    HW228998   3.919   2.178   5.689 -0.6024  0.4381  1.6039
 5846SOL     OW28999   3.811   3.976   4.834 -0.2412 -0.6138 -0.0939
 5846SOL    HW129000   3.900   3.989   4.802 -0.5495  0.9145 -0.3800
 5846SOL    HW229001   3.829   3.931   4.916 -1.4859  0.5486  0.8223
 5847SOL     OW29002   0.715   1.709   1.645 -0.3160 -0.0644  0.2545
 5847SOL    HW129003   0.656   1.691   1.718 -1.2519 -2.6945 -1.1548
 5847SOL    HW229004   0.667   1.690   1.565 -0.5618  3.4451 -0.4536
 5848SOL     OW29005   1.525   2.534   2.979  0.0375  0.0900  0.0876
 5848SOL    HW129006   1.478   2.612   2.948 -0.3329  0.1016  0.6818
 5848SOL    HW229007   1.580   2.495   2.911 -2.0695 -3.2566  0.2883
 5849SOL     OW29008   3.511   4.230   7.634 -0.0426  0.5343 -0.2839
 5849SOL    HW129009   3.455   4.294   7.590  1.4475  1.7079 -0.4818
 5849SOL    HW229010   3.442   4.169   7.660 -0.6073  1.1346 -0.3751
 5850SOL     OW29011   3.357   1.119  15.012  0.5805 -0.3860  0.2994
 5850SOL    HW129012   3.445   1.148  14.989  0.5542  0.8208  1.7129
 5850SOL    HW229013   3.381   1.036  15.053  0.9235 -0.8106 -0.7941
 5851SOL     OW29014   4.008   1.005   9.222  0.1465  0.5751  0.2111
 5851SOL    HW129015   4.060   0.964   9.290  1.5492  0.1654 -1.1070
 5851SOL    HW229016   3.955   0.932   9.190 -1.4734  2.4789 -1.5071
 5852SOL     OW29017   4.218   2.531   6.366 -0.3988 -0.8011 -0.3980
 5852SOL    HW129018   4.179   2.613   6.395  0.7044  0.3172 -2.0207
 5852SOL    HW229019   4.132   2.495   6.346 -1.6460  1.9107  0.0813
 5853SOL     OW29020   1.810   3.276   1.045 -0.8042  0.0782 -0.4903
 5853SOL    HW129021   1.748   3.340   1.010  0.5804  0.0249 -3.0322
 5853SOL    HW229022   1.757   3.246   1.119  3.9225  0.7178  3.1402
 5854SOL     OW29023   4.672   2.026   8.148  0.2155 -0.6117 -0.5720
 5854SOL    HW129024   4.705   1.941   8.177 -1.4378 -1.2445 -0.5555
 5854SOL    HW229025   0.026   2.080   8.137  0.4914 -1.2034 -1.5463
 5855SOL     OW29026   1.126   4.586  14.404 -0.7565 -0.7179 -0.5212
 5855SOL    HW129027   1.218   4.565  14.422 -1.1075 -1.8773 -0.0827
 5855SOL    HW229028   1.092   4.522  14.465 -1.4861 -0.6341 -0.8484
 5856SOL     OW29029   1.699   0.073   4.328 -0.2246 -0.1711 -0.2925
 5856SOL    HW129030   1.708   0.164   4.299  1.7323  0.0417  0.9389
 5856SOL    HW229031   1.754   0.031   4.262 -0.3594  0.3360 -0.7308
 5857SOL     OW29032   4.238   3.319   4.482  0.2216 -0.5228  0.0884
 5857SOL    HW129033   4.247   3.254   4.412  1.1373  2.0694 -2.2031
 5857SOL    HW229034   4.156   3.362   4.459 -1.1707 -2.0182  2.1265
 5858SOL     OW29035   2.349   2.166   7.326  0.7352 -0.2013  0.5738
 5858SOL    HW129036   2.437   2.134   7.306  0.2550 -1.3653  0.3092
 5858SOL    HW229037   2.349   2.250   7.281  0.5649 -1.1782 -1.2686
 5859SOL     OW29038   1.620   3.821   5.073  0.2423  0.7061  0.1429
 5859SOL    HW129039   1.574   3.737   5.072  1.1566  0.1690  2.6957
 5859SOL    HW229040   1.669   3.809   5.154 -1.8718 -1.3115  1.1521
 5860SOL     OW29041   3.387   0.915   2.613 -0.1660  0.1632 -0.3259
 5860SOL    HW129042   3.415   0.967   2.688  0.8608  1.3784 -1.5372
 5860SOL    HW229043   3.417   0.958   2.533  0.0760  0.6203  0.0072
 5861SOL     OW29044   0.533   4.295  16.358  0.4232 -0.1444  0.1531
 5861SOL    HW129045   0.531   4.242  16.438 -1.2788 -0.0425  0.1678
 5861SOL    HW229046   0.560   4.224  16.299 -1.8322 -0.6268 -0.2894
 5862SOL     OW29047   3.707   1.445   5.177  0.6676  0.4975 -0.5292
 5862SOL    HW129048   3.669   1.456   5.265  0.6765  1.1133 -0.6041
 5862SOL    HW229049   3.628   1.461   5.126  1.1167  0.6631 -1.1646
 5863SOL     OW29050   1.371   3.590   2.373 -0.3157 -0.4633  0.2472
 5863SOL    HW129051   1.416   3.515   2.335  1.7506  0.4141  0.9882
 5863SOL    HW229052   1.368   3.653   2.301  1.4928  0.9874  1.4541
 5864SOL     OW29053   2.673   2.505   6.892  0.0242  0.4460  0.0004
 5864SOL    HW129054   2.589   2.540   6.864  0.6318  2.1654  0.2934
 5864SOL    HW229055   2.718   2.532   6.812 -0.6163  2.2684  0.2397
 5865SOL     OW29056   4.527   0.321  13.649 -0.1349 -0.4215  0.4075
 5865SOL    HW129057   4.528   0.324  13.553  1.8328 -0.0541  0.4343
 5865SOL    HW229058   4.437   0.343  13.671 -0.5434 -0.0708 -1.6140
 5866SOL     OW29059   0.788   0.263   2.654  0.5749  0.4500 -0.2993
 5866SOL    HW129060   0.850   0.332   2.632  1.1440  1.0140  3.1556
 5866SOL    HW229061   0.740   0.312   2.720 -0.6419 -1.9571  0.5915
 5867SOL     OW29062   1.667   3.354   2.361 -0.4165  0.0885 -0.1824
 5867SOL    HW129063   1.724   3.408   2.416 -1.1270  0.6340  0.0122
 5867SOL    HW229064   1.610   3.310   2.424  0.9673 -0.6636  0.5417
 5868SOL     OW29065   1.130   1.459   1.894  0.2161 -0.7020  0.0191
 5868SOL    HW129066   1.077   1.462   1.973 -1.4538 -0.8294 -1.1046
 5868SOL    HW229067   1.073   1.497   1.827  1.2598 -1.0612 -1.0817
 5869SOL     OW29068   3.037   3.426   4.211  0.1076  0.1888 -0.5740
 5869SOL    HW129069   3.018   3.424   4.304 -1.0127  0.8027 -0.7920
 5869SOL    HW229070   2.977   3.356   4.184 -1.1769  1.5793 -1.2791
 5870SOL     OW29071   2.581   0.506   8.003 -0.1147  0.3416  0.0248
 5870SOL    HW129072   2.567   0.549   7.919  2.1643 -0.3956 -0.7579
 5870SOL    HW229073   2.555   0.417   7.978  1.9335 -0.4440  0.5953
 5871SOL     OW29074   2.903   0.268   9.004  0.1948 -0.1416 -0.5238
 5871SOL    HW129075   2.812   0.282   9.031  0.6093  0.8254  0.3804
 5871SOL    HW229076   2.892   0.244   8.912  0.1251  2.0952 -1.1011
 5872SOL     OW29077   1.771   4.093   9.823  0.1710  0.4792  0.2977
 5872SOL    HW129078   1.856   4.112   9.863  1.0730 -0.9510 -0.9535
 5872SOL    HW229079   1.729   4.177   9.838 -3.3486 -1.1449 -0.6069
 5873SOL     OW29080   1.693   3.879  12.008 -0.3500  0.0914 -0.2899
 5873SOL    HW129081   1.784   3.904  12.023  0.1234 -1.2957 -0.8635
 5873SOL    HW229082   1.675   3.817  11.938  0.9174 -0.0019 -0.5264
 5874SOL     OW29083   0.158   1.435   6.506 -0.0966 -0.2004 -0.0317
 5874SOL    HW129084   0.133   1.366   6.568  1.4593  0.4296  1.2762
 5874SOL    HW229085   0.201   1.498   6.564 -1.7989 -1.2513  2.3746
 5875SOL     OW29086   4.327   0.771   6.031  0.1109 -0.0478  0.2405
 5875SOL    HW129087   4.376   0.697   5.996 -0.9123 -0.3503 -0.5583
 5875SOL    HW229088   4.237   0.742   6.016  0.3208 -1.2804  1.3666
 5876SOL     OW29089   1.075   4.529   9.172  1.0172  0.3689 -0.6919
 5876SOL    HW129090   1.112   4.573   9.248  1.3071  0.7711 -1.0647
 5876SOL    HW229091   1.068   4.604   9.112  0.4205  1.8019  1.1667
 5877SOL     OW29092   3.669   4.410   6.969 -0.8985  0.4887  0.8361
 5877SOL    HW129093   3.653   4.502   6.947 -3.9234  0.3719  2.5704
 5877SOL    HW229094   3.609   4.391   7.041  0.5688 -1.0294  1.6546
 5878SOL     OW29095   3.916   2.350  11.006 -0.4240  0.0499  0.1072
 5878SOL    HW129096   3.841   2.316  10.959 -0.7670 -1.5362  1.8078
 5878SOL    HW229097   3.909   2.301  11.088  1.4420  1.0287  0.8684
 5879SOL     OW29098   4.080   2.839  16.613 -0.6775 -0.1082  0.4832
 5879SOL    HW129099   4.016   2.857  16.683 -0.2817  0.0757  0.7943
 5879SOL    HW229100   4.032   2.808  16.536  0.0543 -0.9538  0.3650
 5880SOL     OW29101   2.521   2.270   4.473  0.2018  0.8338  0.0216
 5880SOL    HW129102   2.429   2.268   4.497  0.1431  0.5231 -0.2404
 5880SOL    HW229103   2.567   2.264   4.557 -1.1654 -0.5942  0.6394
 5881SOL     OW29104   0.653   2.440  12.713  0.0388 -0.2066  0.5923
 5881SOL    HW129105   0.730   2.391  12.683 -0.3220 -0.9228  0.8443
 5881SOL    HW229106   0.607   2.380  12.772 -3.5466  0.8668 -1.1106
 5882SOL     OW29107   1.174   1.273   7.354 -1.0224  0.5350  0.2899
 5882SOL    HW129108   1.211   1.361   7.363 -0.4007  0.2545  0.5002
 5882SOL    HW229109   1.174   1.268   7.259 -0.8521  1.1320  0.2563
 5883SOL     OW29110   1.093   2.781   3.102 -0.1447  0.0293  0.5321
 5883SOL    HW129111   1.159   2.847   3.082 -1.0078  0.8895  0.5817
 5883SOL    HW229112   1.125   2.713   3.043  0.3822 -0.3224  1.2119
 5884SOL     OW29113   0.159   2.636   7.798  0.0922  0.2657  0.3620
 5884SOL    HW129114   0.131   2.707   7.855 -2.0071  0.9542 -1.5209
 5884SOL    HW229115   0.170   2.671   7.710 -2.6036  0.0797 -0.0598
 5885SOL     OW29116   0.312   4.546   6.062  0.9176  0.6914  0.3993
 5885SOL    HW129117   0.383   4.562   6.000 -0.3918  0.5057 -1.1584
 5885SOL    HW229118   0.327   4.453   6.077  2.3022  0.8557  0.0010
 5886SOL     OW29119   0.426   2.557   2.425 -0.5754 -0.0024 -0.5413
 5886SOL    HW129120   0.514   2.570   2.389  0.1407  0.3556  1.3277
 5886SOL    HW229121   0.404   2.469   2.396 -1.6815  0.4732 -1.1151
 5887SOL     OW29122   2.296   3.171   6.848 -0.3597 -1.1427  0.5078
 5887SOL    HW129123   2.218   3.192   6.796 -0.4214 -0.4722  0.8721
 5887SOL    HW229124   2.347   3.247   6.821 -0.8377 -1.5461 -1.5108
 5888SOL     OW29125   0.422   1.629   5.545 -0.3036 -0.1459  0.3866
 5888SOL    HW129126   0.397   1.562   5.609 -1.1884 -0.5510 -0.3916
 5888SOL    HW229127   0.517   1.631   5.563 -0.0756  0.7003 -0.9687
 5889SOL     OW29128   3.723   3.397   2.167 -0.0055  0.5550 -0.5970
 5889SOL    HW129129   3.689   3.309   2.185 -1.2234  1.2718  0.5678
 5889SOL    HW229130   3.814   3.375   2.185 -0.2548 -1.8142 -2.3128
 5890SOL     OW29131   1.168   0.574   2.346  1.2560  0.2149  0.0824
 5890SOL    HW129132   1.192   0.510   2.279 -3.0369  0.0996 -1.3677
 5890SOL    HW229133   1.096   0.617   2.300 -0.0454 -0.0661  1.8420
 5891SOL     OW29134   2.206   3.035  15.572 -0.2692 -0.3912 -0.0193
 5891SOL    HW129135   2.141   3.099  15.602 -0.3005  0.8666 -2.8182
 5891SOL    HW229136   2.194   3.045  15.478  1.0425 -0.6816 -0.2122
 5892SOL     OW29137   2.437   0.452   9.170 -0.7296 -0.6249 -0.1154
 5892SOL    HW129138   2.379   0.460   9.245  0.4333  0.5789  0.6468
 5892SOL    HW229139   2.521   0.481   9.204  0.4222 -3.4045 -0.5427
 5893SOL     OW29140   4.691   0.914   3.078  0.0007 -0.0150  0.1204
 5893SOL    HW129141   4.650   0.827   3.077 -0.5222  0.2124  1.0326
 5893SOL    HW229142   0.054   0.897   3.045  1.0573  0.3579  2.7090
 5894SOL     OW29143   2.745   1.489  13.115 -0.4481  0.4507  0.0221
 5894SOL    HW129144   2.748   1.403  13.157 -2.2915  0.2310 -0.2718
 5894SOL    HW229145   2.814   1.530  13.166 -0.2603 -0.3426  0.4072
 5895SOL     OW29146   2.671   1.895   8.307 -0.4042 -0.2395  0.4824
 5895SOL    HW129147   2.594   1.886   8.363 -2.1408 -0.0556 -1.8898
 5895SOL    HW229148   2.727   1.819   8.325 -0.2516 -0.7865 -2.3435
 5896SOL     OW29149   4.569   2.049   6.032 -0.7863  0.1137 -0.2179
 5896SOL    HW129150   4.530   2.073   6.116  0.1694  1.3565 -0.1313
 5896SOL    HW229151   4.663   2.066   6.040 -0.6819 -0.3509 -0.4686
 5897SOL     OW29152   2.647   1.095   5.782 -0.2379 -0.0145  0.3165
 5897SOL    HW129153   2.600   1.178   5.778  3.3046  2.0192  0.9185
 5897SOL    HW229154   2.687   1.111   5.868  0.0243 -0.4216  0.2718
 5898SOL     OW29155   0.597   0.640   2.534 -0.4289  0.7740  0.0200
 5898SOL    HW129156   0.564   0.574   2.594  0.7259  0.3924  0.2355
 5898SOL    HW229157   0.547   0.714   2.567 -0.7858  0.9348 -0.8622
 5899SOL     OW29158   1.138   3.517   9.401 -0.2540  0.3750 -0.5027
 5899SOL    HW129159   1.208   3.581   9.414 -0.4283  0.7060 -1.2408
 5899SOL    HW229160   1.174   3.440   9.447 -1.3082 -0.2705 -0.7755
 5900SOL     OW29161   3.220   4.405  11.799 -0.2632  0.8257 -0.6562
 5900SOL    HW129162   3.309   4.420  11.769 -0.4126  1.1408 -0.9337
 5900SOL    HW229163   3.172   4.480  11.765  0.6277  0.3783 -2.8496
 5901SOL     OW29164   2.322   2.308   6.142  0.6510  0.2107 -0.0056
 5901SOL    HW129165   2.385   2.362   6.190  2.0464 -0.2229 -1.3294
 5901SOL    HW229166   2.349   2.315   6.050  1.5933  1.6168  0.3703
 5902SOL     OW29167   0.101   1.744  12.885 -0.7889  0.6420  0.1723
 5902SOL    HW129168   0.126   1.655  12.907  0.3489  0.9071 -0.0573
 5902SOL    HW229169   0.106   1.796  12.966 -1.1032 -2.0425  1.8948
 5903SOL     OW29170   3.600   4.606   5.090  0.4490 -0.5970 -0.4236
 5903SOL    HW129171   3.627   4.598   4.998 -0.4494  0.5412 -0.7874
 5903SOL    HW229172   3.634   4.694   5.103 -1.5909 -0.0256  0.9382
 5904SOL     OW29173   4.421   1.961   9.321 -0.5131  0.1195  0.9068
 5904SOL    HW129174   4.406   1.888   9.380  0.6496 -0.6014  0.3166
 5904SOL    HW229175   4.507   1.987   9.352 -1.2973  0.7506  2.5348
 5905SOL     OW29176   3.998   4.684   6.638 -0.1017  0.2565 -0.2601
 5905SOL    HW129177   4.046   0.040   6.658 -0.1173 -0.1624  1.4149
 5905SOL    HW229178   4.020   4.640   6.720 -1.5118 -0.4149 -0.2460
 5906SOL     OW29179   3.039   2.455   0.480 -0.3909  0.9667  0.2243
 5906SOL    HW129180   3.051   2.362   0.464 -1.1093  0.9910 -0.4524
 5906SOL    HW229181   2.949   2.458   0.514 -0.0233 -2.6403  1.4447
 5907SOL     OW29182   4.453   1.356   9.465  0.2410 -0.5114 -0.4291
 5907SOL    HW129183   4.385   1.422   9.477  0.8043 -0.0238  0.1084
 5907SOL    HW229184   4.459   1.360   9.369  0.4440  4.2529 -0.2531
 5908SOL     OW29185   0.901   3.534  16.975 -0.5974  0.1131 -0.8611
 5908SOL    HW129186   0.854   3.594  16.917 -0.4120 -0.5615 -1.7232
 5908SOL    HW229187   0.877   3.449  16.936  3.4381 -1.4257 -0.0049
 5909SOL     OW29188   0.198   1.965   5.066 -0.1319 -0.1275 -0.8066
 5909SOL    HW129189   0.254   2.018   5.123 -0.7494  0.4661 -0.7439
 5909SOL    HW229190   0.185   1.891   5.125 -0.8301  1.0948  0.5760
 5910SOL     OW29191   3.499   2.130   9.923  0.4542 -0.5088 -0.1579
 5910SOL    HW129192   3.530   2.082   9.846  3.6375 -0.4112  1.0487
 5910SOL    HW229193   3.531   2.217   9.899 -2.2857  0.5005 -0.1173
 5911SOL     OW29194   0.916   2.834   4.473 -0.4245 -0.1574  0.3243
 5911SOL    HW129195   0.887   2.922   4.449 -0.4831 -0.5495 -1.0431
 5911SOL    HW229196   0.862   2.811   4.548 -1.7003  0.0500 -0.5266
 5912SOL     OW29197   2.904   3.714   6.583 -0.1745  0.0181  0.6987
 5912SOL    HW129198   2.977   3.699   6.523 -0.3088  1.2617  0.2209
 5912SOL    HW229199   2.847   3.764   6.524  0.4849  0.6006  0.5617
 5913SOL     OW29200   3.412   2.674  17.459  0.0303  0.2709  0.3365
 5913SOL    HW129201   3.352   2.721  17.518 -1.6523  0.4677 -1.5310
 5913SOL    HW229202   3.406   2.594  17.511 -1.6983  1.0289  1.3034
 5914SOL     OW29203   0.968   1.860   5.938  0.0034 -0.1749 -0.0954
 5914SOL    HW129204   0.937   1.770   5.926 -0.6866  0.3299 -2.0071
 5914SOL    HW229205   0.978   1.869   6.033 -1.4083  0.2267  0.0149
 5915SOL     OW29206   4.365   2.073   8.844 -0.2453  0.0994 -0.0579
 5915SOL    HW129207   4.435   2.135   8.864 -0.5447  0.2306  0.6027
 5915SOL    HW229208   4.385   1.999   8.902  0.8846  0.2956 -0.1935
 5916SOL     OW29209   0.265   2.442   0.884 -0.0929 -0.5431  0.3937
 5916SOL    HW129210   0.332   2.509   0.892  0.2733 -0.7836 -0.6591
 5916SOL    HW229211   0.315   2.362   0.869  0.7552 -0.0554  0.6294
 5917SOL     OW29212   0.179   0.082   2.744 -0.1095  0.1765 -0.2594
 5917SOL    HW129213   0.162   0.094   2.651  2.4026  1.4869 -0.5563
 5917SOL    HW229214   0.196   0.175   2.760 -2.6376  0.8299 -1.4417
 5918SOL     OW29215   2.007   0.937   9.450  0.1527 -0.6132 -0.1120
 5918SOL    HW129216   2.030   0.977   9.535  1.5247  0.1091 -0.8173
 5918SOL    HW229217   2.065   0.982   9.389  0.0583 -1.5644 -0.8955
 5919SOL     OW29218   3.108   3.442   1.063 -0.8685  0.3872 -0.2063
 5919SOL    HW129219   3.072   3.502   0.997 -1.1389  1.4814  0.9279
 5919SOL    HW229220   3.110   3.357   1.019 -1.0823  0.0180  0.5038
 5920SOL     OW29221   2.486   0.881   5.866 -0.1197  0.7107 -0.5445
 5920SOL    HW129222   2.408   0.935   5.875 -1.5859 -1.6684  0.9191
 5920SOL    HW229223   2.549   0.945   5.832 -0.0263  1.4749  1.0549
 5921SOL     OW29224   3.393   0.963   4.224  0.3783 -0.4473 -0.5113
 5921SOL    HW129225   3.409   0.912   4.145  0.6582  1.2455 -1.5443
 5921SOL    HW229226   3.305   0.998   4.209  0.8564  0.6878 -0.6780
 5922SOL     OW29227   4.005   3.124   6.506 -0.3204 -0.1580  0.5716
 5922SOL    HW129228   4.034   3.212   6.484  0.0203 -0.9578 -2.1552
 5922SOL    HW229229   4.004   3.139   6.601  1.8647  2.7715  0.1328
 5923SOL     OW29230   2.288   0.225   3.281  0.1536  0.2881 -0.0828
 5923SOL    HW129231   2.342   0.304   3.281 -2.0926  1.8134 -1.1446
 5923SOL    HW229232   2.213   0.259   3.332  0.9309  1.5552  0.2327
 5924SOL     OW29233   2.516   2.384  13.641 -0.1678 -0.6446 -0.0065
 5924SOL    HW129234   2.538   2.458  13.697  0.8770 -1.0895  0.1782
 5924SOL    HW229235   2.587   2.324  13.663 -1.0558 -0.8463  2.3236
 5925SOL     OW29236   0.352   3.130   2.935 -0.0984 -0.0326 -0.3026
 5925SOL    HW129237   0.302   3.088   2.864 -2.3696 -1.2173  1.9863
 5925SOL    HW229238   0.436   3.091   2.909  0.4343  2.0563 -1.7301
 5926SOL     OW29239   3.511   3.898   3.670  0.1376 -0.1139 -0.4343
 5926SOL    HW129240   3.523   3.836   3.598 -2.3180  0.3421 -1.2538
 5926SOL    HW229241   3.598   3.937   3.676  0.2628 -0.1186 -2.1796
 5927SOL     OW29242   0.766   1.357   1.239  0.0488  0.6781  0.1340
 5927SOL    HW129243   0.749   1.358   1.145 -1.3897 -0.8857  0.3833
 5927SOL    HW229244   0.801   1.444   1.260 -0.1251 -0.1047  3.6743
 5928SOL     OW29245   2.646   1.648  12.619  0.3928 -0.1177 -0.5797
 5928SOL    HW129246   2.731   1.691  12.613 -0.2420  1.0594 -1.1408
 5928SOL    HW229247   2.628   1.632  12.527  0.9311  0.0272 -0.7119
 5929SOL     OW29248   3.881   3.815   6.199 -0.5528  0.1802 -0.0922
 5929SOL    HW129249   3.859   3.798   6.290  0.8120  1.6112  0.5272
 5929SOL    HW229250   3.977   3.813   6.207 -0.6291 -0.4831  0.6306
 5930SOL     OW29251   3.513   0.333   7.342  0.0943  0.0484  0.2191
 5930SOL    HW129252   3.549   0.388   7.272  0.1622 -1.6686 -1.0940
 5930SOL    HW229253   3.421   0.335   7.318  0.1992  1.7062 -0.0079
 5931SOL     OW29254   2.799   2.277  13.613  0.0720 -0.8631 -0.4922
 5931SOL    HW129255   2.811   2.278  13.518  0.5453  3.0917 -0.3929
 5931SOL    HW229256   2.860   2.210  13.644 -0.6527 -1.7079 -0.8974
 5932SOL     OW29257   0.530   3.752  15.469 -0.6151  0.7916  0.4208
 5932SOL    HW129258   0.561   3.676  15.518  0.1095  1.1353  0.4893
 5932SOL    HW229259   0.465   3.783  15.533 -1.4149 -0.7652  0.3725
 5933SOL     OW29260   3.024   0.350   2.088 -0.2819 -0.0876  0.1732
 5933SOL    HW129261   2.948   0.296   2.066  0.4324 -0.0509 -2.3538
 5933SOL    HW229262   3.076   0.283   2.132  1.8605  0.7422 -1.0813
 5934SOL     OW29263   1.071   3.922  13.439 -0.4758 -0.7611  0.3603
 5934SOL    HW129264   1.123   3.848  13.472 -0.3161 -1.0508 -0.5371
 5934SOL    HW229265   1.020   3.944  13.517  0.4753  2.6484 -0.0160
 5935SOL     OW29266   0.679   0.847   7.497 -0.2747 -0.5001  0.1954
 5935SOL    HW129267   0.620   0.806   7.434 -0.7292  0.5788 -0.0911
 5935SOL    HW229268   0.747   0.781   7.510 -0.7364 -0.9535  0.3019
 5936SOL     OW29269   0.284   1.067   3.669 -0.0479  0.6450 -0.5186
 5936SOL    HW129270   0.313   1.098   3.755  0.4761 -1.2041 -0.0389
 5936SOL    HW229271   0.189   1.072   3.672 -0.0359  0.9186 -0.5542
 5937SOL     OW29272   0.639   1.137   4.106  0.1582  0.1870 -0.4086
 5937SOL    HW129273   0.634   1.056   4.055 -0.4125 -0.3590  0.5016
 5937SOL    HW229274   0.653   1.208   4.043  0.2635 -0.0490 -0.6492
 5938SOL     OW29275   1.271   1.362   3.407  0.1404 -0.4734 -0.3410
 5938SOL    HW129276   1.366   1.366   3.412  0.0678  1.3758 -0.2395
 5938SOL    HW229277   1.250   1.270   3.394 -1.9546  0.1863 -1.7119
 5939SOL     OW29278   0.150   2.285   5.782 -0.2835 -0.1541 -0.2619
 5939SOL    HW129279   0.083   2.225   5.751 -0.7660  0.4037 -0.2834
 5939SOL    HW229280   0.222   2.260   5.723  0.9109 -2.8873  2.3317
 5940SOL     OW29281   3.549   3.324  16.949 -0.0232 -0.0148  0.1126
 5940SOL    HW129282   3.617   3.264  16.979  0.9765 -0.2911 -2.6885
 5940SOL    HW229283   3.476   3.265  16.967  1.7887 -1.6291  2.1665
 5941SOL     OW29284   3.914   1.602   9.791 -0.3184 -0.0844 -0.1517
 5941SOL    HW129285   3.857   1.530   9.816  1.2320 -1.3317 -0.1781
 5941SOL    HW229286   3.956   1.630   9.873 -0.2410  1.0393 -0.5737
 5942SOL     OW29287   0.313   2.488   8.967 -0.2365 -0.1255 -0.3611
 5942SOL    HW129288   0.281   2.534   9.044 -1.4797 -0.7905 -0.4951
 5942SOL    HW229289   0.406   2.503   8.988  0.1365 -2.1565 -0.5588
 5943SOL     OW29290   3.239   1.957   4.809  0.1898 -0.1454 -0.1263
 5943SOL    HW129291   3.334   1.964   4.797  0.5448 -1.6493  1.7931
 5943SOL    HW229292   3.217   1.929   4.720 -1.1307  1.0150 -0.1692
 5944SOL     OW29293   0.463   3.757   1.601 -0.0335 -0.0820 -0.1731
 5944SOL    HW129294   0.425   3.758   1.513  0.5357  1.7788 -0.3935
 5944SOL    HW229295   0.396   3.714   1.654 -0.4111  0.0694 -0.5248
 5945SOL     OW29296   2.412   3.189  13.992 -0.2849  0.0765 -0.2461
 5945SOL    HW129297   2.443   3.216  14.078 -1.1021 -1.4881  0.5324
 5945SOL    HW229298   2.488   3.167  13.938 -0.5198 -0.6670 -0.2786
 5946SOL     OW29299   4.205   4.550   7.646  1.0739  0.0963 -0.2266
 5946SOL    HW129300   4.150   4.576   7.572  1.1157 -0.2558 -0.3814
 5946SOL    HW229301   4.140   4.548   7.716  0.4879  1.5029 -0.7403
 5947SOL     OW29302   1.245   1.954   8.622 -0.5061 -0.0340  0.6192
 5947SOL    HW129303   1.212   1.941   8.533 -2.7195 -1.2008  1.6226
 5947SOL    HW229304   1.240   1.864   8.654 -0.4325  0.7296  2.8000
 5948SOL     OW29305   2.282   4.044   0.598  0.0277 -0.2853  0.0238
 5948SOL    HW129306   2.363   3.993   0.597  0.1359 -0.1286  0.7242
 5948SOL    HW229307   2.251   4.033   0.689 -1.8462 -0.5717 -0.6346
 5949SOL     OW29308   3.862   0.692  17.451  0.6033  0.4614  0.5892
 5949SOL    HW129309   3.956   0.676  17.461  0.7420 -0.2842 -1.9446
 5949SOL    HW229310   3.825   0.636  17.518 -0.0234  0.5284  0.3056
 5950SOL     OW29311   0.933   1.014   4.511  0.0267 -0.4079 -0.7904
 5950SOL    HW129312   0.867   1.031   4.445  0.1925  0.1461 -0.8082
 5950SOL    HW229313   1.004   1.006   4.447  0.9783  0.6829  0.1451
 5951SOL     OW29314   1.512   3.665   2.585  0.3947  0.3806  0.4958
 5951SOL    HW129315   1.448   3.629   2.647 -0.4550 -1.7469 -1.5769
 5951SOL    HW229316   1.462   3.646   2.505  2.4355  3.4064 -1.4912
 5952SOL     OW29317   4.685   0.595   7.906 -0.8512 -0.2471  0.3133
 5952SOL    HW129318   0.011   0.675   7.898  0.7988 -1.4886 -1.7330
 5952SOL    HW229319   4.684   0.555   7.819  0.9248  1.8471 -0.6319
 5953SOL     OW29320   3.238   3.767   8.659 -0.2502  0.4277  0.1391
 5953SOL    HW129321   3.310   3.704   8.670  1.2306  2.3912  1.7903
 5953SOL    HW229322   3.275   3.831   8.720  0.1862  0.6942 -0.4058
 5954SOL     OW29323   2.678   0.735   3.066  0.3751 -0.1288 -0.2773
 5954SOL    HW129324   2.690   0.658   3.011  3.1261  0.8692 -1.0770
 5954SOL    HW229325   2.582   0.734   3.070  0.4038  0.6684  0.6687
 5955SOL     OW29326   0.591   1.450  13.411  0.0824  0.5736 -0.4395
 5955SOL    HW129327   0.562   1.518  13.350  2.3842  0.7389 -1.3214
 5955SOL    HW229328   0.605   1.371  13.358  0.1142  0.6778 -0.5842
 5956SOL     OW29329   3.561   3.134   3.083 -0.4142  0.2343 -0.8130
 5956SOL    HW129330   3.640   3.081   3.096 -0.6162  0.2880  0.7279
 5956SOL    HW229331   3.490   3.070   3.091 -0.2584  0.1461 -0.1112
 5957SOL     OW29332   3.042   1.573   7.185 -0.1699  0.3239 -0.3170
 5957SOL    HW129333   3.120   1.552   7.236 -0.1037 -1.8068 -1.3331
 5957SOL    HW229334   3.028   1.479   7.173  0.7809  0.2124 -0.5730
 5958SOL     OW29335   2.691   2.638   3.596 -0.4608 -0.4971  0.1017
 5958SOL    HW129336   2.631   2.690   3.542 -0.0578 -0.2485 -0.1064
 5958SOL    HW229337   2.741   2.590   3.529 -0.6375 -0.9791  0.3102
 5959SOL     OW29338   3.604   3.334   1.669 -0.6103  0.6037  0.4053
 5959SOL    HW129339   3.664   3.331   1.744 -0.8188  1.1433  0.5946
 5959SOL    HW229340   3.526   3.289   1.701  0.5179 -0.2184  2.0132
 5960SOL     OW29341   3.298   3.004   5.928  0.1957  0.3159  0.6215
 5960SOL    HW129342   3.285   3.086   5.881  2.2513 -0.4879 -1.3388
 5960SOL    HW229343   3.378   2.963   5.896  0.2098 -1.5032  2.9253
 5961SOL     OW29344   1.076   2.205   2.790  0.5602  0.3503 -0.6091
 5961SOL    HW129345   0.988   2.232   2.762  0.7311 -1.9579 -3.4210
 5961SOL    HW229346   1.118   2.284   2.755  0.0608  0.5696 -0.7127
 5962SOL     OW29347   1.568   0.381   7.180 -0.0368  0.3722  0.3424
 5962SOL    HW129348   1.625   0.440   7.131 -0.2009 -0.8632 -1.3307
 5962SOL    HW229349   1.630   0.310   7.198  0.7921  1.0770  0.2551
 5963SOL     OW29350   2.449   2.526  17.392  0.0207 -0.1837  0.4816
 5963SOL    HW129351   2.400   2.560  17.317  0.0259 -1.6338 -0.1853
 5963SOL    HW229352   2.537   2.518  17.357 -0.1315 -1.2102  0.3253
 5964SOL     OW29353   2.975   2.345  12.614 -0.7526  0.1110  0.5959
 5964SOL    HW129354   2.977   2.259  12.656 -1.2191  0.5606  1.5516
 5964SOL    HW229355   3.067   2.350  12.588 -0.6561 -0.4758  0.8149
 5965SOL     OW29356   3.363   1.743   5.484 -0.0584 -0.3127  0.4720
 5965SOL    HW129357   3.311   1.821   5.503 -0.1890 -0.6991  1.6588
 5965SOL    HW229358   3.378   1.710   5.572 -1.2254  0.5666  0.9902
 5966SOL     OW29359   3.099   4.569  14.492  0.1839 -0.3174 -0.3849
 5966SOL    HW129360   3.060   4.655  14.508  0.9500 -0.3684  1.7864
 5966SOL    HW229361   3.063   4.540  14.408 -1.4190 -2.5145  1.0452
 5967SOL     OW29362   2.436   2.653   0.454  0.3166 -0.8529  0.2721
 5967SOL    HW129363   2.479   2.667   0.369 -3.7464  2.6146 -1.2036
 5967SOL    HW229364   2.493   2.588   0.495  2.5426  0.5704 -0.5769
 5968SOL     OW29365   1.775   3.223   8.717 -0.2846 -0.2453 -0.5727
 5968SOL    HW129366   1.706   3.172   8.759  0.0049 -0.6111 -0.5432
 5968SOL    HW229367   1.846   3.161   8.733  1.9410  2.2652 -0.6197
 5969SOL     OW29368   2.765   2.006   3.235  0.4174  0.1528 -0.0692
 5969SOL    HW129369   2.721   1.921   3.234 -1.2241  0.9954 -0.2230
 5969SOL    HW229370   2.843   1.984   3.286 -0.2121 -0.6521  0.5408
 5970SOL     OW29371   4.613   0.979   4.485 -0.1103 -0.0297 -0.1924
 5970SOL    HW129372   4.693   1.006   4.530 -0.4194 -0.9822  0.9125
 5970SOL    HW229373   4.555   0.963   4.560 -0.1995 -0.8208 -0.4391
 5971SOL     OW29374   1.340   1.187   7.699 -0.4019 -0.0271  0.5438
 5971SOL    HW129375   1.414   1.135   7.731  0.6855  1.4101  0.4021
 5971SOL    HW229376   1.283   1.116   7.671 -1.1667  0.4810  0.8356
 5972SOL     OW29377   3.765   0.509  12.937  0.2782 -0.2921 -0.6122
 5972SOL    HW129378   3.742   0.420  12.911 -0.3803 -0.7324  1.5025
 5972SOL    HW229379   3.806   0.485  13.020  0.4077  2.6870  0.1791
 5973SOL     OW29380   3.683   1.273   8.542 -0.2781 -0.0162  0.5008
 5973SOL    HW129381   3.627   1.286   8.619  0.0725 -0.2465  0.7945
 5973SOL    HW229382   3.742   1.347   8.559  0.5618 -0.2311 -1.5404
 5974SOL     OW29383   0.759   1.053   7.850 -0.0643  0.1901  0.0224
 5974SOL    HW129384   0.701   1.102   7.792 -0.0688 -1.2336 -1.1875
 5974SOL    HW229385   0.785   1.114   7.919  2.2009 -1.2100  0.4088
 5975SOL     OW29386   1.972   2.254   7.465 -0.1438  0.3083  0.0182
 5975SOL    HW129387   1.968   2.265   7.560  0.7243 -1.4907  0.2677
 5975SOL    HW229388   1.914   2.319   7.427  0.9108  0.5004 -1.2262
 5976SOL     OW29389   1.086   3.846   5.507  0.2301  0.4205 -0.0947
 5976SOL    HW129390   1.096   3.822   5.415 -0.4027 -1.9436  0.4684
 5976SOL    HW229391   0.991   3.840   5.515  0.3010 -2.2137 -1.4554
 5977SOL     OW29392   1.276   1.155   4.726 -0.4137 -0.0067 -0.3122
 5977SOL    HW129393   1.299   1.212   4.653  1.4998 -0.8012 -0.3319
 5977SOL    HW229394   1.330   1.183   4.800 -0.3396  1.5286 -0.9662
 5978SOL     OW29395   4.189   1.176  11.845  0.1802  0.2539 -0.2935
 5978SOL    HW129396   4.182   1.090  11.887 -2.1519  1.2296  1.3113
 5978SOL    HW229397   4.275   1.158  11.807  0.6667  1.5975  0.1823
 5979SOL     OW29398   4.105   3.136   0.880 -0.1747  0.4296 -0.4048
 5979SOL    HW129399   4.064   3.183   0.953 -1.0870 -2.2980  0.8617
 5979SOL    HW229400   4.110   3.202   0.811  1.1446 -0.6708 -1.3338
 5980SOL     OW29401   1.264   0.174   9.933  0.2627  0.0952 -0.2764
 5980SOL    HW129402   1.170   0.171   9.951 -0.4120  0.1538 -3.8626
 5980SOL    HW229403   1.305   0.209  10.013  1.4456  0.0936 -0.8755
 5981SOL     OW29404   1.647   0.392   7.876 -0.7504  0.4709 -0.6059
 5981SOL    HW129405   1.611   0.473   7.912 -0.0575  0.3329  0.3902
 5981SOL    HW229406   1.632   0.415   7.784 -1.5761  0.5248 -0.4570
 5982SOL     OW29407   2.137   3.543   9.784  0.0612  0.2955 -0.3497
 5982SOL    HW129408   2.184   3.580   9.859 -0.4021 -1.9473  1.0461
 5982SOL    HW229409   2.054   3.591   9.782 -1.0814 -1.6785 -0.9411
 5983SOL     OW29410   2.445   2.965   1.813 -0.3934  0.0659  0.1586
 5983SOL    HW129411   2.439   2.950   1.907  0.9397  2.4078  0.6051
 5983SOL    HW229412   2.419   2.875   1.791  1.3120 -0.4415  0.2231
 5984SOL     OW29413   2.167   3.058  15.324  0.6573  0.0201 -0.3660
 5984SOL    HW129414   2.090   3.091  15.278 -0.7392 -0.5504  1.5833
 5984SOL    HW229415   2.196   2.976  15.286 -2.4322 -1.2830  0.1202
 5985SOL     OW29416   2.878   2.157   5.227  0.4350 -0.1613  0.2930
 5985SOL    HW129417   2.802   2.184   5.175  0.7982  2.9241  1.3602
 5985SOL    HW229418   2.876   2.061   5.224  0.7966 -0.1464 -0.3000
 5986SOL     OW29419   2.368   3.600   5.107 -0.6562  0.0524 -0.2145
 5986SOL    HW129420   2.436   3.643   5.054 -1.3678  1.3128 -0.0999
 5986SOL    HW229421   2.292   3.583   5.052 -0.7666 -0.2753  0.0443
 5987SOL     OW29422   2.998   1.785   4.670 -0.4332 -0.1043  0.0519
 5987SOL    HW129423   3.010   1.690   4.674  0.9028  0.0449 -0.5500
 5987SOL    HW229424   3.042   1.812   4.590 -0.7155 -0.5039 -0.2379
 5988SOL     OW29425   0.492   1.868   8.792  0.4178 -0.1902 -0.2590
 5988SOL    HW129426   0.440   1.944   8.764 -0.1838 -1.1247 -1.6840
 5988SOL    HW229427   0.522   1.832   8.708  1.5130 -0.3305  0.1877
 5989SOL     OW29428   3.134   0.078  11.413 -0.4469  0.9818 -0.0482
 5989SOL    HW129429   3.039   0.084  11.423 -0.6095  0.0265 -1.0341
 5989SOL    HW229430   3.156   0.171  11.419  0.0183  0.7927  1.0181
 5990SOL     OW29431   0.467   0.065   4.350 -0.4097 -0.5518  0.1635
 5990SOL    HW129432   0.516   0.145   4.369 -0.1741 -0.6611  0.0225
 5990SOL    HW229433   0.379   0.101   4.338 -0.0498  0.1306 -0.4843
 5991SOL     OW29434   2.266   3.915   6.364  0.2382  0.1215  0.9194
 5991SOL    HW129435   2.265   3.987   6.302  0.5249 -0.3094  0.4146
 5991SOL    HW229436   2.319   3.844   6.327 -0.4434  0.4489 -0.6711
 5992SOL     OW29437   2.643   0.679   2.775 -0.1443 -0.4657  0.2283
 5992SOL    HW129438   2.698   0.652   2.701 -0.5869  1.0931 -0.6875
 5992SOL    HW229439   2.580   0.608   2.782 -3.2830  2.2401 -0.3735
 5993SOL     OW29440   2.530   1.899  17.011 -0.1228  0.3541  0.1509
 5993SOL    HW129441   2.531   1.979  16.960 -0.8261  1.2392  1.5174
 5993SOL    HW229442   2.444   1.891  17.054  0.1336  1.0243  0.7795
 5994SOL     OW29443   0.879   2.817   2.868 -0.1798 -0.4319  0.5817
 5994SOL    HW129444   0.893   2.886   2.802 -1.3132 -0.4040  0.3767
 5994SOL    HW229445   0.936   2.834   2.943  2.1261  0.7855 -1.4565
 5995SOL     OW29446   3.719   3.160  17.043 -0.8455  0.4561 -0.4451
 5995SOL    HW129447   3.726   3.065  17.058  1.0409  0.3199 -2.1383
 5995SOL    HW229448   3.778   3.180  17.116  0.2076 -0.4436 -1.0336
 5996SOL     OW29449   0.727   0.268   4.698  0.0186 -0.1667 -0.2748
 5996SOL    HW129450   0.808   0.314   4.723 -2.0350  2.3589  1.7424
 5996SOL    HW229451   0.693   0.329   4.633 -0.1231  1.3437  1.2032
 5997SOL     OW29452   2.127   2.631  17.558  0.1402 -0.1730  0.0101
 5997SOL    HW129453   2.101   2.595  17.643 -0.5410  2.6125  0.9927
 5997SOL    HW229454   2.096   2.722  17.555  0.2957 -0.1465 -0.6855
 5998SOL     OW29455   1.186   1.000   6.463 -0.1200  0.1359  0.5603
 5998SOL    HW129456   1.193   1.095   6.467  0.2759  0.2028 -2.0865
 5998SOL    HW229457   1.101   0.984   6.422  0.6201  1.0561 -1.3120
 5999SOL     OW29458   2.434   3.491  14.565 -0.4631 -0.0947 -0.4945
 5999SOL    HW129459   2.438   3.459  14.655 -0.1754  0.7056 -0.2267
 5999SOL    HW229460   2.412   3.583  14.576 -1.2604 -0.4236  0.6657
 6000SOL     OW29461   0.821   1.947   8.404 -0.1144 -0.2260 -0.5594
 6000SOL    HW129462   0.820   1.869   8.460 -2.0686 -0.4859 -0.9691
 6000SOL    HW229463   0.886   2.004   8.445 -1.6774  1.0180  0.1540
 6001SOL     OW29464   0.638   3.777   8.011 -0.0781 -0.8189 -0.2673
 6001SOL    HW129465   0.544   3.786   7.999 -0.3184  0.3513  2.4970
 6001SOL    HW229466   0.671   3.806   7.926 -0.2265  2.2074  0.7058
 6002SOL     OW29467   0.236   3.269   8.092 -0.4763 -0.5596  0.3000
 6002SOL    HW129468   0.211   3.273   8.000  1.6749 -0.0323 -0.2641
 6002SOL    HW229469   0.281   3.184   8.098  0.3897  0.0111  1.8987
 6003SOL     OW29470   3.921   2.854  10.877  0.3841 -0.3745  0.0483
 6003SOL    HW129471   3.849   2.842  10.815  1.2345  0.8246 -1.1638
 6003SOL    HW229472   3.878   2.825  10.958  1.5919 -1.5191  0.2733
 6004SOL     OW29473   2.674   0.428   8.780  0.0463  0.4650  0.3504
 6004SOL    HW129474   2.717   0.510   8.805  0.3050  0.1681  0.8626
 6004SOL    HW229475   2.750   0.392   8.734 -0.4621  1.1369 -0.9985
 6005SOL     OW29476   1.507   1.975   2.202 -0.0017  0.3876 -0.2928
 6005SOL    HW129477   1.465   1.933   2.127  0.3884  1.7162 -1.2532
 6005SOL    HW229478   1.510   1.901   2.263  0.3405  0.2770 -0.4446
 6006SOL     OW29479   0.587   2.814  15.383  0.4745 -0.3666 -0.2327
 6006SOL    HW129480   0.588   2.733  15.436  0.3377 -0.5576 -0.5250
 6006SOL    HW229481   0.680   2.819  15.360  0.3236 -1.8980 -1.1870
 6007SOL     OW29482   3.193   4.550   2.869 -0.1118  0.1901 -0.1983
 6007SOL    HW129483   3.229   4.587   2.789 -0.4413 -1.6555 -1.1844
 6007SOL    HW229484   3.133   4.484   2.833  0.0078 -0.0662  0.0717
 6008SOL     OW29485   1.965   4.440   0.190  0.7383 -0.5130  0.5672
 6008SOL    HW129486   2.000   4.364   0.235  0.3089 -0.4900  0.9486
 6008SOL    HW229487   1.967   4.406   0.101  2.1011 -3.3815  1.7147
 6009SOL     OW29488   2.580   3.827   3.515  0.1287 -0.2781  0.6697
 6009SOL    HW129489   2.542   3.830   3.427 -1.1473 -1.4393  1.1840
 6009SOL    HW229490   2.594   3.921   3.530 -1.3273  0.0137  0.2422
 6010SOL     OW29491   4.083   3.230   4.243 -0.2060  0.1087  0.6013
 6010SOL    HW129492   4.073   3.324   4.262  1.4828  0.0646  1.7579
 6010SOL    HW229493   3.995   3.195   4.259 -0.3577  1.3369  2.5522
 6011SOL     OW29494   2.860   0.463  16.676 -0.2221  0.0557  0.0404
 6011SOL    HW129495   2.923   0.411  16.626 -1.7622 -1.8899  0.1623
 6011SOL    HW229496   2.886   0.433  16.763  2.0883 -1.1107 -1.0541
 6012SOL     OW29497   4.001   1.768  16.695  0.3169 -0.1419 -0.0388
 6012SOL    HW129498   3.906   1.782  16.702  0.5115  0.5477  1.4324
 6012SOL    HW229499   3.997   1.718  16.614 -1.7811 -1.6491  0.9815
 6013SOL     OW29500   3.498   4.082   2.151  0.0902 -0.4666  0.7329
 6013SOL    HW129501   3.462   4.123   2.230  1.0552 -1.0910  1.4980
 6013SOL    HW229502   3.575   4.035   2.183  0.1542 -0.4148  0.6543
 6014SOL     OW29503   1.548   1.934  11.513 -0.3235 -0.1372 -0.3907
 6014SOL    HW129504   1.621   1.879  11.544  0.8065  1.3022 -0.4584
 6014SOL    HW229505   1.581   2.024  11.523 -1.5341  0.3657 -0.9836
 6015SOL     OW29506   1.113   1.553  14.602 -0.4176 -0.3959 -0.3608
 6015SOL    HW129507   1.048   1.594  14.545  0.6323 -1.3308 -2.2489
 6015SOL    HW229508   1.060   1.534  14.679  1.3588  2.1647  1.5447
 6016SOL     OW29509   1.634   2.650   5.463  0.4810 -0.5205  0.2621
 6016SOL    HW129510   1.696   2.646   5.390  0.8319  0.7713  0.4962
 6016SOL    HW229511   1.584   2.571   5.440 -0.3305  0.7071 -2.2408
 6017SOL     OW29512   0.564   1.506   5.829 -0.1993 -0.3803  0.2547
 6017SOL    HW129513   0.486   1.472   5.784  1.2448 -3.6277  0.2173
 6017SOL    HW229514   0.545   1.474   5.916 -0.6128 -2.8310 -0.7429
 6018SOL     OW29515   3.744   2.509  17.218 -0.7938  0.2598 -0.1849
 6018SOL    HW129516   3.717   2.419  17.202 -0.3967  0.4511 -1.9572
 6018SOL    HW229517   3.839   2.497  17.222 -0.9467 -1.0560 -0.6146
 6019SOL     OW29518   2.030   0.208  16.605 -0.1454 -0.1030 -0.0596
 6019SOL    HW129519   2.081   0.257  16.670  1.5365 -0.9332 -0.7800
 6019SOL    HW229520   1.950   0.198  16.658 -0.5241  1.5904 -0.2988
 6020SOL     OW29521   2.949   2.403   4.378  0.4070 -0.2542  0.4845
 6020SOL    HW129522   2.903   2.420   4.296  0.2744  2.3264  1.1099
 6020SOL    HW229523   2.937   2.487   4.421  0.9881 -1.8664  3.7999
 6021SOL     OW29524   2.826   1.625   6.332 -0.3781 -0.0354  0.4119
 6021SOL    HW129525   2.914   1.611   6.367 -0.7478 -2.4382  0.4036
 6021SOL    HW229526   2.839   1.602   6.240 -0.1192 -0.2693  0.5083
 6022SOL     OW29527   1.239   1.116  16.819 -0.2635 -0.0333  0.3474
 6022SOL    HW129528   1.237   1.025  16.850 -1.2041 -0.4364 -0.8890
 6022SOL    HW229529   1.278   1.099  16.734  3.8115 -0.4949  2.2902
 6023SOL     OW29530   1.683   3.013  12.764 -0.1075 -0.1494 -0.1486
 6023SOL    HW129531   1.735   2.933  12.765 -2.5351 -1.7553 -0.3572
 6023SOL    HW229532   1.652   3.004  12.674 -0.5068  1.9668 -0.2124
 6024SOL     OW29533   2.518   2.231  16.343  0.2241  0.3843 -0.2972
 6024SOL    HW129534   2.465   2.311  16.341 -1.8223 -0.9573  0.6584
 6024SOL    HW229535   2.461   2.173  16.292 -0.5057 -0.5578  1.6255
 6025SOL     OW29536   1.439   1.723  17.075 -0.0658 -0.2293 -0.0793
 6025SOL    HW129537   1.441   1.799  17.017  0.4965  1.2646  1.9015
 6025SOL    HW229538   1.378   1.748  17.145 -1.2659  0.7190 -1.4615
 6026SOL     OW29539   1.268   1.171   5.227  0.4407  0.1292  0.0201
 6026SOL    HW129540   1.223   1.087   5.236  1.2695 -0.0918  2.0763
 6026SOL    HW229541   1.225   1.209   5.303 -0.4489 -0.5335 -0.1628
 6027SOL     OW29542   1.647   1.165   0.442  0.0740 -0.1513  0.0789
 6027SOL    HW129543   1.613   1.136   0.357  0.4523  1.1435 -0.5149
 6027SOL    HW229544   1.703   1.233   0.405  0.9762 -0.5184  0.7811
 6028SOL     OW29545   4.109   1.078   3.861 -0.0472 -0.0853  0.0020
 6028SOL    HW129546   4.066   1.163   3.862 -1.5856 -0.8631  0.2098
 6028SOL    HW229547   4.089   1.052   3.951 -0.6897  0.6877  0.0819
 6029SOL     OW29548   2.234   0.708   2.448  0.2647 -0.2676 -0.9562
 6029SOL    HW129549   2.320   0.744   2.468 -0.2577  0.2151  0.3989
 6029SOL    HW229550   2.190   0.787   2.416  1.0826  0.1689 -1.0126
 6030SOL     OW29551   4.166   2.335   5.354 -0.0920  0.2146 -0.2568
 6030SOL    HW129552   4.238   2.365   5.410  0.7418  1.1699 -1.8252
 6030SOL    HW229553   4.091   2.337   5.413 -0.8306  0.9124 -1.2125
 6031SOL     OW29554   4.177   4.324  14.252  0.1201  0.2102  0.4395
 6031SOL    HW129555   4.230   4.329  14.172 -2.2584 -1.9015 -1.2602
 6031SOL    HW229556   4.133   4.409  14.257 -0.5788 -0.0995 -0.4809
 6032SOL     OW29557   2.053   2.274   2.385  0.0524  0.2251  0.0336
 6032SOL    HW129558   2.009   2.190   2.371 -2.2923  1.7366 -1.8226
 6032SOL    HW229559   2.002   2.320   2.317 -1.6396 -1.3823  0.2200
 6033SOL     OW29560   1.617   4.067   5.416 -0.6707  0.7838 -0.6294
 6033SOL    HW129561   1.606   3.977   5.447  0.7867 -0.1150 -2.7622
 6033SOL    HW229562   1.591   4.109   5.498 -0.9050 -0.3005 -0.1490
 6034SOL     OW29563   2.418   3.867  16.440 -0.4728  0.5422 -0.1494
 6034SOL    HW129564   2.500   3.824  16.466  0.5062  1.2821 -1.9858
 6034SOL    HW229565   2.393   3.816  16.363 -1.0284 -1.5779  1.4421
 6035SOL     OW29566   3.301   0.088   5.849  0.0610  0.4642 -0.0612
 6035SOL    HW129567   3.248   0.009   5.836 -0.2378  0.6985 -0.2890
 6035SOL    HW229568   3.326   0.070   5.940  3.8612  2.5290 -0.6990
 6036SOL     OW29569   1.730   2.297   5.959 -0.5225 -0.2355 -0.3872
 6036SOL    HW129570   1.818   2.329   5.978 -1.0655  2.2112 -1.9794
 6036SOL    HW229571   1.702   2.258   6.042  2.3960  0.1550  0.7636
 6037SOL     OW29572   0.922   2.912   3.549 -0.2870 -0.0564  0.0550
 6037SOL    HW129573   0.880   2.831   3.517 -1.5818  0.5913  0.1316
 6037SOL    HW229574   0.862   2.973   3.506  0.8124  2.0645  1.5614
 6038SOL     OW29575   0.097   2.794  12.321  0.1025 -0.5435  0.5453
 6038SOL    HW129576   0.105   2.877  12.368  0.2333 -0.3466  0.1673
 6038SOL    HW229577   0.106   2.822  12.231  0.8983  0.7025  1.0207
 6039SOL     OW29578   1.649   0.270   9.438 -0.0210  0.4701 -0.0840
 6039SOL    HW129579   1.575   0.328   9.457  0.4854  0.5098  1.7620
 6039SOL    HW229580   1.711   0.341   9.422 -0.3607  0.6256 -0.6916
 6040SOL     OW29581   0.875   2.327   3.122 -0.1162 -0.3739 -0.1337
 6040SOL    HW129582   0.906   2.401   3.070 -0.7442 -0.7840 -1.0868
 6040SOL    HW229583   0.844   2.267   3.054  0.5381  0.9771 -1.6382
 6041SOL     OW29584   3.027   3.434  16.933 -0.3827 -0.0095 -0.1494
 6041SOL    HW129585   3.060   3.405  17.018 -0.2678  0.9761  0.1491
 6041SOL    HW229586   2.934   3.415  16.944 -0.5960  1.6081  0.8722
 6042SOL     OW29587   3.754   1.209  13.548  0.4641  0.1148 -0.1551
 6042SOL    HW129588   3.702   1.132  13.572 -1.0699  1.3217  0.3616
 6042SOL    HW229589   3.730   1.210  13.455 -0.2095  1.9729  0.0391
 6043SOL     OW29590   3.738   1.771   2.753 -0.0748 -0.3899  0.5424
 6043SOL    HW129591   3.675   1.702   2.771 -0.4279 -0.0676  0.5452
 6043SOL    HW229592   3.684   1.848   2.773  0.4157  0.1593 -0.2317
 6044SOL     OW29593   2.010   4.088  15.271 -0.0602 -0.2201  0.3460
 6044SOL    HW129594   1.965   4.146  15.209 -1.7694  0.3251  2.0884
 6044SOL    HW229595   1.996   4.133  15.354  1.5111  2.7270 -0.9712
 6045SOL     OW29596   3.063   0.306   1.815  0.4317 -0.6099  0.5399
 6045SOL    HW129597   3.053   0.375   1.881 -0.5311  1.0740 -1.3647
 6045SOL    HW229598   3.000   0.329   1.747 -2.0034  0.2514  3.1053
 6046SOL     OW29599   0.998   3.274   2.621  0.3439 -0.3302  0.0011
 6046SOL    HW129600   1.018   3.277   2.527  0.0596  1.7794  0.0225
 6046SOL    HW229601   0.917   3.322   2.632 -0.8018 -2.0397 -1.0118
 6047SOL     OW29602   2.580   3.647   6.762 -0.5186  0.1824  0.8005
 6047SOL    HW129603   2.531   3.729   6.757 -0.8719 -0.0251  0.8301
 6047SOL    HW229604   2.618   3.657   6.849  1.5688 -1.2789  0.0720
 6048SOL     OW29605   0.622   2.572   5.884  0.3973  0.1568  0.1214
 6048SOL    HW129606   0.630   2.631   5.810 -1.3704  0.2761  0.0249
 6048SOL    HW229607   0.710   2.533   5.883 -0.8769 -2.7079 -1.0361
 6049SOL     OW29608   1.919   0.753   2.173  0.0884  0.5618 -0.0874
 6049SOL    HW129609   1.843   0.808   2.158 -1.1848 -0.7798  1.3469
 6049SOL    HW229610   1.902   0.674   2.122 -1.5123 -0.4943  2.1088
 6050SOL     OW29611   1.617   2.272  11.110 -0.2871 -0.3411  0.4173
 6050SOL    HW129612   1.629   2.358  11.150 -0.0595  0.0485 -0.4924
 6050SOL    HW229613   1.560   2.300  11.039  0.4569  0.4424  0.1295
 6051SOL     OW29614   3.950   3.479  11.172 -0.4856  0.2498 -0.0387
 6051SOL    HW129615   4.044   3.471  11.156 -0.4284  1.1214 -0.1241
 6051SOL    HW229616   3.920   3.414  11.109  2.2126 -0.4737 -0.5447
 6052SOL     OW29617   2.381   2.481   8.797 -0.0085 -1.1284  0.4271
 6052SOL    HW129618   2.421   2.564   8.821 -2.1449  0.3423 -1.0431
 6052SOL    HW229619   2.343   2.460   8.882 -0.3563  1.0859  0.8268
 6053SOL     OW29620   2.352   4.564  10.001 -0.2545  0.4306 -0.0271
 6053SOL    HW129621   2.328   4.472  10.003 -0.5682  0.4876 -1.0328
 6053SOL    HW229622   2.347   4.590   9.908 -0.8618 -0.9271 -0.3677
 6054SOL     OW29623   3.082   3.659   2.265 -0.1101 -0.7693 -0.0189
 6054SOL    HW129624   3.114   3.570   2.249 -0.5425 -0.9059 -0.1386
 6054SOL    HW229625   3.032   3.683   2.186 -2.4725  0.4799  1.8374
 6055SOL     OW29626   3.476   2.570   1.326 -0.2409  0.2501  0.3290
 6055SOL    HW129627   3.570   2.560   1.338 -0.4824 -2.4851 -0.1102
 6055SOL    HW229628   3.454   2.489   1.371  1.6431 -0.4405  0.0001
 6056SOL     OW29629   2.610   0.994   5.093  0.0745 -0.0114 -0.1633
 6056SOL    HW129630   2.589   1.081   5.060  2.2805  0.2315 -0.9364
 6056SOL    HW229631   2.704   1.003   5.110  0.2369 -1.6016 -0.2107
 6057SOL     OW29632   1.127   0.344  10.196  0.2356  0.4089 -0.7096
 6057SOL    HW129633   1.198   0.281  10.209  1.2561  1.6065 -0.5404
 6057SOL    HW229634   1.060   0.304  10.141 -1.1136  0.6031  0.7778
 6058SOL     OW29635   0.367   1.340   8.669 -0.4576  0.7672  0.3198
 6058SOL    HW129636   0.361   1.337   8.765 -1.5302  0.7601  0.2488
 6058SOL    HW229637   0.273   1.343   8.650 -0.2730 -0.1130 -0.7134
 6059SOL     OW29638   2.505   2.747   2.526 -0.1360  0.4362  0.8231
 6059SOL    HW129639   2.422   2.759   2.479  1.2463 -0.4809 -1.8315
 6059SOL    HW229640   2.547   2.684   2.467 -1.3059 -0.3557  0.8356
 6060SOL     OW29641   0.200   3.559   4.803  0.1934  0.2766  0.3745
 6060SOL    HW129642   0.278   3.505   4.819  1.3126  2.6522  3.0653
 6060SOL    HW229643   0.235   3.608   4.728  0.7081  2.3441  1.9602
 6061SOL     OW29644   3.990   1.947  13.872  0.1570 -0.1637 -0.4356
 6061SOL    HW129645   3.963   2.030  13.832  1.1296  0.2640 -0.2124
 6061SOL    HW229646   4.080   1.968  13.898  0.0554 -1.3639  0.8320
 6062SOL     OW29647   4.560   3.878   8.428 -0.2893 -0.3084 -0.4305
 6062SOL    HW129648   4.469   3.851   8.438 -0.7236  0.2904 -2.7269
 6062SOL    HW229649   4.604   3.798   8.456  1.7323  1.2752  0.9614
 6063SOL     OW29650   0.237   3.186  15.426 -0.5368  0.5118 -0.1820
 6063SOL    HW129651   0.237   3.119  15.358  3.0862  0.5738 -0.2205
 6063SOL    HW229652   0.142   3.199  15.432 -0.5701  0.2238 -0.1145
 6064SOL     OW29653   3.142   2.006   6.313 -0.1562  0.3505  0.2979
 6064SOL    HW129654   3.224   2.037   6.351 -0.2208  0.6567  0.1829
 6064SOL    HW229655   3.099   1.990   6.397  0.8445  1.8535  1.1026
 6065SOL     OW29656   0.863   1.694   9.969  0.1001 -0.0914 -0.4685
 6065SOL    HW129657   0.781   1.736   9.996  0.1503  0.5765 -1.3730
 6065SOL    HW229658   0.916   1.768   9.939  0.9320 -0.4933  0.0104
 6066SOL     OW29659   4.133   2.913   8.479  0.0631  0.0604  0.2578
 6066SOL    HW129660   4.177   2.829   8.494 -0.3266  0.2521  2.4608
 6066SOL    HW229661   4.052   2.893   8.526  0.0578  0.3505  0.3742
 6067SOL     OW29662   0.545   3.706   7.158 -0.3557  0.6699  0.0106
 6067SOL    HW129663   0.566   3.758   7.235 -0.7906 -1.4714  1.5809
 6067SOL    HW229664   0.571   3.765   7.087  1.4420  0.6793  0.6806
 6068SOL     OW29665   1.042   2.319   8.962 -0.0695 -0.5129  0.0732
 6068SOL    HW129666   1.127   2.276   8.958  0.6102  0.8413  0.0841
 6068SOL    HW229667   1.037   2.344   8.870  3.3212  3.0167  0.8661
 6069SOL     OW29668   0.041   2.046   4.009 -0.1048  0.2827  0.4389
 6069SOL    HW129669   0.088   2.101   4.071 -0.6526  1.1525  0.0764
 6069SOL    HW229670   4.679   2.043   4.048  0.0346  0.3336  0.7510
 6070SOL     OW29671   2.928   0.936   5.066  0.3957 -0.4921 -0.2722
 6070SOL    HW129672   2.930   1.000   5.137 -0.9861 -0.8577  0.1086
 6070SOL    HW229673   3.021   0.911   5.068  0.5377  0.1207  1.0260
 6071SOL     OW29674   1.955   1.769   2.566 -0.8391  0.4527  0.0336
 6071SOL    HW129675   1.898   1.700   2.602  0.9459 -1.5612 -1.0091
 6071SOL    HW229676   2.009   1.801   2.637  1.9049  0.2161 -1.9395
 6072SOL     OW29677   2.938   4.639  16.969  0.0573 -0.5848  0.0686
 6072SOL    HW129678   3.028   4.648  16.937 -1.2323  2.1049 -2.8747
 6072SOL    HW229679   2.937   4.544  16.980 -0.1089 -0.3993  1.6035
 6073SOL     OW29680   0.400   4.126   4.312  0.4256  0.4668 -0.4167
 6073SOL    HW129681   0.371   4.073   4.239  0.7075 -0.9351  0.4897
 6073SOL    HW229682   0.338   4.116   4.384 -0.8595  2.1943 -1.2706
 6074SOL     OW29683   0.896   0.978   9.140  0.2753 -0.1754  0.0744
 6074SOL    HW129684   0.988   0.994   9.158 -0.0796  1.2005  0.6448
 6074SOL    HW229685   0.890   0.882   9.145 -2.0141  0.1021  2.7581
 6075SOL     OW29686   1.115   4.449   1.196 -0.0576  0.2969  0.3101
 6075SOL    HW129687   1.028   4.473   1.165  0.0385 -0.8332 -0.8381
 6075SOL    HW229688   1.174   4.459   1.120 -0.1578 -1.1661  0.0315
 6076SOL     OW29689   2.082   3.934   9.056 -0.1120 -0.6964 -0.9025
 6076SOL    HW129690   2.109   3.928   9.148  0.0420  0.0099 -0.8993
 6076SOL    HW229691   2.153   3.887   9.013 -1.0379 -1.7900 -1.2169
 6077SOL     OW29692   2.513   0.890   5.453  0.0290  0.0435  0.2065
 6077SOL    HW129693   2.515   0.831   5.377  1.5180  2.1798 -1.4012
 6077SOL    HW229694   2.418   0.885   5.460  0.0846 -0.3582  0.6931
 6078SOL     OW29695   3.499   1.438  12.090  0.7155 -0.6208  0.6572
 6078SOL    HW129696   3.454   1.368  12.138  0.8966 -0.6191  0.8323
 6078SOL    HW229697   3.478   1.429  11.997 -0.7550  0.2822  0.9159
 6079SOL     OW29698   1.786   3.158   5.258 -0.7460 -0.1872 -0.1056
 6079SOL    HW129699   1.707   3.105   5.243 -0.5932 -0.0778 -1.2764
 6079SOL    HW229700   1.849   3.110   5.204  0.1348  1.6913 -0.7406
 6080SOL     OW29701   1.020   2.505   6.372 -0.1295 -0.5321 -0.3727
 6080SOL    HW129702   1.022   2.417   6.410 -1.5219 -0.2913  0.2482
 6080SOL    HW229703   1.115   2.512   6.377 -0.2667 -1.1435  3.4227
 6081SOL     OW29704   0.811   3.415  10.013 -0.3596 -0.9975 -0.2278
 6081SOL    HW129705   0.780   3.471   9.942  0.0374 -0.4536  0.0230
 6081SOL    HW229706   0.730   3.374  10.043  0.0662 -1.9517 -0.3929
 6082SOL     OW29707   1.120   0.795  14.935 -0.6824 -0.2106 -0.0006
 6082SOL    HW129708   1.215   0.793  14.941 -0.6194  0.4543 -0.7750
 6082SOL    HW229709   1.126   0.820  14.843  0.7175 -2.2528 -0.4481
 6083SOL     OW29710   3.386   1.220   3.138 -0.2157  0.0580 -0.6542
 6083SOL    HW129711   3.380   1.180   3.225 -1.5870 -0.0734 -0.8091
 6083SOL    HW229712   3.479   1.203   3.123  0.1741  1.8061 -0.2783
 6084SOL     OW29713   2.241   4.374   1.837  0.4956  0.8036  0.3679
 6084SOL    HW129714   2.241   4.283   1.865  0.2534  0.5845 -0.3360
 6084SOL    HW229715   2.166   4.405   1.887 -0.9532 -0.8517 -0.7700
 6085SOL     OW29716   3.120   2.635   2.720 -0.1780  0.2591  0.4770
 6085SOL    HW129717   3.120   2.617   2.626 -3.2867 -1.0991  0.7297
 6085SOL    HW229718   3.200   2.588   2.744 -0.1606 -0.5981 -1.2845
 6086SOL     OW29719   2.242   4.511  11.769 -0.0500 -0.3704 -0.1790
 6086SOL    HW129720   2.309   4.502  11.702  1.2344  0.6190  0.9693
 6086SOL    HW229721   2.166   4.519  11.712 -1.3571 -0.2759  1.5731
 6087SOL     OW29722   1.105   1.217   6.042 -0.0462  0.4351  0.0503
 6087SOL    HW129723   1.073   1.268   6.116 -0.1610 -2.5217  2.0515
 6087SOL    HW229724   1.077   1.281   5.976 -2.7240 -1.5772 -0.8117
 6088SOL     OW29725   2.260   1.044   4.596 -0.0689  0.6942 -0.6756
 6088SOL    HW129726   2.271   1.093   4.515  1.7004 -0.6519 -1.2501
 6088SOL    HW229727   2.263   0.955   4.562  1.1918  0.5249 -0.1187
 6089SOL     OW29728   1.731   0.726   7.784 -0.1542  0.2665 -0.8587
 6089SOL    HW129729   1.815   0.686   7.763 -0.1678 -0.0777 -0.2678
 6089SOL    HW229730   1.747   0.815   7.752  0.1001 -0.2859 -2.2438
 6090SOL     OW29731   1.336   0.816   4.087  0.7647 -0.4555 -0.2707
 6090SOL    HW129732   1.383   0.846   4.165 -0.8044 -2.7017  1.5578
 6090SOL    HW229733   1.398   0.755   4.047  1.9915 -0.4858  1.6885
 6091SOL     OW29734   3.648   0.687  11.109  0.3861 -0.0810 -0.6261
 6091SOL    HW129735   3.649   0.763  11.166 -0.4640 -1.2789  0.9627
 6091SOL    HW229736   3.589   0.727  11.045  1.1522  0.4286 -1.0156
 6092SOL     OW29737   0.129   3.017   7.386 -0.0686 -0.2703  0.2886
 6092SOL    HW129738   0.082   3.021   7.302  0.1548 -0.8525  0.1327
 6092SOL    HW229739   0.200   2.964   7.351  0.3149  0.3959  0.0465
 6093SOL     OW29740   2.456   1.415   2.893  0.5201 -0.3436 -0.3839
 6093SOL    HW129741   2.393   1.344   2.903 -0.5761  0.7015  0.1915
 6093SOL    HW229742   2.518   1.378   2.830  0.8189  0.8920 -0.8142
 6094SOL     OW29743   3.002   3.689  17.007 -0.2279 -0.4267 -0.3650
 6094SOL    HW129744   3.012   3.608  16.957 -2.3975 -1.0025  0.1282
 6094SOL    HW229745   2.907   3.687  17.020 -0.3526 -3.8637 -1.7594
 6095SOL     OW29746   1.375   4.245   9.902 -0.1101 -0.3009  0.2075
 6095SOL    HW129747   1.450   4.305   9.897 -1.0153  0.7635 -0.7086
 6095SOL    HW229748   1.419   4.161   9.915 -1.6180 -0.8680  1.6005
 6096SOL     OW29749   3.060   1.166   9.848 -0.5053  0.3422  0.0761
 6096SOL    HW129750   3.081   1.081   9.810  1.9893  0.3206  1.5085
 6096SOL    HW229751   3.150   1.196   9.855  0.4318 -1.8708 -2.4371
 6097SOL     OW29752   3.844   1.803   4.222  0.0354 -0.2430 -0.4090
 6097SOL    HW129753   3.930   1.792   4.262  0.7177 -1.6252 -2.2720
 6097SOL    HW229754   3.801   1.729   4.265 -1.6808  0.2108 -1.3621
 6098SOL     OW29755   1.837   3.977   3.428 -0.3096 -0.3454 -0.0468
 6098SOL    HW129756   1.917   4.012   3.467 -0.1878 -2.3902  1.5449
 6098SOL    HW229757   1.800   4.059   3.397  1.2243  0.3934  0.0813
 6099SOL     OW29758   4.540   2.531  15.116 -0.5922 -0.6685  0.0963
 6099SOL    HW129759   4.493   2.573  15.044  2.1224  1.7152 -0.2750
 6099SOL    HW229760   4.548   2.440  15.086 -2.2170  0.2474 -3.0727
 6100SOL     OW29761   0.728   2.270   8.690 -0.1657  0.0147  0.2069
 6100SOL    HW129762   0.688   2.190   8.655  2.1209 -1.2720  0.5264
 6100SOL    HW229763   0.704   2.336   8.625  0.1590  1.2531  1.3408
 6101SOL     OW29764   1.458   1.059   8.320 -0.9657 -0.4231  0.1666
 6101SOL    HW129765   1.409   1.048   8.239 -1.0800  0.5411  0.1084
 6101SOL    HW229766   1.454   0.968   8.349  0.0836 -0.7783 -0.8124
 6102SOL     OW29767   0.287   1.141   2.270  0.0726 -0.0702 -0.5137
 6102SOL    HW129768   0.372   1.157   2.311  0.6386  0.8709 -2.0593
 6102SOL    HW229769   0.262   1.232   2.256 -0.5098 -0.4036 -1.7003
 6103SOL     OW29770   4.498   4.197  16.733  0.3227 -0.1282  0.6109
 6103SOL    HW129771   4.410   4.234  16.736  0.3160  0.0034 -2.0255
 6103SOL    HW229772   4.545   4.266  16.780  2.5216 -0.5184 -1.0803
 6104SOL     OW29773   0.743   3.799  15.656  0.2819  0.3361  0.0734
 6104SOL    HW129774   0.677   3.819  15.723  1.0492 -0.6274  1.1080
 6104SOL    HW229775   0.681   3.779  15.586  0.8456 -2.8938  0.4688
 6105SOL     OW29776   0.424   2.779   5.541  0.5636 -0.4749  0.0674
 6105SOL    HW129777   0.334   2.812   5.539  1.0311  0.8853  1.4937
 6105SOL    HW229778   0.431   2.748   5.450 -4.6604 -1.8457  0.1435
 6106SOL     OW29779   4.619   0.669  13.462  0.0193  0.1726  0.2045
 6106SOL    HW129780   4.695   0.616  13.484  1.1788  1.8861  0.3421
 6106SOL    HW229781   4.642   0.690  13.372 -0.1470 -2.1520 -0.3811
 6107SOL     OW29782   1.930   4.112   0.053 -0.1848  0.1002  0.5562
 6107SOL    HW129783   1.937   4.017   0.062  0.5278  0.0426 -0.5735
 6107SOL    HW229784   1.855   4.132   0.109 -1.2387 -0.6907 -0.5670
 6108SOL     OW29785   0.675   4.018   9.996  0.5791  0.1096  0.5041
 6108SOL    HW129786   0.733   3.976  10.059  2.7230  1.1749 -0.7492
 6108SOL    HW229787   0.593   3.972  10.010  0.6046 -0.3566 -0.8497
 6109SOL     OW29788   2.912   1.333   7.151  0.0162 -0.5215  0.1734
 6109SOL    HW129789   2.984   1.285   7.112  0.8086 -0.9131  2.1046
 6109SOL    HW229790   2.877   1.268   7.213 -0.6463  0.4637  0.8286
 6110SOL     OW29791   2.478   0.338  12.036 -0.1307 -0.7094  0.3722
 6110SOL    HW129792   2.385   0.358  12.039  0.2483  0.6353  2.6687
 6110SOL    HW229793   2.512   0.420  12.001  0.5498 -0.7723  0.8793
 6111SOL     OW29794   1.612   1.990  14.226  0.4012  0.3299 -0.0679
 6111SOL    HW129795   1.547   2.060  14.223  1.0179  0.9344  0.6010
 6111SOL    HW229796   1.692   2.022  14.268  0.6934 -1.1853  0.5187
 6112SOL     OW29797   3.411   3.464   6.661 -0.0189 -0.7646 -0.4280
 6112SOL    HW129798   3.438   3.547   6.700 -1.4778 -1.0466  1.2228
 6112SOL    HW229799   3.382   3.486   6.573 -0.9837 -0.7444 -0.1090
 6113SOL     OW29800   1.372   0.050   7.368  0.0062  0.4481 -0.4244
 6113SOL    HW129801   1.387   0.142   7.391  1.6883  0.4447 -1.4416
 6113SOL    HW229802   1.283   0.051   7.333 -0.1952  1.4293  0.1380
 6114SOL     OW29803   3.026   1.243   1.649  1.0920 -0.1186 -0.2977
 6114SOL    HW129804   3.076   1.163   1.664  0.8546 -0.1863  0.1243
 6114SOL    HW229805   2.938   1.215   1.674  0.7055  1.8249  0.5507
 6115SOL     OW29806   0.716   0.105   5.521 -0.0076 -0.0461  0.0774
 6115SOL    HW129807   0.799   0.145   5.546 -0.1566  0.5346 -0.3564
 6115SOL    HW229808   0.648   0.173   5.522  0.1953  0.1436  0.7682
 6116SOL     OW29809   1.650   3.598  15.897  0.5061 -0.2524  0.1424
 6116SOL    HW129810   1.612   3.674  15.854 -1.8759 -1.8985 -0.6792
 6116SOL    HW229811   1.587   3.535  15.862 -1.8459  2.5195 -0.6224
 6117SOL     OW29812   3.202   3.717   5.188 -0.1819  0.7722 -0.3850
 6117SOL    HW129813   3.209   3.648   5.122 -0.0887  0.8881 -0.4946
 6117SOL    HW229814   3.290   3.719   5.226  0.0845  0.2582 -0.9718
 6118SOL     OW29815   1.106   1.362   8.094  0.4476  0.2825  0.3084
 6118SOL    HW129816   1.090   1.390   8.184  0.0367 -0.6972  0.5357
 6118SOL    HW229817   1.131   1.442   8.047  1.0261  0.2137  0.5009
 6119SOL     OW29818   1.639   3.417   5.219  0.0529  0.6045 -0.1336
 6119SOL    HW129819   1.679   3.338   5.257 -0.1019  0.8670  0.5718
 6119SOL    HW229820   1.711   3.479   5.224  1.1694 -0.9331  2.9484
 6120SOL     OW29821   1.192   4.135   1.940  0.0727  0.1148 -0.0076
 6120SOL    HW129822   1.119   4.176   1.893 -0.8338  0.0568  1.3522
 6120SOL    HW229823   1.252   4.210   1.943  1.2138 -0.8731  1.4069
 6121SOL     OW29824   0.512   3.089  11.723 -0.1087  0.0483 -0.5530
 6121SOL    HW129825   0.563   3.009  11.731 -1.0930 -0.5253 -0.0558
 6121SOL    HW229826   0.425   3.052  11.710 -0.0883  0.1720 -1.0493
 6122SOL     OW29827   3.966   1.579   2.183 -0.5605  0.1598 -0.1244
 6122SOL    HW129828   3.940   1.555   2.094 -1.0318  0.6899 -0.1257
 6122SOL    HW229829   3.876   1.588   2.215 -0.1205 -0.9130  1.4421
 6123SOL     OW29830   1.682   0.848   4.871  0.4478 -0.4320 -0.2589
 6123SOL    HW129831   1.683   0.943   4.860  1.7827 -0.0544  3.3804
 6123SOL    HW229832   1.587   0.847   4.883  0.0744  1.4815 -2.9940
 6124SOL     OW29833   3.444   0.210  16.059 -0.5040 -0.4459 -0.4036
 6124SOL    HW129834   3.388   0.278  16.022 -2.2148 -0.1089  2.8032
 6124SOL    HW229835   3.395   0.130  16.046 -0.0702 -0.6917 -0.5283
 6125SOL     OW29836   0.634   3.376   6.639  0.0858 -0.5871  0.1915
 6125SOL    HW129837   0.666   3.327   6.715  0.2836 -2.0102 -0.8039
 6125SOL    HW229838   0.576   3.433   6.690  0.2067 -0.6859  0.4407
 6126SOL     OW29839   3.612   2.227  16.505  0.0966  0.5406 -0.1002
 6126SOL    HW129840   3.624   2.319  16.481  1.2481 -0.5390 -3.7133
 6126SOL    HW229841   3.608   2.185  16.419  1.5235  1.3502 -0.5677
 6127SOL     OW29842   0.235   1.406   7.542  0.3435 -0.1259 -0.0951
 6127SOL    HW129843   0.245   1.394   7.447 -0.0293 -2.8509  0.2073
 6127SOL    HW229844   0.260   1.498   7.551 -1.1698 -0.1299  3.9364
 6128SOL     OW29845   1.472   0.385   1.688 -0.4011 -0.1421  0.6290
 6128SOL    HW129846   1.431   0.345   1.765  0.5827 -1.5585  0.4180
 6128SOL    HW229847   1.417   0.348   1.618  1.0210 -1.3865  0.1680
 6129SOL     OW29848   4.290   1.469   2.257  0.5616 -0.4931  0.0360
 6129SOL    HW129849   4.216   1.471   2.195  0.1314  0.4136  0.5674
 6129SOL    HW229850   4.340   1.392   2.231 -1.3137 -2.0440  0.9882
 6130SOL     OW29851   0.679   3.082   5.692 -0.1903  0.2813  0.0215
 6130SOL    HW129852   0.628   3.058   5.614 -1.8640  1.3996  0.7786
 6130SOL    HW229853   0.757   3.126   5.656  0.7004  0.9039  2.7614
 6131SOL     OW29854   3.408   0.002   9.205 -0.2841  0.3116  0.1961
 6131SOL    HW129855   3.456   0.062   9.148  0.1279 -0.9419 -0.7547
 6131SOL    HW229856   3.378   0.058   9.277 -1.5802 -3.0029  2.2418
 6132SOL     OW29857   1.518   1.160  13.823  0.3676 -0.0366 -0.1871
 6132SOL    HW129858   1.557   1.122  13.902 -1.4530 -0.0995  0.6656
 6132SOL    HW229859   1.514   1.250  13.854  0.4956  1.0298 -3.2430
 6133SOL     OW29860   1.256   0.243   5.991 -0.3179  0.5081  0.0279
 6133SOL    HW129861   1.217   0.229   6.077  0.6197 -0.9333  0.2279
 6133SOL    HW229862   1.344   0.267   6.021 -0.3808  0.5977  0.1415
 6134SOL     OW29863   1.089   3.276   4.147  0.4238 -0.0852  0.4972
 6134SOL    HW129864   1.111   3.331   4.222 -1.2647  0.3653  0.6672
 6134SOL    HW229865   1.082   3.187   4.180  0.7803 -0.4140 -0.3333
 6135SOL     OW29866   4.486   2.090   6.287  0.0711 -0.1879  0.1149
 6135SOL    HW129867   4.550   2.025   6.318  0.3554  0.1123  0.1513
 6135SOL    HW229868   4.454   2.117   6.373 -0.5839  0.4584 -0.3357
 6136SOL     OW29869   3.430   1.911  17.297  0.5670 -0.2422 -0.1236
 6136SOL    HW129870   3.419   2.005  17.303  0.0368 -0.3379  0.4199
 6136SOL    HW229871   3.354   1.893  17.353 -1.8599  1.1912 -2.9683
 6137SOL     OW29872   4.178   4.334  15.156 -0.2530  0.1192 -0.2262
 6137SOL    HW129873   4.203   4.423  15.129 -1.4777  0.3610 -0.6032
 6137SOL    HW229874   4.196   4.341  15.249  0.5251  1.7736 -0.4961
 6138SOL     OW29875   2.105   3.401   8.069 -0.1865  0.3124 -0.7237
 6138SOL    HW129876   2.167   3.330   8.053  0.8379  1.2135 -0.7481
 6138SOL    HW229877   2.166   3.472   8.088  0.5430 -0.7136  0.8081
 6139SOL     OW29878   1.873   3.303   3.284  0.1016  0.1562 -0.6655
 6139SOL    HW129879   1.878   3.331   3.193  0.4772  2.5215  0.0843
 6139SOL    HW229880   1.820   3.375   3.318  2.0220  0.0550  2.5532
 6140SOL     OW29881   0.122   4.317   6.348  0.1189 -0.6165  0.2388
 6140SOL    HW129882   0.180   4.256   6.303 -1.5308  1.0719 -4.1023
 6140SOL    HW229883   0.057   4.251   6.370 -0.7799 -0.0737 -0.7907
 6141SOL     OW29884   1.338   2.913   6.287 -0.3834  0.2657  0.1641
 6141SOL    HW129885   1.256   2.872   6.262  0.2016 -0.5962 -0.3407
 6141SOL    HW229886   1.311   2.967   6.361 -1.2069  3.8094 -2.7710
 6142SOL     OW29887   1.798   2.045   6.789 -0.5254 -0.3788 -0.3380
 6142SOL    HW129888   1.872   1.991   6.761 -2.4471 -3.1468 -0.0496
 6142SOL    HW229889   1.832   2.077   6.872  1.4989 -0.3297 -1.1693
 6143SOL     OW29890   1.480   1.087   5.525 -0.1390 -0.5053 -0.0365
 6143SOL    HW129891   1.475   0.995   5.501 -0.6009 -0.9995  1.9691
 6143SOL    HW229892   1.514   1.129   5.446 -0.8152 -0.7354 -0.4472
 6144SOL     OW29893   1.423   2.613  11.712  0.2725  0.2401  0.3670
 6144SOL    HW129894   1.398   2.682  11.651 -1.0434  0.0641  0.7004
 6144SOL    HW229895   1.516   2.599  11.695  0.5437  0.9261  1.2526
 6145SOL     OW29896   2.618   1.359   6.702 -0.2737  0.1711 -0.1643
 6145SOL    HW129897   2.638   1.441   6.656 -0.1596 -0.2130 -0.7956
 6145SOL    HW229898   2.588   1.305   6.629 -0.5596 -1.3511  1.0848
 6146SOL     OW29899   4.535   2.772   7.125 -0.3320  0.0767  1.0055
 6146SOL    HW129900   4.519   2.787   7.032 -0.9075 -3.9786  0.4902
 6146SOL    HW229901   4.475   2.700   7.145  0.9747 -1.9068 -2.4685
 6147SOL     OW29902   2.480   3.223   4.399  0.1517 -0.1222 -0.3012
 6147SOL    HW129903   2.445   3.214   4.310 -0.5013  1.9650 -0.2739
 6147SOL    HW229904   2.526   3.140   4.395 -0.5969 -0.6008  1.0719
 6148SOL     OW29905   2.352   3.438  13.696 -0.0301  0.0418 -0.1373
 6148SOL    HW129906   2.400   3.356  13.686 -0.5055 -0.2521 -0.0439
 6148SOL    HW229907   2.351   3.436  13.791 -0.8631 -3.0383 -0.2143
 6149SOL     OW29908   2.955   3.602   8.244  0.3209 -0.3347  0.4143
 6149SOL    HW129909   3.017   3.668   8.275  0.1692  0.2162 -0.4281
 6149SOL    HW229910   2.929   3.637   8.159 -0.6508  0.0339  0.8626
 6150SOL     OW29911   1.643   0.342   6.326 -0.1455 -0.1456  0.3243
 6150SOL    HW129912   1.612   0.402   6.394 -0.8230  1.0973 -1.0983
 6150SOL    HW229913   1.730   0.320   6.360 -0.8269 -2.5253  0.5383
 6151SOL     OW29914   0.738   3.999   5.835 -0.5554 -0.0343  0.3199
 6151SOL    HW129915   0.753   3.915   5.878  0.9026  0.0108 -0.0893
 6151SOL    HW229916   0.649   4.021   5.861 -0.4530  1.0623 -0.2434
 6152SOL     OW29917   4.016   2.162  11.264 -0.1261  0.3412  0.2743
 6152SOL    HW129918   4.105   2.186  11.236  0.0241 -0.4355  0.0959
 6152SOL    HW229919   4.013   2.068  11.246  1.8842  0.4274 -0.5087
 6153SOL     OW29920   3.201   3.118  17.578 -0.3179 -1.0697 -0.1925
 6153SOL    HW129921   3.166   3.169  17.651  1.2014 -2.2814  1.3857
 6153SOL    HW229922   3.154   3.160  17.506 -0.2680  2.9514  2.1129
 6154SOL     OW29923   1.131   4.216   9.369 -0.0977 -1.3136  0.3812
 6154SOL    HW129924   1.181   4.298   9.358  2.8846 -2.8512  2.4304
 6154SOL    HW229925   1.204   4.155   9.382  0.6231 -0.7981 -1.2017
 6155SOL     OW29926   4.159   1.888   1.558 -0.3583  0.8563  0.2194
 6155SOL    HW129927   4.227   1.930   1.611  0.4623 -2.4720  1.8451
 6155SOL    HW229928   4.106   1.850   1.628 -2.8652 -1.1786 -2.8194
 6156SOL     OW29929   3.056   4.150   5.002  0.3826  0.0591  0.4576
 6156SOL    HW129930   2.990   4.166   5.069 -0.6755 -1.7194 -0.1600
 6156SOL    HW229931   3.137   4.142   5.052  0.4706 -0.6844  0.1969
 6157SOL     OW29932   1.599   0.861   8.793 -0.0170 -0.4838  0.6850
 6157SOL    HW129933   1.672   0.826   8.843 -1.1628 -2.5738  0.9086
 6157SOL    HW229934   1.517   0.850   8.842  0.4743 -1.4569  1.2763
 6158SOL     OW29935   2.816   2.427   3.057 -0.4399 -0.3152  0.2448
 6158SOL    HW129936   2.791   2.488   2.987  3.3974  0.9723  0.0009
 6158SOL    HW229937   2.911   2.432   3.046 -0.6811  0.7085 -1.4384
 6159SOL     OW29938   1.302   2.534   6.344  0.0214  0.1964  0.0053
 6159SOL    HW129939   1.339   2.615   6.379 -1.5993  1.0429 -0.2755
 6159SOL    HW229940   1.379   2.502   6.296  1.8206  3.5330  0.6923
 6160SOL     OW29941   0.740   1.528   2.985  0.9555  0.5472 -0.1889
 6160SOL    HW129942   0.708   1.616   3.004  1.8385  1.5493 -3.3898
 6160SOL    HW229943   0.811   1.511   3.048  0.1216 -0.8197  0.4004
 6161SOL     OW29944   3.874   3.131   2.317  0.6401  0.4265  0.2408
 6161SOL    HW129945   3.898   3.108   2.227 -0.5924 -1.5091  0.4131
 6161SOL    HW229946   3.802   3.070   2.332  0.3317 -0.0542 -3.2474
 6162SOL     OW29947   2.988   0.507   3.503 -0.5856  0.4093  0.1390
 6162SOL    HW129948   3.022   0.418   3.498  0.8161  1.1952 -4.1694
 6162SOL    HW229949   3.068   0.553   3.479 -0.9243 -0.5453 -2.9304
 6163SOL     OW29950   4.668   4.265  11.644 -0.0477 -0.1975  0.2428
 6163SOL    HW129951   4.654   4.351  11.605  1.9226  0.2907  0.6034
 6163SOL    HW229952   0.039   4.262  11.652  0.1718  1.7936 -1.6920
 6164SOL     OW29953   3.419   2.442  17.609 -1.0221  0.2459 -0.5985
 6164SOL    HW129954   3.473   2.369  17.580 -0.6418 -0.5335  2.0529
 6164SOL    HW229955   3.426   2.433   0.006  1.4212  2.6736 -0.5604
 6165SOL     OW29956   3.873   1.004  17.112  0.0351 -0.0876 -0.0759
 6165SOL    HW129957   3.932   0.938  17.148  0.9980  1.2329  0.7595
 6165SOL    HW229958   3.946   1.055  17.078 -1.2836  1.5955 -0.4046
 6166SOL     OW29959   1.709   0.770   5.792  0.4430 -0.0437 -0.0276
 6166SOL    HW129960   1.667   0.743   5.710 -2.7963 -2.8552  2.5474
 6166SOL    HW229961   1.635   0.807   5.841  0.3955 -1.1042  0.7106
 6167SOL     OW29962   4.222   3.893   8.433  0.2767 -0.1338  0.1963
 6167SOL    HW129963   4.181   3.816   8.394  0.5893  1.0325 -2.4100
 6167SOL    HW229964   4.209   3.969   8.376 -1.2931 -0.0843  0.6375
 6168SOL     OW29965   4.154   0.921   7.127  0.3857  0.6290 -0.2834
 6168SOL    HW129966   4.248   0.906   7.140  0.2968  1.0268  0.8519
 6168SOL    HW229967   4.138   0.864   7.052 -1.2779  0.8409 -0.0949
 6169SOL     OW29968   1.542   3.356   9.685 -0.2448 -1.1497 -0.1232
 6169SOL    HW129969   1.571   3.333   9.773  2.3274  0.3066 -0.6098
 6169SOL    HW229970   1.621   3.340   9.633 -0.4508  0.2943 -0.8791
 6170SOL     OW29971   2.056   4.176   7.563  0.1138  0.0829 -0.2834
 6170SOL    HW129972   2.113   4.218   7.627  1.3483 -2.2237  0.1344
 6170SOL    HW229973   1.974   4.226   7.560  0.5290  0.6250 -2.1906
 6171SOL     OW29974   1.397   1.668   8.962  0.1180 -0.9063 -0.0382
 6171SOL    HW129975   1.477   1.720   8.959 -0.3034 -0.2695 -0.1897
 6171SOL    HW229976   1.379   1.673   9.056 -1.0663 -1.1858 -0.2544
 6172SOL     OW29977   3.937   2.050   4.031 -0.1450 -0.1826  0.5935
 6172SOL    HW129978   3.938   2.080   3.941 -0.4766 -1.5706  0.1242
 6172SOL    HW229979   4.028   2.023   4.035 -0.0307  0.1792  0.3990
 6173SOL     OW29980   1.980   4.565  11.376 -0.1664 -0.0044 -0.2822
 6173SOL    HW129981   1.924   4.640  11.356 -0.6848 -0.4733 -0.5806
 6173SOL    HW229982   2.051   4.579  11.314 -0.4451  0.8744 -0.4014
 6174SOL     OW29983   2.312   2.270  12.306 -0.2777 -0.7973 -0.3255
 6174SOL    HW129984   2.318   2.365  12.308 -2.5799 -0.6796  0.9747
 6174SOL    HW229985   2.332   2.256  12.399  1.7655 -1.4499 -0.8652
 6175SOL     OW29986   1.307   3.469  16.167 -0.0552  0.1395  0.6679
 6175SOL    HW129987   1.399   3.454  16.189  0.4194  0.0159 -1.3988
 6175SOL    HW229988   1.273   3.505  16.249 -0.5872  1.0239  0.0594
 6176SOL     OW29989   0.859   0.649   7.525  0.0757 -0.1064 -0.1727
 6176SOL    HW129990   0.820   0.609   7.603  1.5399 -1.6953 -0.2591
 6176SOL    HW229991   0.876   0.577   7.464  0.8077  1.6463 -2.0250
 6177SOL     OW29992   4.000   4.147   1.938 -0.3995  0.2633  0.1936
 6177SOL    HW129993   4.092   4.158   1.964 -0.0077  0.2342 -1.1729
 6177SOL    HW229994   3.995   4.088   1.862 -1.0927 -0.2129  0.6099
 6178SOL     OW29995   4.523   2.003  12.883  0.2680  0.1330 -0.3336
 6178SOL    HW129996   4.594   2.020  12.822 -0.4530  1.4268 -0.8029
 6178SOL    HW229997   4.490   2.089  12.908 -1.0634 -0.4906  0.1085
 6179SOL     OW29998   0.341   2.544  15.347 -0.1636 -0.2067  0.7212
 6179SOL    HW129999   0.320   2.451  15.354  1.2418 -0.4996  1.0301
 6179SOL    HW230000   0.427   2.547  15.390  0.3167 -0.0781 -0.2427
 6180SOL     OW30001   0.223   2.392   6.806  0.4193 -0.3054 -0.3015
 6180SOL    HW130002   0.208   2.387   6.711 -0.0930 -0.5174 -0.2086
 6180SOL    HW230003   0.165   2.465   6.828  1.2360  0.7004 -1.4708
 6181SOL     OW30004   1.925   4.150   9.133  0.2002 -0.2338  0.5700
 6181SOL    HW130005   1.925   4.190   9.046 -1.5634 -0.8924  0.2668
 6181SOL    HW230006   1.969   4.071   9.100  0.0732 -1.0685  2.3991
 6182SOL     OW30007   1.372   0.861  15.081 -0.6255  1.0360 -0.1853
 6182SOL    HW130008   1.430   0.893  15.150  0.3976  0.2759 -0.7033
 6182SOL    HW230009   1.431   0.824  15.015  2.8351  0.3433  3.3321
 6183SOL     OW30010   1.094   4.073   5.662 -0.0536 -0.0045  0.1653
 6183SOL    HW130011   1.105   4.002   5.599  1.3118  0.1974  0.1655
 6183SOL    HW230012   1.093   4.034   5.749  1.8467 -2.5350 -0.9701
 6184SOL     OW30013   0.428   2.180   0.861  0.0873 -0.3396  0.4228
 6184SOL    HW130014   0.491   2.230   0.912 -1.4222  1.2037  0.7700
 6184SOL    HW230015   0.467   2.092   0.861  1.1464  0.1358 -0.4446
 6185SOL     OW30016   2.857   1.843  15.325  0.0010 -0.3222 -0.3099
 6185SOL    HW130017   2.899   1.778  15.380 -0.3310  1.5162  2.0886
 6185SOL    HW230018   2.842   1.782  15.253 -2.1567 -0.7704  0.5257
 6186SOL     OW30019   2.960   0.681   6.207  0.0188 -0.4227 -0.1228
 6186SOL    HW130020   2.970   0.667   6.301 -0.2857 -4.1690 -0.6686
 6186SOL    HW230021   3.043   0.646   6.175 -0.6805 -1.1599 -1.1226
 6187SOL     OW30022   1.249   0.044   5.810  0.0178  0.4721  0.4012
 6187SOL    HW130023   1.205   0.105   5.751 -1.9067 -0.8233  0.5158
 6187SOL    HW230024   1.270   0.113   5.873  0.8716  1.5517 -1.0649
 6188SOL     OW30025   4.371   0.278   3.656  0.2775 -0.4398  0.1520
 6188SOL    HW130026   4.305   0.307   3.593  0.3067 -2.0068 -0.6018
 6188SOL    HW230027   4.346   0.189   3.680  0.2053 -1.2278 -2.8144
 6189SOL     OW30028   1.488   1.220   3.640 -0.6074  0.3066 -0.6482
 6189SOL    HW130029   1.525   1.253   3.558  0.8669  0.6707  0.1814
 6189SOL    HW230030   1.406   1.185   3.604 -0.1967  1.4189 -2.7009
 6190SOL     OW30031   1.411   1.741   8.038 -0.0304  0.0343  0.5746
 6190SOL    HW130032   1.429   1.828   8.074 -2.2886  0.8713 -0.3111
 6190SOL    HW230033   1.477   1.689   8.085 -0.0546 -0.5707 -0.0591
 6191SOL     OW30034   2.644   3.883  11.860  0.1176 -0.5878  0.4557
 6191SOL    HW130035   2.654   3.934  11.780  0.1013 -1.9994 -0.4291
 6191SOL    HW230036   2.594   3.813  11.819 -0.7725  0.1196  0.3431
 6192SOL     OW30037   4.066   1.439   5.799  0.5324  0.2550  0.5189
 6192SOL    HW130038   4.085   1.532   5.814  0.2119  0.3209  0.4994
 6192SOL    HW230039   4.076   1.401   5.886 -1.3748  1.2275  1.1518
 6193SOL     OW30040   4.614   4.607   6.927  0.5413  1.2996 -0.2975
 6193SOL    HW130041   4.518   4.603   6.931  0.7571 -0.8342  3.0277
 6193SOL    HW230042   4.645   4.517   6.913 -0.7229  0.4845  2.1126
 6194SOL     OW30043   3.472   1.868   5.925 -0.4687  0.0296  0.2245
 6194SOL    HW130044   3.533   1.907   5.987 -0.0644  1.1665 -0.8773
 6194SOL    HW230045   3.397   1.923   5.947 -0.3787 -0.1795  1.0320
 6195SOL     OW30046   0.332   3.540   6.414  0.1063  0.1470  0.1596
 6195SOL    HW130047   0.415   3.578   6.443 -0.5929 -0.0664  2.4722
 6195SOL    HW230048   0.300   3.490   6.490 -0.4461 -0.9271 -0.7753
 6196SOL     OW30049   3.202   1.243  13.887  0.2364 -0.1511  0.0338
 6196SOL    HW130050   3.155   1.290  13.818 -1.8092 -1.5318  0.4779
 6196SOL    HW230051   3.233   1.165  13.841  1.0844  0.7952 -0.9838
 6197SOL     OW30052   0.245   1.143   3.126 -0.2062  0.1889 -0.0333
 6197SOL    HW130053   0.187   1.130   3.051  0.7078  1.0609 -0.8803
 6197SOL    HW230054   0.190   1.193   3.187 -1.8885 -1.2875 -0.3470
 6198SOL     OW30055   1.924   3.686   8.459 -0.8930  0.5028  0.0313
 6198SOL    HW130056   1.938   3.609   8.404 -2.0132 -1.1392  2.0591
 6198SOL    HW230057   1.861   3.734   8.405  0.6684  0.9696 -1.3629
 6199SOL     OW30058   3.472   2.491   5.490 -0.0185 -0.4415 -0.3942
 6199SOL    HW130059   3.389   2.442   5.486 -1.2731  1.8586 -2.4050
 6199SOL    HW230060   3.436   2.561   5.544 -1.3445 -0.0017 -1.8451
 6200SOL     OW30061   4.617   2.783   9.156  0.2938  0.1503  0.6465
 6200SOL    HW130062   4.547   2.848   9.165 -1.4644 -1.4944 -0.8835
 6200SOL    HW230063   4.688   2.846   9.165  0.6634 -0.3930  1.4398
 6201SOL     OW30064   0.342   0.555  10.066  0.4742 -0.3817 -0.2682
 6201SOL    HW130065   0.421   0.528  10.020  2.1770  1.8079  1.3796
 6201SOL    HW230066   0.308   0.471  10.098  0.7440 -0.0225  0.9776
 6202SOL     OW30067   3.680   0.150   9.905 -0.2462 -0.1175 -0.1758
 6202SOL    HW130068   3.654   0.173   9.816  3.5140  3.1431 -0.4278
 6202SOL    HW230069   3.598   0.111   9.937  0.5257 -1.9961 -0.4927
 6203SOL     OW30070   1.490   4.035   0.346 -0.3908  0.5193  0.2259
 6203SOL    HW130071   1.514   3.976   0.418  0.9033  1.4153  0.5295
 6203SOL    HW230072   1.399   4.048   0.373  0.0289  2.9248  0.4685
 6204SOL     OW30073   4.703   3.318  15.324 -0.2729  0.1216 -0.1778
 6204SOL    HW130074   4.686   3.412  15.325 -1.7074 -0.1408 -0.3951
 6204SOL    HW230075   4.617   3.281  15.304 -0.5642 -0.2119  1.6953
 6205SOL     OW30076   4.488   3.066   7.165  0.2501 -0.2261 -0.0297
 6205SOL    HW130077   4.417   3.047   7.104  0.9181 -0.1723 -0.8241
 6205SOL    HW230078   4.509   2.975   7.185  1.7375  0.2153  0.4609
 6206SOL     OW30079   3.353   1.184   9.880  0.2987 -0.2563  0.4283
 6206SOL    HW130080   3.424   1.247   9.890 -1.0203  1.5160 -1.2680
 6206SOL    HW230081   3.357   1.136   9.962  0.9329  0.1417  0.6317
 6207SOL     OW30082   0.025   1.463  14.558 -0.3667 -0.1356  0.5409
 6207SOL    HW130083   0.008   1.409  14.481  1.3330  0.1123  0.0062
 6207SOL    HW230084   4.663   1.495  14.585 -0.9104  0.3913 -1.8756
 6208SOL     OW30085   4.365   3.683   4.672  0.3610  0.3291  0.0816
 6208SOL    HW130086   4.414   3.757   4.708  1.2590 -0.3376  0.2364
 6208SOL    HW230087   4.324   3.638   4.746  0.8492 -1.9830 -1.0617
 6209SOL     OW30088   3.738   2.409  11.606  0.1226 -0.1342  0.5110
 6209SOL    HW130089   3.715   2.490  11.652  0.9014  0.7166 -0.6102
 6209SOL    HW230090   3.827   2.428  11.578  1.0953 -0.9891  2.9938
 6210SOL     OW30091   2.238   3.914  16.034 -0.2259  0.3172 -0.6848
 6210SOL    HW130092   2.212   3.835  15.988  3.3475 -0.5590 -1.1580
 6210SOL    HW230093   2.281   3.967  15.967 -2.0182 -0.3457 -2.3599
 6211SOL     OW30094   0.172   2.618   5.369 -0.2636  0.1647 -0.2138
 6211SOL    HW130095   0.110   2.691   5.375 -1.1026 -0.5614 -0.0707
 6211SOL    HW230096   0.244   2.647   5.312  0.8059 -0.8442  0.6196
 6212SOL     OW30097   4.526   0.528  11.510  0.1365  0.1137  0.2772
 6212SOL    HW130098   4.573   0.492  11.435 -1.9066 -0.5006 -0.7139
 6212SOL    HW230099   4.572   0.612  11.516 -1.3211  1.0357 -1.4781
 6213SOL     OW30100   2.158   1.038  13.101  0.5116  0.2005  0.6935
 6213SOL    HW130101   2.199   1.124  13.092  0.1202  0.2173 -1.0915
 6213SOL    HW230102   2.067   1.064  13.082  0.2190 -0.0112  1.8270
 6214SOL     OW30103   4.572   0.747   6.601 -0.1637 -0.6248 -0.7752
 6214SOL    HW130104   4.531   0.740   6.515 -3.7626 -0.3804  0.8757
 6214SOL    HW230105   4.639   0.680   6.594 -1.1163 -1.4772 -1.7220
 6215SOL     OW30106   2.905   0.576   4.365 -0.4694  0.3545 -0.3926
 6215SOL    HW130107   2.825   0.535   4.333 -0.4311  0.5308 -0.7165
 6215SOL    HW230108   2.946   0.614   4.287  0.4610 -1.7371 -0.9328
 6216SOL     OW30109   1.973   1.629   4.936 -0.3919 -0.3093 -0.0217
 6216SOL    HW130110   1.971   1.545   4.889  0.6905  0.2321 -1.0241
 6216SOL    HW230111   1.936   1.691   4.873 -0.6439 -0.8721 -0.4307
 6217SOL     OW30112   1.035   2.151   7.535 -0.2098 -0.1043 -0.2592
 6217SOL    HW130113   1.012   2.235   7.495 -0.8812 -1.1985 -2.1505
 6217SOL    HW230114   0.952   2.136   7.581  2.1241 -2.0364  3.3591
 6218SOL     OW30115   1.554   0.260  14.115  0.5191  0.2968  0.9342
 6218SOL    HW130116   1.602   0.180  14.100 -0.8573 -0.1716 -0.9434
 6218SOL    HW230117   1.617   0.321  14.076 -0.3187  0.1262 -0.7002
 6219SOL     OW30118   3.301   3.182   6.348  0.0881 -0.3169 -0.2783
 6219SOL    HW130119   3.317   3.092   6.318 -0.5927 -0.8306  0.8994
 6219SOL    HW230120   3.365   3.238   6.304 -0.1820 -0.4990 -0.8989
 6220SOL     OW30121   3.020   3.490   1.484 -0.2236 -0.2583  0.2630
 6220SOL    HW130122   3.055   3.434   1.553 -3.1106 -2.6899 -0.2601
 6220SOL    HW230123   2.994   3.567   1.536  0.5833 -0.6424  1.2227
 6221SOL     OW30124   1.366   1.493   5.726  0.1470  0.4827  0.2785
 6221SOL    HW130125   1.442   1.546   5.746  1.2855 -0.4522 -1.5562
 6221SOL    HW230126   1.295   1.534   5.776  0.0234  1.6928 -0.8859
 6222SOL     OW30127   1.918   1.908   7.191 -0.1848 -0.8675  0.7447
 6222SOL    HW130128   1.978   1.958   7.247  0.0635 -1.5875  1.1142
 6222SOL    HW230129   1.971   1.829   7.186  0.8391 -0.0734 -0.8203
 6223SOL     OW30130   0.920   1.175   2.582 -0.3523  0.3796 -0.7262
 6223SOL    HW130131   0.916   1.082   2.607  1.0562  0.8814  1.3464
 6223SOL    HW230132   0.841   1.183   2.529  0.1530  1.9898 -1.2424
 6224SOL     OW30133   3.117   2.938  16.833  0.5266 -0.0783  0.7255
 6224SOL    HW130134   3.023   2.923  16.825  0.4721 -0.5782  2.4032
 6224SOL    HW230135   3.125   3.033  16.832  2.9035 -0.2683  0.6203
 6225SOL     OW30136   3.561   2.897   1.743  0.3290 -0.2990 -0.0889
 6225SOL    HW130137   3.478   2.942   1.760  1.1374  1.2220 -0.1683
 6225SOL    HW230138   3.575   2.914   1.650 -1.1336 -0.5126 -0.3458
 6226SOL     OW30139   2.715   2.990   2.351  0.1250  0.1960  0.0456
 6226SOL    HW130140   2.624   3.010   2.373  0.0820 -0.3927  0.4136
 6226SOL    HW230141   2.715   3.006   2.257  1.9162  2.0254  0.3628
 6227SOL     OW30142   2.327   3.729   4.169 -0.4038 -0.4391 -0.1793
 6227SOL    HW130143   2.256   3.690   4.119  0.1473  0.1446 -1.4350
 6227SOL    HW230144   2.350   3.658   4.229 -0.7202  0.4218  0.9774
 6228SOL     OW30145   2.351   3.489   2.899 -0.1344  0.3239 -0.1581
 6228SOL    HW130146   2.332   3.431   2.826  1.6665 -1.2512  0.6461
 6228SOL    HW230147   2.289   3.462   2.967  2.5208 -0.8583  1.7997
 6229SOL     OW30148   0.219   0.015   7.527  0.0187 -0.0451 -0.0734
 6229SOL    HW130149   0.133   4.710   7.555 -0.0251 -0.4060 -0.5594
 6229SOL    HW230150   0.230   0.102   7.563  1.2106 -0.8268  1.4386
 6230SOL     OW30151   1.771   0.470   0.430 -0.2868 -0.1569  0.0704
 6230SOL    HW130152   1.839   0.531   0.402 -1.2745  0.7683 -0.2728
 6230SOL    HW230153   1.792   0.460   0.523  0.7613 -0.2218 -0.1678
 6231SOL     OW30154   2.070   2.786   1.384 -0.1420 -0.3952 -0.4072
 6231SOL    HW130155   2.158   2.754   1.365  0.2076  0.1739  0.2526
 6231SOL    HW230156   2.058   2.817   1.294 -0.7830  1.2654  0.2482
 6232SOL     OW30157   1.814   3.397   9.643 -0.0388  0.7042 -0.3212
 6232SOL    HW130158   1.838   3.410   9.734 -1.0246 -0.3882  0.0946
 6232SOL    HW230159   1.871   3.331   9.602 -2.1870 -1.3144 -0.0454
 6233SOL     OW30160   0.752   1.548  17.236 -0.7105 -0.4953  0.4207
 6233SOL    HW130161   0.692   1.477  17.257 -1.6534  0.2292  0.1989
 6233SOL    HW230162   0.792   1.508  17.159 -0.5715 -1.7784  1.1691
 6234SOL     OW30163   0.829   0.544   4.620 -0.1232  0.2293 -0.6411
 6234SOL    HW130164   0.791   0.631   4.609 -3.1215 -0.9366  0.5147
 6234SOL    HW230165   0.879   0.567   4.698  0.9013  1.9741 -1.8090
 6235SOL     OW30166   0.054   0.026   1.981 -0.0854  0.7535  0.3987
 6235SOL    HW130167   0.129   4.691   1.986 -1.2203 -0.3685  3.6712
 6235SOL    HW230168   0.034   0.036   2.074  0.0647  1.0441  0.4005
 6236SOL     OW30169   1.306   2.810   5.448 -0.2415  0.4986  0.0978
 6236SOL    HW130170   1.342   2.800   5.360 -2.7541 -1.5995 -0.6866
 6236SOL    HW230171   1.263   2.726   5.465  0.0368 -0.2988 -3.3383
 6237SOL     OW30172   4.150   4.317   6.590  0.1738 -0.1925 -0.9105
 6237SOL    HW130173   4.083   4.343   6.527 -2.0968 -1.3935  0.9953
 6237SOL    HW230174   4.106   4.248   6.640 -2.1035  2.3126  0.5784
 6238SOL     OW30175   1.660   4.559  13.425 -0.0049  0.0288  0.2204
 6238SOL    HW130176   1.694   4.611  13.352 -0.0610  1.9218  1.5608
 6238SOL    HW230177   1.617   4.487  13.378 -3.5363  2.3941 -0.1515
 6239SOL     OW30178   4.108   0.209  12.024  0.3246 -0.6219  0.1905
 6239SOL    HW130179   4.072   0.280  12.077  1.1149 -0.3996  0.4211
 6239SOL    HW230180   4.110   0.252  11.939  1.1480 -0.0746  0.4861
 6240SOL     OW30181   3.356   0.190   3.187  0.3369  0.4001  0.1341
 6240SOL    HW130182   3.303   0.270   3.186 -1.6470 -0.8907  1.2917
 6240SOL    HW230183   3.291   0.138   3.141 -0.1677 -1.4490  2.9322
 6241SOL     OW30184   1.398   0.395  17.146 -0.0434  0.0715  0.0426
 6241SOL    HW130185   1.361   0.371  17.230 -0.6314 -1.8394 -0.7705
 6241SOL    HW230186   1.323   0.428  17.097 -0.7962 -1.0188  0.4629
 6242SOL     OW30187   2.951   0.795   2.693 -0.7099 -0.2688  0.6356
 6242SOL    HW130188   2.906   0.712   2.676  0.7263 -0.6300 -1.3454
 6242SOL    HW230189   2.887   0.848   2.741  0.2053  1.7461 -0.3877
 6243SOL     OW30190   3.800   1.250   2.591 -0.2398  0.1764  0.5534
 6243SOL    HW130191   3.814   1.293   2.507  1.8635  1.7916  1.7217
 6243SOL    HW230192   3.842   1.311   2.652 -1.3607  0.2344  1.2639
 6244SOL     OW30193   1.686   3.034   8.291  0.0123 -0.7200 -0.0129
 6244SOL    HW130194   1.771   3.058   8.328 -0.4755  1.3769 -0.2550
 6244SOL    HW230195   1.635   3.115   8.293  0.6655 -0.2990 -0.1351
 6245SOL     OW30196   3.563   2.671   2.940 -0.1031 -0.4986  0.1014
 6245SOL    HW130197   3.621   2.624   3.000 -0.3534  0.6688  1.2588
 6245SOL    HW230198   3.609   2.650   2.859  1.9863 -2.0794  1.7072
 6246SOL     OW30199   1.009   1.728   8.246 -0.4276  0.0864  0.6511
 6246SOL    HW130200   1.071   1.656   8.249 -3.6294 -2.5345  3.4134
 6246SOL    HW230201   0.984   1.727   8.338  0.1795  0.9149  0.8216
 6247SOL     OW30202   2.487   2.085  13.621  0.2205 -0.2821 -0.2167
 6247SOL    HW130203   2.530   2.014  13.669  2.1146  1.2304  0.3783
 6247SOL    HW230204   2.415   2.039  13.578  0.7837 -1.8568  0.5351
 6248SOL     OW30205   2.819   1.091   6.010  0.3637 -0.0501  0.0465
 6248SOL    HW130206   2.847   1.020   5.951  2.4385  0.6427  0.2134
 6248SOL    HW230207   2.853   1.052   6.091  0.1706  2.0865  1.1536
 6249SOL     OW30208   1.884   3.657   0.409  0.2584  0.3716 -0.1902
 6249SOL    HW130209   1.975   3.684   0.421  0.3772  0.3390 -0.9964
 6249SOL    HW230210   1.857   3.660   0.501  0.4612  2.5089 -0.2063
 6250SOL     OW30211   4.428   3.552   0.948  0.0007 -0.1925 -0.4521
 6250SOL    HW130212   4.452   3.639   0.979  2.3726 -0.3099 -2.0070
 6250SOL    HW230213   4.484   3.547   0.871 -0.3848  0.1596 -0.7565
 6251SOL     OW30214   4.159   2.997   7.821 -0.0071 -0.4778 -0.0091
 6251SOL    HW130215   4.189   2.906   7.818 -0.0555 -0.5541  1.6529
 6251SOL    HW230216   4.192   3.030   7.737 -0.2622 -2.1259 -0.7532
 6252SOL     OW30217   3.466   1.497   2.365 -0.4177 -0.0133 -0.4213
 6252SOL    HW130218   3.408   1.461   2.297 -0.9950 -0.3652  0.2481
 6252SOL    HW230219   3.473   1.431   2.435 -3.3626  1.6487  1.4674
 6253SOL     OW30220   4.634   1.682   1.257 -0.3267 -0.6674 -0.5554
 6253SOL    HW130221   4.573   1.610   1.273 -0.2265 -0.6950 -0.2986
 6253SOL    HW230222   4.588   1.729   1.188  0.6084  0.5218 -0.3779
 6254SOL     OW30223   2.599   0.231   3.145 -0.0118  0.0941  0.4939
 6254SOL    HW130224   2.531   0.219   3.079 -0.5035  1.1019  0.8206
 6254SOL    HW230225   2.601   0.326   3.150  1.8627  0.0919 -0.1982
 6255SOL     OW30226   0.396   4.205   1.991  0.1433 -0.2456 -0.2966
 6255SOL    HW130227   0.454   4.151   2.044  0.8197  1.2722  0.5216
 6255SOL    HW230228   0.463   4.264   1.955  0.9286 -1.2262 -0.4178
 6256SOL     OW30229   3.498   2.106  17.682  0.0245  0.0257 -0.2754
 6256SOL    HW130230   3.489   2.017   0.016 -0.1078 -0.8417 -2.7681
 6256SOL    HW230231   3.516   2.165   0.058  0.8428 -0.6998  0.1040
 6257SOL     OW30232   3.279   1.508  12.747  0.6256 -0.2373  0.4221
 6257SOL    HW130233   3.189   1.531  12.770  0.9522  1.5469 -0.0869
 6257SOL    HW230234   3.291   1.540  12.657 -0.6746 -1.0397 -0.0416
 6258SOL     OW30235   1.324   2.793   8.326  0.4203 -0.3919 -0.3689
 6258SOL    HW130236   1.392   2.738   8.288  1.0640  0.0640  0.1128
 6258SOL    HW230237   1.377   2.847   8.384  1.2563 -1.5040 -0.0914
 6259SOL     OW30238   0.166   4.541   2.266  0.3468 -0.0175 -0.0309
 6259SOL    HW130239   0.141   4.465   2.214 -0.0181 -0.4803  0.8126
 6259SOL    HW230240   0.159   4.515   2.358 -0.5671  0.7457  0.1180
 6260SOL     OW30241   0.420   2.477   1.914 -0.5216  0.2717  0.0651
 6260SOL    HW130242   0.344   2.431   1.949 -1.4349  1.1170 -0.8183
 6260SOL    HW230243   0.440   2.403   1.857 -0.2001  0.6953 -0.3674
 6261SOL     OW30244   2.299   3.156  16.226 -0.8027 -0.2210 -0.0178
 6261SOL    HW130245   2.255   3.239  16.209  0.4045  0.6584  1.1449
 6261SOL    HW230246   2.388   3.172  16.194 -0.5803  0.3543  0.8958
 6262SOL     OW30247   2.662   4.286   2.924  0.4877  0.1339 -0.4830
 6262SOL    HW130248   2.701   4.230   2.991 -1.6691  2.8951  3.0876
 6262SOL    HW230249   2.620   4.219   2.871  0.7634 -1.9536  1.9067
 6263SOL     OW30250   3.803   0.514   4.706 -0.1676  0.5689  0.4531
 6263SOL    HW130251   3.724   0.567   4.713  0.9867  2.0724  1.9018
 6263SOL    HW230252   3.782   0.434   4.657  1.0629  0.0183  0.8300
 6264SOL     OW30253   1.996   4.335   9.511  0.0758  0.5618  0.0588
 6264SOL    HW130254   1.920   4.351   9.566 -0.5102  0.9877 -0.8734
 6264SOL    HW230255   1.984   4.411   9.454 -1.3392  2.0133  2.2795
 6265SOL     OW30256   2.744   2.277   3.294 -0.1189  0.1011  0.0071
 6265SOL    HW130257   2.767   2.304   3.205 -0.9372  0.8294  0.0127
 6265SOL    HW230258   2.773   2.186   3.289  1.8955  0.7034  0.5925
 6266SOL     OW30259   0.186   1.079   2.851  0.3553  0.7810  0.2863
 6266SOL    HW130260   0.101   1.072   2.807  1.1599  1.0949 -1.3334
 6266SOL    HW230261   0.243   1.076   2.774 -0.5599  0.3961 -0.3753
 6267SOL     OW30262   3.818   3.738   1.792  0.0495  0.2251  0.1747
 6267SOL    HW130263   3.854   3.649   1.785  1.2442  0.8518 -1.4419
 6267SOL    HW230264   3.738   3.727   1.741 -0.4419 -1.5880  1.3152
 6268SOL     OW30265   1.478   4.235   5.583 -0.4287 -0.5776 -0.1923
 6268SOL    HW130266   1.445   4.194   5.664  0.2305 -1.3322 -0.3041
 6268SOL    HW230267   1.440   4.322   5.592 -1.2968 -1.0163  0.4199
 6269SOL     OW30268   4.001   4.602   1.672  0.1367 -0.2860  0.0337
 6269SOL    HW130269   3.932   4.656   1.711  2.3302  2.0382  0.7123
 6269SOL    HW230270   3.956   4.520   1.653 -1.7933  1.1023 -1.3804
 6270SOL     OW30271   1.167   4.373   5.243  0.3733  0.4626 -0.1426
 6270SOL    HW130272   1.213   4.456   5.254  0.7668  0.6919 -3.5650
 6270SOL    HW230273   1.124   4.394   5.160  1.4582 -0.9825 -1.0822
 6271SOL     OW30274   0.463   4.453   3.940  0.0481 -0.0063  0.0293
 6271SOL    HW130275   0.509   4.536   3.946  0.8079 -0.3821 -0.5708
 6271SOL    HW230276   0.435   4.434   4.030  1.6927  0.1031  0.5587
 6272SOL     OW30277   3.563   2.986   5.242 -0.3213 -0.1596  0.0575
 6272SOL    HW130278   3.638   2.982   5.301 -1.3865 -2.3411  1.2662
 6272SOL    HW230279   3.501   3.035   5.297  1.4174 -0.1136  1.9805
 6273SOL     OW30280   0.191   0.296   6.326 -0.0003  0.5528 -0.3479
 6273SOL    HW130281   0.253   0.322   6.257 -1.2245 -0.8575 -1.9601
 6273SOL    HW230282   0.231   0.216   6.359  0.0354 -0.7763 -3.6531
 6274SOL     OW30283   3.298   3.411  15.268  0.3281 -0.5729  0.0484
 6274SOL    HW130284   3.379   3.361  15.256 -0.4191 -1.4879 -1.2707
 6274SOL    HW230285   3.243   3.345  15.225  0.3914  0.0160 -0.9616
 6275SOL     OW30286   3.667   1.503   2.822  0.1531 -0.1497  0.3094
 6275SOL    HW130287   3.639   1.438   2.886 -2.4945 -0.3297 -1.0436
 6275SOL    HW230288   3.757   1.471   2.811 -0.2712 -0.6093 -1.8737
 6276SOL     OW30289   2.972   4.569   6.486  0.5054  0.5317 -0.4585
 6276SOL    HW130290   2.957   4.488   6.436  0.2030  1.2700 -1.5666
 6276SOL    HW230291   2.891   4.617   6.469  0.7157  0.6346 -1.1464
 6277SOL     OW30292   0.385   1.961   6.214  0.3110  0.6335 -0.3783
 6277SOL    HW130293   0.472   1.960   6.254 -1.0934  2.1363  2.6441
 6277SOL    HW230294   0.408   1.969   6.121  1.9506 -3.3874 -0.3690
 6278SOL     OW30295   1.606   3.358  16.776 -0.3254  0.0789  0.3761
 6278SOL    HW130296   1.637   3.320  16.858  2.1137 -1.0973 -1.1133
 6278SOL    HW230297   1.601   3.278  16.724  2.4899 -0.1893  0.5020
 6279SOL     OW30298   3.293   3.609   5.862 -0.0804 -0.5068  0.2927
 6279SOL    HW130299   3.319   3.700   5.844  0.5808 -1.4774 -3.5785
 6279SOL    HW230300   3.374   3.566   5.891 -0.2874 -0.0595  1.5460
 6280SOL     OW30301   2.668   1.494   4.601 -0.2328  0.4101 -0.3752
 6280SOL    HW130302   2.670   1.588   4.618 -0.4087  0.2641  0.4286
 6280SOL    HW230303   2.685   1.495   4.507  1.0879 -2.2463 -0.1613
 6281SOL     OW30304   3.446   0.799  13.170  0.2829  0.5837 -0.3624
 6281SOL    HW130305   3.397   0.844  13.101  1.4165  3.0436  0.4404
 6281SOL    HW230306   3.488   0.732  13.117  1.7650  0.3127  1.1831
 6282SOL     OW30307   2.018   2.930   6.668  0.5220  0.7094  0.0449
 6282SOL    HW130308   1.981   2.853   6.625  0.7037  0.4090  0.4323
 6282SOL    HW230309   1.947   2.965   6.722  1.2334 -0.2601  1.6249
 6283SOL     OW30310   2.727   2.144   6.265  0.0575  0.5993  0.8609
 6283SOL    HW130311   2.672   2.175   6.193  1.6240  0.7207 -0.2911
 6283SOL    HW230312   2.701   2.052   6.257  1.8841  0.2512 -1.0225
 6284SOL     OW30313   2.185   0.790  14.416 -0.0850  0.3224  0.2318
 6284SOL    HW130314   2.193   0.747  14.501 -0.5166  0.1631  0.1893
 6284SOL    HW230315   2.125   0.732  14.369  0.0223 -0.2332  0.7826
 6285SOL     OW30316   3.208   1.626  13.058  0.6038  0.0195  0.2790
 6285SOL    HW130317   3.297   1.628  13.023  0.7476  2.4783  0.7650
 6285SOL    HW230318   3.196   1.533  13.039  0.6379  0.1174 -0.2048
 6286SOL     OW30319   4.133   3.361   2.948 -0.0291  0.5033 -0.0321
 6286SOL    HW130320   4.074   3.395   3.015 -1.1234  0.4977 -0.9928
 6286SOL    HW230321   4.150   3.274   2.986 -0.4775  0.6572  0.5102
 6287SOL     OW30322   3.181   2.994  12.919  0.2499  0.2082  0.0596
 6287SOL    HW130323   3.207   2.923  12.861  0.2414  0.8653 -0.7548
 6287SOL    HW230324   3.132   2.941  12.982 -0.4455  1.1203  0.2921
 6288SOL     OW30325   3.472   1.600  10.488 -0.1699  0.2164 -0.4664
 6288SOL    HW130326   3.423   1.526  10.523  1.3925 -1.1861 -1.2558
 6288SOL    HW230327   3.430   1.606  10.402 -0.7713  1.2650 -0.1068
 6289SOL     OW30328   2.493   3.460   9.153 -0.3443 -0.3747  0.3685
 6289SOL    HW130329   2.544   3.456   9.234  0.5312  2.2250 -0.0737
 6289SOL    HW230330   2.539   3.524   9.099 -2.6540  0.7127 -0.3059
 6290SOL     OW30331   0.738   1.519  14.969  0.1219  0.1588  0.0457
 6290SOL    HW130332   0.830   1.491  14.970  0.5789  1.4993 -3.2977
 6290SOL    HW230333   0.752   1.596  14.915 -1.2610  0.9053  0.7636
 6291SOL     OW30334   4.685   1.925   6.346  0.0339 -0.5662  0.5304
 6291SOL    HW130335   4.702   1.849   6.291  1.4106 -0.1964  0.4354
 6291SOL    HW230336   0.023   1.989   6.309 -1.4667  0.4221 -0.2866
 6292SOL     OW30337   2.324   3.798  11.693  0.2471  0.0310  0.1250
 6292SOL    HW130338   2.393   3.737  11.715  2.1679  1.7874 -1.0165
 6292SOL    HW230339   2.262   3.787  11.765  2.7790 -2.8016  1.8553
 6293SOL     OW30340   1.488   2.163  13.692  0.1707  0.1983  0.3400
 6293SOL    HW130341   1.519   2.206  13.613 -1.4048  0.3389 -0.1967
 6293SOL    HW230342   1.550   2.090  13.697  0.6602  0.6363  0.8155
 6294SOL     OW30343   2.852   3.978   2.811 -0.2627  0.3598 -0.3491
 6294SOL    HW130344   2.902   4.042   2.760 -1.4459  1.3119 -0.3143
 6294SOL    HW230345   2.784   4.042   2.834  1.8407  2.4578  0.0929
 6295SOL     OW30346   1.760   1.519  13.828  0.6109 -0.2711  0.5549
 6295SOL    HW130347   1.768   1.453  13.760 -1.6181 -0.9729  0.9929
 6295SOL    HW230348   1.668   1.522  13.854 -0.0506 -3.6515 -1.4886
 6296SOL     OW30349   1.296   3.694   6.808  0.3447 -0.4879 -0.1584
 6296SOL    HW130350   1.355   3.674   6.880 -0.6003  1.0802  1.0267
 6296SOL    HW230351   1.221   3.707   6.865 -1.0713 -1.8476 -1.6879
 6297SOL     OW30352   1.884   3.376   3.017 -0.2773 -0.3586  0.4525
 6297SOL    HW130353   1.909   3.462   2.983 -2.0448 -0.2135 -0.4498
 6297SOL    HW230354   1.835   3.346   2.941 -0.5323  0.8058  0.1518
 6298SOL     OW30355   4.357   1.878   5.315  0.1570 -0.3823 -0.4864
 6298SOL    HW130356   4.331   1.817   5.384  0.4095  0.2575  0.1733
 6298SOL    HW230357   4.394   1.944   5.375  1.5243  0.0774 -1.8209
 6299SOL     OW30358   2.335   2.558   3.452  0.3792 -0.3230  0.1448
 6299SOL    HW130359   2.268   2.532   3.389  0.1692 -0.6752  0.5068
 6299SOL    HW230360   2.305   2.512   3.531 -0.4569  0.6400  0.3958
 6300SOL     OW30361   0.246   0.720  10.272 -0.3833  0.4270  0.3894
 6300SOL    HW130362   0.244   0.683  10.183  1.1088 -0.7452  0.8440
 6300SOL    HW230363   0.221   0.647  10.330 -0.9961  0.0714 -0.3158
 6301SOL     OW30364   3.294   1.768   7.718  0.5087 -0.4708  0.2044
 6301SOL    HW130365   3.346   1.731   7.646  0.5821  2.5997 -1.3029
 6301SOL    HW230366   3.353   1.745   7.791 -0.8044  0.6278  1.6028
 6302SOL     OW30367   2.775   0.698   5.989  0.1256 -0.2686  0.4067
 6302SOL    HW130368   2.813   0.728   5.907 -0.2398  1.2792  0.8117
 6302SOL    HW230369   2.852   0.711   6.044 -0.3150  0.8688  0.7431
 6303SOL     OW30370   3.606   0.993  13.611 -0.0332 -0.1175  0.6666
 6303SOL    HW130371   3.659   0.930  13.560 -0.4667  0.5193 -0.5754
 6303SOL    HW230372   3.543   0.930  13.645  1.1741 -1.8363 -0.2292
 6304SOL     OW30373   4.274   0.884   0.246  0.3766 -0.0522 -0.8464
 6304SOL    HW130374   4.331   0.911   0.318  1.3978 -0.6258 -1.4377
 6304SOL    HW230375   4.224   0.965   0.243  0.2067 -0.0904  0.7928
 6305SOL     OW30376   2.273   1.602   2.972  0.0062 -0.2763 -0.0683
 6305SOL    HW130377   2.304   1.659   3.042  0.9920  0.0412 -0.7621
 6305SOL    HW230378   2.350   1.552   2.945 -0.1458 -0.2444 -0.5619
 6306SOL     OW30379   1.164   2.878   8.128 -0.5402 -0.0085  0.1797
 6306SOL    HW130380   1.190   2.870   8.219  1.9581  1.1337 -0.4295
 6306SOL    HW230381   1.243   2.917   8.091  0.9008 -1.2478  1.9824
 6307SOL     OW30382   0.752   3.560  12.238  0.2061  0.3332  0.2292
 6307SOL    HW130383   0.680   3.621  12.251 -0.7770 -0.4112 -1.7441
 6307SOL    HW230384   0.755   3.555  12.142  0.1711 -2.0914  0.3399
 6308SOL     OW30385   2.207   2.767   3.658 -0.3340  0.3503  0.5261
 6308SOL    HW130386   2.256   2.733   3.583 -1.8808 -0.7892  0.0085
 6308SOL    HW230387   2.252   2.728   3.733 -1.5368 -2.5169 -0.2166
 6309SOL     OW30388   2.394   3.901  13.480  0.0813  0.2528 -0.2033
 6309SOL    HW130389   2.407   3.820  13.529 -1.4973  0.0440 -0.1470
 6309SOL    HW230390   2.320   3.870  13.429  1.4299 -1.3232 -1.1928
 6310SOL     OW30391   0.737   2.204   7.162  0.3813 -0.0298 -0.0379
 6310SOL    HW130392   0.704   2.140   7.225  0.3870 -0.1899 -0.1986
 6310SOL    HW230393   0.831   2.184   7.161  0.2090 -0.9285  1.9673
 6311SOL     OW30394   1.085   0.331   6.373 -0.4257 -0.0001  0.1942
 6311SOL    HW130395   1.021   0.391   6.335  0.6216 -0.7717 -2.7518
 6311SOL    HW230396   1.064   0.244   6.339 -1.1913  0.7483 -1.2466
 6312SOL     OW30397   3.202   3.206   7.198 -0.0534 -0.5897  0.0780
 6312SOL    HW130398   3.111   3.190   7.171  0.0916 -1.3371  0.0350
 6312SOL    HW230399   3.199   3.287   7.248  0.8821 -1.6901  1.8833
 6313SOL     OW30400   0.880   4.338   8.626 -0.3935  0.1442  0.3148
 6313SOL    HW130401   0.956   4.296   8.666  0.4612  0.4513 -0.9796
 6313SOL    HW230402   0.837   4.255   8.606 -2.3800  1.2737 -0.0729
 6314SOL     OW30403   2.477   2.725   6.791 -0.6129 -0.0281 -0.1927
 6314SOL    HW130404   2.479   2.820   6.783  0.5999 -0.0788 -0.4511
 6314SOL    HW230405   2.400   2.715   6.735 -0.0569  0.8450 -1.0926
 6315SOL     OW30406   0.202   4.454   3.827  0.0949  0.0629 -0.2017
 6315SOL    HW130407   0.137   4.420   3.887 -1.4935 -1.1574 -2.6490
 6315SOL    HW230408   0.284   4.450   3.877 -1.9339  0.7889  3.1803
 6316SOL     OW30409   3.060   4.064   3.011  0.0319  0.1452 -0.0976
 6316SOL    HW130410   3.061   4.023   2.924  0.7317 -4.7304  2.1571
 6316SOL    HW230411   3.099   3.996   3.067 -1.3165  1.2091  2.1073
 6317SOL     OW30412   0.067   2.758   5.921 -0.0842 -0.0292 -0.9132
 6317SOL    HW130413   0.024   2.673   5.925  0.1805 -0.0271  1.7476
 6317SOL    HW230414   0.118   2.745   6.001  0.4832  0.8167 -1.1319
 6318SOL     OW30415   2.053   3.151   6.513  0.6961  0.9943  0.3058
 6318SOL    HW130416   2.059   3.065   6.554 -1.9497  1.0755  0.8265
 6318SOL    HW230417   2.148   3.168   6.511  0.6524  1.2661  0.6228
 6319SOL     OW30418   1.966   1.642   3.823 -0.3190  0.0194 -0.0767
 6319SOL    HW130419   1.960   1.584   3.899  0.8594  0.6385  0.4774
 6319SOL    HW230420   2.036   1.705   3.837 -0.1688 -0.4067  1.1084
 6320SOL     OW30421   4.191   3.196   2.725  0.1226  0.3648 -0.2692
 6320SOL    HW130422   4.280   3.165   2.708 -0.3760  0.1508 -2.4604
 6320SOL    HW230423   4.141   3.115   2.716  0.2725  0.0502  1.6957
 6321SOL     OW30424   4.334   2.280   3.529 -0.2472  0.0533  0.3938
 6321SOL    HW130425   4.294   2.238   3.453 -0.2694  1.4721 -0.3874
 6321SOL    HW230426   4.427   2.256   3.523 -0.4148 -0.8540  1.4584
 6322SOL     OW30427   0.384   0.783   8.812  0.0084  0.0439 -0.4388
 6322SOL    HW130428   0.320   0.714   8.826 -0.6392  0.4983 -1.1316
 6322SOL    HW230429   0.432   0.760   8.732  0.4462  0.5626 -0.3317
 6323SOL     OW30430   1.552   0.122   4.038 -0.1251  0.0248  1.2346
 6323SOL    HW130431   1.559   0.028   4.024  0.1287 -0.0396  1.8191
 6323SOL    HW230432   1.643   0.151   4.044 -0.4967  0.8920  2.6678
 6324SOL     OW30433   1.696   2.100   0.850 -0.0199  0.4386 -0.2692
 6324SOL    HW130434   1.640   2.174   0.826  1.2926  1.5806  0.2205
 6324SOL    HW230435   1.675   2.072   0.939 -0.1866 -2.1708 -1.1060
 6325SOL     OW30436   3.081   2.796  17.563  0.5230 -0.1247 -1.0474
 6325SOL    HW130437   3.074   2.736  17.489  0.8935  0.4903 -1.5834
 6325SOL    HW230438   3.131   2.753  17.633  0.6951  1.6271 -0.0916
 6326SOL     OW30439   1.153   3.346   8.495  0.3629  0.3432  0.1125
 6326SOL    HW130440   1.177   3.263   8.537  0.7282  1.3754  1.9614
 6326SOL    HW230441   1.138   3.326   8.403  1.8922 -0.3332  0.0109
 6327SOL     OW30442   4.289   4.086  14.045  0.1247 -0.4869 -0.2577
 6327SOL    HW130443   4.352   4.151  14.074 -0.6021 -0.0145  0.2581
 6327SOL    HW230444   4.224   4.142  14.004 -0.2103 -1.4561 -1.0505
 6328SOL     OW30445   3.092   3.973   2.516  0.3947 -0.3158  0.3588
 6328SOL    HW130446   3.064   3.882   2.512 -0.5482 -0.0038 -0.0667
 6328SOL    HW230447   3.120   3.982   2.425  1.5358 -0.3729  0.7085
 6329SOL     OW30448   2.034   0.377   9.196  0.2664 -0.3751 -0.1915
 6329SOL    HW130449   1.999   0.295   9.162  1.4027 -1.5836  1.5836
 6329SOL    HW230450   1.966   0.411   9.255  1.5560  0.8413  0.5890
 6330SOL     OW30451   1.914   3.889   8.829  0.5264  0.2585  0.5931
 6330SOL    HW130452   1.976   3.819   8.810  1.2287  1.1399 -0.3869
 6330SOL    HW230453   1.964   3.942   8.892 -1.6291  0.9091  1.7498
 6331SOL     OW30454   3.537   1.639   7.772 -0.3304 -0.1857  0.2192
 6331SOL    HW130455   3.506   1.624   7.682  0.3309 -1.5509  0.2224
 6331SOL    HW230456   3.589   1.563   7.798 -1.3858 -0.2517  2.0911
 6332SOL     OW30457   0.429   3.252  16.257  0.1173  0.0753 -0.3053
 6332SOL    HW130458   0.480   3.212  16.327  0.9497  0.5713 -0.6200
 6332SOL    HW230459   0.401   3.179  16.202  3.0820  0.6200 -2.5779
 6333SOL     OW30460   1.456   0.558   7.353 -0.3512  0.3617 -0.9717
 6333SOL    HW130461   1.480   0.497   7.284  1.5106 -1.0284  0.9011
 6333SOL    HW230462   1.361   0.574   7.347 -0.2736 -0.2411 -3.6061
 6334SOL     OW30463   3.369   3.373   1.381 -0.0943  0.3552  0.0789
 6334SOL    HW130464   3.368   3.469   1.382  1.3788  0.3223  2.8601
 6334SOL    HW230465   3.323   3.357   1.463  1.8520  1.2257  1.3310
 6335SOL     OW30466   0.621   1.595   4.565 -0.1256  0.4564 -0.2169
 6335SOL    HW130467   0.585   1.546   4.490  2.8509  0.9427 -1.9683
 6335SOL    HW230468   0.547   1.596   4.625 -0.9597  1.6102 -1.2662
 6336SOL     OW30469   2.641   4.128   5.369  0.0409  1.4388  0.4472
 6336SOL    HW130470   2.562   4.181   5.377 -0.7779  0.4861 -1.2322
 6336SOL    HW230471   2.599   4.042   5.376 -0.1921  1.4779 -0.5406
 6337SOL     OW30472   2.753   4.686   7.221  0.1623 -0.4583  0.3090
 6337SOL    HW130473   2.741   4.621   7.152 -0.6925  0.7928 -0.7178
 6337SOL    HW230474   2.689   4.652   7.283 -1.8097  0.8898 -0.9933
 6338SOL     OW30475   1.162   2.343   4.553  0.1766 -0.2487 -0.4422
 6338SOL    HW130476   1.227   2.386   4.609 -0.7993  2.7054 -1.5899
 6338SOL    HW230477   1.131   2.426   4.516  0.6770  1.3510  2.6312
 6339SOL     OW30478   0.051   2.515  15.403 -0.2198  0.3193 -0.0698
 6339SOL    HW130479   4.697   2.466  15.376 -0.5140  2.4089 -2.9582
 6339SOL    HW230480   0.029   2.606  15.383  1.2216  0.8681  0.8453
 6340SOL     OW30481   0.395   3.531  15.856 -0.2422  0.3285  0.2447
 6340SOL    HW130482   0.338   3.608  15.857  0.2600  0.6754  2.7112
 6340SOL    HW230483   0.444   3.542  15.937 -0.2405  2.0149  0.0017
 6341SOL     OW30484   4.015   4.376   1.466 -0.7685 -0.0219 -0.2769
 6341SOL    HW130485   4.016   4.306   1.401  0.8911 -0.0915 -0.1855
 6341SOL    HW230486   3.963   4.443   1.422  1.7964  1.1206 -1.6001
 6342SOL     OW30487   3.319   3.667  15.347 -0.0062 -0.4562  0.3580
 6342SOL    HW130488   3.338   3.682  15.254  2.1696 -0.2928  0.8544
 6342SOL    HW230489   3.315   3.571  15.342  1.4482 -0.4784 -0.2721
 6343SOL     OW30490   4.079   4.266   5.562  0.6920 -0.1415  0.5171
 6343SOL    HW130491   4.037   4.228   5.485  4.2543  1.0290 -2.0027
 6343SOL    HW230492   4.123   4.187   5.595  1.3710 -0.2049 -0.5498
 6344SOL     OW30493   1.804   0.348  10.084  0.0312 -0.2739 -0.8170
 6344SOL    HW130494   1.894   0.362  10.114 -0.2555 -0.5114  0.1489
 6344SOL    HW230495   1.792   0.254  10.097 -0.8694 -0.2891 -1.7919
 6345SOL     OW30496   3.731   1.113   5.049  0.2685  0.6816  0.7164
 6345SOL    HW130497   3.817   1.118   5.008 -0.1562  2.2364  0.0373
 6345SOL    HW230498   3.758   1.066   5.129 -0.2318 -2.4821 -0.9783
 6346SOL     OW30499   1.229   4.170   4.472 -0.6506 -0.2122 -0.6846
 6346SOL    HW130500   1.140   4.185   4.443 -0.2018  1.1624 -1.3496
 6346SOL    HW230501   1.234   4.076   4.491  0.1202  0.2190  1.2977
 6347SOL     OW30502   2.359   1.399   1.758  0.2797  0.1064 -0.3342
 6347SOL    HW130503   2.302   1.473   1.778  0.8331  0.5347 -0.3625
 6347SOL    HW230504   2.332   1.376   1.669  0.7757  2.0269 -0.9834
 6348SOL     OW30505   0.904   0.762  15.086 -0.2037 -0.2297  0.0957
 6348SOL    HW130506   0.911   0.678  15.131 -1.3452 -0.4062 -0.0632
 6348SOL    HW230507   0.993   0.768  15.050 -0.5652 -0.8448 -0.9062
 6349SOL     OW30508   4.448   1.739   3.521 -0.1129 -0.0351  0.6237
 6349SOL    HW130509   4.459   1.696   3.606 -0.1026 -0.6165  0.3274
 6349SOL    HW230510   4.399   1.815   3.551 -0.4370 -0.8969  2.2973
 6350SOL     OW30511   4.387   3.016   2.011  0.1407 -0.2497  0.0220
 6350SOL    HW130512   4.418   2.937   1.967  2.1690 -0.5418  1.9882
 6350SOL    HW230513   4.353   2.988   2.096 -0.2114  1.1936  0.3527
 6351SOL     OW30514   2.182   3.339   9.366 -0.1725  0.2371  0.0604
 6351SOL    HW130515   2.220   3.391   9.437  0.3004  0.4979 -0.3830
 6351SOL    HW230516   2.164   3.257   9.413  0.5740  0.1352  0.1767
 6352SOL     OW30517   2.254   1.033   6.420 -0.0858  0.3644 -0.1741
 6352SOL    HW130518   2.337   1.070   6.390  0.9211 -0.9628  0.9604
 6352SOL    HW230519   2.254   0.949   6.373 -3.3478  0.3823 -0.1593
 6353SOL     OW30520   1.060   0.293   0.619 -0.4199  0.1207 -0.0416
 6353SOL    HW130521   0.997   0.365   0.626  0.7045  1.0109  0.9446
 6353SOL    HW230522   1.060   0.279   0.525  4.2703 -0.1995  0.0076
 6354SOL     OW30523   0.085   3.456  13.744  0.6399 -0.6261 -0.3903
 6354SOL    HW130524   4.714   3.457  13.736  0.4983 -1.2429  1.1872
 6354SOL    HW230525   0.101   3.403  13.666 -0.9120 -0.4235 -0.8300
 6355SOL     OW30526   4.360   2.429   8.717  0.0801 -0.2593 -0.4100
 6355SOL    HW130527   4.430   2.372   8.750 -1.1260 -1.7786 -0.4458
 6355SOL    HW230528   4.355   2.393   8.629  1.0369  1.0610 -0.9995
 6356SOL     OW30529   4.184   4.653   9.885 -0.0467 -0.2084 -0.4680
 6356SOL    HW130530   4.234   4.722   9.840  0.3051 -0.1459  0.0268
 6356SOL    HW230531   4.224   4.652   9.972  0.1201 -0.3029 -0.5446
 6357SOL     OW30532   2.085   3.114   2.666 -0.2598 -0.3195  0.0081
 6357SOL    HW130533   2.005   3.089   2.620  1.6933 -1.5431 -2.6882
 6357SOL    HW230534   2.136   3.033   2.667 -0.0391 -0.1644  1.4776
 6358SOL     OW30535   3.429   1.310   2.846  0.8109 -0.2764  0.4093
 6358SOL    HW130536   3.341   1.336   2.872  0.0299 -0.3765 -2.1035
 6358SOL    HW230537   3.416   1.215   2.851 -0.0398 -0.1589  0.4568
 6359SOL     OW30538   0.428   2.436   6.980 -0.1372 -0.0681  0.7741
 6359SOL    HW130539   0.474   2.352   6.973 -0.9277 -0.5320  1.2078
 6359SOL    HW230540   0.342   2.415   6.945  0.0973  1.2284 -0.5917
 6360SOL     OW30541   3.260   3.305  11.123 -0.1873 -0.2880  0.2601
 6360SOL    HW130542   3.309   3.387  11.129 -0.3943 -0.1084 -0.3867
 6360SOL    HW230543   3.305   3.266  11.048 -0.4426 -0.4529  0.1911
 6361SOL     OW30544   2.943   1.233   4.954 -0.0357 -0.0903 -0.1718
 6361SOL    HW130545   2.849   1.234   4.974  0.0899 -2.5679  0.4806
 6361SOL    HW230546   2.971   1.148   4.989 -0.5106  0.3927  1.3873
 6362SOL     OW30547   2.334   3.134   4.189 -0.6278  0.3009  0.0951
 6362SOL    HW130548   2.265   3.199   4.177  0.4429  1.1352 -1.4135
 6362SOL    HW230549   2.359   3.106   4.101  0.3742  2.8113 -0.3932
 6363SOL     OW30550   0.027   2.884  12.059  0.9746 -0.4340  0.7261
 6363SOL    HW130551   0.050   2.932  11.980  1.1417 -1.1071  0.3707
 6363SOL    HW230552   0.023   2.954  12.125 -0.0294 -1.0772  1.3503
 6364SOL     OW30553   3.321   2.209  11.350  0.6046  0.3775 -0.1408
 6364SOL    HW130554   3.274   2.291  11.333 -2.4009 -1.9371 -3.1249
 6364SOL    HW230555   3.295   2.205  11.442  3.0097  0.0839  0.5042
 6365SOL     OW30556   0.567   2.979  16.154  0.2047  0.3208  0.1119
 6365SOL    HW130557   0.588   2.978  16.061 -0.6627  0.2833 -0.0813
 6365SOL    HW230558   0.473   2.996  16.143  0.1536  0.1199  0.2242
 6366SOL     OW30559   3.580   2.297   9.533 -0.3098 -0.6190 -0.0211
 6366SOL    HW130560   3.635   2.282   9.611 -2.0814 -0.6533  1.2088
 6366SOL    HW230561   3.606   2.223   9.478  0.7422  1.1904 -1.9636
 6367SOL     OW30562   4.692   2.216  14.635  0.2714  0.0235  0.3562
 6367SOL    HW130563   4.696   2.306  14.601  2.8763  0.0538  0.6765
 6367SOL    HW230564   4.602   2.209  14.666  0.6763  1.4605  1.8882
 6368SOL     OW30565   4.578   0.325   0.680 -0.6463 -0.1945  0.6422
 6368SOL    HW130566   4.556   0.288   0.766 -0.6217 -0.1314  0.6755
 6368SOL    HW230567   4.633   0.401   0.697 -1.5256  0.7159 -0.5638
 6369SOL     OW30568   0.599   4.381   6.649 -0.2270  0.2723 -0.1792
 6369SOL    HW130569   0.579   4.351   6.738  0.3702  1.8536  0.4796
 6369SOL    HW230570   0.560   4.306   6.604 -0.7430  0.3979  0.0584
 6370SOL     OW30571   1.917   1.548  14.056 -0.3950 -0.2207  0.0859
 6370SOL    HW130572   1.858   1.560  13.982  1.0373 -0.7075 -1.1347
 6370SOL    HW230573   1.867   1.490  14.114 -1.8427  1.0440  0.0865
 6371SOL     OW30574   0.292   0.961  13.689  0.0778 -0.0265  0.4734
 6371SOL    HW130575   0.335   1.046  13.700 -1.5333  0.8419  0.2072
 6371SOL    HW230576   0.255   0.949  13.777 -2.4056 -1.0307 -0.7013
 6372SOL     OW30577   2.664   3.801  17.464  0.3425 -0.4510  0.4141
 6372SOL    HW130578   2.683   3.885  17.422 -1.1777  0.0867  0.7897
 6372SOL    HW230579   2.665   3.825  17.557 -0.3974 -1.7135  0.7491
 6373SOL     OW30580   2.655   1.838   6.276 -0.2335  0.7397  0.0431
 6373SOL    HW130581   2.596   1.776   6.319  0.8408 -1.3865 -1.6222
 6373SOL    HW230582   2.739   1.797   6.294 -0.7000 -1.0880 -2.0803
 6374SOL     OW30583   4.228   0.033  14.006  0.0391  0.1806 -0.0405
 6374SOL    HW130584   4.309   4.722  13.969 -2.4416 -0.5650 -4.7820
 6374SOL    HW230585   4.166   0.012  13.936 -2.6215 -3.4692  3.4371
 6375SOL     OW30586   0.823   2.296   4.719 -0.2275  0.1768  0.9202
 6375SOL    HW130587   0.794   2.231   4.656  0.7895 -0.7831  1.4387
 6375SOL    HW230588   0.910   2.262   4.742 -0.2889 -0.9231 -0.4808
 6376SOL     OW30589   0.702   3.181   2.414  0.3490 -0.0334 -0.0771
 6376SOL    HW130590   0.698   3.264   2.366  0.4365  0.4186  0.6940
 6376SOL    HW230591   0.791   3.151   2.395  0.3694  0.1865 -0.3242
 6377SOL     OW30592   1.238   1.717   6.346 -0.5438 -0.3669 -0.5196
 6377SOL    HW130593   1.321   1.765   6.340  0.0234 -1.2236  0.3841
 6377SOL    HW230594   1.223   1.716   6.441  1.6203  0.8841 -0.1689
 6378SOL     OW30595   4.567   3.213   1.967 -0.3005 -0.2310  0.0098
 6378SOL    HW130596   4.493   3.156   1.986 -1.1823  0.8110 -0.2562
 6378SOL    HW230597   4.630   3.141   1.961  1.4023  1.3848 -1.6543
 6379SOL     OW30598   2.620   3.962   4.958 -0.2334 -0.5275  0.2988
 6379SOL    HW130599   2.591   4.023   5.025 -1.4399 -1.3498  0.5418
 6379SOL    HW230600   2.535   3.928   4.928 -0.2531  0.0472 -0.2964
 6380SOL     OW30601   1.255   2.251   2.442 -0.1874  0.3602 -0.5850
 6380SOL    HW130602   1.210   2.246   2.357 -2.1312  1.1223  0.4022
 6380SOL    HW230603   1.198   2.316   2.482 -0.4132 -0.9879  1.2854
 6381SOL     OW30604   2.669   0.828   6.440  0.2479  0.2139  0.3897
 6381SOL    HW130605   2.682   0.735   6.420  2.5095  0.7110 -0.5320
 6381SOL    HW230606   2.651   0.826   6.534  0.7278  0.6517  0.4914
 6382SOL     OW30607   2.483   4.608   3.204 -0.6397  0.2018 -0.3442
 6382SOL    HW130608   2.445   4.645   3.284 -1.2387 -0.7552 -0.1898
 6382SOL    HW230609   2.532   4.531   3.232 -1.6555  0.0901  1.1202
 6383SOL     OW30610   3.354   0.723  13.996 -0.0282 -0.3163 -0.0900
 6383SOL    HW130611   3.340   0.681  13.911  1.5718  2.0419 -1.5037
 6383SOL    HW230612   3.278   0.689  14.043  1.2789 -1.3245  1.3084
 6384SOL     OW30613   3.517   0.966   4.707  0.1576 -0.4856  0.0237
 6384SOL    HW130614   3.552   0.930   4.625  1.4250  0.6383  0.0606
 6384SOL    HW230615   3.554   0.909   4.774  1.2510  1.0133  0.7177
 6385SOL     OW30616   0.902   1.851   3.470 -0.3362 -0.5298 -0.1492
 6385SOL    HW130617   0.817   1.887   3.443  0.0974 -0.2946 -1.2104
 6385SOL    HW230618   0.899   1.766   3.426 -1.5466 -0.0554 -1.0054
 6386SOL     OW30619   1.268   1.090   2.747  0.1960 -0.5039  0.3676
 6386SOL    HW130620   1.244   1.155   2.680  0.7512 -0.6694  0.0106
 6386SOL    HW230621   1.196   1.028   2.734 -0.1377  0.6143 -3.1732
 6387SOL     OW30622   0.691   3.334   9.601  0.1182  0.0196 -0.2115
 6387SOL    HW130623   0.757   3.304   9.539 -0.3163  2.2183 -1.7434
 6387SOL    HW230624   0.644   3.256   9.629  0.2793  0.4605  1.3166
 6388SOL     OW30625   0.959   3.479   2.925 -0.2075 -0.0421 -0.0400
 6388SOL    HW130626   1.040   3.431   2.942 -0.1323  0.9497  2.3485
 6388SOL    HW230627   0.962   3.554   2.984 -1.6908 -0.4195  0.4967
 6389SOL     OW30628   3.112   3.974   6.535 -0.6191 -0.5094 -0.5578
 6389SOL    HW130629   3.203   3.993   6.558 -0.6972 -0.4193 -0.3314
 6389SOL    HW230630   3.127   3.888   6.494  0.1002 -0.8986  0.5250
 6390SOL     OW30631   1.118   1.872   7.468 -0.2333  0.0257  0.5066
 6390SOL    HW130632   1.050   1.931   7.500 -1.2893  0.0291 -1.7529
 6390SOL    HW230633   1.092   1.796   7.521 -1.9940  1.7936  2.1489
 6391SOL     OW30634   0.525   0.608   6.522 -0.0760  0.6421 -0.0950
 6391SOL    HW130635   0.447   0.558   6.544  0.4492  1.0234  2.6078
 6391SOL    HW230636   0.591   0.568   6.578 -0.5886  0.8338  0.6494
 6392SOL     OW30637   0.387   4.700   8.940  0.0899  0.7204  0.4217
 6392SOL    HW130638   0.360   4.658   8.859 -0.1364  1.6146  0.0378
 6392SOL    HW230639   0.330   0.052   8.947 -2.1261 -0.9285  0.5875
 6393SOL     OW30640   3.065   0.944   2.469  0.5925 -0.3837  0.1421
 6393SOL    HW130641   3.140   0.910   2.519  0.9790  0.4628  0.1333
 6393SOL    HW230642   3.002   0.927   2.538 -0.1491 -1.9410 -0.9082
 6394SOL     OW30643   3.442   3.528   0.642 -0.5920 -0.5303 -0.0717
 6394SOL    HW130644   3.426   3.487   0.557 -1.2084 -1.7004  0.6013
 6394SOL    HW230645   3.360   3.571   0.667 -0.6904 -0.9816  0.3878
 6395SOL     OW30646   1.509   1.495   8.377  0.3447 -0.0085  0.2095
 6395SOL    HW130647   1.455   1.427   8.416 -0.5560  1.1411  0.9283
 6395SOL    HW230648   1.597   1.460   8.396  0.4509  1.0904  1.6937
 6396SOL     OW30649   0.024   1.461   6.263 -0.7092  0.0370  0.1745
 6396SOL    HW130650   0.012   1.553   6.242  2.2731  1.2538  3.6947
 6396SOL    HW230651   0.080   1.460   6.341 -2.8923 -2.0640  1.7114
 6397SOL     OW30652   3.494   4.276   6.083  0.1298 -0.2263 -0.3292
 6397SOL    HW130653   3.429   4.333   6.043  1.4619  2.6499  1.6058
 6397SOL    HW230654   3.509   4.316   6.169 -1.2010  1.0136 -0.6774
 6398SOL     OW30655   3.195   4.338   3.568  0.5807  0.1078  0.2917
 6398SOL    HW130656   3.219   4.259   3.616  0.3587  0.4878  1.0417
 6398SOL    HW230657   3.209   4.316   3.476 -1.5726  1.2310 -0.3064
 6399SOL     OW30658   0.808   3.416  16.209  0.2267  0.0074  0.3534
 6399SOL    HW130659   0.751   3.382  16.141  0.4256 -0.1331  0.2564
 6399SOL    HW230660   0.858   3.482  16.161 -1.5327  2.4541  1.8628
 6400SOL     OW30661   1.097   1.393   8.603  0.2822  0.1897 -0.4203
 6400SOL    HW130662   1.008   1.405   8.636 -0.3425 -1.1456 -1.6247
 6400SOL    HW230663   1.153   1.418   8.677 -1.0443 -0.0079  0.6454
 6401SOL     OW30664   2.556   0.220   0.379 -0.0879  0.1974 -0.4278
 6401SOL    HW130665   2.529   0.308   0.406 -2.3933 -0.6447  0.0374
 6401SOL    HW230666   2.484   0.188   0.324  1.0687 -0.1095 -1.7760
 6402SOL     OW30667   2.287   2.770  16.479  0.1376 -0.3443 -0.0847
 6402SOL    HW130668   2.239   2.738  16.403  3.2352 -1.7868 -1.4481
 6402SOL    HW230669   2.310   2.859  16.454 -0.0855  0.1576  1.4948
 6403SOL     OW30670   1.528   4.515   3.026  0.3671  0.2962  0.2735
 6403SOL    HW130671   1.578   4.589   3.060  3.0381 -1.6098  0.4660
 6403SOL    HW230672   1.478   4.478   3.098 -0.9123  2.2183  0.3619
 6404SOL     OW30673   0.659   2.359   5.214 -0.5110  0.1868 -0.0828
 6404SOL    HW130674   0.633   2.284   5.267 -1.0542  1.0027  0.8060
 6404SOL    HW230675   0.620   2.336   5.129 -1.3970  0.4935  0.2436
 6405SOL     OW30676   1.602   3.478   3.781 -0.7986 -0.1238  0.5984
 6405SOL    HW130677   1.579   3.571   3.787 -0.4741 -0.0925  1.3758
 6405SOL    HW230678   1.519   3.442   3.813 -0.8359  0.3914  1.0797
 6406SOL     OW30679   1.980   2.333  17.123  0.2746  0.0163 -0.1054
 6406SOL    HW130680   2.005   2.406  17.180 -0.8531  1.7743 -1.8332
 6406SOL    HW230681   1.955   2.267  17.188  0.8352  2.0920  2.2270
 6407SOL     OW30682   1.224   0.127   4.159 -0.1064  0.6776 -0.8849
 6407SOL    HW130683   1.134   0.102   4.135  0.1625 -0.7103 -0.4672
 6407SOL    HW230684   1.274   0.109   4.079  1.4675 -0.5219  0.3717
 6408SOL     OW30685   1.004   4.001  14.718 -0.4485  0.3499  0.7013
 6408SOL    HW130686   1.055   4.072  14.679  3.2419 -1.5810  1.9850
 6408SOL    HW230687   1.011   4.021  14.811  1.5640  0.5090  0.5267
 6409SOL     OW30688   0.627   4.626   9.654  0.2437 -0.5719  0.3889
 6409SOL    HW130689   0.602   4.690   9.588  2.0606  0.6092  0.8118
 6409SOL    HW230690   0.558   4.562   9.637  0.8753 -1.8536  2.5375
 6410SOL     OW30691   1.601   3.004  12.504  0.1371  0.3565 -0.5769
 6410SOL    HW130692   1.632   3.090  12.478 -0.8689  1.6513  2.4964
 6410SOL    HW230693   1.600   2.963  12.418  2.3296  2.4357 -1.5889
 6411SOL     OW30694   2.239   3.704   2.769 -0.0840 -0.6941 -0.0459
 6411SOL    HW130695   2.216   3.663   2.685 -1.4579 -1.4752  0.7129
 6411SOL    HW230696   2.282   3.636   2.819  0.8323 -0.6180 -0.7269
 6412SOL     OW30697   0.139   2.730  14.835 -0.2782  0.0230  0.3854
 6412SOL    HW130698   0.230   2.702  14.835 -0.0028  0.9174  2.6257
 6412SOL    HW230699   0.127   2.779  14.917 -1.2781 -2.0575  1.4845
 6413SOL     OW30700   0.779   1.528   4.238 -0.2313 -0.4566 -0.4046
 6413SOL    HW130701   0.687   1.530   4.210 -1.2524 -1.9410  2.8772
 6413SOL    HW230702   0.816   1.490   4.158 -0.9097 -0.8162 -0.5477
 6414SOL     OW30703   0.704   1.732   9.626 -0.3075  0.2374  0.3872
 6414SOL    HW130704   0.709   1.820   9.587 -3.2123  0.7759  1.2627
 6414SOL    HW230705   0.638   1.752   9.692  1.5139 -0.6113  2.4663
 6415SOL     OW30706   1.023   3.196  17.645 -0.6850  0.1548  0.2527
 6415SOL    HW130707   0.998   3.275  17.598 -1.1438  0.1918  0.5674
 6415SOL    HW230708   1.068   3.137  17.585 -2.8177  0.8371 -1.9775
 6416SOL     OW30709   2.924   0.028   6.215  0.0877  0.3792 -0.6263
 6416SOL    HW130710   2.837   0.046   6.181  0.9605  1.9887 -1.9662
 6416SOL    HW230711   2.935   0.087   6.290  0.3146 -0.6510  0.1549
 6417SOL     OW30712   2.881   1.129  10.232  0.0349 -0.5284  0.6837
 6417SOL    HW130713   2.859   1.222  10.229  0.9488 -0.2797  1.6476
 6417SOL    HW230714   2.916   1.114  10.144  1.2150  3.5110  0.4514
 6418SOL     OW30715   0.634   3.046   9.193 -0.5166  0.0988  0.3715
 6418SOL    HW130716   0.665   3.136   9.177  1.4972 -0.7225 -0.3303
 6418SOL    HW230717   0.631   3.012   9.104 -1.3545  1.5786 -0.1807
 6419SOL     OW30718   4.368   3.230   6.413 -0.6803  0.6730 -0.1652
 6419SOL    HW130719   4.422   3.188   6.346  0.8717  0.6331  1.1052
 6419SOL    HW230720   4.421   3.309   6.418  0.9138 -0.4243  0.3881
 6420SOL     OW30721   1.301   4.057   8.713 -0.4294  0.0863 -0.1768
 6420SOL    HW130722   1.352   4.086   8.789  0.4525  1.2565 -1.2327
 6420SOL    HW230723   1.356   4.082   8.639 -2.3448 -1.4903 -2.1502
 6421SOL     OW30724   0.343   3.998   5.587  0.1394 -0.1994  0.2051
 6421SOL    HW130725   0.303   3.922   5.546  1.4327 -0.9510  0.3499
 6421SOL    HW230726   0.289   4.018   5.664 -1.1291 -0.5271 -0.5851
 6422SOL     OW30727   3.194   3.915   2.266  0.8682  0.5732 -0.7632
 6422SOL    HW130728   3.126   3.849   2.257 -0.1762  1.5155  0.2889
 6422SOL    HW230729   3.223   3.922   2.175 -0.6645  0.3917 -1.2513
 6423SOL     OW30730   2.189   3.446   8.782 -0.2824  0.1493 -0.2858
 6423SOL    HW130731   2.101   3.434   8.816  0.3038 -0.1981  1.1081
 6423SOL    HW230732   2.239   3.428   8.862 -0.6376  0.6119  0.0373
 6424SOL     OW30733   4.264   4.402   4.880 -0.5538 -0.4196 -0.4124
 6424SOL    HW130734   4.187   4.370   4.833 -2.1367  2.5621  0.1444
 6424SOL    HW230735   4.249   4.363   4.965  1.5835  0.3817  0.3428
 6425SOL     OW30736   1.646   4.238   6.399  0.1768 -0.7834 -0.1332
 6425SOL    HW130737   1.711   4.305   6.420 -1.4240  0.3169  1.2346
 6425SOL    HW230738   1.616   4.218   6.487  1.5345  1.8114  0.9130
 6426SOL     OW30739   1.391   4.277   3.671 -0.4820  0.4573  0.2997
 6426SOL    HW130740   1.297   4.262   3.661 -0.6551  1.8096 -0.1243
 6426SOL    HW230741   1.424   4.239   3.589  1.0489  1.2027  0.5706
 6427SOL     OW30742   2.220   3.402   7.130 -0.5042  0.1894 -0.3558
 6427SOL    HW130743   2.136   3.401   7.083 -0.6317 -1.5150 -0.0735
 6427SOL    HW230744   2.193   3.379   7.219 -1.0663  1.9211 -0.0706
 6428SOL     OW30745   0.926   1.162   7.072  0.6171 -0.4693  0.4204
 6428SOL    HW130746   0.879   1.122   7.145  1.4120 -1.5308  0.3651
 6428SOL    HW230747   0.937   1.086   7.014  0.3366  0.7118 -1.1854
 6429SOL     OW30748   3.620   2.843   0.216 -0.0092  0.1627 -0.1654
 6429SOL    HW130749   3.551   2.900   0.249  0.9701  0.5928  1.1271
 6429SOL    HW230750   3.606   2.772   0.279  0.4733  0.0986 -0.1329
 6430SOL     OW30751   1.968   2.187   6.123  0.5923 -0.4429  0.4861
 6430SOL    HW130752   2.046   2.143   6.158  0.1698 -0.7326  1.0725
 6430SOL    HW230753   2.004   2.226   6.043  0.5405  1.2110  1.2619
 6431SOL     OW30754   3.254   2.472   7.801  0.1226 -0.1495 -0.2814
 6431SOL    HW130755   3.303   2.527   7.741  1.2011  0.6203  1.2939
 6431SOL    HW230756   3.169   2.455   7.762 -0.1847  1.0279 -0.1280
 6432SOL     OW30757   4.259   2.720   7.940 -0.0068 -0.0952  0.0358
 6432SOL    HW130758   4.343   2.739   7.980 -0.2066  0.2288  0.2980
 6432SOL    HW230759   4.280   2.705   7.848  1.7650  1.2837  0.2264
 6433SOL     OW30760   2.309   0.688   7.126  0.4981 -0.5330 -0.0318
 6433SOL    HW130761   2.219   0.714   7.144  1.1137  0.7895  1.0766
 6433SOL    HW230762   2.348   0.705   7.212  2.6430  3.1978 -1.7361
 6434SOL     OW30763   1.047   2.302  17.589  0.5902  0.7543  0.4039
 6434SOL    HW130764   1.012   2.386  17.620 -2.0380 -0.4317  0.6752
 6434SOL    HW230765   1.064   2.328  17.498 -2.4267  0.4309 -0.2700
 6435SOL     OW30766   3.904   4.421   5.303 -0.8873 -0.2271 -0.4760
 6435SOL    HW130767   3.930   4.330   5.314  1.8729  0.5060 -0.7670
 6435SOL    HW230768   3.978   4.479   5.323 -1.0774 -0.2495  0.2994
 6436SOL     OW30769   0.429   2.765   0.674  0.0182  0.3173  0.4433
 6436SOL    HW130770   0.441   2.687   0.728 -1.3295 -0.9390 -1.1103
 6436SOL    HW230771   0.445   2.837   0.735  2.4737  0.8228 -0.7979
 6437SOL     OW30772   0.236   4.116   5.833 -0.5559  0.3553  0.0071
 6437SOL    HW130773   0.196   4.136   5.917  1.3630  2.6839  0.3630
 6437SOL    HW230774   0.329   4.126   5.855  0.1782 -0.2263 -2.8464
 6438SOL     OW30775   1.449   0.553  17.645  0.0324 -0.0221  0.1751
 6438SOL    HW130776   1.473   0.585  17.558 -1.6486  1.4665  0.2610
 6438SOL    HW230777   1.379   0.491  17.628 -0.6553  0.5480  0.9076
 6439SOL     OW30778   1.011   2.659   8.034  0.3544  1.0673  0.0746
 6439SOL    HW130779   1.047   2.583   8.078 -0.4988  1.0088  0.6672
 6439SOL    HW230780   1.061   2.731   8.072  1.4985 -0.5811  1.6757
 6440SOL     OW30781   0.097   3.968   2.042  0.3102 -0.3223 -0.2806
 6440SOL    HW130782   0.098   3.881   2.001 -3.2424 -0.7833  0.5707
 6440SOL    HW230783   0.063   4.025   1.974  0.5730 -0.0796 -0.2054
 6441SOL     OW30784   0.723   3.366   7.457  0.0003  0.0245 -0.2649
 6441SOL    HW130785   0.656   3.411   7.509  0.3512 -0.1323  0.3260
 6441SOL    HW230786   0.721   3.277   7.495 -1.0346  0.3664  0.5077
 6442SOL     OW30787   0.179   1.161   6.210  0.5059  0.1574 -0.7757
 6442SOL    HW130788   0.216   1.176   6.123 -1.6537 -0.4421 -1.8147
 6442SOL    HW230789   0.257   1.164   6.266  0.3259  1.0664 -0.5767
 6443SOL     OW30790   0.299   2.358   4.929  0.0874  0.2256  0.5490
 6443SOL    HW130791   0.319   2.397   5.015 -0.4742 -1.7925  1.5827
 6443SOL    HW230792   0.280   2.425   4.863  2.7888  1.2844  0.8350
 6444SOL     OW30793   3.934   2.754   2.994 -0.9318 -0.0224 -0.0513
 6444SOL    HW130794   4.014   2.805   2.979 -0.4708 -0.3549  1.2489
 6444SOL    HW230795   3.964   2.667   2.971  0.7860  0.8523 -1.1074
 6445SOL     OW30796   1.701   4.561   1.413  0.5286  0.1974 -0.0301
 6445SOL    HW130797   1.734   4.472   1.427  1.4736  0.7488  1.2565
 6445SOL    HW230798   1.611   4.546   1.444  1.4735  0.6706  2.9372
 6446SOL     OW30799   4.669   3.508   8.809 -0.4786  0.3889 -0.2436
 6446SOL    HW130800   0.000   3.430   8.811  1.4269  1.7561 -0.1000
 6446SOL    HW230801   4.719   3.575   8.764 -0.2735  0.5927  0.2952
 6447SOL     OW30802   2.298   0.841   2.067 -0.2100  0.7077  0.1789
 6447SOL    HW130803   2.337   0.803   1.988  2.0868 -0.2255  1.7547
 6447SOL    HW230804   2.283   0.763   2.121 -0.3703 -0.0699 -0.9859
 6448SOL     OW30805   0.413   0.361   4.059 -0.8152  0.2869  0.4891
 6448SOL    HW130806   0.323   0.340   4.084 -1.1467 -0.3307 -1.2125
 6448SOL    HW230807   0.395   0.422   3.988 -0.4939 -1.6928 -1.3084
 6449SOL     OW30808   2.838   3.183   0.007 -0.5454 -0.0025  0.3500
 6449SOL    HW130809   2.801   3.205  17.620  0.6383 -0.3146 -0.2523
 6449SOL    HW230810   2.835   3.087   0.013  2.2458 -0.0943  0.5741
 6450SOL     OW30811   0.556   1.744   2.249  0.0264 -0.0595  0.4237
 6450SOL    HW130812   0.638   1.777   2.287  0.2584 -0.3894  0.2055
 6450SOL    HW230813   0.590   1.721   2.162  0.8051  1.6370  0.2857
 6451SOL     OW30814   0.849   1.248   7.998  0.7647 -0.2970  0.2412
 6451SOL    HW130815   0.789   1.291   8.058  0.9470  0.2830  0.0061
 6451SOL    HW230816   0.924   1.290   8.040  0.5074  0.0809  0.3169
 6452SOL     OW30817   0.911   1.209   0.809  0.0356 -0.2575  0.0700
 6452SOL    HW130818   1.006   1.217   0.823  0.0512 -0.4154  0.0618
 6452SOL    HW230819   0.895   1.303   0.805  2.1237  0.0975  0.1608
 6453SOL     OW30820   4.377   1.501   3.695  0.5659  0.0029 -0.0305
 6453SOL    HW130821   4.339   1.533   3.777  0.6952  1.3137 -0.4868
 6453SOL    HW230822   4.295   1.478   3.652  1.5937  0.6671 -2.2976
 6454SOL     OW30823   3.273   2.443  14.271  0.4472  0.0710  0.1438
 6454SOL    HW130824   3.200   2.464  14.330 -0.7138  1.0544 -1.6331
 6454SOL    HW230825   3.336   2.430  14.341 -1.2503  0.0541  1.6697
 6455SOL     OW30826   0.700   0.642   8.608 -0.4529  0.7028  0.0536
 6455SOL    HW130827   0.772   0.662   8.669 -0.4481 -0.4321  0.4222
 6455SOL    HW230828   0.715   0.715   8.547 -1.5464 -1.7998 -3.1711
 6456SOL     OW30829   3.561   2.291   5.245 -0.3572 -0.4043 -0.2653
 6456SOL    HW130830   3.617   2.255   5.314 -0.2108 -0.9983 -0.6967
 6456SOL    HW230831   3.556   2.224   5.178 -0.6712 -0.6977  0.0500
 6457SOL     OW30832   0.889   0.258   0.848  0.2961 -0.4351  0.2440
 6457SOL    HW130833   0.801   0.290   0.867  0.5732  0.6217 -0.2410
 6457SOL    HW230834   0.894   0.274   0.753  0.5072 -0.7314  0.2053
 6458SOL     OW30835   1.802   3.242   4.206 -0.1791  0.0377 -0.1188
 6458SOL    HW130836   1.717   3.240   4.251  0.1230 -0.9159  0.4030
 6458SOL    HW230837   1.772   3.220   4.118  0.7580 -0.7217 -0.2401
 6459SOL     OW30838   4.561   1.965  16.747  0.1563  0.3363  0.4137
 6459SOL    HW130839   4.482   1.947  16.697 -0.3177  2.2595  0.4585
 6459SOL    HW230840   4.518   1.943  16.829 -1.0606 -0.5729 -0.4737
 6460SOL     OW30841   4.030   3.665   2.307 -0.0353  0.7243  0.6215
 6460SOL    HW130842   4.044   3.639   2.215  1.7146 -0.6244  1.2612
 6460SOL    HW230843   4.120   3.668   2.340  0.0052  0.4529  0.5365
 6461SOL     OW30844   2.454   4.111   8.252 -0.6894  0.0557 -0.6411
 6461SOL    HW130845   2.505   4.067   8.320 -1.0136  0.3800 -0.1831
 6461SOL    HW230846   2.391   4.160   8.306  0.4844 -0.5355  1.2819
 6462SOL     OW30847   3.239   1.162   8.911 -0.2723  0.0369  0.0076
 6462SOL    HW130848   3.222   1.226   8.842 -2.3190  0.9597  1.3729
 6462SOL    HW230849   3.168   1.186   8.971  0.7321  0.1832  1.1513
 6463SOL     OW30850   2.450   2.263  12.533  0.6195 -0.1472 -0.0232
 6463SOL    HW130851   2.545   2.261  12.537  0.6038 -0.4627  0.1978
 6463SOL    HW230852   2.428   2.334  12.593  0.3617 -0.7999  0.6553
 6464SOL     OW30853   1.939   1.307  13.216  0.1188 -0.0605 -0.7469
 6464SOL    HW130854   1.882   1.382  13.233  0.2915  0.1302 -0.9982
 6464SOL    HW230855   1.998   1.315  13.290  1.7207  0.9605 -2.1299
 6465SOL     OW30856   4.328   4.414  10.625  0.1664 -0.1174 -0.0795
 6465SOL    HW130857   4.423   4.423  10.623 -0.0489  2.6677  1.1360
 6465SOL    HW230858   4.292   4.411  10.537 -1.8617 -1.0368  0.7743
 6466SOL     OW30859   2.294   3.458   9.580  0.2259  0.0452 -0.4109
 6466SOL    HW130860   2.249   3.491   9.657  0.8835 -0.1582  0.0646
 6466SOL    HW230861   2.331   3.375   9.612 -2.2281 -0.7938  0.2613
 6467SOL     OW30862   0.493   2.136   2.876 -0.4374  0.4307  0.0976
 6467SOL    HW130863   0.419   2.163   2.931  1.6869  2.4523  1.9658
 6467SOL    HW230864   0.452   2.127   2.790  0.1451  1.4930 -0.2916
 6468SOL     OW30865   3.083   0.282   3.730  0.2933  0.4678 -0.1455
 6468SOL    HW130866   3.106   0.258   3.640 -2.1392  0.2206 -0.7003
 6468SOL    HW230867   2.998   0.239   3.740  1.0465 -0.3617  2.6552
 6469SOL     OW30868   3.420   1.447  11.447 -0.1177  0.5868 -0.5376
 6469SOL    HW130869   3.419   1.439  11.351  0.3695  0.0787 -0.5018
 6469SOL    HW230870   3.329   1.424  11.464  0.2491 -1.3639 -1.1794
 6470SOL     OW30871   0.199   1.303  15.431  0.4388 -0.8583  0.2193
 6470SOL    HW130872   0.261   1.238  15.463  0.8194  0.3349  1.8917
 6470SOL    HW230873   0.133   1.249  15.388  0.5586 -2.3412  1.9216
 6471SOL     OW30874   0.689   2.255   6.742 -0.4744 -0.2985  0.0714
 6471SOL    HW130875   0.619   2.310   6.706 -1.1750 -0.3019  1.4216
 6471SOL    HW230876   0.768   2.304   6.717 -0.3527  1.0422  3.1819
 6472SOL     OW30877   3.240   0.255   5.321  0.1457  0.2149  0.1560
 6472SOL    HW130878   3.253   0.233   5.413 -0.9379 -0.6454  0.1070
 6472SOL    HW230879   3.266   0.180   5.268  0.0681 -0.9986  1.8576
 6473SOL     OW30880   4.197   2.435   2.569 -0.7930  0.0508  0.1953
 6473SOL    HW130881   4.238   2.467   2.489  2.0983 -1.5349  1.0354
 6473SOL    HW230882   4.265   2.375   2.601  0.1927  1.4750  0.7707
 6474SOL     OW30883   2.642   0.292   6.566  0.0736  0.2346  0.2802
 6474SOL    HW130884   2.657   0.386   6.572 -0.4854  0.4281 -1.2325
 6474SOL    HW230885   2.643   0.272   6.660  0.9045 -1.2191 -0.0232
 6475SOL     OW30886   2.743   0.792  16.804  0.5612 -0.0413 -0.7641
 6475SOL    HW130887   2.726   0.793  16.898 -0.7579  0.7428 -1.0192
 6475SOL    HW230888   2.677   0.730  16.773 -1.5571  1.7186  0.2867
 6476SOL     OW30889   1.065   1.750   2.596 -0.2397 -0.3921  0.1496
 6476SOL    HW130890   1.067   1.844   2.578 -0.3711 -0.3697  0.2529
 6476SOL    HW230891   1.078   1.751   2.691 -1.5503  1.8303  0.3075
 6477SOL     OW30892   2.313   2.554  12.286  0.0699  0.7755 -0.3789
 6477SOL    HW130893   2.390   2.599  12.252 -1.4446  2.9703 -0.9076
 6477SOL    HW230894   2.331   2.576  12.378  0.0775  0.3065 -0.2698
 6478SOL     OW30895   4.659   0.503  15.037 -0.3436 -0.0508 -0.9157
 6478SOL    HW130896   4.691   0.576  14.984  0.9664 -2.0472 -2.8734
 6478SOL    HW230897   4.569   0.503  15.005 -0.2516 -0.0308 -1.1778
 6479SOL     OW30898   3.898   3.147   3.967  0.1740  0.0765  0.3277
 6479SOL    HW130899   3.854   3.183   4.044  0.3515  0.3819  0.2854
 6479SOL    HW230900   3.952   3.221   3.942 -1.1036  0.3037 -1.8396
 6480SOL     OW30901   1.924   1.343  15.186 -0.2797  0.0091  0.1888
 6480SOL    HW130902   1.994   1.310  15.130  0.4836  1.5060  0.2578
 6480SOL    HW230903   1.956   1.315  15.272 -1.6567 -0.8479  0.4257
 6481SOL     OW30904   3.964   0.428   3.425 -0.0611 -0.1287  0.3598
 6481SOL    HW130905   3.955   0.474   3.342 -0.8293 -0.8228  0.0686
 6481SOL    HW230906   3.982   0.500   3.486  1.7854  0.4125 -0.8351
 6482SOL     OW30907   0.414   1.094   6.361  0.3264  0.0408 -0.1028
 6482SOL    HW130908   0.457   1.050   6.434  0.7025 -0.6822 -0.7597
 6482SOL    HW230909   0.493   1.119   6.315 -1.0287  2.6615 -0.9838
 6483SOL     OW30910   0.907   2.529   2.930  0.0285  0.0808  0.4399
 6483SOL    HW130911   0.881   2.606   2.879 -0.9984 -0.0377  0.7895
 6483SOL    HW230912   0.839   2.466   2.907  1.3751 -1.3516  0.3614
 6484SOL     OW30913   1.625   3.666   0.288 -0.0623 -0.1384 -0.3054
 6484SOL    HW130914   1.718   3.645   0.292  0.1209  0.3236 -2.0250
 6484SOL    HW230915   1.627   3.706   0.201  0.3377 -0.2621 -0.3558
 6485SOL     OW30916   2.017   3.396   2.302  0.0159  0.0610 -0.3881
 6485SOL    HW130917   2.090   3.354   2.256 -0.1071  0.0285 -0.5510
 6485SOL    HW230918   1.942   3.389   2.243  1.0766 -3.2397 -1.3736
 6486SOL     OW30919   4.632   3.747   7.237  0.3420 -0.2708  0.4098
 6486SOL    HW130920   4.679   3.666   7.252  2.0275  0.3962 -1.3161
 6486SOL    HW230921   4.682   3.793   7.169 -1.6452 -1.9213 -2.1869
 6487SOL     OW30922   1.964   4.520  14.958 -0.8841 -0.2668  0.1517
 6487SOL    HW130923   1.966   4.555  14.869  0.8253 -0.3442  0.1650
 6487SOL    HW230924   1.928   4.593  15.009  2.0471  2.2744 -1.4279
 6488SOL     OW30925   0.870   1.422   7.732  0.1270  0.5373 -0.1980
 6488SOL    HW130926   0.921   1.354   7.687 -0.4820  0.3443 -0.5944
 6488SOL    HW230927   0.886   1.390   7.821  0.9082  1.1983 -0.0959
 6489SOL     OW30928   3.117   4.549   4.785  0.2266  0.5052 -0.8763
 6489SOL    HW130929   3.061   4.475   4.761  0.9005 -0.4870  0.5601
 6489SOL    HW230930   3.058   4.597   4.843  0.0140 -0.4363 -0.3041
 6490SOL     OW30931   0.115   1.702  12.315 -0.3825  0.1340 -0.3893
 6490SOL    HW130932   0.039   1.720  12.260  1.4176 -1.1142 -3.2261
 6490SOL    HW230933   0.167   1.644  12.260 -1.0720  0.2006 -1.1014
 6491SOL     OW30934   4.631   0.331   4.754  0.5174  0.4442 -0.1516
 6491SOL    HW130935   4.590   0.362   4.835  1.6664 -0.2117  0.6717
 6491SOL    HW230936   4.559   0.348   4.692 -0.3035 -0.9982  0.4163
 6492SOL     OW30937   2.757   1.618   4.349  0.2257  0.4216 -0.5322
 6492SOL    HW130938   2.722   1.707   4.359 -1.8479 -0.3752 -0.7410
 6492SOL    HW230939   2.724   1.590   4.264 -0.8997 -0.4527  0.1933
 6493SOL     OW30940   1.562   2.077   4.104 -0.0611 -0.0235 -0.1911
 6493SOL    HW130941   1.627   2.113   4.045  1.2016 -1.8314  0.0767
 6493SOL    HW230942   1.518   2.023   4.038 -1.0823  0.4251  0.1292
 6494SOL     OW30943   3.236   1.729   8.801 -0.3433  0.3848  0.6315
 6494SOL    HW130944   3.142   1.738   8.785 -0.1252  1.1101 -0.2252
 6494SOL    HW230945   3.267   1.771   8.721 -1.1161  0.9801  0.6343
 6495SOL     OW30946   1.439   1.702  10.514 -0.0832 -0.3849 -0.5094
 6495SOL    HW130947   1.532   1.724  10.520  0.2523 -2.1728  0.7511
 6495SOL    HW230948   1.441   1.609  10.493  0.4728 -0.3765 -0.4939
 6496SOL     OW30949   0.332   0.725   2.516  0.2755 -0.3190 -0.3797
 6496SOL    HW130950   0.321   0.731   2.421  0.0071 -0.3081 -0.3480
 6496SOL    HW230951   0.331   0.630   2.526  0.2167 -0.5193 -2.2291
 6497SOL     OW30952   0.288   2.865   3.727 -0.0873  0.2261  0.3256
 6497SOL    HW130953   0.309   2.958   3.734 -1.0286  0.3460  1.5305
 6497SOL    HW230954   0.322   2.834   3.812 -1.2747 -0.7415  0.4504
 6498SOL     OW30955   1.095   1.908   2.204 -0.1622 -0.4858  0.8673
 6498SOL    HW130956   1.062   1.921   2.115 -0.6062 -0.5740  1.0192
 6498SOL    HW230957   1.084   1.999   2.232 -0.5023 -0.4368  0.5818
 6499SOL     OW30958   3.287   2.235   5.732 -0.2591 -0.1351 -0.1025
 6499SOL    HW130959   3.246   2.152   5.758  1.5274 -1.8668 -2.7368
 6499SOL    HW230960   3.333   2.210   5.651  0.7218  1.6707 -0.0920
 6500SOL     OW30961   0.269   1.143   5.958 -0.1954 -0.0474  0.3584
 6500SOL    HW130962   0.299   1.197   5.884  0.4292 -1.2526 -0.2654
 6500SOL    HW230963   0.309   1.056   5.951 -0.3924  0.0053 -1.4271
 6501SOL     OW30964   3.601   2.934   2.843  0.3977  0.1173  0.4064
 6501SOL    HW130965   3.648   2.854   2.868  2.4691  1.2513  0.1082
 6501SOL    HW230966   3.551   2.947   2.924 -1.2596  0.7500 -0.7136
 6502SOL     OW30967   3.781   4.162   7.703  0.1232  0.1055  0.4473
 6502SOL    HW130968   3.693   4.194   7.686  0.3582  0.2187 -0.5743
 6502SOL    HW230969   3.787   4.108   7.623  1.2976 -0.2006  0.7439
 6503SOL     OW30970   1.456   3.017  11.292 -0.2390 -0.5593  1.0764
 6503SOL    HW130971   1.375   3.067  11.298 -0.2289 -0.1028 -2.3231
 6503SOL    HW230972   1.527   3.081  11.293 -2.1750  1.5676  1.5834
 6504SOL     OW30973   1.853   2.802  14.408  0.8806 -0.4483  0.0073
 6504SOL    HW130974   1.818   2.718  14.378  1.0181 -1.8073  3.6561
 6504SOL    HW230975   1.934   2.797  14.356  0.2537  0.8425 -1.0810
 6505SOL     OW30976   2.215   4.531   6.770  0.6062 -0.1873 -0.6004
 6505SOL    HW130977   2.265   4.487   6.839  1.7902 -1.4954 -2.2747
 6505SOL    HW230978   2.131   4.505   6.807  1.3995 -0.2345  1.1526
 6506SOL     OW30979   3.185   0.592   6.085 -0.5412  0.0329  0.5855
 6506SOL    HW130980   3.204   0.501   6.060 -2.8229 -0.0413 -0.8601
 6506SOL    HW230981   3.183   0.639   6.002 -2.2996 -0.1207  0.5526
 6507SOL     OW30982   2.601   0.151   0.738 -0.2384 -0.2741  0.5195
 6507SOL    HW130983   2.540   0.082   0.711 -0.6125 -0.1337  0.9986
 6507SOL    HW230984   2.656   0.156   0.660 -1.4127  0.6927 -0.2444
 6508SOL     OW30985   3.229   4.266   4.431 -0.3457 -0.4913 -0.6441
 6508SOL    HW130986   3.259   4.355   4.412 -0.1924 -0.9345 -2.4025
 6508SOL    HW230987   3.270   4.259   4.518  0.3589 -2.2774 -1.1259
 6509SOL     OW30988   3.497   1.041   5.967 -0.1369 -0.2711  0.4610
 6509SOL    HW130989   3.463   1.038   5.878 -3.0201 -2.7715  1.6538
 6509SOL    HW230990   3.465   0.955   5.993 -0.2567 -0.6637 -1.0104
 6510SOL     OW30991   2.811   1.219   9.933 -0.2585  0.5306  0.4509
 6510SOL    HW130992   2.896   1.214   9.888  0.2554 -0.6158  1.5271
 6510SOL    HW230993   2.747   1.204   9.864  0.7623 -2.7929  0.2022
 6511SOL     OW30994   2.719   4.449   3.418 -0.4984  0.4240 -0.1828
 6511SOL    HW130995   2.740   4.357   3.435 -0.1264  0.4988 -0.2363
 6511SOL    HW230996   2.805   4.490   3.425 -0.9352  1.6130 -1.7498
 6512SOL     OW30997   0.873   0.366   9.276 -0.1812 -0.2987  0.1904
 6512SOL    HW130998   0.789   0.401   9.307  0.2660  0.9063  0.0400
 6512SOL    HW230999   0.855   0.277   9.245  0.9283 -1.2070  2.1545
 6513SOL     OW31000   0.885   2.797   4.892  0.3973 -0.3129  0.2229
 6513SOL    HW131001   0.899   2.703   4.886  0.3601 -0.2716 -0.5484
 6513SOL    HW231002   0.908   2.814   4.983 -1.5056  4.6099 -0.2148
 6514SOL     OW31003   3.767   3.307   1.883 -0.7542 -0.2077 -0.0889
 6514SOL    HW131004   3.720   3.242   1.936 -1.9772  0.2333 -0.6303
 6514SOL    HW231005   3.780   3.369   1.955  0.2225 -0.7415  0.1910
 6515SOL     OW31006   2.643   1.034   2.652 -0.1465  0.5894  0.6914
 6515SOL    HW131007   2.620   1.012   2.562 -0.5076  1.3349  0.5990
 6515SOL    HW231008   2.608   1.123   2.660 -0.0424  0.9470 -2.9923
 6516SOL     OW31009   2.503   2.496  16.181  0.1469  0.1237  0.0290
 6516SOL    HW131010   2.569   2.564  16.164 -1.7903  1.6134 -1.5459
 6516SOL    HW231011   2.483   2.519  16.271  2.4729  0.7415  0.3840
 6517SOL     OW31012   4.397   1.712   1.865  0.3185  0.0672  0.8135
 6517SOL    HW131013   4.393   1.778   1.935  1.7437  0.1928  0.7884
 6517SOL    HW231014   4.306   1.683   1.860  0.2338  0.4689  0.1142
 6518SOL     OW31015   4.283   4.190   3.079 -1.0668 -0.1527 -0.2804
 6518SOL    HW131016   4.358   4.132   3.088 -1.6027 -0.3611  2.8153
 6518SOL    HW231017   4.230   4.178   3.158  1.8554 -1.4857  1.4661
 6519SOL     OW31018   0.150   1.467   0.531 -0.0992  0.2105  0.5356
 6519SOL    HW131019   0.236   1.431   0.552 -0.1697 -0.1074  0.2750
 6519SOL    HW231020   0.136   1.523   0.607  0.3735 -1.4261  1.8289
 6520SOL     OW31021   1.000   1.557   4.614  0.1473  0.6008  0.2274
 6520SOL    HW131022   0.977   1.649   4.605  0.7214  0.7522  0.3537
 6520SOL    HW231023   0.956   1.506   4.545  1.6103  0.5079 -0.6422
 6521SOL     OW31024   1.516   1.762   1.304  0.1510 -0.4519  0.4113
 6521SOL    HW131025   1.456   1.820   1.256 -0.7722  0.1818  2.3597
 6521SOL    HW231026   1.583   1.724   1.247  0.1282  1.7174 -1.0982
 6522SOL     OW31027   3.247   0.824   5.870  0.0322  0.9031  0.3099
 6522SOL    HW131028   3.208   0.766   5.805 -0.2947  1.0302  0.3930
 6522SOL    HW231029   3.300   0.881   5.813  1.2177 -0.2733  0.2375
 6523SOL     OW31030   3.367   4.685   2.696  0.0173 -0.0644  0.2534
 6523SOL    HW131031   3.447   4.645   2.661 -0.7890 -2.1951  0.8075
 6523SOL    HW231032   3.408   0.042   2.725 -0.8851 -0.0969  1.6277
 6524SOL     OW31033   1.601   4.100  16.238 -0.1721  0.3865  0.1395
 6524SOL    HW131034   1.636   4.066  16.155 -1.0873 -0.2571  0.0244
 6524SOL    HW231035   1.522   4.145  16.208  0.0373  0.4803 -0.2811
 6525SOL     OW31036   2.503   0.246   3.929  0.5571  0.2732  0.4465
 6525SOL    HW131037   2.505   0.215   3.838  0.3056  0.5832  0.3362
 6525SOL    HW231038   2.449   0.324   3.914 -1.5085 -1.3386 -0.6747
 6526SOL     OW31039   3.553   0.954   8.073  0.2276  0.2453  0.0813
 6526SOL    HW131040   3.646   0.931   8.073 -0.5633 -2.9477 -0.9716
 6526SOL    HW231041   3.516   0.883   8.125  0.7418 -0.3012 -0.3065
 6527SOL     OW31042   2.302   3.066   3.626 -0.1919  0.6822 -0.0588
 6527SOL    HW131043   2.340   3.088   3.711 -0.7300  0.2207  0.3015
 6527SOL    HW231044   2.292   2.971   3.630 -2.4353  0.8979 -0.6904
 6528SOL     OW31045   3.807   2.011   9.956  0.2007  0.1435 -0.3254
 6528SOL    HW131046   3.881   2.021  10.016  0.0175  1.9081 -0.4091
 6528SOL    HW231047   3.768   2.096   9.977 -2.1259 -0.8599 -0.5826
 6529SOL     OW31048   1.253   0.808  16.293  0.1633  0.6618 -0.2153
 6529SOL    HW131049   1.331   0.776  16.338 -0.2347  1.2930  0.9110
 6529SOL    HW231050   1.266   0.797  16.199 -1.9447 -3.2527 -0.0399
 6530SOL     OW31051   2.742   4.492  13.027 -0.0178  0.1112 -0.0358
 6530SOL    HW131052   2.680   4.561  13.052  0.5247  0.9407 -0.9685
 6530SOL    HW231053   2.715   4.477  12.936  0.6546 -0.4615 -0.1356
 6531SOL     OW31054   0.334   3.744  13.022 -0.2345 -0.2702 -0.3512
 6531SOL    HW131055   0.276   3.700  13.084  0.5944 -1.0601 -0.1380
 6531SOL    HW231056   0.321   3.835  13.050  2.2490  0.0001 -0.0838
 6532SOL     OW31057   3.764   1.340   0.127  0.1432 -1.3290 -0.5969
 6532SOL    HW131058   3.833   1.317   0.064  1.9660 -0.5470  1.1235
 6532SOL    HW231059   3.791   1.426   0.159  3.9870 -1.6275 -2.9708
 6533SOL     OW31060   1.469   0.803   5.945 -0.2765  0.2860  0.3307
 6533SOL    HW131061   1.386   0.850   5.934 -0.5470 -0.4551 -0.9435
 6533SOL    HW231062   1.506   0.844   6.023 -0.6840  0.2879  0.5230
 6534SOL     OW31063   3.786   1.666   5.560 -0.3581 -0.0500 -0.4497
 6534SOL    HW131064   3.866   1.679   5.508  0.2230  1.3472  0.8089
 6534SOL    HW231065   3.773   1.752   5.600 -0.7689  0.1022 -0.9226
 6535SOL     OW31066   2.977   0.429   7.280  0.3026  0.5267  0.0027
 6535SOL    HW131067   2.967   0.495   7.211 -1.1933  1.7796  1.4044
 6535SOL    HW231068   2.900   0.373   7.275  0.0035  0.8422  1.0110
 6536SOL     OW31069   0.176   0.307  13.810  0.0211  0.9710 -0.5169
 6536SOL    HW131070   0.195   0.382  13.867  0.3087  0.3386  0.2130
 6536SOL    HW231071   0.229   0.341  13.738  0.8083  1.8968  0.4911
 6537SOL     OW31072   1.916   1.451   1.846 -0.6149  0.1681  0.1535
 6537SOL    HW131073   1.865   1.528   1.821  0.5898  1.4930  1.7521
 6537SOL    HW231074   2.008   1.470   1.828 -1.1488  1.5524 -1.0867
 6538SOL     OW31075   3.184   1.843  16.685 -0.0526 -0.0572 -0.5712
 6538SOL    HW131076   3.167   1.927  16.641  0.4930 -0.3514 -1.3495
 6538SOL    HW231077   3.112   1.849  16.748 -0.3333 -1.4777 -0.7582
 6539SOL     OW31078   3.604   3.121   6.126  0.3120 -0.2448  0.4855
 6539SOL    HW131079   3.555   3.157   6.052  2.0943 -3.0041 -2.0415
 6539SOL    HW231080   3.582   3.201   6.176  1.7048  0.6248 -0.3116
 6540SOL     OW31081   3.592   3.944   7.867  0.5000 -0.1226 -0.3337
 6540SOL    HW131082   3.516   3.989   7.831  0.4313  0.9246  1.1246
 6540SOL    HW231083   3.624   4.011   7.927 -0.1697  0.0569 -0.1786
 6541SOL     OW31084   1.139   1.029   9.944 -0.1994  0.7428  0.1212
 6541SOL    HW131085   1.203   0.958   9.949 -1.1819 -0.2510 -1.1488
 6541SOL    HW231086   1.194   1.106   9.938  1.2170 -0.0871  2.5794
 6542SOL     OW31087   0.329   2.045  15.335 -0.2284 -0.5705  0.3004
 6542SOL    HW131088   0.283   1.963  15.321 -1.4514  0.3226 -0.8667
 6542SOL    HW231089   0.263   2.114  15.339  0.5955  0.2586 -0.5617
 6543SOL     OW31090   0.639   2.542   7.900 -0.6354  0.2226 -0.8374
 6543SOL    HW131091   0.716   2.511   7.851  0.4346  2.2520 -0.4578
 6543SOL    HW231092   0.613   2.463   7.947  0.8528 -0.6698 -1.5095
 6544SOL     OW31093   3.735   3.741   8.685 -0.2561 -0.3656  0.5963
 6544SOL    HW131094   3.821   3.737   8.644 -0.1198  0.7330  0.7698
 6544SOL    HW231095   3.675   3.784   8.624 -1.2394 -2.4160  0.1057
 6545SOL     OW31096   4.507   0.552   2.241  0.1856 -0.0102  0.4446
 6545SOL    HW131097   4.506   0.537   2.336 -3.1446 -1.2632  0.1959
 6545SOL    HW231098   4.520   0.647   2.242  1.3468 -0.1540 -1.0199
 6546SOL     OW31099   1.308   4.451   9.409 -0.3433  0.3549 -0.3204
 6546SOL    HW131100   1.375   4.389   9.379  0.3771  1.6875 -1.4661
 6546SOL    HW231101   1.349   4.537   9.411  1.3856 -0.5068  1.9060
 6547SOL     OW31102   1.462   2.734   6.476  0.2088 -0.6271 -0.7373
 6547SOL    HW131103   1.479   2.804   6.413  1.1328  0.4802  0.7309
 6547SOL    HW231104   1.545   2.690   6.461 -0.8574 -2.7101 -0.4582
 6548SOL     OW31105   3.917   3.375   4.976  0.4077  0.1784  0.2466
 6548SOL    HW131106   3.922   3.280   4.979  0.0822  0.1790  0.7715
 6548SOL    HW231107   3.984   3.403   5.039 -1.1272  0.6710  1.6652
 6549SOL     OW31108   2.685   3.229   6.458  0.3519 -0.3550  0.2188
 6549SOL    HW131109   2.717   3.313   6.492 -1.1784  0.0607  0.6288
 6549SOL    HW231110   2.713   3.234   6.366 -1.2734  0.7087 -0.2063
 6550SOL     OW31111   3.303   0.135  15.754 -0.1353  0.4400  0.4699
 6550SOL    HW131112   3.351   0.075  15.811  2.0157  0.0818 -1.7181
 6550SOL    HW231113   3.228   0.155  15.810 -1.8033 -2.4326 -0.6801
 6551SOL     OW31114   3.894   0.120  17.501 -0.0025 -0.6072  0.5000
 6551SOL    HW131115   3.833   0.067  17.449  1.1037  0.0298 -1.4524
 6551SOL    HW231116   3.940   0.048  17.543  0.5998 -0.0582  0.7678
 6552SOL     OW31117   0.603   2.596   3.272 -0.9105 -0.2220  0.2297
 6552SOL    HW131118   0.635   2.630   3.189  0.2177 -1.9054 -0.0232
 6552SOL    HW231119   0.522   2.647   3.274 -1.0983 -0.5433  0.8578
 6553SOL     OW31120   4.636   4.099  11.882  0.1311  0.2541 -0.7013
 6553SOL    HW131121   4.632   4.163  11.811  0.4534 -0.4391 -1.3462
 6553SOL    HW231122   4.576   4.133  11.948 -1.1109 -1.2234 -1.0474
 6554SOL     OW31123   2.436   0.609   3.021  0.3084 -0.2158  0.2220
 6554SOL    HW131124   2.427   0.587   2.928  1.9558 -0.2634  0.0795
 6554SOL    HW231125   2.380   0.549   3.070  0.1269  1.5496  2.1871
 6555SOL     OW31126   4.393   0.999  14.620  0.1015  0.0214  0.0753
 6555SOL    HW131127   4.371   0.992  14.527  0.0357  1.2962  0.0010
 6555SOL    HW231128   4.472   0.945  14.618  0.3659  0.4496 -0.9028
 6556SOL     OW31129   4.619   4.597   6.360  0.7654  0.3301 -0.4779
 6556SOL    HW131130   4.713   4.614   6.358  0.7354  0.8179  1.6837
 6556SOL    HW231131   4.583   4.685   6.352  2.1589  1.0638  1.3443
 6557SOL     OW31132   1.921   4.197   6.843  0.7016 -0.4761  0.2488
 6557SOL    HW131133   1.872   4.149   6.909 -0.8980 -0.5024 -0.9534
 6557SOL    HW231134   1.995   4.223   6.898 -1.1612 -0.6878  2.8482
 6558SOL     OW31135   1.058   3.398   2.132 -0.2425 -0.7326 -0.3167
 6558SOL    HW131136   1.054   3.302   2.133  0.7911 -0.7670  0.0211
 6558SOL    HW231137   1.052   3.411   2.037 -1.5295  0.9030 -0.0094
 6559SOL     OW31138   2.128   1.416  11.854  0.2902 -0.1945  0.9641
 6559SOL    HW131139   2.120   1.502  11.896  4.4116 -0.4742  2.3695
 6559SOL    HW231140   2.205   1.430  11.798 -2.4378 -0.6297 -2.8330
 6560SOL     OW31141   3.467   4.652   0.107 -0.3094  0.6334  0.3858
 6560SOL    HW131142   3.547   4.698   0.132  0.1533 -0.2047  0.4747
 6560SOL    HW231143   3.473   4.574   0.162 -2.1074  0.9725  1.0702
 6561SOL     OW31144   4.274   1.522  13.542 -0.8117  0.0725 -0.4241
 6561SOL    HW131145   4.208   1.557  13.482 -0.0527 -0.6552 -1.6884
 6561SOL    HW231146   4.281   1.429  13.518  1.2271  0.0554  0.1939
 6562SOL     OW31147   4.475   2.266  15.671  0.6895  0.1207 -0.0409
 6562SOL    HW131148   4.526   2.209  15.729  1.3102 -0.1573 -0.8564
 6562SOL    HW231149   4.408   2.202  15.647  0.4262  0.1795  0.5464
 6563SOL     OW31150   2.963   0.709   8.649 -0.4234  0.3129 -0.0882
 6563SOL    HW131151   2.970   0.740   8.558  0.4643  1.7446  0.4625
 6563SOL    HW231152   2.954   0.616   8.628 -1.0534  0.2841  0.3004
 6564SOL     OW31153   2.963   4.311   6.368  0.1554  0.0780  0.1515
 6564SOL    HW131154   3.048   4.265   6.369 -0.5664 -1.2559 -0.2417
 6564SOL    HW231155   2.914   4.262   6.303 -1.5402 -0.1693  1.6358
 6565SOL     OW31156   4.009   1.573   2.563  0.1877 -0.3760 -0.0267
 6565SOL    HW131157   4.023   1.604   2.473  0.4219  1.2784  0.5754
 6565SOL    HW231158   4.093   1.529   2.577 -0.4277 -1.1404  1.3042
 6566SOL     OW31159   2.699   3.713  10.121 -0.0150  0.1015 -0.3811
 6566SOL    HW131160   2.648   3.773  10.176 -1.1186 -0.5936 -0.6529
 6566SOL    HW231161   2.788   3.744  10.137 -0.0780 -0.4184  0.9528
 6567SOL     OW31162   1.724   4.503   2.535 -0.1136 -0.6339  0.4056
 6567SOL    HW131163   1.733   4.583   2.485  0.0445  0.2461  1.8513
 6567SOL    HW231164   1.758   4.428   2.486 -1.5534  0.7750 -2.7645
 6568SOL     OW31165   2.449   1.472  11.267  0.1008 -0.3412 -0.2730
 6568SOL    HW131166   2.359   1.505  11.274 -0.0452 -1.0441  1.1372
 6568SOL    HW231167   2.482   1.498  11.353 -0.5447 -0.8931  0.1401
 6569SOL     OW31168   4.132   0.836   5.043 -0.3163  0.8754 -0.4693
 6569SOL    HW131169   4.189   0.759   5.047  0.6766  1.6932  1.5199
 6569SOL    HW231170   4.193   0.910   5.047 -0.4066  0.9022  0.4635
 6570SOL     OW31171   3.085   2.662   8.204 -0.0844  0.1339 -0.3500
 6570SOL    HW131172   3.067   2.701   8.118  1.8417  1.4695 -0.1543
 6570SOL    HW231173   3.180   2.652   8.198  0.0036  1.0621 -0.5175
 6571SOL     OW31174   2.829   1.831   7.576 -0.1850 -0.0710 -0.1280
 6571SOL    HW131175   2.776   1.753   7.590  1.8887 -1.3906  0.2659
 6571SOL    HW231176   2.905   1.791   7.534  1.1964  1.6849  0.7205
 6572SOL     OW31177   1.309   1.620   4.870  0.0403  1.1349  0.0538
 6572SOL    HW131178   1.403   1.630   4.885  0.4559 -3.2774  0.5684
 6572SOL    HW231179   1.284   1.550   4.930 -1.9610 -0.3761 -2.5185
 6573SOL     OW31180   0.931   1.573   1.376  0.1579 -0.3221  0.2355
 6573SOL    HW131181   1.026   1.560   1.372  0.1160 -0.2942 -0.8063
 6573SOL    HW231182   0.917   1.578   1.471  0.9632  1.6618  0.2684
 6574SOL     OW31183   0.477   0.347   8.019  0.5843  0.1873  0.0434
 6574SOL    HW131184   0.551   0.406   8.002  0.9284 -0.1106  0.4931
 6574SOL    HW231185   0.404   0.397   7.983 -0.4247 -2.5393 -1.6307
 6575SOL     OW31186   0.889   0.439   5.618  0.1137  0.1747 -0.1507
 6575SOL    HW131187   0.931   0.361   5.582 -0.3912 -1.0777  1.9817
 6575SOL    HW231188   0.922   0.499   5.552 -1.4608 -0.0113 -1.1185
 6576SOL     OW31189   1.408   1.290  12.305  0.0660 -0.1745 -0.1995
 6576SOL    HW131190   1.467   1.306  12.231 -0.7410 -1.6025 -1.1701
 6576SOL    HW231191   1.399   1.381  12.334  0.4559 -0.6543  1.4401
 6577SOL     OW31192   2.062   1.344  11.323 -0.5724 -0.2624  0.5328
 6577SOL    HW131193   2.072   1.261  11.276 -1.3229  0.0247 -0.1448
 6577SOL    HW231194   2.053   1.320  11.415  1.5032 -0.3210  0.7070
 6578SOL     OW31195   3.064   0.933   8.840  0.3297  0.0441  0.1680
 6578SOL    HW131196   3.033   0.885   8.764  0.3261 -2.8852  2.0458
 6578SOL    HW231197   3.007   1.010   8.843  0.4188  0.0494  1.7663
 6579SOL     OW31198   0.658   0.874  17.138  0.1973 -0.1341 -0.1768
 6579SOL    HW131199   0.640   0.962  17.104 -1.8272 -0.3740  0.2972
 6579SOL    HW231200   0.681   0.895  17.228  1.4773 -0.2330 -0.4735
 6580SOL     OW31201   2.315   1.186   4.302  0.3937 -0.2893  0.0919
 6580SOL    HW131202   2.277   1.120   4.244  1.3300  0.1685 -1.0586
 6580SOL    HW231203   2.265   1.260   4.270 -0.3629 -0.6516  0.4337
 6581SOL     OW31204   1.088   2.464   2.522  0.2993  0.2176 -0.1526
 6581SOL    HW131205   1.005   2.438   2.481  0.2837  0.0311 -0.0042
 6581SOL    HW231206   1.055   2.515   2.596  0.6502 -0.2894  0.3552
 6582SOL     OW31207   1.485   0.535   2.354  0.1662 -0.0369 -0.2986
 6582SOL    HW131208   1.563   0.576   2.393  0.9454 -1.2168 -0.6193
 6582SOL    HW231209   1.439   0.521   2.436  2.5212 -0.2653  0.9851
 6583SOL     OW31210   3.928   0.447   7.237  0.4646  0.0957 -0.7175
 6583SOL    HW131211   3.901   0.358   7.260 -1.6974  0.9116 -0.0980
 6583SOL    HW231212   3.848   0.496   7.257  0.5179  0.5846 -1.6977
 6584SOL     OW31213   0.995   0.530  16.159 -0.0135 -0.2555  0.1155
 6584SOL    HW131214   1.007   0.505  16.251 -1.8119 -0.7083  0.2302
 6584SOL    HW231215   0.946   0.456  16.124  1.4896 -1.1855  0.0100
 6585SOL     OW31216   2.436   0.768   9.459 -0.5349  0.0338 -0.9402
 6585SOL    HW131217   2.403   0.820   9.532  1.0844 -0.7051  0.3314
 6585SOL    HW231218   2.409   0.679   9.482  2.2902 -0.6775 -0.3234
 6586SOL     OW31219   4.712   1.257   2.147  0.2185  0.1209  0.0715
 6586SOL    HW131220   0.059   1.315   2.171  0.3981  1.1448 -2.9604
 6586SOL    HW231221   0.011   1.239   2.056  0.7880 -0.2014  0.2806
 6587SOL     OW31222   0.931   1.285   5.623  0.4850 -0.4034  0.3262
 6587SOL    HW131223   0.864   1.282   5.555 -0.3677 -0.5140  1.1628
 6587SOL    HW231224   1.012   1.257   5.580 -0.6219 -0.0929 -1.9683
 6588SOL     OW31225   4.700   4.351   9.505  0.0345  0.0846 -0.0769
 6588SOL    HW131226   4.627   4.396   9.461  1.4384  1.6554 -0.8127
 6588SOL    HW231227   0.000   4.426   9.559  1.1378 -0.4780  0.2015
 6589SOL     OW31228   4.491   0.310  15.235  0.5279 -0.5688 -0.1498
 6589SOL    HW131229   4.471   0.255  15.159 -0.2535 -2.2518  1.2671
 6589SOL    HW231230   4.549   0.377  15.199  0.3258 -0.1317  0.3339
 6590SOL     OW31231   4.058   2.821   4.019  0.3776 -0.0617 -0.2068
 6590SOL    HW131232   3.987   2.757   4.013 -0.5118  0.8159  1.0855
 6590SOL    HW231233   4.137   2.767   4.014  0.2800 -0.4613  2.4247
 6591SOL     OW31234   4.660   1.756   8.605  0.5090  0.3238  0.1085
 6591SOL    HW131235   4.608   1.682   8.574  1.4948 -1.0180  1.6817
 6591SOL    HW231236   0.011   1.741   8.547 -0.2334  0.5073 -0.9003
 6592SOL     OW31237   4.041   2.243   2.249  0.4674  0.2148 -0.5248
 6592SOL    HW131238   4.040   2.186   2.172  0.1850  0.2981 -0.5820
 6592SOL    HW231239   4.038   2.178   2.319 -3.7047  1.0375  0.0882
 6593SOL     OW31240   0.930   3.754  14.798  0.2153 -0.9891  0.0082
 6593SOL    HW131241   0.960   3.837  14.761 -0.7301 -0.9700 -0.7169
 6593SOL    HW231242   0.878   3.778  14.875 -2.6221 -1.3084 -1.8095
 6594SOL     OW31243   2.625   0.573  16.701  0.5977 -0.4804  0.1162
 6594SOL    HW131244   2.710   0.531  16.689  0.1817 -1.3506  0.2615
 6594SOL    HW231245   2.589   0.512  16.765 -0.6281 -0.1569 -0.2794
 6595SOL     OW31246   1.026   4.598   8.741 -0.9795  0.2682  0.0678
 6595SOL    HW131247   1.079   4.651   8.801 -0.5363  0.9128 -0.8930
 6595SOL    HW231248   1.097   4.576   8.680 -0.1300 -1.8169  1.7793
 6596SOL     OW31249   4.274   4.086   4.518 -0.4516 -0.8643 -0.0550
 6596SOL    HW131250   4.235   4.167   4.553 -0.6868 -1.6102  1.4437
 6596SOL    HW231251   4.361   4.075   4.556  0.0922 -0.2203 -1.1268
 6597SOL     OW31252   0.208   0.614   6.120  0.5310 -0.9664  0.2269
 6597SOL    HW131253   0.177   0.602   6.030 -0.8762  1.5751  0.3901
 6597SOL    HW231254   0.128   0.592   6.167 -0.3331 -1.9922 -1.7202
 6598SOL     OW31255   4.330   0.359   9.198 -0.1197 -0.1726 -0.4983
 6598SOL    HW131256   4.352   0.438   9.149 -3.2697 -0.9923 -3.2508
 6598SOL    HW231257   4.404   0.306   9.167  0.8485  2.0682 -2.0071
 6599SOL     OW31258   2.400   1.826   9.129 -0.6223  0.0453 -0.5480
 6599SOL    HW131259   2.350   1.903   9.099 -1.1813  0.5089  1.5456
 6599SOL    HW231260   2.414   1.846   9.222 -3.1832  1.2502 -0.3960
 6600SOL     OW31261   3.175   4.647   1.700 -0.3130  0.0668 -0.4890
 6600SOL    HW131262   3.243   4.618   1.761  0.0177  3.3674  0.6628
 6600SOL    HW231263   3.112   4.669   1.768  0.5910 -3.4598  1.4922
 6601SOL     OW31264   0.528   0.529   0.412 -0.6935  0.3250 -0.2186
 6601SOL    HW131265   0.448   0.489   0.377 -1.6854  0.8317  1.4142
 6601SOL    HW231266   0.529   0.477   0.493 -0.8263  0.9965  0.2213
 6602SOL     OW31267   0.091   1.687   7.993 -0.0236 -0.3921  0.5005
 6602SOL    HW131268   0.183   1.701   7.969 -0.7558  0.8712 -1.4822
 6602SOL    HW231269   0.096   1.726   8.080  0.4021  0.1807  0.2150
 6603SOL     OW31270   0.281   0.629   5.748 -0.4628  0.4185  0.5461
 6603SOL    HW131271   0.318   0.645   5.661 -1.8599 -0.2393 -0.1782
 6603SOL    HW231272   0.192   0.604   5.721  0.6011 -2.3435 -0.4369
 6604SOL     OW31273   2.284   1.263   7.214 -0.1110  0.2656  0.1161
 6604SOL    HW131274   2.314   1.172   7.212  3.2511  1.3495  0.5304
 6604SOL    HW231275   2.210   1.265   7.154  2.1250 -1.2714 -2.6812
 6605SOL     OW31276   1.328   0.253   9.667 -0.1495  1.3861  0.6264
 6605SOL    HW131277   1.234   0.250   9.650  0.0977 -2.5639 -0.0831
 6605SOL    HW231278   1.336   0.184   9.734 -1.5529  0.5305 -0.0960
 6606SOL     OW31279   3.361   4.035   7.779 -0.4141  0.1069  0.4113
 6606SOL    HW131280   3.338   4.119   7.818  1.9405  0.3688  1.2259
 6606SOL    HW231281   3.288   3.980   7.807 -2.3915  1.9280 -1.1674
 6607SOL     OW31282   0.598   3.526  10.314 -0.6485  0.2980  0.6074
 6607SOL    HW131283   0.679   3.502  10.358 -0.1958 -0.2883 -0.5428
 6607SOL    HW231284   0.593   3.449  10.257 -0.1504  1.4560 -0.9960
 6608SOL     OW31285   0.898   4.574   9.376 -0.0145  0.3964 -0.1289
 6608SOL    HW131286   0.954   4.544   9.448 -2.5593 -0.6359  1.4325
 6608SOL    HW231287   0.946   4.552   9.296 -0.9879 -2.5377  0.0709
 6609SOL     OW31288   0.304   1.882   8.106  0.4269 -0.4964 -0.4338
 6609SOL    HW131289   0.349   1.919   8.030  0.2798 -0.7264 -0.6359
 6609SOL    HW231290   0.379   1.850   8.156 -0.8768 -1.4782  0.8993
 6610SOL     OW31291   0.189   4.087  14.131 -0.8620  0.1898  0.1510
 6610SOL    HW131292   0.176   4.180  14.148  0.8227  0.3682  0.4464
 6610SOL    HW231293   0.283   4.072  14.139 -0.4009  1.9187 -1.9215
 6611SOL     OW31294   0.792   0.890   3.106  0.2361 -0.0141 -0.0333
 6611SOL    HW131295   0.829   0.899   3.194 -2.1339  0.2886  0.9457
 6611SOL    HW231296   0.698   0.883   3.126  0.4510 -2.5631  0.1161
 6612SOL     OW31297   4.214   1.516   3.922 -0.0139 -0.7025 -0.5886
 6612SOL    HW131298   4.128   1.557   3.912  0.4319  0.1616 -0.7806
 6612SOL    HW231299   4.184   1.435   3.965  0.5596 -0.3577  0.4600
 6613SOL     OW31300   2.836   0.960   4.431 -0.1381  0.4581 -0.0856
 6613SOL    HW131301   2.837   0.880   4.484 -0.8410 -0.8022 -1.9725
 6613SOL    HW231302   2.871   1.029   4.488 -2.7793  1.4798  0.2959
 6614SOL     OW31303   1.978   1.814   1.284  0.1489 -0.5026  0.5048
 6614SOL    HW131304   1.940   1.856   1.207 -0.7503 -0.5750  0.9021
 6614SOL    HW231305   1.914   1.842   1.351  0.6120 -0.1638  0.8096
 6615SOL     OW31306   2.672   4.555  12.129 -0.5070 -0.1428 -0.4336
 6615SOL    HW131307   2.614   4.546  12.053 -1.3018 -0.2436  0.1802
 6615SOL    HW231308   2.611   4.591  12.194 -0.4823 -0.5181 -0.2036
 6616SOL     OW31309   1.820   1.554   3.560  0.3903  0.6172  0.0631
 6616SOL    HW131310   1.876   1.553   3.482  0.6236 -1.1435  0.2519
 6616SOL    HW231311   1.884   1.586   3.623  0.6331  0.3974 -0.0762
 6617SOL     OW31312   4.257   3.959   9.034 -0.0003  0.0617  0.0208
 6617SOL    HW131313   4.253   3.884   9.094 -1.9610  0.3428  0.2335
 6617SOL    HW231314   4.293   4.023   9.095 -0.2847 -0.2333  0.5032
 6618SOL     OW31315   2.376   0.499   9.511 -0.2830  0.1776  0.5155
 6618SOL    HW131316   2.437   0.426   9.526  1.2291  1.7157  1.8617
 6618SOL    HW231317   2.306   0.444   9.475 -0.9815 -0.5606  2.9482
 6619SOL     OW31318   3.374   4.221   2.371  0.1955  0.3057 -0.0461
 6619SOL    HW131319   3.388   4.283   2.442  0.2406 -1.1131  1.1628
 6619SOL    HW231320   3.310   4.272   2.320  0.9669  0.3629 -0.9615
 6620SOL     OW31321   1.343   3.545   3.450 -0.4541  0.3209  0.0107
 6620SOL    HW131322   1.376   3.632   3.476  1.3752 -0.6370  0.9067
 6620SOL    HW231323   1.373   3.546   3.359  1.5094  1.8882  0.6571
 6621SOL     OW31324   1.311   2.674   2.446 -0.3271  0.1466 -0.4294
 6621SOL    HW131325   1.367   2.675   2.369 -1.7547 -0.7875 -1.4879
 6621SOL    HW231326   1.245   2.623   2.398 -0.9275  1.3991 -0.9698
 6622SOL     OW31327   0.366   2.090   2.628  0.3530 -0.2297 -0.7723
 6622SOL    HW131328   0.397   2.005   2.594  2.2098 -0.6365  1.9002
 6622SOL    HW231329   0.285   2.070   2.675  0.9780 -3.1802 -0.8991
 6623SOL     OW31330   4.563   2.358  15.427  0.1159 -0.4648 -0.3354
 6623SOL    HW131331   4.559   2.352  15.522 -0.0447  1.3849 -0.2191
 6623SOL    HW231332   4.532   2.270  15.408 -1.3254 -0.0020 -0.0833
 6624SOL     OW31333   1.950   4.414   3.717  0.1877  0.5421  1.0533
 6624SOL    HW131334   1.935   4.437   3.626 -0.9851  2.6539  1.7870
 6624SOL    HW231335   1.889   4.340   3.715  1.4601 -0.4883 -0.0707
 6625SOL     OW31336   4.430   2.806  17.105 -0.7759 -0.4008  0.2132
 6625SOL    HW131337   4.508   2.771  17.061 -0.6763 -1.8538  1.5783
 6625SOL    HW231338   4.362   2.772  17.047 -1.3483  0.3733  0.4273
 6626SOL     OW31339   3.863   1.899  15.094  0.5585 -0.1972 -0.2332
 6626SOL    HW131340   3.884   1.965  15.028 -0.7239 -0.0031 -0.4491
 6626SOL    HW231341   3.947   1.858  15.114 -0.2820 -0.3675  2.8500
 6627SOL     OW31342   3.038   3.645   1.739  0.2413 -0.0348  0.4390
 6627SOL    HW131343   3.055   3.726   1.788  0.7422  0.5300 -0.6669
 6627SOL    HW231344   3.127   3.620   1.715  0.3686  0.5841  0.2659
 6628SOL     OW31345   3.186   3.890  15.402  0.0321  0.1550 -0.0215
 6628SOL    HW131346   3.178   3.939  15.320  0.7986 -0.4602 -0.4620
 6628SOL    HW231347   3.239   3.813  15.380 -1.4033 -0.5452 -1.0306
 6629SOL     OW31348   1.855   3.066   2.552  0.2412  0.6044 -0.5434
 6629SOL    HW131349   1.802   3.089   2.476  4.3463  1.8725 -3.0764
 6629SOL    HW231350   1.809   3.007   2.612 -2.3575  1.8781 -1.2983
 6630SOL     OW31351   0.816   1.519   5.974  0.0883  0.1539 -0.0348
 6630SOL    HW131352   0.892   1.498   5.920  0.4183 -1.2979  1.0003
 6630SOL    HW231353   0.741   1.497   5.920  0.5247 -0.5289 -0.3656
 6631SOL     OW31354   3.704   1.895  10.661  0.2800 -0.2257  0.3378
 6631SOL    HW131355   3.635   1.903  10.595 -1.0357 -1.9232  1.4985
 6631SOL    HW231356   3.780   1.904  10.603  0.9916 -1.2772  1.1030
 6632SOL     OW31357   4.309   0.821   2.961 -0.7563 -0.7363  0.2052
 6632SOL    HW131358   4.306   0.915   2.940  0.5318 -0.6649  0.3227
 6632SOL    HW231359   4.404   0.807   2.954 -0.4312  0.9877  0.9869
 6633SOL     OW31360   1.905   4.114  17.250  0.1942  0.0462  0.1265
 6633SOL    HW131361   1.817   4.094  17.218 -0.6104  0.1505  2.2675
 6633SOL    HW231362   1.957   4.061  17.190  1.2534  0.7963  0.3823
 6634SOL     OW31363   3.958   2.607   9.886  0.2225  0.0385  0.2405
 6634SOL    HW131364   3.894   2.677   9.873 -1.5232 -1.4666  0.7645
 6634SOL    HW231365   4.005   2.653   9.956  1.0059 -0.2766 -0.0850
 6635SOL     OW31366   2.707   3.197   3.457  0.6302  0.6153 -0.4632
 6635SOL    HW131367   2.668   3.270   3.506  4.6958  1.5694  1.3954
 6635SOL    HW231368   2.772   3.171   3.522 -1.3770 -0.4494  1.1152
 6636SOL     OW31369   1.563   3.450   7.935  0.3199 -0.1568 -0.2540
 6636SOL    HW131370   1.574   3.421   7.844  3.6265  0.2889 -0.0130
 6636SOL    HW231371   1.588   3.542   7.946 -1.4049  0.0437  1.8443
 6637SOL     OW31372   1.039   0.352  12.037  0.1355 -0.4033  0.3816
 6637SOL    HW131373   0.976   0.282  12.055  0.1927 -0.6301 -0.3045
 6637SOL    HW231374   1.123   0.308  12.046 -0.2104 -0.4357  3.4365
 6638SOL     OW31375   4.171   3.398   1.744 -0.4917 -0.1179 -0.5850
 6638SOL    HW131376   4.162   3.339   1.819  0.3649  1.1329  0.5206
 6638SOL    HW231377   4.263   3.423   1.750 -0.5739  0.1590 -0.4433
 6639SOL     OW31378   3.110   1.539   2.036 -0.4627  0.2644 -0.2317
 6639SOL    HW131379   3.157   1.469   1.990 -2.1948 -0.1715 -1.3181
 6639SOL    HW231380   3.021   1.509   2.021 -0.3053 -0.0529 -0.5298
 6640SOL     OW31381   2.359   4.246   2.813  0.1455  0.0118  0.2666
 6640SOL    HW131382   2.313   4.169   2.778  1.2777 -1.3335  1.7504
 6640SOL    HW231383   2.395   4.284   2.732 -0.7645  0.2369 -0.0301
 6641SOL     OW31384   2.547   1.311   2.650  0.5111 -0.3303  0.2364
 6641SOL    HW131385   2.596   1.297   2.569 -0.5583 -1.4757 -0.2160
 6641SOL    HW231386   2.458   1.336   2.625  0.2948 -1.5263 -0.1959
 6642SOL     OW31387   4.303   2.282  17.663 -0.2763 -0.4764  0.1688
 6642SOL    HW131388   4.227   2.252  17.613 -1.2918  0.3616  1.1959
 6642SOL    HW231389   4.309   2.374  17.638  1.0238  0.1616  2.8096
 6643SOL     OW31390   0.654   0.730   9.248  0.3034  0.5163  0.2662
 6643SOL    HW131391   0.746   0.709   9.233  0.0690 -2.4135  3.0093
 6643SOL    HW231392   0.602   0.668   9.198  2.5054  0.2018 -1.6161
 6644SOL     OW31393   0.077   3.156   3.696 -0.1660 -0.0321 -0.2787
 6644SOL    HW131394   0.096   3.177   3.604 -0.5111  1.5230  0.0102
 6644SOL    HW231395   0.165   3.138   3.729 -0.3296 -0.1188  0.1100
 6645SOL     OW31396   0.163   4.662   7.969  0.1890 -0.1490  0.5435
 6645SOL    HW131397   0.144   4.713   8.048  0.7294  1.5674 -0.4611
 6645SOL    HW231398   0.083   4.682   7.919  0.3978 -1.4350 -0.3111
 6646SOL     OW31399   1.838   1.764   1.942  0.0501 -0.2079 -0.1727
 6646SOL    HW131400   1.804   1.738   1.856 -1.2037 -1.9875  0.8587
 6646SOL    HW231401   1.751   1.754   1.982 -0.9706  1.3531 -1.9870
 6647SOL     OW31402   1.778   2.291   2.070  0.1553 -0.1071  0.3920
 6647SOL    HW131403   1.767   2.287   1.975 -0.4284  2.1920  0.3558
 6647SOL    HW231404   1.799   2.200   2.090 -3.3711 -1.4341 -1.9554
 6648SOL     OW31405   2.672   0.193   9.340 -0.3926 -0.4381  0.3615
 6648SOL    HW131406   2.674   0.167   9.248 -0.1901  2.1661 -0.3697
 6648SOL    HW231407   2.590   0.150   9.368 -0.7761 -0.5165 -0.8943
 6649SOL     OW31408   1.656   0.739   6.519 -0.3025 -0.1994  0.4789
 6649SOL    HW131409   1.571   0.782   6.511  0.3614  0.9351 -0.6956
 6649SOL    HW231410   1.691   0.757   6.431 -0.0138 -1.7411  0.2839
 6650SOL     OW31411   3.094   4.236  11.261  0.1402  0.3006  0.3851
 6650SOL    HW131412   3.076   4.173  11.192  3.7914 -1.1344  0.7759
 6650SOL    HW231413   3.094   4.176  11.335 -2.0029 -0.0364  0.1241
 6651SOL     OW31414   4.702   1.383   7.166  0.1233  0.1760  0.1694
 6651SOL    HW131415   0.070   1.377   7.189  0.7176  2.3801 -1.7416
 6651SOL    HW231416   4.708   1.435   7.086 -2.2270 -0.2228 -0.2762
 6652SOL     OW31417   0.690   1.425   6.973 -0.0949 -0.2980 -0.1356
 6652SOL    HW131418   0.734   1.343   6.995  2.3113  1.1392  0.3924
 6652SOL    HW231419   0.750   1.490   7.009 -0.5667  0.7752 -1.2674
 6653SOL     OW31420   3.444   0.814   1.948 -0.5007 -0.4050  0.4967
 6653SOL    HW131421   3.431   0.904   1.975 -2.6160 -0.8269  0.8645
 6653SOL    HW231422   3.482   0.835   1.863  0.5790 -1.4033  0.7239
 6654SOL     OW31423   2.540   2.266   8.022 -0.1611 -0.6114  0.5072
 6654SOL    HW131424   2.610   2.237   8.080  1.8237 -0.0945 -1.6294
 6654SOL    HW231425   2.475   2.282   8.091  0.7580  0.1087  1.2169
 6655SOL     OW31426   0.969   1.045   2.952 -0.4892  1.0071  0.2304
 6655SOL    HW131427   0.915   1.002   3.018  0.6405  1.3318  1.3591
 6655SOL    HW231428   1.004   1.113   3.009  2.1631 -0.6605  0.5834
 6656SOL     OW31429   4.142   0.049  11.007  0.3840  1.2472  0.0797
 6656SOL    HW131430   4.209   0.116  10.994 -0.4298  2.1846  0.7252
 6656SOL    HW231431   4.193   4.697  11.038 -0.0908  1.4357  1.3459
 6657SOL     OW31432   2.674   4.299   3.937 -0.7865 -0.2708  0.1955
 6657SOL    HW131433   2.710   4.387   3.921 -0.6045 -0.2388  0.7955
 6657SOL    HW231434   2.623   4.291   3.856 -0.7257  2.4225 -0.1333
 6658SOL     OW31435   3.641   0.371  10.052  0.3850 -0.3942 -1.0346
 6658SOL    HW131436   3.669   0.300   9.994  0.9226  0.8330 -2.2819
 6658SOL    HW231437   3.689   0.342  10.130 -1.1887  1.8431  0.7611
 6659SOL     OW31438   1.388   0.141   8.171 -0.2771 -0.4810 -0.5209
 6659SOL    HW131439   1.347   0.110   8.090  0.1480 -0.0652 -0.8988
 6659SOL    HW231440   1.317   0.192   8.210  0.1275  1.0371 -1.7483
 6660SOL     OW31441   3.634   1.261   6.082  0.2843  0.6377  0.1653
 6660SOL    HW131442   3.668   1.218   6.160  0.1900  1.7415  0.8171
 6660SOL    HW231443   3.597   1.193   6.026 -0.2122 -0.0648  1.3529
 6661SOL     OW31444   2.954   4.205   6.990  0.6008 -0.1720  0.5442
 6661SOL    HW131445   2.867   4.177   6.962  0.2482  0.7836  0.6737
 6661SOL    HW231446   3.005   4.136   6.948  0.6153  1.1398 -1.6397
 6662SOL     OW31447   1.932   0.051   8.538 -0.0821 -0.0254  0.4377
 6662SOL    HW131448   1.886   0.099   8.469 -1.6778 -0.8716  0.9003
 6662SOL    HW231449   2.022   0.070   8.514  0.2275 -0.0995  1.5864
 6663SOL     OW31450   3.689   0.208   4.308 -0.0651 -0.3636  0.8426
 6663SOL    HW131451   3.613   0.196   4.251  0.1193 -1.9787  0.9544
 6663SOL    HW231452   3.763   0.221   4.248 -1.2254 -1.0401 -0.7218
 6664SOL     OW31453   3.364   3.271   4.307 -0.6744 -0.0988  0.3268
 6664SOL    HW131454   3.415   3.229   4.237 -0.0160  0.1181  0.6691
 6664SOL    HW231455   3.298   3.204   4.319 -0.7888 -0.1792 -0.7055
 6665SOL     OW31456   4.331   2.328   2.294  0.5763  0.4493 -0.4870
 6665SOL    HW131457   4.378   2.270   2.354 -1.9333 -1.9777 -0.8363
 6665SOL    HW231458   4.262   2.266   2.269  1.6975 -0.5416 -1.0726
 6666SOL     OW31459   2.702   4.411   4.496  0.4015  0.0618  0.4275
 6666SOL    HW131460   2.795   4.391   4.484  1.1394  4.1507 -0.9401
 6666SOL    HW231461   2.669   4.339   4.443 -0.9250  0.3952  0.7967
 6667SOL     OW31462   0.913   0.554   6.619  0.5498  0.6846 -0.3981
 6667SOL    HW131463   0.843   0.592   6.671 -1.4600 -2.3325 -0.9411
 6667SOL    HW231464   0.858   0.536   6.543  0.8131 -0.0172 -0.4237
 6668SOL     OW31465   3.916   1.418   2.755  0.3859 -0.4924  0.0964
 6668SOL    HW131466   3.954   1.488   2.702 -0.9989 -1.0702 -1.6593
 6668SOL    HW231467   3.992   1.362   2.771  0.1719 -1.1196 -1.0646
 6669SOL     OW31468   3.837   4.018  13.545  0.1033  0.2795 -0.0710
 6669SOL    HW131469   3.926   3.986  13.554  0.4274  1.9613  2.7276
 6669SOL    HW231470   3.785   3.938  13.555  1.2667 -0.3426  0.8467
 6670SOL     OW31471   1.170   3.229  14.562 -0.4432 -0.1060  0.0533
 6670SOL    HW131472   1.252   3.231  14.512  1.0832 -0.6983  2.5463
 6670SOL    HW231473   1.165   3.315  14.602  0.2491 -0.2785  0.5101
 6671SOL     OW31474   3.272   3.271   8.685  0.2952  0.2300  0.1013
 6671SOL    HW131475   3.200   3.218   8.721  1.1420 -1.4248 -0.6317
 6671SOL    HW231476   3.319   3.289   8.767  1.8663 -0.8388 -0.5760
 6672SOL     OW31477   1.763   2.483   6.963 -0.1824 -0.1018 -0.2513
 6672SOL    HW131478   1.850   2.442   6.967 -0.3251 -0.5174 -1.3165
 6672SOL    HW231479   1.703   2.416   6.995 -0.2400  0.3963  0.6564
 6673SOL     OW31480   3.953   3.822   5.323  0.0704  0.5088 -0.2593
 6673SOL    HW131481   4.033   3.855   5.284  0.0998 -1.1301 -1.5787
 6673SOL    HW231482   3.983   3.733   5.342 -0.2531  0.8536  1.8699
 6674SOL     OW31483   3.697   2.947   5.643  0.5687 -0.1074  0.3359
 6674SOL    HW131484   3.717   2.861   5.680  1.2929 -0.9813 -2.1009
 6674SOL    HW231485   3.603   2.937   5.626  0.1585  0.0730  2.4985
 6675SOL     OW31486   3.741   1.594   4.373  0.4177 -0.2488 -0.2082
 6675SOL    HW131487   3.816   1.614   4.430 -1.4038 -1.2238  2.5417
 6675SOL    HW231488   3.744   1.499   4.360  0.4561 -0.0365 -1.7634
 6676SOL     OW31489   1.491   4.275   1.755  0.2061 -0.3370 -0.0343
 6676SOL    HW131490   1.439   4.206   1.714  0.3175  0.0134 -0.7705
 6676SOL    HW231491   1.577   4.266   1.714  0.0450 -0.2573 -0.3930
 6677SOL     OW31492   2.863   1.948   1.186 -0.7626  0.1586 -0.1626
 6677SOL    HW131493   2.775   1.920   1.162 -1.0845 -0.7023  2.0485
 6677SOL    HW231494   2.875   1.944   1.281 -0.7136 -0.8977 -0.2107
 6678SOL     OW31495   2.646   3.928  10.312 -0.2142  0.3928 -0.7238
 6678SOL    HW131496   2.651   3.904  10.404  0.6739  0.9336 -0.6343
 6678SOL    HW231497   2.712   3.997  10.309  0.0701  0.1279 -0.5185
 6679SOL     OW31498   3.839   3.021   3.638 -0.0623  0.6179 -0.3373
 6679SOL    HW131499   3.818   2.946   3.582 -0.2418  0.2661  0.2043
 6679SOL    HW231500   3.916   3.048   3.588  1.9040 -0.6703  2.0155
 6680SOL     OW31501   3.230   1.697   6.659  0.2273 -0.3661  0.2194
 6680SOL    HW131502   3.235   1.782   6.702 -2.7152  0.2383 -0.6576
 6680SOL    HW231503   3.302   1.700   6.596  0.8451  0.6657  0.9773
 6681SOL     OW31504   2.228   3.078   5.270 -0.2080 -0.8616  0.1515
 6681SOL    HW131505   2.161   3.133   5.311  0.2928 -0.1625  0.0321
 6681SOL    HW231506   2.262   3.139   5.205 -2.3847 -0.4514 -0.6036
 6682SOL     OW31507   2.334   0.894   4.199  0.2383  0.1952 -0.3061
 6682SOL    HW131508   2.365   0.955   4.132  0.4352  1.1424  0.6375
 6682SOL    HW231509   2.327   0.815   4.146 -1.2395  0.7981 -1.0031
 6683SOL     OW31510   1.397   1.761   7.177  0.0147 -0.6554 -0.1316
 6683SOL    HW131511   1.373   1.766   7.270  0.5168  0.4436 -0.0662
 6683SOL    HW231512   1.490   1.782   7.174 -0.1259  0.0046  0.0340
 6684SOL     OW31513   3.533   4.560  15.382  0.3421 -0.1038 -0.1829
 6684SOL    HW131514   3.616   4.524  15.413 -0.2613 -0.2937  1.2102
 6684SOL    HW231515   3.573   4.642  15.353  0.5369 -0.7941 -1.9008
 6685SOL     OW31516   3.445   3.212  10.911 -0.1864 -0.6220  0.2382
 6685SOL    HW131517   3.511   3.259  10.962 -0.5585 -1.1584  1.2132
 6685SOL    HW231518   3.479   3.204  10.822  2.3906  0.4634  1.1026
 6686SOL     OW31519   2.558   2.652  10.615 -1.0713  0.7630 -0.0520
 6686SOL    HW131520   2.491   2.607  10.667  0.8749 -0.3050  1.5759
 6686SOL    HW231521   2.574   2.594  10.541 -3.2179  2.5721 -1.9462
 6687SOL     OW31522   4.576   3.495  11.496  0.5230 -0.6292 -0.4133
 6687SOL    HW131523   4.554   3.509  11.404 -0.6571 -2.3976 -0.4058
 6687SOL    HW231524   4.548   3.403  11.497 -2.3714  0.2422 -2.6733
 6688SOL     OW31525   3.255   3.747   8.971  0.1428  0.6941 -0.2277
 6688SOL    HW131526   3.201   3.787   9.039 -0.7845  0.3876 -0.7701
 6688SOL    HW231527   3.285   3.832   8.940 -1.7683  1.9357  1.3150
 6689SOL     OW31528   0.900   3.379  14.550 -0.1364  0.9179  0.1168
 6689SOL    HW131529   0.983   3.416  14.581  0.2685  0.0433  0.0963
 6689SOL    HW231530   0.928   3.288  14.559 -1.1814  0.7058  1.1729
 6690SOL     OW31531   2.759   3.981   6.000  0.0997 -0.0742 -0.2420
 6690SOL    HW131532   2.684   3.923   6.015 -1.0309  0.9363 -1.8957
 6690SOL    HW231533   2.794   3.943   5.919  0.1603  0.8646 -0.6534
 6691SOL     OW31534   0.837   3.246   3.053 -0.1180  0.3014  0.2323
 6691SOL    HW131535   0.921   3.241   3.099 -0.8762  1.7993  1.7783
 6691SOL    HW231536   0.865   3.308   2.985  1.1040 -0.5487 -0.0401
 6692SOL     OW31537   0.001   3.638   1.390 -0.3563  0.6657  0.3509
 6692SOL    HW131538   0.023   3.698   1.461 -1.2807  1.5697 -0.1347
 6692SOL    HW231539   4.642   3.677   1.363 -0.4660  0.3770  0.2620
 6693SOL     OW31540   1.343   2.865   8.885 -0.1847 -0.0190 -0.5006
 6693SOL    HW131541   1.425   2.839   8.843  0.9902  0.2477  1.5706
 6693SOL    HW231542   1.278   2.806   8.849  0.3292  1.1567 -3.3162
 6694SOL     OW31543   0.193   0.552   1.533  0.0844 -0.2363 -0.4999
 6694SOL    HW131544   0.250   0.614   1.486  1.1896  1.4836  3.1375
 6694SOL    HW231545   0.242   0.546   1.615  1.3784  1.6065 -1.1399
 6695SOL     OW31546   3.820   0.081   6.119  0.2868  0.0115  0.3129
 6695SOL    HW131547   3.837   0.160   6.068  0.1116 -1.1703 -1.5440
 6695SOL    HW231548   3.810   0.118   6.207  2.7978  0.7269  0.3003
 6696SOL     OW31549   2.608   2.325   4.963 -0.1270 -0.5366 -0.2763
 6696SOL    HW131550   2.668   2.387   5.004 -3.1386  1.0146  1.7936
 6696SOL    HW231551   2.536   2.383   4.937  1.4757  0.7572 -1.8262
 6697SOL     OW31552   0.053   2.478  13.833 -0.2107  0.6779  0.1534
 6697SOL    HW131553   0.059   2.510  13.923 -1.4886 -1.3703  0.9708
 6697SOL    HW231554   4.687   2.491  13.806 -1.0451 -0.6719  2.2519
 6698SOL     OW31555   3.103   2.816   3.401 -0.5337 -0.4549  0.0451
 6698SOL    HW131556   3.123   2.891   3.457  3.6316  0.1126 -2.1495
 6698SOL    HW231557   3.027   2.789   3.453 -1.0424 -1.1321 -1.0618
 6699SOL     OW31558   3.563   1.274   6.975 -0.4612  0.0353  0.2461
 6699SOL    HW131559   3.636   1.217   6.951 -0.0429  0.1384  1.2713
 6699SOL    HW231560   3.576   1.340   6.906 -0.7347 -0.9502 -0.7331
 6700SOL     OW31561   4.713   2.762   3.969 -0.0036  0.3497  0.5263
 6700SOL    HW131562   4.664   2.681   3.950  1.0146  0.1022 -1.0206
 6700SOL    HW231563   4.656   2.828   3.930 -0.1772  0.4984  1.0224
 6701SOL     OW31564   3.032   4.695   7.711 -0.6124  0.3554 -0.2760
 6701SOL    HW131565   3.047   4.638   7.635 -1.1855  2.6479 -2.1255
 6701SOL    HW231566   3.114   0.018   7.728  0.6189 -1.8728 -0.0174
 6702SOL     OW31567   0.316   4.073   6.318  0.4540 -0.2704 -0.1906
 6702SOL    HW131568   0.230   4.034   6.330  1.0860 -1.8636 -0.8462
 6702SOL    HW231569   0.345   4.012   6.250  0.2057  0.3386 -0.8409
 6703SOL     OW31570   0.655   1.467   6.283 -0.1689  0.1679  0.2370
 6703SOL    HW131571   0.579   1.457   6.340  0.4024  1.6426  1.2490
 6703SOL    HW231572   0.723   1.509   6.336 -0.4019 -0.6446  1.2003
 6704SOL     OW31573   4.222   3.490  11.079  0.6271 -0.4598  0.5193
 6704SOL    HW131574   4.228   3.569  11.025 -0.2720 -0.7267  0.0358
 6704SOL    HW231575   4.178   3.417  11.035  2.3648 -2.1912  1.6279
 6705SOL     OW31576   3.590   0.700  11.717  0.2681 -0.0969 -0.1749
 6705SOL    HW131577   3.559   0.652  11.641 -2.7177 -0.0743  1.0192
 6705SOL    HW231578   3.643   0.765  11.670  1.7120 -0.7019  0.5949
 6706SOL     OW31579   2.047   0.527   1.345 -0.2155 -0.0882  0.1330
 6706SOL    HW131580   2.080   0.533   1.255  0.8260  0.1948  0.5465
 6706SOL    HW231581   2.014   0.615   1.362 -0.8590 -0.0573 -1.2295
 6707SOL     OW31582   0.009   2.685  16.739 -0.0918 -0.2616 -0.1696
 6707SOL    HW131583   4.719   2.687  16.644  0.9756 -0.5313 -0.3341
 6707SOL    HW231584   0.095   2.645  16.754 -0.0725 -0.3608 -0.5255
 6708SOL     OW31585   2.201   3.506   0.409  0.0984 -0.5084 -0.3056
 6708SOL    HW131586   2.281   3.455   0.407 -1.0563 -2.2218 -2.7580
 6708SOL    HW231587   2.198   3.550   0.324 -3.8676 -0.2484 -0.0270
 6709SOL     OW31588   3.987   4.315   8.935  0.6954 -0.3092 -0.2303
 6709SOL    HW131589   3.969   4.327   9.028 -1.5288 -0.1087 -0.6709
 6709SOL    HW231590   4.020   4.400   8.906 -1.3597  0.3900 -0.5044
 6710SOL     OW31591   0.966   4.626  16.759  0.4971  0.3450  0.0561
 6710SOL    HW131592   1.020   4.633  16.680  0.1070  0.7284 -0.1770
 6710SOL    HW231593   0.877   4.643  16.726  0.9017  0.5487 -0.9144
 6711SOL     OW31594   3.227   0.971   5.077 -0.2292  0.9055  0.3287
 6711SOL    HW131595   3.249   0.914   5.150 -2.8551  0.2617  0.6329
 6711SOL    HW231596   3.275   0.931   5.005 -0.3372 -3.1232  2.5516
 6712SOL     OW31597   2.528   4.086   0.110 -0.2749 -0.4255 -0.0374
 6712SOL    HW131598   2.442   4.077   0.067  0.4110  0.9271 -1.7037
 6712SOL    HW231599   2.524   4.051   0.199 -0.3667 -0.8282 -0.1952
 6713SOL     OW31600   0.797   1.246   9.164 -0.0577  0.3446 -0.3311
 6713SOL    HW131601   0.718   1.195   9.181  0.0197  0.5050  0.5123
 6713SOL    HW231602   0.861   1.176   9.181  0.4781  0.3440 -2.3464
 6714SOL     OW31603   4.426   1.228   2.170 -0.0004  0.0942 -0.2056
 6714SOL    HW131604   4.414   1.134   2.175 -1.1577  0.2773  0.6788
 6714SOL    HW231605   4.521   1.230   2.157 -0.1691 -0.4659 -1.4957
 6715SOL     OW31606   0.326   2.283   5.341  0.1314  0.5418 -0.6851
 6715SOL    HW131607   0.244   2.293   5.292  0.2679  1.0398 -0.8079
 6715SOL    HW231608   0.348   2.375   5.356 -1.3514  0.6582  0.8408
 6716SOL     OW31609   1.493   4.328  14.581  0.0907  0.1739  0.2695
 6716SOL    HW131610   1.514   4.305  14.490 -3.2917 -0.7630 -0.3080
 6716SOL    HW231611   1.579   4.364  14.602  0.8722 -0.2478 -2.1589
 6717SOL     OW31612   3.406   4.518   1.105  0.0266 -0.1874 -0.7893
 6717SOL    HW131613   3.398   4.577   1.029  1.3143 -0.8541 -1.4389
 6717SOL    HW231614   3.326   4.545   1.151  0.0136 -2.2372  0.3734
 6718SOL     OW31615   0.403   3.862  15.679  0.3379 -0.1919 -0.0247
 6718SOL    HW131616   0.344   3.935  15.695 -1.1967 -1.7129  1.2399
 6718SOL    HW231617   0.448   3.854  15.763 -2.5813 -0.2194  1.5197
 6719SOL     OW31618   1.921   1.011   9.907 -0.3403 -0.1397  0.6027
 6719SOL    HW131619   1.874   1.030   9.989  0.4554 -1.0880  1.2893
 6719SOL    HW231620   1.997   0.970   9.949 -0.8114 -0.6056  1.0064
 6720SOL     OW31621   1.529   1.722   5.539 -0.0064 -0.3503 -0.1074
 6720SOL    HW131622   1.570   1.635   5.531  0.1971 -0.3711  1.1038
 6720SOL    HW231623   1.558   1.735   5.630 -0.5484  1.1936 -0.1545
 6721SOL     OW31624   0.691   2.145   0.361  0.1815 -0.1353  0.4167
 6721SOL    HW131625   0.623   2.151   0.428 -1.2645 -2.5084 -0.8373
 6721SOL    HW231626   0.693   2.231   0.320 -0.4922 -0.4385 -0.2568
 6722SOL     OW31627   1.779   4.108   2.448  0.0616 -0.1007  0.0548
 6722SOL    HW131628   1.799   4.026   2.404  0.4163 -0.1078  0.2258
 6722SOL    HW231629   1.754   4.158   2.371  1.1394  1.6759  0.8495
 6723SOL     OW31630   0.624   2.513   2.224 -0.1849  0.0675  0.2565
 6723SOL    HW131631   0.603   2.422   2.243  1.6107 -0.0320  1.8501
 6723SOL    HW231632   0.654   2.514   2.133  1.4304  2.4789  0.8102
 6724SOL     OW31633   1.670   1.111   4.096 -0.2415  0.1742  0.4935
 6724SOL    HW131634   1.757   1.074   4.076 -0.6097 -0.2757 -0.2730
 6724SOL    HW231635   1.691   1.168   4.169 -0.0335 -0.6210  1.0622
 6725SOL     OW31636   0.069   2.419   7.925 -0.4988 -0.2923 -0.1722
 6725SOL    HW131637   4.704   2.445   7.948 -0.0209 -1.2256  2.8027
 6725SOL    HW231638   0.087   2.484   7.857  2.6062  0.1821  1.1041
 6726SOL     OW31639   3.751   1.532   7.270  0.2202 -0.3070 -0.1294
 6726SOL    HW131640   3.837   1.507   7.234  0.4331 -2.2374  1.7133
 6726SOL    HW231641   3.761   1.510   7.363 -0.4506 -0.5450 -0.1122
 6727SOL     OW31642   3.115   4.393   6.647  0.3161 -0.3535  0.2411
 6727SOL    HW131643   3.043   4.336   6.674 -0.1260  0.4270  0.7135
 6727SOL    HW231644   3.071   4.466   6.602  0.7677  1.6290  2.9413
 6728SOL     OW31645   1.437   3.379  12.414 -0.7843 -0.6615  0.3937
 6728SOL    HW131646   1.489   3.364  12.494 -1.7939 -1.2662  0.9458
 6728SOL    HW231647   1.375   3.441  12.451 -0.3124 -0.0467  0.1645
 6729SOL     OW31648   2.750   4.174   9.462  0.3784 -0.2684 -0.2585
 6729SOL    HW131649   2.784   4.104   9.517  0.3295  0.7351  1.0476
 6729SOL    HW231650   2.656   4.163   9.475  0.0966  1.2386 -1.0753
 6730SOL     OW31651   2.744   3.253   3.911 -0.1263 -0.3356  0.4123
 6730SOL    HW131652   2.661   3.288   3.945 -2.0042 -0.8995 -3.6431
 6730SOL    HW231653   2.782   3.204   3.984 -0.4870 -1.5390 -0.2106
 6731SOL     OW31654   1.237   4.658  10.543 -0.2968  0.4396 -0.4007
 6731SOL    HW131655   1.287   4.599  10.486  1.4424  0.8929  0.6597
 6731SOL    HW231656   1.312   4.686  10.594 -1.8736 -0.1002  2.2278
 6732SOL     OW31657   4.182   1.950   3.988 -0.0532  0.4464 -0.0497
 6732SOL    HW131658   4.266   1.955   3.942  0.6300 -0.0659  1.1415
 6732SOL    HW231659   4.141   1.870   3.956 -1.5188  1.3256 -0.3599
 6733SOL     OW31660   2.981   1.143  12.894  0.2083  0.0691 -0.0259
 6733SOL    HW131661   2.994   1.234  12.922 -1.5316 -0.8780  3.8673
 6733SOL    HW231662   3.044   1.110  12.959  0.2535 -2.9941 -1.6109
 6734SOL     OW31663   4.566   3.872   4.786 -0.2756 -0.0831 -0.2842
 6734SOL    HW131664   4.625   3.944   4.808 -0.8917  0.5583 -0.7285
 6734SOL    HW231665   4.627   3.804   4.756  0.3306  0.3087  0.0694
 6735SOL     OW31666   4.433   3.282   4.923 -0.1420  0.0214 -0.5694
 6735SOL    HW131667   4.522   3.308   4.944 -0.6531  0.1185  1.5076
 6735SOL    HW231668   4.433   3.285   4.827 -0.3002  3.1266 -0.4735
 6736SOL     OW31669   1.550   2.731   8.707  0.0547 -0.1821  0.4657
 6736SOL    HW131670   1.544   2.787   8.629  0.2485  1.5693  1.6948
 6736SOL    HW231671   1.588   2.655   8.663  1.5245  0.3876  0.7394
 6737SOL     OW31672   0.648   4.273   9.876  0.9140  0.4939 -0.2980
 6737SOL    HW131673   0.658   4.178   9.869 -3.0277 -0.1309  2.8612
 6737SOL    HW231674   0.697   4.297   9.797 -0.7585 -1.9676 -2.0857
 6738SOL     OW31675   2.699   0.380   8.239 -0.5454 -0.4913  0.3977
 6738SOL    HW131676   2.653   0.403   8.158  0.1154  0.4160  0.2908
 6738SOL    HW231677   2.641   0.430   8.297 -0.5476 -0.4437  0.3543
 6739SOL     OW31678   1.429   0.125  17.065 -0.4717 -0.1646  0.0024
 6739SOL    HW131679   1.432   0.100  16.973  0.6882 -1.2863  0.3442
 6739SOL    HW231680   1.468   0.213  17.064  0.0215 -0.4007 -1.5195
 6740SOL     OW31681   1.651   4.323   2.013 -0.1210 -0.2084  0.0803
 6740SOL    HW131682   1.629   4.410   1.980 -1.3014 -0.1233  1.0540
 6740SOL    HW231683   1.599   4.279   1.946  0.5898  1.8024 -1.7742
 6741SOL     OW31684   1.108   1.820   9.556  0.5248 -0.6982 -0.2415
 6741SOL    HW131685   1.095   1.901   9.605  0.1579 -1.6651  1.2570
 6741SOL    HW231686   1.059   1.828   9.474  0.7104 -1.0631 -0.3855
 6742SOL     OW31687   3.621   1.189   9.953 -0.5709  0.1103 -0.4476
 6742SOL    HW131688   3.648   1.202  10.044  0.6957  3.3445 -1.2601
 6742SOL    HW231689   3.664   1.105   9.943 -3.1676 -1.2943  0.1376
 6743SOL     OW31690   1.915   0.304   9.782 -0.4765  1.2665  0.0572
 6743SOL    HW131691   1.920   0.384   9.729 -0.7311  1.2565  0.0183
 6743SOL    HW231692   1.893   0.346   9.865 -0.7722  1.3125 -0.0466
 6744SOL     OW31693   2.709   2.108  15.319 -0.4987  0.1712  0.5212
 6744SOL    HW131694   2.747   2.097  15.232 -2.4146  1.6790 -0.5104
 6744SOL    HW231695   2.743   2.193  15.346 -0.3158  0.1857  0.2427
 6745SOL     OW31696   0.649   3.379   7.841  0.9710 -0.1262 -0.6157
 6745SOL    HW131697   0.616   3.376   7.930 -1.1360 -0.7568 -1.4260
 6745SOL    HW231698   0.726   3.326   7.860  0.6992  0.1170  1.1340
 6746SOL     OW31699   2.111   0.911   2.996 -0.0797  0.2819  0.3454
 6746SOL    HW131700   2.125   1.000   3.030 -1.2286  0.6380 -0.1158
 6746SOL    HW231701   2.148   0.914   2.907 -0.0582  0.6542  0.3665
 6747SOL     OW31702   4.325   1.050   5.036 -0.1837  0.7471  0.7029
 6747SOL    HW131703   4.366   1.076   4.954  2.7888 -1.5736  1.4771
 6747SOL    HW231704   4.315   1.136   5.076 -0.8219  0.9357  0.1427
 6748SOL     OW31705   0.009   1.770   8.864 -0.3260 -0.7105 -0.2267
 6748SOL    HW131706   0.032   1.860   8.891 -0.7239 -0.6029 -0.2479
 6748SOL    HW231707   4.698   1.775   8.776 -0.1979  0.4271 -0.2223
 6749SOL     OW31708   0.679   3.801   6.736 -0.3605  0.1906 -0.0009
 6749SOL    HW131709   0.674   3.886   6.779 -0.9035 -1.4590  3.2048
 6749SOL    HW231710   0.761   3.804   6.688 -1.5748  1.1137 -2.0304
 6750SOL     OW31711   4.550   1.971  15.006  0.2814 -0.1761  0.4710
 6750SOL    HW131712   4.474   2.022  14.977  0.5535 -0.5845 -0.9635
 6750SOL    HW231713   4.519   1.881  14.997 -0.7969  0.1013  1.3802
 6751SOL     OW31714   3.034   3.017   2.224 -0.3571  0.2618  0.3714
 6751SOL    HW131715   2.958   3.030   2.167  0.1050 -0.3968 -0.3879
 6751SOL    HW231716   2.992   3.044   2.306 -0.6039  1.8760 -0.2817
 6752SOL     OW31717   1.734   4.618   8.126 -0.1095 -0.3642  0.1309
 6752SOL    HW131718   1.752   4.550   8.061  1.0320  0.2268 -0.1666
 6752SOL    HW231719   1.712   4.686   8.063  3.9341 -1.5747 -2.6169
 6753SOL     OW31720   0.002   4.404  14.117  0.1314  0.3750  0.0923
 6753SOL    HW131721   0.023   4.457  14.040  0.7588 -2.9602 -2.0062
 6753SOL    HW231722   0.090   4.395  14.154 -0.4142  0.5840  1.4682
 6754SOL     OW31723   2.856   0.913   8.072  0.1274  0.0120  0.2561
 6754SOL    HW131724   2.844   0.818   8.080  0.1827 -0.0782 -0.7739
 6754SOL    HW231725   2.763   0.937   8.064  0.0807 -0.1257  0.3733
 6755SOL     OW31726   4.557   1.675  11.857  0.3591  0.0696  0.0968
 6755SOL    HW131727   4.591   1.708  11.941  0.0449 -0.5006  0.4488
 6755SOL    HW231728   4.466   1.696  11.877 -0.5892 -2.0110 -2.1232
 6756SOL     OW31729   0.331   1.625   8.741  0.5476  0.0823 -0.2506
 6756SOL    HW131730   0.388   1.581   8.805  1.6314  2.2605  0.2938
 6756SOL    HW231731   0.313   1.709   8.783 -0.7412 -0.9049  1.1833
 6757SOL     OW31732   4.482   0.038   8.162 -1.2676 -0.2688 -0.4187
 6757SOL    HW131733   4.490   4.667   8.152  0.3945 -0.0536 -1.0827
 6757SOL    HW231734   4.485   0.048   8.258  0.2829 -0.8298 -0.4084
 6758SOL     OW31735   4.517   4.056   5.857  0.6128  0.1601 -0.2729
 6758SOL    HW131736   4.473   3.972   5.867  0.3651  0.0677 -2.0914
 6758SOL    HW231737   4.443   4.112   5.880  2.4612  2.4452  0.1528
 6759SOL     OW31738   1.201   1.132   9.664  0.6441  0.2366  0.0908
 6759SOL    HW131739   1.116   1.170   9.640 -0.0149 -0.9404  0.5345
 6759SOL    HW231740   1.180   1.051   9.710  1.2150 -0.4513 -0.8695
 6760SOL     OW31741   2.262   3.720   3.134 -0.1853  0.0171  0.1048
 6760SOL    HW131742   2.180   3.673   3.148 -0.5784  1.1323  1.5749
 6760SOL    HW231743   2.230   3.796   3.085  1.5042  1.7656  1.7615
 6761SOL     OW31744   3.216   0.008   4.620 -0.0423 -0.2511 -0.1278
 6761SOL    HW131745   3.196   4.661   4.681  1.5309 -0.1984  0.4387
 6761SOL    HW231746   3.308   0.014   4.643 -0.2792 -0.4241  0.8817
 6762SOL     OW31747   3.007   3.683  14.206  0.6218  0.3560  0.1526
 6762SOL    HW131748   2.980   3.766  14.168  0.3162 -0.2231 -0.8874
 6762SOL    HW231749   3.002   3.631  14.126  1.2774  0.2286  0.1955
 6763SOL     OW31750   2.125   4.468  12.000 -0.4165  0.4670 -0.1372
 6763SOL    HW131751   2.148   4.504  11.914  2.4639  2.7566  1.6144
 6763SOL    HW231752   2.030   4.466  11.992 -0.3069  1.1694 -1.5579
 6764SOL     OW31753   3.485   3.820  13.882 -0.6513 -0.4046 -0.0272
 6764SOL    HW131754   3.440   3.839  13.964 -0.1479  1.1397 -0.1207
 6764SOL    HW231755   3.474   3.896  13.825 -0.1959  0.7581  1.4370
 6765SOL     OW31756   4.272   3.240  17.289  0.2779  0.6074  0.6182
 6765SOL    HW131757   4.283   3.291  17.209 -2.3468  2.5430  1.4531
 6765SOL    HW231758   4.342   3.272  17.346  0.0515  1.5656  0.3681
 6766SOL     OW31759   2.278   4.047   7.080  0.4783 -0.8156  0.5265
 6766SOL    HW131760   2.309   4.066   7.169  0.5546  0.5830  0.1999
 6766SOL    HW231761   2.219   4.121   7.068 -0.2107 -1.4682 -0.0911
 6767SOL     OW31762   1.615   3.631   2.045  0.3117  0.6081  0.6648
 6767SOL    HW131763   1.535   3.588   2.013  0.8236  0.6227 -0.6268
 6767SOL    HW231764   1.590   3.637   2.137  0.3968  0.5289  0.6925
 6768SOL     OW31765   4.108   0.669   6.513  0.3241 -0.0608  0.1146
 6768SOL    HW131766   4.185   0.684   6.458 -0.1754  0.9210 -0.3315
 6768SOL    HW231767   4.076   0.597   6.459  3.0202  0.0516 -1.6247
 6769SOL     OW31768   0.055   3.424  16.220  0.0603 -0.1651 -0.4179
 6769SOL    HW131769   0.142   3.463  16.230  0.2560 -0.0209 -2.6327
 6769SOL    HW231770   0.073   3.362  16.150  1.1546 -0.7084  0.3397
 6770SOL     OW31771   0.634   0.402   3.545 -0.3009 -0.6313 -0.5312
 6770SOL    HW131772   0.539   0.392   3.549 -0.2887 -1.1691 -1.6582
 6770SOL    HW231773   0.671   0.365   3.625  0.5914  2.0099  0.2820
 6771SOL     OW31774   2.123   1.887   0.231 -0.1133 -0.1674 -0.3065
 6771SOL    HW131775   2.097   1.907   0.321 -0.9636  0.2586 -0.6530
 6771SOL    HW231776   2.043   1.842   0.205 -0.3675  0.8265 -1.1827
 6772SOL     OW31777   0.982   0.021  10.626 -0.6126 -0.2782 -0.4369
 6772SOL    HW131778   1.073   4.721  10.609 -0.2330 -0.1515  1.4148
 6772SOL    HW231779   0.969   4.693  10.705  1.3785  1.5996  1.0931
 6773SOL     OW31780   3.192   0.516   8.965  0.0190 -0.6512 -0.3292
 6773SOL    HW131781   3.146   0.506   9.049  2.1136 -1.1020  0.7961
 6773SOL    HW231782   3.268   0.458   8.978  0.6870  0.3676  0.3631
 6774SOL     OW31783   3.656   1.443  13.784 -0.6519 -0.3759 -0.1269
 6774SOL    HW131784   3.617   1.361  13.755  0.7131 -0.7380 -0.8770
 6774SOL    HW231785   3.665   1.434  13.879 -1.7143 -1.7940 -0.1632
 6775SOL     OW31786   2.686   1.268   2.417  0.1246 -0.2202  0.2713
 6775SOL    HW131787   2.657   1.179   2.396  0.1302  0.6063 -3.2025
 6775SOL    HW231788   2.637   1.328   2.361  1.3295  0.4679 -0.0428
 6776SOL     OW31789   0.319   3.488  16.334  0.2969 -0.6920 -0.0083
 6776SOL    HW131790   0.358   3.400  16.330 -0.3394 -0.9651 -0.1604
 6776SOL    HW231791   0.354   3.521  16.417  0.6148  0.4240 -0.5801
 6777SOL     OW31792   2.215   4.501   9.511 -0.7767 -0.1384  0.4109
 6777SOL    HW131793   2.307   4.483   9.494 -0.4801  0.2232  1.5893
 6777SOL    HW231794   2.169   4.419   9.528  1.0860 -1.4356 -0.9907
 6778SOL     OW31795   3.762   3.519  13.659 -0.0381  0.4217 -0.4719
 6778SOL    HW131796   3.806   3.442  13.623  0.8207  1.6514 -2.0499
 6778SOL    HW231797   3.689   3.481  13.708 -0.7070  2.1307 -0.1483
 6779SOL     OW31798   3.063   3.131   5.527  0.4741  0.0566  0.6230
 6779SOL    HW131799   2.997   3.105   5.591 -0.2122 -1.3011 -0.6373
 6779SOL    HW231800   3.011   3.183   5.465 -1.1703 -2.9927 -0.5276
 6780SOL     OW31801   2.892   3.931  15.471  0.0133 -0.1412  0.1711
 6780SOL    HW131802   2.886   3.894  15.558 -2.5119 -1.5949 -0.6351
 6780SOL    HW231803   2.985   3.933  15.445 -0.2894  0.5550 -0.8950
 6781SOL     OW31804   3.245   1.251   2.596  0.7074 -0.3838  0.1979
 6781SOL    HW131805   3.323   1.299   2.623  0.9777 -0.2296 -0.8286
 6781SOL    HW231806   3.283   1.195   2.528 -1.2932 -0.3953 -0.9024
 6782SOL     OW31807   1.716   0.790   7.110 -0.0626  0.2922 -0.0108
 6782SOL    HW131808   1.682   0.875   7.139 -1.1551 -0.2503  0.2640
 6782SOL    HW231809   1.765   0.813   7.030 -0.5323  0.2634 -0.3094
 6783SOL     OW31810   1.332   3.125   6.743  0.5295 -0.2400  0.8267
 6783SOL    HW131811   1.316   3.212   6.777 -4.6421 -2.4647  3.9252
 6783SOL    HW231812   1.284   3.083   6.814  1.6821 -0.9608  1.1816
 6784SOL     OW31813   0.763   0.675  16.315 -0.1450  0.1175 -0.2381
 6784SOL    HW131814   0.790   0.713  16.231  0.2988  4.1995  1.7411
 6784SOL    HW231815   0.699   0.738  16.348 -0.1392  0.1401 -0.2693
 6785SOL     OW31816   2.750   2.569  10.063 -0.9294 -0.0662  0.1247
 6785SOL    HW131817   2.760   2.511  10.139  0.8887  0.4336  0.2478
 6785SOL    HW231818   2.781   2.511   9.993 -0.2732  3.2221 -2.3084
 6786SOL     OW31819   0.567   0.858   8.409 -0.1472  0.1126 -0.2633
 6786SOL    HW131820   0.553   0.893   8.497 -2.0175  0.4555 -0.6907
 6786SOL    HW231821   0.585   0.942   8.365 -1.5285  0.6917  0.2934
 6787SOL     OW31822   4.498   0.166  14.986 -0.7698  0.0694  0.1479
 6787SOL    HW131823   4.508   0.207  14.899 -2.4894  0.4438  0.1268
 6787SOL    HW231824   4.589   0.137  14.994 -0.5977  0.4151 -0.5133
 6788SOL     OW31825   0.955   2.493   3.381 -0.6027 -0.1625 -0.6141
 6788SOL    HW131826   0.929   2.581   3.354 -2.6969 -0.3548  0.8059
 6788SOL    HW231827   0.886   2.479   3.446  1.5038 -0.6001  1.5149
 6789SOL     OW31828   4.065   2.168   8.133  0.0018 -0.1788 -0.0795
 6789SOL    HW131829   4.084   2.077   8.109  1.6489 -0.3557  1.8313
 6789SOL    HW231830   3.980   2.165   8.176  0.9485 -1.1299  1.7774
 6790SOL     OW31831   0.362   3.677  17.562 -0.1093  0.4181 -0.3941
 6790SOL    HW131832   0.407   3.620  17.625  0.1418  2.7375  1.5251
 6790SOL    HW231833   0.431   3.696  17.498  1.1751  1.3725  1.2859
 6791SOL     OW31834   4.365   2.364  17.182 -0.1337 -0.1580  0.3586
 6791SOL    HW131835   4.434   2.349  17.246  0.4059  3.5630  0.5935
 6791SOL    HW231836   4.297   2.395  17.242 -0.9180 -2.4447  0.6573
 6792SOL     OW31837   0.025   2.068   6.728  0.0653  0.4759 -0.1480
 6792SOL    HW131838   4.700   1.992   6.695 -0.5849  0.7101  0.2959
 6792SOL    HW231839   0.107   2.050   6.681 -2.2541 -1.8026 -3.3658
 6793SOL     OW31840   3.427   1.666   2.885 -0.4576  0.1531  0.3463
 6793SOL    HW131841   3.476   1.585   2.874  0.4008  0.6214  0.7270
 6793SOL    HW231842   3.333   1.648   2.885 -0.5748  0.7166  2.0415
 6794SOL     OW31843   3.750   2.867  11.484  0.1560  0.2900  0.1396
 6794SOL    HW131844   3.735   2.810  11.408  0.7236 -2.2256  1.9268
 6794SOL    HW231845   3.744   2.953  11.442  0.7771  0.2376 -0.0518
 6795SOL     OW31846   4.028   4.686   7.453 -0.1662  0.1246 -0.1968
 6795SOL    HW131847   3.959   0.022   7.483 -0.2831 -0.2129  0.2226
 6795SOL    HW231848   3.985   4.642   7.380 -1.8388  3.8332 -1.4517
 6796SOL     OW31849   3.298   2.931   1.836  0.2501  0.0482 -0.0348
 6796SOL    HW131850   3.276   2.895   1.922 -1.4918  2.5728  0.5781
 6796SOL    HW231851   3.227   2.882   1.794  0.2887  0.7089 -0.8689
 6797SOL     OW31852   4.617   1.261   4.193  0.0457  0.2968  0.3308
 6797SOL    HW131853   4.678   1.307   4.135 -1.5932  0.1126 -1.5249
 6797SOL    HW231854   4.651   1.172   4.193 -1.2414 -0.1857  0.1874
 6798SOL     OW31855   1.431   1.696   7.462 -0.1211  0.6703  0.1371
 6798SOL    HW131856   1.523   1.715   7.481 -0.0054  0.6386 -0.3840
 6798SOL    HW231857   1.398   1.706   7.551  0.4896 -0.8341  0.5244
 6799SOL     OW31858   4.590   3.571   0.726 -0.0371 -0.5435 -0.4224
 6799SOL    HW131859   4.646   3.497   0.747  0.9693 -0.5437 -3.1063
 6799SOL    HW231860   4.602   3.583   0.632  2.0720  0.0675 -0.0849
 6800SOL     OW31861   0.026   2.953   5.292 -0.5677  0.1172 -0.1152
 6800SOL    HW131862   0.057   2.884   5.233 -0.0468 -0.2850  0.6254
 6800SOL    HW231863   4.675   2.904   5.325  0.0072 -0.3684  0.4718
 6801SOL     OW31864   2.789   4.488  13.311  0.1129 -0.2466  0.0295
 6801SOL    HW131865   2.825   4.506  13.224 -0.2580  0.3973  0.0099
 6801SOL    HW231866   2.796   4.579  13.339 -0.3080  0.4703 -2.1703
 6802SOL     OW31867   2.621   3.718   8.569  0.1266  0.3342 -0.3526
 6802SOL    HW131868   2.639   3.675   8.486  1.5755  1.4873 -0.6433
 6802SOL    HW231869   2.654   3.660   8.639  0.7001 -0.0097 -0.9078
 6803SOL     OW31870   2.202   0.425   1.552  0.0534  0.0413  0.4139
 6803SOL    HW131871   2.134   0.459   1.495  0.3103 -0.7979 -0.4024
 6803SOL    HW231872   2.167   0.337   1.560 -0.2318  0.0863 -0.4177
 6804SOL     OW31873   3.589   1.213   4.853 -0.6036  0.2352 -0.7247
 6804SOL    HW131874   3.637   1.185   4.931  0.0245 -0.9924 -1.5571
 6804SOL    HW231875   3.554   1.133   4.813  0.1717  0.1808 -1.3089
 6805SOL     OW31876   3.428   3.975   2.411  0.1815 -0.2772  0.5643
 6805SOL    HW131877   3.344   3.954   2.370  1.3019 -2.0795 -0.8124
 6805SOL    HW231878   3.420   4.070   2.423 -0.2020 -0.1975 -0.3311
 6806SOL     OW31879   0.989   4.434  15.600  0.1430 -0.2767 -0.2465
 6806SOL    HW131880   0.994   4.377  15.677  0.6077 -0.6441 -0.5472
 6806SOL    HW231881   0.941   4.509  15.634  0.3217  0.1167 -0.8575
 6807SOL     OW31882   0.124   3.911   7.727 -0.4459  0.1031 -0.4981
 6807SOL    HW131883   0.063   3.860   7.780 -0.5267  0.2916 -0.4102
 6807SOL    HW231884   0.137   3.994   7.772  1.2481  0.7597 -2.1635
 6808SOL     OW31885   0.135   2.156   6.959 -0.1955  0.1387  0.0206
 6808SOL    HW131886   0.176   2.238   6.928 -0.6665  0.4389  0.1896
 6808SOL    HW231887   0.106   2.121   6.875 -0.4058 -1.6684  0.8621
 6809SOL     OW31888   2.478   4.365   2.280 -0.0814  0.4895 -0.1202
 6809SOL    HW131889   2.563   4.330   2.253 -0.0651  0.5056 -0.0907
 6809SOL    HW231890   2.490   4.459   2.266 -1.9864  0.5688 -1.1955
 6810SOL     OW31891   2.076   2.555   7.747  0.7246  0.2612  0.0251
 6810SOL    HW131892   2.154   2.599   7.713  2.1281 -3.4589 -1.5654
 6810SOL    HW231893   2.006   2.611   7.713  0.1086 -0.3847  0.2150
 6811SOL     OW31894   0.867   2.307   2.677 -0.1193 -0.5631 -0.2218
 6811SOL    HW131895   0.850   2.401   2.665  1.7016 -0.4942 -2.3649
 6811SOL    HW231896   0.793   2.266   2.632  0.5708 -4.2263  2.0466
 6812SOL     OW31897   4.262   0.237   3.949 -0.2359  0.2117  0.0446
 6812SOL    HW131898   4.205   0.174   3.994 -1.7842 -0.7501 -3.3057
 6812SOL    HW231899   4.312   0.171   3.902  0.3091  0.5601  0.1354
 6813SOL     OW31900   0.945   0.533   4.180 -0.2824 -0.0170  0.2565
 6813SOL    HW131901   0.867   0.550   4.127 -0.8311  2.5778  1.8845
 6813SOL    HW231902   0.895   0.471   4.234  0.6784  0.6411  1.8984
 6814SOL     OW31903   1.973   4.163   0.356 -0.0616  0.3431  0.3192
 6814SOL    HW131904   1.885   4.149   0.321  0.7973 -2.2784 -0.7617
 6814SOL    HW231905   1.959   4.121   0.441 -0.7548  0.7327  0.3985
 6815SOL     OW31906   2.188   2.500   4.257 -0.3279 -0.1349  0.2088
 6815SOL    HW131907   2.243   2.457   4.191  1.4985  1.0001  1.0053
 6815SOL    HW231908   2.237   2.524   4.335 -0.4966  0.2705  0.1900
 6816SOL     OW31909   2.211   4.134   4.330 -0.0666 -0.7132  0.0738
 6816SOL    HW131910   2.186   4.070   4.397 -1.4297 -0.8475 -0.5550
 6816SOL    HW231911   2.223   4.079   4.253  1.7263 -0.9689  0.5469
 6817SOL     OW31912   2.429   4.534   8.261 -0.1331  0.5141  0.3252
 6817SOL    HW131913   2.482   4.612   8.275  0.3836  0.2808 -0.3120
 6817SOL    HW231914   2.476   4.481   8.197  2.6281 -0.0830  2.8509
 6818SOL     OW31915   1.290   3.269   0.232 -0.4378 -0.7171  0.0286
 6818SOL    HW131916   1.293   3.362   0.208  2.1919 -0.4925  1.1891
 6818SOL    HW231917   1.362   3.269   0.296 -1.3418 -0.6775  1.0461
 6819SOL     OW31918   2.714   0.981  10.967  0.5199 -0.2665  0.3046
 6819SOL    HW131919   2.714   1.072  10.939  0.5786 -0.4610 -0.3271
 6819SOL    HW231920   2.803   0.960  10.938 -0.4223  1.0690 -3.5571
 6820SOL     OW31921   2.520   2.469   0.651 -0.0714 -0.3914 -0.5703
 6820SOL    HW131922   2.425   2.456   0.659 -0.1114 -0.3607 -1.0003
 6820SOL    HW231923   2.530   2.540   0.714 -1.4607 -0.3542 -0.3864
 6821SOL     OW31924   3.799   4.368   5.724 -0.0527 -0.2149 -0.6356
 6821SOL    HW131925   3.824   4.400   5.810 -0.8421  0.2710 -0.5897
 6821SOL    HW231926   3.706   4.391   5.715  0.2552  0.8413 -1.1591
 6822SOL     OW31927   2.422   0.219   3.666 -0.2918 -0.2970 -0.0748
 6822SOL    HW131928   2.452   0.178   3.585 -1.4899  0.4574 -0.9068
 6822SOL    HW231929   2.332   0.188   3.671 -0.5558  0.1887 -1.7436
 6823SOL     OW31930   1.523   0.144   6.595 -0.1357  0.3930 -0.5423
 6823SOL    HW131931   1.562   0.164   6.680 -1.6119 -1.2387  0.5097
 6823SOL    HW231932   1.470   0.223   6.594 -1.8893 -0.8204 -1.9738
 6824SOL     OW31933   2.891   3.183   8.060 -0.1153  0.1502  0.3968
 6824SOL    HW131934   2.850   3.262   8.025 -0.0421 -0.1970 -0.4595
 6824SOL    HW231935   2.832   3.168   8.135  0.0034  0.6414  0.5863
 6825SOL     OW31936   4.605   3.776   7.509 -0.1897  0.5599  0.2031
 6825SOL    HW131937   4.604   3.689   7.548  0.5198  0.6828  0.5022
 6825SOL    HW231938   4.609   3.757   7.415 -1.6115 -0.1564  0.2864
 6826SOL     OW31939   4.377   0.512  13.376  0.3034  0.9148 -0.2600
 6826SOL    HW131940   4.423   0.440  13.333  0.4096  1.7234 -1.4905
 6826SOL    HW231941   4.455   0.564  13.396 -0.5129  1.4793  1.4164
 6827SOL     OW31942   1.929   2.256  11.617 -0.0524  0.3770  0.2467
 6827SOL    HW131943   1.923   2.188  11.551  2.8586  0.3049  0.0685
 6827SOL    HW231944   1.961   2.204  11.691 -1.1449  1.2819  1.3600
 6828SOL     OW31945   3.518   2.363  16.772  0.0248 -0.5451  0.7102
 6828SOL    HW131946   3.487   2.297  16.834  1.5609 -1.9518  0.0032
 6828SOL    HW231947   3.531   2.313  16.691  0.4460  0.1563  0.3413
 6829SOL     OW31948   1.572   1.109   7.839  0.1705  0.1571  0.0615
 6829SOL    HW131949   1.606   1.056   7.911  1.8758  0.4014 -0.5585
 6829SOL    HW231950   1.597   1.198   7.864 -0.8581  0.7381 -1.0169
 6830SOL     OW31951   2.328   2.898   0.472 -0.1875  0.5409 -0.1549
 6830SOL    HW131952   2.275   2.898   0.552  0.1847  0.0952  0.0949
 6830SOL    HW231953   2.374   2.814   0.479 -2.3420 -0.5332  1.2280
 6831SOL     OW31954   4.317   0.245  10.973 -0.0216  0.3055  0.1105
 6831SOL    HW131955   4.331   0.340  10.970 -2.1034  0.6148 -0.0503
 6831SOL    HW231956   4.361   0.234  10.888  0.9844  0.4001  0.6223
 6832SOL     OW31957   0.968   1.642  14.358  0.8300 -0.8257 -0.2569
 6832SOL    HW131958   1.032   1.712  14.371  2.3479 -1.7542 -2.6809
 6832SOL    HW231959   0.953   1.649  14.263 -0.2654  0.0391 -0.0146
 6833SOL     OW31960   0.860   4.504   7.964  0.3567  0.1261  0.3023
 6833SOL    HW131961   0.906   4.538   8.041  0.9198 -0.7172  0.3452
 6833SOL    HW231962   0.789   4.568   7.962 -0.1534 -0.4431  0.3190
 6834SOL     OW31963   2.659   4.636   4.981 -0.0404  0.2650  0.4289
 6834SOL    HW131964   2.661   4.719   5.028 -0.6557  1.6851 -2.0621
 6834SOL    HW231965   2.565   4.642   4.964 -0.1124 -0.0943  0.7093
 6835SOL     OW31966   3.818   2.070  14.330  0.2692  0.0585  0.5393
 6835SOL    HW131967   3.833   2.155  14.288  1.1389 -1.2541 -1.8006
 6835SOL    HW231968   3.798   2.017  14.252 -0.3307  0.5975  0.3254
 6836SOL     OW31969   4.466   3.746   9.713 -0.7685  0.4513 -1.3056
 6836SOL    HW131970   4.452   3.747   9.618  1.0201 -0.4990 -1.5760
 6836SOL    HW231971   4.383   3.788   9.734 -1.3825 -0.5058 -1.7882
 6837SOL     OW31972   1.389   1.715   8.361 -0.4062 -0.1964 -0.0066
 6837SOL    HW131973   1.482   1.737   8.353  0.0887 -1.6814  1.7593
 6837SOL    HW231974   1.407   1.621   8.366 -0.1571 -0.0747  1.2726
 6838SOL     OW31975   1.648   3.780   8.515 -0.0383  1.1319 -0.1268
 6838SOL    HW131976   1.660   3.686   8.504 -0.7509  0.9949  0.2688
 6838SOL    HW231977   1.626   3.784   8.608 -2.2282  1.5106 -0.6608
 6839SOL     OW31978   4.691   2.779   2.439  0.1073 -0.0019 -0.7792
 6839SOL    HW131979   0.062   2.792   2.440 -0.0288  0.8401  1.1369
 6839SOL    HW231980   4.698   2.690   2.405 -1.7432 -1.3394  2.3680
 6840SOL     OW31981   4.618   2.223   3.132  0.3273  0.2585 -0.0964
 6840SOL    HW131982   4.523   2.213   3.122  0.2084  1.5884 -0.3151
 6840SOL    HW231983   4.642   2.131   3.141 -0.4759  0.1707  1.1098
 6841SOL     OW31984   2.851   4.379   9.278  0.1211  0.8220 -0.1732
 6841SOL    HW131985   2.757   4.365   9.278  0.1790  0.4641  1.3071
 6841SOL    HW231986   2.875   4.351   9.366  0.6759 -0.7895 -0.8262
 6842SOL     OW31987   0.942   0.012   0.982 -0.4397  0.0184 -0.6089
 6842SOL    HW131988   1.028   4.712   0.949  0.5697  0.4713  1.6852
 6842SOL    HW231989   0.913   0.071   0.912  1.2554  2.1829  0.5024
 6843SOL     OW31990   2.325   0.693  10.305 -0.5715  0.9662 -0.3502
 6843SOL    HW131991   2.280   0.778  10.301  1.0366  1.7363 -1.8326
 6843SOL    HW231992   2.346   0.684  10.212  0.2741  1.1572 -0.1735
 6844SOL     OW31993   3.366   0.999   6.531  0.3409  0.0029  0.2270
 6844SOL    HW131994   3.439   0.949   6.496  0.1211  0.9006 -1.5055
 6844SOL    HW231995   3.402   1.085   6.554  3.1377 -0.5988 -2.0061
 6845SOL     OW31996   1.505   4.570   2.699 -0.0354  0.0603  0.2114
 6845SOL    HW131997   1.573   4.551   2.635 -1.3637  1.2584 -1.5625
 6845SOL    HW231998   1.441   4.615   2.643 -1.9471  0.9955  3.1446
 6846SOL     OW31999   0.014   1.181   4.962 -0.2007  0.8104  0.1711
 6846SOL    HW132000   0.085   1.245   4.968  0.7748 -0.3644  1.1076
 6846SOL    HW232001   4.699   1.179   5.049 -0.9914 -0.8777 -0.2189
 6847SOL     OW32002   3.242   1.500   4.405  0.6652 -0.3013  0.3775
 6847SOL    HW132003   3.266   1.408   4.408  1.1201 -0.2044 -0.4113
 6847SOL    HW232004   3.229   1.526   4.497 -1.0588 -3.0651  0.9006
 6848SOL     OW32005   1.548   4.466   4.529 -1.3441 -0.0289 -0.3120
 6848SOL    HW132006   1.512   4.482   4.441  0.4561  1.1940 -0.8370
 6848SOL    HW232007   1.641   4.490   4.525 -0.7826 -2.7623 -3.6656
 6849SOL     OW32008   0.658   1.972   6.239  0.6640 -0.5856  0.2488
 6849SOL    HW132009   0.704   1.934   6.314  3.9715 -0.5627 -1.7525
 6849SOL    HW232010   0.669   1.909   6.168  0.8521 -1.1456  0.7847
 6850SOL     OW32011   2.300   3.819   8.962  0.9884 -0.3763  0.1923
 6850SOL    HW132012   2.338   3.758   8.898  0.2026  0.8537 -1.4441
 6850SOL    HW232013   2.289   3.756   9.033 -1.5721  0.1957  0.2883
 6851SOL     OW32014   3.620   0.024   8.563 -0.4011 -0.1351 -0.0599
 6851SOL    HW132015   3.697   0.069   8.598 -1.5848  1.3102  0.7164
 6851SOL    HW232016   3.604   0.068   8.479  0.0579  0.5363  0.2059
 6852SOL     OW32017   2.446   0.823   2.594  0.1669  0.1635  0.4699
 6852SOL    HW132018   2.530   0.796   2.633 -0.6251  0.2720  2.2759
 6852SOL    HW232019   2.476   0.897   2.542 -1.2266 -0.0920 -0.6793
 6853SOL     OW32020   3.258   2.707   4.246 -0.7943  0.3606  0.4360
 6853SOL    HW132021   3.346   2.733   4.220 -1.9276  2.2711 -1.4410
 6853SOL    HW232022   3.208   2.786   4.224 -1.0542  0.3414  0.9582
 6854SOL     OW32023   1.437   3.440   8.590 -0.1755  0.2108  0.4860
 6854SOL    HW132024   1.434   3.531   8.560  3.1369  0.7533  1.7737
 6854SOL    HW232025   1.345   3.415   8.587 -0.1522  0.0228  1.4456
 6855SOL     OW32026   4.084   1.165   5.701 -0.2476  0.0897 -0.7268
 6855SOL    HW132027   4.023   1.224   5.657 -0.4181  1.9020  1.9893
 6855SOL    HW232028   4.039   1.147   5.783  2.9070  2.6029  1.5668
 6856SOL     OW32029   4.199   2.146  11.510 -0.6744  0.4315 -0.2922
 6856SOL    HW132030   4.215   2.063  11.555 -1.7165  0.2203 -0.3135
 6856SOL    HW232031   4.276   2.158  11.455 -0.5813 -0.3265 -0.3278
 6857SOL     OW32032   2.374   0.962   1.231  0.0539 -0.7168  0.0874
 6857SOL    HW132033   2.298   0.967   1.290  1.1645 -1.1044  1.5519
 6857SOL    HW232034   2.444   0.990   1.289  1.1096 -0.4223 -1.3312
 6858SOL     OW32035   4.182   3.303   3.238 -0.0829  0.0500 -0.1655
 6858SOL    HW132036   4.270   3.293   3.277 -0.5311 -2.4610  0.1910
 6858SOL    HW232037   4.177   3.398   3.229  3.4480  0.2687  0.0988
 6859SOL     OW32038   1.936   2.813   7.972 -0.6318 -0.5292  0.1121
 6859SOL    HW132039   1.942   2.855   7.886  1.6984  0.2605  0.6442
 6859SOL    HW232040   1.984   2.872   8.030 -1.5008  1.2192 -0.9472
 6860SOL     OW32041   2.261   2.245  11.433 -0.1258 -0.1018 -0.3908
 6860SOL    HW132042   2.310   2.184  11.489 -0.6071  2.5452  2.9454
 6860SOL    HW232043   2.201   2.186  11.388  1.1575 -1.2233 -0.6216
 6861SOL     OW32044   4.232   2.990   7.039  0.1567 -0.1997  0.4157
 6861SOL    HW132045   4.171   3.063   7.041  0.4261 -0.0099  1.7194
 6861SOL    HW232046   4.206   2.933   7.112 -0.7972 -2.5483 -1.7467
 6862SOL     OW32047   1.797   1.401   7.130  0.2900  0.3018  0.1567
 6862SOL    HW132048   1.783   1.395   7.035  2.7329  0.4064 -0.2040
 6862SOL    HW232049   1.776   1.489   7.162  0.1090  0.0881  0.6248
 6863SOL     OW32050   3.400   1.675   6.129  0.1542  0.3191  0.1768
 6863SOL    HW132051   3.308   1.687   6.151  0.9931  2.2256  2.7346
 6863SOL    HW232052   3.424   1.735   6.058 -0.8163  1.2961  0.6709
 6864SOL     OW32053   2.881   3.208   4.992 -0.0677 -0.4386 -0.1929
 6864SOL    HW132054   2.844   3.281   4.942  0.3003  0.4714  0.8652
 6864SOL    HW232055   2.933   3.166   4.923 -0.9892 -1.0815 -0.5039
 6865SOL     OW32056   4.202   0.375   4.998  0.3858  0.2713  0.4349
 6865SOL    HW132057   4.242   0.356   5.083  1.6045 -2.0791 -0.6665
 6865SOL    HW232058   4.196   0.470   5.003  1.4265  0.3634 -0.0986
 6866SOL     OW32059   3.869   1.868  10.289 -0.1317  0.1172 -0.2263
 6866SOL    HW132060   3.914   1.909  10.363 -0.5901 -1.1808  0.7668
 6866SOL    HW232061   3.926   1.890  10.215 -2.1669  0.8623 -1.5581
 6867SOL     OW32062   4.132   2.927   4.238 -0.3088 -0.7921 -0.9557
 6867SOL    HW132063   4.100   2.910   4.150 -1.2173 -0.3432 -0.7132
 6867SOL    HW232064   4.087   3.007   4.266 -0.1446 -1.2377  0.6010
 6868SOL     OW32065   2.603   0.657  15.338 -0.1750  0.4767 -0.0557
 6868SOL    HW132066   2.550   0.589  15.295  0.2498 -0.2221  0.5226
 6868SOL    HW232067   2.630   0.599  15.409  0.0451 -1.2360 -1.5253
 6869SOL     OW32068   0.840   3.844  12.902  0.4653  0.2182  0.3078
 6869SOL    HW132069   0.825   3.753  12.875  1.3570 -0.2417  1.3844
 6869SOL    HW232070   0.791   3.884  12.830 -3.0607  0.6453  2.9824
 6870SOL     OW32071   4.692   3.138  16.109  0.2168  1.0045 -0.4508
 6870SOL    HW132072   0.035   3.166  16.047  0.8681 -1.1262 -0.7337
 6870SOL    HW232073   4.668   3.051  16.075 -0.5331  0.7795  0.6552
 6871SOL     OW32074   2.359   3.666   6.200 -0.6054 -0.3005  0.2474
 6871SOL    HW132075   2.403   3.626   6.124  1.2711  1.3479  0.4501
 6871SOL    HW232076   2.269   3.656   6.170 -0.9510  1.3536  0.7080
 6872SOL     OW32077   3.951   4.201   2.189  1.2164 -0.4841  0.0572
 6872SOL    HW132078   3.976   4.202   2.097 -1.8435 -0.2580 -0.7918
 6872SOL    HW232079   3.900   4.120   2.183 -1.0925  0.9258  0.3014
 6873SOL     OW32080   2.309   1.005   8.269  0.4500  0.0365 -0.2163
 6873SOL    HW132081   2.401   0.990   8.292  0.1111  0.5748  1.5206
 6873SOL    HW232082   2.300   1.078   8.208  2.1389  0.3602 -0.0737
 6874SOL     OW32083   0.773   1.644   5.006 -0.4976 -0.1508  0.0984
 6874SOL    HW132084   0.865   1.669   5.012 -1.1230  1.9673  0.5948
 6874SOL    HW232085   0.730   1.728   5.020 -1.8219 -1.1702  2.1874
 6875SOL     OW32086   4.400   3.072   9.370  0.4606 -0.3027  0.2464
 6875SOL    HW132087   4.430   3.048   9.283  0.4531 -1.4806  0.5629
 6875SOL    HW232088   4.418   2.990   9.417  0.3774 -0.1286  0.5863
 6876SOL     OW32089   1.743   3.456  14.108 -0.2328  0.5201  0.1059
 6876SOL    HW132090   1.808   3.526  14.120  1.5624 -1.4281  1.7543
 6876SOL    HW232091   1.700   3.496  14.033  0.8970  1.3253 -0.1188
 6877SOL     OW32092   1.651   2.947   8.035 -0.7127  0.1793 -0.1805
 6877SOL    HW132093   1.688   2.860   8.054  1.2775  0.6396 -2.0121
 6877SOL    HW232094   1.695   2.986   8.111 -1.7515 -1.3423  1.2184
 6878SOL     OW32095   2.804   3.734   0.188  0.1629 -0.2205 -1.0463
 6878SOL    HW132096   2.871   3.680   0.147  0.1279  0.4936 -2.0428
 6878SOL    HW232097   2.799   3.799   0.118  0.9220  1.0799  0.1048
 6879SOL     OW32098   0.963   2.649  15.027 -0.1055  0.1432  1.0124
 6879SOL    HW132099   0.890   2.590  15.008  0.2234  0.5012 -1.2822
 6879SOL    HW232100   0.940   2.727  14.977 -3.2074 -1.1841  0.3884
 6880SOL     OW32101   3.551   1.814  14.243  0.5470  0.2882  0.1893
 6880SOL    HW132102   3.514   1.898  14.213 -1.4935 -0.8006 -0.3761
 6880SOL    HW232103   3.545   1.773  14.156  0.8218  0.2772  0.1778
 6881SOL     OW32104   2.410   3.460   5.984  0.4710  0.0128  0.0847
 6881SOL    HW132105   2.404   3.395   5.914 -0.8693 -1.2572  1.3668
 6881SOL    HW232106   2.353   3.530   5.952 -0.8458 -0.4731  1.3450
 6882SOL     OW32107   4.546   1.737   3.212 -0.7629  0.4834 -1.1562
 6882SOL    HW132108   4.470   1.737   3.271 -0.1614  0.8279 -0.3757
 6882SOL    HW232109   4.609   1.696   3.272 -0.8647  2.9003  0.6282
 6883SOL     OW32110   3.295   3.518  16.072 -0.4258  0.2739 -0.1066
 6883SOL    HW132111   3.223   3.543  16.129 -0.3432  2.0534 -0.7971
 6883SOL    HW232112   3.353   3.487  16.142 -1.0173  0.8147  0.6224
 6884SOL     OW32113   3.005   3.069   2.492  0.4713 -0.1300 -0.2609
 6884SOL    HW132114   2.946   3.021   2.550  1.3354 -1.1809 -0.2501
 6884SOL    HW232115   3.085   3.017   2.501 -0.1661 -1.1928 -0.8089
 6885SOL     OW32116   1.243   4.502   8.602  0.4268  0.9450 -0.1780
 6885SOL    HW132117   1.314   4.527   8.543 -1.1521  2.1926 -1.5472
 6885SOL    HW232118   1.294   4.476   8.679 -1.7081 -0.7378  0.6589
 6886SOL     OW32119   0.046   2.816   6.785  0.4246 -0.2299 -0.3819
 6886SOL    HW132120   0.082   2.799   6.698 -0.8104  0.3601 -1.0074
 6886SOL    HW232121   0.121   2.802   6.844  1.3939 -0.8890 -1.7793
 6887SOL     OW32122   1.725   1.283   1.391 -0.4803 -0.1527  0.0767
 6887SOL    HW132123   1.799   1.253   1.339 -0.3167  0.4145 -0.0172
 6887SOL    HW232124   1.722   1.379   1.382 -1.0620 -0.1573  0.1698
 6888SOL     OW32125   0.924   1.535  10.623  0.0019 -0.5762  0.0450
 6888SOL    HW132126   0.870   1.611  10.601  2.9051  1.6598  0.6058
 6888SOL    HW232127   0.911   1.542  10.717 -0.9784 -2.4995  0.0386
 6889SOL     OW32128   2.264   3.986   4.118 -0.6964  0.2891 -0.2692
 6889SOL    HW132129   2.318   3.997   4.040 -1.1227  3.5390 -0.1225
 6889SOL    HW232130   2.249   3.893   4.131  1.5012 -0.2664 -1.7868
 6890SOL     OW32131   4.300   4.210   8.072 -0.0445 -0.5902 -0.2561
 6890SOL    HW132132   4.284   4.198   8.165  0.2189  2.6479  0.2325
 6890SOL    HW232133   4.271   4.126   8.038 -0.4423 -0.6487  0.2356
 6891SOL     OW32134   1.505   3.307   8.324  0.0803 -0.1153  0.1983
 6891SOL    HW132135   1.460   3.391   8.338 -2.0213 -1.3968  1.1479
 6891SOL    HW232136   1.488   3.263   8.407  0.6442 -0.9820 -0.1525
 6892SOL     OW32137   4.427   3.454   8.970  0.3300 -0.1203  0.6610
 6892SOL    HW132138   4.469   3.420   9.049 -0.7299 -0.8293  0.9348
 6892SOL    HW232139   4.496   3.464   8.905 -0.4236  0.3394 -0.0628
 6893SOL     OW32140   4.139   2.434  12.383 -0.4315 -0.0137 -0.0739
 6893SOL    HW132141   4.161   2.468  12.469 -4.3500  1.2881  0.3846
 6893SOL    HW232142   4.218   2.465  12.339 -1.1151 -2.2502 -2.9035
 6894SOL     OW32143   0.345   1.753   2.614 -0.3215 -0.6869  0.3152
 6894SOL    HW132144   0.388   1.678   2.655  0.5975  0.5485  1.5840
 6894SOL    HW232145   0.337   1.729   2.522 -0.9089 -0.0394  0.1953
 6895SOL     OW32146   3.207   4.474   8.581  0.2995  0.2991  0.2927
 6895SOL    HW132147   3.255   4.418   8.643 -0.5466 -0.3905  0.3296
 6895SOL    HW232148   3.116   4.449   8.597  0.1699  0.5235 -0.0976
 6896SOL     OW32149   4.113   2.077   0.898 -0.1937 -0.2462 -0.4146
 6896SOL    HW132150   4.117   2.148   0.834  1.7951  0.4664  0.4765
 6896SOL    HW232151   4.115   2.127   0.980 -1.0256  1.0707 -1.2021
 6897SOL     OW32152   0.680   1.562   5.584  0.3454 -0.0659 -0.9043
 6897SOL    HW132153   0.653   1.565   5.676  0.4306  0.2650 -0.8901
 6897SOL    HW232154   0.758   1.617   5.590 -0.1816  0.3783  1.7811
 6898SOL     OW32155   3.591   2.001   9.697  0.4129 -0.1907  0.0323
 6898SOL    HW132156   3.613   2.018   9.606 -2.2526  3.0102 -0.0165
 6898SOL    HW232157   3.681   1.979   9.718 -0.1031  0.0902  2.5730
 6899SOL     OW32158   3.445   2.187   9.161  0.4483 -0.4979 -0.6098
 6899SOL    HW132159   3.511   2.255   9.144  0.5905 -0.6304 -0.5887
 6899SOL    HW232160   3.495   2.108   9.139 -0.4025 -1.4930  1.0440
 6900SOL     OW32161   1.386   2.260   4.868  0.2036 -0.3143  0.3634
 6900SOL    HW132162   1.457   2.281   4.807  1.0368  1.2466  1.8988
 6900SOL    HW232163   1.401   2.166   4.878 -0.2548 -0.2543  1.6192
 6901SOL     OW32164   4.483   3.599   5.573 -0.2981  0.3855 -0.4312
 6901SOL    HW132165   4.457   3.540   5.502  3.9990 -1.1076 -0.7769
 6901SOL    HW232166   4.434   3.678   5.552 -0.1629  0.2831 -1.1231
 6902SOL     OW32167   2.251   4.000  15.283  0.0235  0.2440  0.4752
 6902SOL    HW132168   2.158   4.023  15.275 -0.4839 -2.6623 -2.1150
 6902SOL    HW232169   2.281   4.032  15.198 -0.3642 -2.2486 -0.6031
 6903SOL     OW32170   0.855   2.361   7.806 -0.3149  0.3917  0.3209
 6903SOL    HW132171   0.834   2.303   7.733  0.9298  1.4049 -0.8456
 6903SOL    HW232172   0.935   2.404   7.776  0.5428 -1.1111  0.4526
 6904SOL     OW32173   1.885   3.837   4.791  0.1608 -0.2329  0.8890
 6904SOL    HW132174   1.912   3.928   4.780 -1.6168  0.2669  0.6764
 6904SOL    HW232175   1.803   3.838   4.743 -0.1022 -0.0056  1.3388
 6905SOL     OW32176   3.104   1.007   5.656 -0.8597 -0.3943  0.5736
 6905SOL    HW132177   3.115   1.102   5.654  2.3615 -0.7502  2.1903
 6905SOL    HW232178   3.197   0.987   5.666 -0.1012  3.3218  1.1482
 6906SOL     OW32179   1.496   2.502   7.368  0.1329 -0.4596 -0.4049
 6906SOL    HW132180   1.416   2.552   7.380 -0.3483 -0.7206 -2.5029
 6906SOL    HW232181   1.528   2.564   7.302 -0.3643  0.3379  0.1108
 6907SOL     OW32182   3.270   0.188   5.593  0.1932  0.0496 -0.0707
 6907SOL    HW132183   3.270   0.159   5.684 -0.5933  0.9420  0.2108
 6907SOL    HW232184   3.353   0.236   5.592  0.0321  0.2952 -3.3845
 6908SOL     OW32185   1.746   3.850   1.359 -0.0299 -0.8218 -0.7070
 6908SOL    HW132186   1.709   3.937   1.376 -0.8979 -1.7669  2.2356
 6908SOL    HW232187   1.745   3.820   1.450  0.7730  0.2923 -0.3313
 6909SOL     OW32188   3.597   2.308   8.526 -0.1117  0.7926  0.0805
 6909SOL    HW132189   3.680   2.349   8.552 -1.3012  3.2992 -0.1519
 6909SOL    HW232190   3.586   2.343   8.437  1.5946  1.1198 -0.0189
 6910SOL     OW32191   1.553   3.779   7.894 -0.0428  0.1246 -0.2719
 6910SOL    HW132192   1.590   3.780   7.982 -0.8033 -0.6561  0.0505
 6910SOL    HW232193   1.632   3.802   7.844 -0.0990  0.3676 -0.2499
 6911SOL     OW32194   2.965   4.346  13.026 -0.1122  0.5573  0.1555
 6911SOL    HW132195   2.990   4.361  13.117 -1.2398  0.2863  0.5072
 6911SOL    HW232196   2.879   4.388  13.029  0.3433  1.4196  1.4105
 6912SOL     OW32197   3.790   1.928  11.646  0.5519  0.2791  0.1739
 6912SOL    HW132198   3.850   1.880  11.704 -0.2366  0.8346  1.4514
 6912SOL    HW232199   3.790   1.874  11.567 -1.7407 -0.7546  0.8808
 6913SOL     OW32200   2.954   2.216   9.187 -0.3089  0.4217  0.2998
 6913SOL    HW132201   3.003   2.161   9.127 -0.7912  0.5183 -0.1801
 6913SOL    HW232202   2.907   2.276   9.130 -0.0809 -0.9504 -1.3422
 6914SOL     OW32203   2.160   0.484   1.095 -0.1596  0.3391  0.5714
 6914SOL    HW132204   2.186   0.399   1.060 -1.8577  0.1302 -0.2179
 6914SOL    HW232205   2.246   0.505   1.130  1.2020 -1.4637 -1.7506
 6915SOL     OW32206   1.729   0.409  13.984  0.0670 -0.3950  0.5777
 6915SOL    HW132207   1.715   0.503  13.978  1.7631 -0.0726  1.7343
 6915SOL    HW232208   1.813   0.409  13.938 -0.0952 -0.8167  0.2788
 6916SOL     OW32209   0.762   0.921  10.722 -0.0032  0.0401 -0.6427
 6916SOL    HW132210   0.784   0.950  10.633  1.0441  1.3696  0.0402
 6916SOL    HW232211   0.830   0.858  10.743 -0.5908 -0.0867  0.8377
 6917SOL     OW32212   2.532   1.462   8.953 -0.1310 -0.0594 -0.0847
 6917SOL    HW132213   2.583   1.542   8.968 -2.2205  1.3000 -0.3395
 6917SOL    HW232214   2.491   1.452   9.038 -0.2410  1.2357  0.0107
 6918SOL     OW32215   4.318   0.241   8.391  0.6251 -0.6699  0.3346
 6918SOL    HW132216   4.353   0.265   8.477 -3.0079  1.8932  1.1148
 6918SOL    HW232217   4.358   0.307   8.334  1.4747 -1.6357 -0.1602
 6919SOL     OW32218   3.275   1.668   2.629 -0.0472  0.5809  1.2799
 6919SOL    HW132219   3.365   1.638   2.611 -0.1997  1.4357 -0.9796
 6919SOL    HW232220   3.279   1.749   2.578 -1.0228  0.5533  1.1681
 6920SOL     OW32221   2.443   3.275  11.794 -0.0201 -0.0178 -0.3572
 6920SOL    HW132222   2.468   3.319  11.712 -1.7347  1.0688 -0.3084
 6920SOL    HW232223   2.368   3.329  11.817 -0.3004 -0.9279  0.8316
 6921SOL     OW32224   4.123   1.055   8.235 -0.2548  0.0685 -1.0284
 6921SOL    HW132225   4.092   0.983   8.291 -1.8663  2.3411  0.9936
 6921SOL    HW232226   4.150   1.123   8.297  1.2086 -1.8833  0.5123
 6922SOL     OW32227   2.350   0.180   5.856  0.0028 -0.1355  0.3396
 6922SOL    HW132228   2.278   0.184   5.793 -0.5727  1.6621  1.1395
 6922SOL    HW232229   2.301   0.145   5.930 -0.4082  0.4637  0.3499
 6923SOL     OW32230   1.284   0.271   1.446  0.8386  0.0841 -0.0623
 6923SOL    HW132231   1.298   0.351   1.395 -0.9154 -0.0472 -0.7733
 6923SOL    HW232232   1.332   0.207   1.392  1.0446  0.0808  0.1283
 6924SOL     OW32233   0.110   0.877   4.266  0.0051 -0.1465  0.0956
 6924SOL    HW132234   0.026   0.907   4.230  0.3243 -0.6036 -1.0400
 6924SOL    HW232235   0.139   0.949   4.322 -0.4023  1.2544 -1.4800
 6925SOL     OW32236   2.401   3.439   6.778 -0.6794 -0.2947  0.2063
 6925SOL    HW132237   2.477   3.487   6.746 -1.0531  0.7747  0.9337
 6925SOL    HW232238   2.326   3.498   6.788 -2.2634 -2.3225  0.4450
 6926SOL     OW32239   3.866   2.518   7.007 -0.0010 -0.0842 -0.5004
 6926SOL    HW132240   3.843   2.483   6.921 -0.4341 -0.3964 -0.2541
 6926SOL    HW232241   3.799   2.585   7.017 -1.0082 -1.4364  1.7498
 6927SOL     OW32242   1.679   3.160   6.113 -0.4543 -0.5196 -0.6051
 6927SOL    HW132243   1.687   3.247   6.076  0.7865 -0.8799 -1.2124
 6927SOL    HW232244   1.698   3.182   6.205  0.0253  0.8839 -1.0432
 6928SOL     OW32245   1.710   2.631  14.262  0.4126  0.2902  0.3652
 6928SOL    HW132246   1.632   2.639  14.316  0.9717  0.0745  1.1922
 6928SOL    HW232247   1.700   2.545  14.220 -1.4456  0.3711  0.6695
 6929SOL     OW32248   0.846   3.988   4.653 -0.1001 -0.2116 -0.5018
 6929SOL    HW132249   0.817   4.013   4.566  1.1348 -0.3379 -0.9577
 6929SOL    HW232250   0.765   3.996   4.703  1.6172 -3.2388  2.7659
 6930SOL     OW32251   1.494   1.556   8.719 -0.4257  0.0496 -0.0451
 6930SOL    HW132252   1.524   1.469   8.746  0.4812  0.2212 -0.5124
 6930SOL    HW232253   1.439   1.589   8.790  0.3991  0.8363  0.2181
 6931SOL     OW32254   0.870   4.678   6.117 -0.1322 -0.5973 -0.3901
 6931SOL    HW132255   0.853   4.678   6.023  0.2736  0.6127 -0.4720
 6931SOL    HW232256   0.942   4.615   6.124  0.1983  0.0572  2.2565
 6932SOL     OW32257   3.162   0.702   2.882  0.0709  0.5212  0.0986
 6932SOL    HW132258   3.105   0.761   2.833  0.5413  2.9416  2.4358
 6932SOL    HW232259   3.227   0.665   2.822 -1.4197 -1.7348 -0.1021
 6933SOL     OW32260   1.783   4.714   4.624 -0.1240 -0.4045 -0.6181
 6933SOL    HW132261   1.762   0.014   4.534 -0.0947  2.2647  0.0960
 6933SOL    HW232262   1.704   0.022   4.668  0.6852 -1.0479  1.2798
 6934SOL     OW32263   4.233   1.680   3.328 -0.0780  0.0043 -0.2766
 6934SOL    HW132264   4.197   1.592   3.337  0.5202 -0.3977 -1.6952
 6934SOL    HW232265   4.296   1.686   3.400 -0.9699 -2.6262  0.6978
 6935SOL     OW32266   2.965   1.368   7.645 -0.2064  0.4186  0.3437
 6935SOL    HW132267   2.891   1.411   7.686 -2.0944 -1.0712 -1.4660
 6935SOL    HW232268   2.926   1.283   7.626  1.8695 -0.1318 -1.4673
 6936SOL     OW32269   0.725   3.770   7.752 -1.1230 -0.2028  0.4369
 6936SOL    HW132270   0.750   3.837   7.689 -0.2332 -1.8675 -0.9795
 6936SOL    HW232271   0.670   3.706   7.706  0.9681 -0.2967 -1.9526
 6937SOL     OW32272   2.412   3.611  11.991 -0.2462  0.8974  0.0406
 6937SOL    HW132273   2.357   3.689  12.001  1.0135  2.3295 -3.9716
 6937SOL    HW232274   2.461   3.634  11.912  0.7601 -0.4326  0.2685
 6938SOL     OW32275   3.715   2.671   5.773 -0.0199 -0.2351  0.0402
 6938SOL    HW132276   3.710   2.606   5.703 -0.4554 -0.3545  0.1825
 6938SOL    HW232277   3.623   2.663   5.799 -0.6643  2.6844 -1.2764
 6939SOL     OW32278   4.061   2.067   1.358 -0.6155 -0.2271  0.1538
 6939SOL    HW132279   4.136   2.115   1.324 -0.0912 -1.0712  0.1296
 6939SOL    HW232280   4.103   1.990   1.397 -0.4071  0.0609  0.4934
 6940SOL     OW32281   3.739   2.698  14.954  0.2279 -0.5111  0.0180
 6940SOL    HW132282   3.741   2.651  14.871 -1.0653 -1.5742  0.6053
 6940SOL    HW232283   3.757   2.790  14.932  1.3702 -0.3858  1.4808
 6941SOL     OW32284   2.457   4.248  13.689  0.1630  0.4275  0.0824
 6941SOL    HW132285   2.547   4.222  13.708  0.4314  1.9551  0.8838
 6941SOL    HW232286   2.412   4.165  13.703  2.3147 -0.7351  0.1125
 6942SOL     OW32287   0.395   0.486   6.936 -0.4172 -0.1603  0.2524
 6942SOL    HW132288   0.450   0.415   6.905 -1.9082 -0.3994 -1.8291
 6942SOL    HW232289   0.317   0.472   6.883  0.3689 -1.8923 -0.4340
 6943SOL     OW32290   4.174   3.867   3.255  0.1190  0.3766  0.3363
 6943SOL    HW132291   4.218   3.902   3.177  0.0374 -2.1695 -0.8636
 6943SOL    HW232292   4.083   3.870   3.227  0.2157 -0.8377 -0.1093
 6944SOL     OW32293   2.156   1.963  16.917 -0.1020  0.0339  0.1152
 6944SOL    HW132294   2.172   1.924  17.003  2.9213  0.3131 -0.3504
 6944SOL    HW232295   2.061   1.972  16.909  0.0410  0.4728 -1.1143
 6945SOL     OW32296   2.100   0.581  11.535 -0.3403 -0.0775 -0.4772
 6945SOL    HW132297   2.167   0.515  11.518 -1.5638 -2.0751  2.3955
 6945SOL    HW232298   2.078   0.597  11.444 -2.8415 -0.9771 -0.0317
 6946SOL     OW32299   1.480   0.644   8.621 -0.5321  0.0426  0.1458
 6946SOL    HW132300   1.548   0.702   8.657 -1.3780  1.2131 -0.1718
 6946SOL    HW232301   1.468   0.590   8.699  0.4548 -1.1224 -0.5043
 6947SOL     OW32302   1.817   3.131  12.322  0.3254  0.5289 -0.1359
 6947SOL    HW132303   1.831   3.181  12.402  0.8052 -0.8730  0.6439
 6947SOL    HW232304   1.889   3.068  12.328 -0.1159 -0.4035 -4.2955
 6948SOL     OW32305   4.351   3.911   2.431 -0.1949 -0.1635  0.1618
 6948SOL    HW132306   4.351   3.946   2.342 -3.3705  2.1536  1.0974
 6948SOL    HW232307   4.321   3.986   2.481  1.0391 -0.0659  0.7530
 6949SOL     OW32308   4.259   0.855  12.696  0.1538 -0.2568 -0.1308
 6949SOL    HW132309   4.283   0.939  12.736  2.3352 -1.4590  1.0864
 6949SOL    HW232310   4.286   0.795  12.766 -0.7759  0.9139  1.2389
 6950SOL     OW32311   0.556   4.695   7.058  0.2119 -0.3692  0.2312
 6950SOL    HW132312   0.586   4.647   7.135  0.7432 -0.5919 -0.1180
 6950SOL    HW232313   0.556   0.059   7.096 -0.4731 -0.8865  1.4464
 6951SOL     OW32314   1.158   1.988   4.893 -0.1613 -0.0916 -0.3612
 6951SOL    HW132315   1.229   1.949   4.842 -0.4245 -0.6449 -0.3122
 6951SOL    HW232316   1.118   2.040   4.824  0.9045  1.9477  0.5621
 6952SOL     OW32317   0.417   4.395   8.152  0.0036 -0.2768  0.7125
 6952SOL    HW132318   0.363   4.403   8.073 -2.1432  0.6927  2.2568
 6952SOL    HW232319   0.414   4.300   8.163 -1.3421 -0.0676  2.2070
 6953SOL     OW32320   2.546   4.543   4.673  0.5691 -0.3259 -0.2060
 6953SOL    HW132321   2.589   4.628   4.675 -0.8938  0.4147 -0.0326
 6953SOL    HW232322   2.608   4.487   4.626  0.2990 -1.4777  0.8061
 6954SOL     OW32323   3.183   2.343   9.240 -0.1015 -0.0241  0.2405
 6954SOL    HW132324   3.163   2.321   9.149 -0.3392 -0.4560  0.3960
 6954SOL    HW232325   3.121   2.280   9.277 -0.4405  1.7100  2.6092
 6955SOL     OW32326   2.829   2.954   5.649 -0.1917  0.5332  0.3961
 6955SOL    HW132327   2.769   2.926   5.718  0.5728 -1.3921  0.2798
 6955SOL    HW232328   2.775   3.004   5.587 -1.3965 -3.0713 -1.5113
 6956SOL     OW32329   3.533   1.328   2.587 -0.6731 -0.7935 -0.0533
 6956SOL    HW132330   3.611   1.275   2.573  0.3778  0.9188 -0.7091
 6956SOL    HW232331   3.552   1.369   2.671  0.1152 -0.1808 -0.5328
 6957SOL     OW32332   1.748   3.739  13.701 -0.7718  0.0719 -0.5762
 6957SOL    HW132333   1.840   3.711  13.704 -1.0851 -0.9260 -0.4402
 6957SOL    HW232334   1.759   3.807  13.767 -1.1853 -0.4279  0.0057
 6958SOL     OW32335   0.537   3.129  12.939 -0.2836  0.3400 -0.0737
 6958SOL    HW132336   0.530   3.088  13.025 -0.3811  0.0272 -0.2318
 6958SOL    HW232337   0.549   3.051  12.886 -0.1889  1.4262 -1.6641
 6959SOL     OW32338   0.762   1.745  15.978  0.3894 -0.6931  0.4034
 6959SOL    HW132339   0.710   1.697  15.913  1.5683 -1.0119 -0.2968
 6959SOL    HW232340   0.797   1.669  16.025  1.4926  0.3050  1.1801
 6960SOL     OW32341   1.542   2.286   0.702  0.2761 -0.1194 -0.3611
 6960SOL    HW132342   1.587   2.368   0.724 -1.0610  0.5549 -0.1303
 6960SOL    HW232343   1.457   2.312   0.666  0.7221  1.8738 -0.0002
 6961SOL     OW32344   1.577   2.874   4.413 -0.5057 -0.1103  0.5917
 6961SOL    HW132345   1.626   2.845   4.490  0.4288  1.7497  0.6920
 6961SOL    HW232346   1.498   2.896   4.462 -0.1745 -0.1754  1.1470
 6962SOL     OW32347   0.604   4.623   7.386  0.1331 -0.1030  0.2477
 6962SOL    HW132348   0.514   4.647   7.364  1.0614  0.9826 -2.4328
 6962SOL    HW232349   0.602   4.599   7.479 -1.0041 -0.1454  0.2061
 6963SOL     OW32350   1.959   2.554   3.834 -0.1674  0.0738  0.2282
 6963SOL    HW132351   1.893   2.512   3.779 -0.2754 -0.5367  0.8307
 6963SOL    HW232352   1.939   2.524   3.923  2.8385 -1.2345  0.4535
 6964SOL     OW32353   0.047   1.333   3.587 -0.5170 -0.6258  0.5466
 6964SOL    HW132354   4.691   1.300   3.626 -1.5014  1.8878  0.6194
 6964SOL    HW232355   0.093   1.356   3.667 -0.3115 -0.9997  0.5324
 6965SOL     OW32356   3.717   2.247   4.522  0.3483  0.3716  0.1282
 6965SOL    HW132357   3.650   2.231   4.588  0.3205  1.6533  0.4102
 6965SOL    HW232358   3.711   2.164   4.474 -0.5351 -1.1369  2.8482
 6966SOL     OW32359   4.635   3.356   8.487 -0.1680  0.1324  0.0722
 6966SOL    HW132360   4.717   3.308   8.498 -0.9553 -0.9923  1.0260
 6966SOL    HW232361   4.618   3.336   8.394  1.0828  0.0128 -0.1253
 6967SOL     OW32362   1.727   4.298   7.121 -0.6680 -0.6824  0.1360
 6967SOL    HW132363   1.662   4.312   7.189 -0.5696  0.7572 -0.0609
 6967SOL    HW232364   1.796   4.349   7.164  2.8131 -2.9955 -2.7025
 6968SOL     OW32365   0.224   2.355  13.601  0.2058  0.2325  0.5204
 6968SOL    HW132366   0.170   2.406  13.540  1.0832 -1.0904 -1.3427
 6968SOL    HW232367   0.212   2.403  13.683  2.0128 -1.2180  1.6180
 6969SOL     OW32368   1.455   3.335   0.903 -0.3171  0.0293  0.2168
 6969SOL    HW132369   1.536   3.374   0.937 -0.0158  1.0948 -1.7438
 6969SOL    HW232370   1.417   3.421   0.887  0.5680  0.1169 -1.4108
 6970SOL     OW32371   1.715   0.960   9.207 -0.3107  0.1252 -0.8686
 6970SOL    HW132372   1.712   0.907   9.127 -0.1370  0.2843 -0.9811
 6970SOL    HW232373   1.751   0.893   9.266  0.8278  1.4444 -0.0607
 6971SOL     OW32374   1.338   2.835  15.091  0.0102  0.9472 -0.0802
 6971SOL    HW132375   1.324   2.911  15.148  0.8801  0.5801  0.6223
 6971SOL    HW232376   1.286   2.861  15.015 -1.4303 -1.2116  0.1567
 6972SOL     OW32377   0.773   3.495   3.349  0.5741 -0.1324  0.1506
 6972SOL    HW132378   0.692   3.528   3.388  1.8092  0.4976  2.1686
 6972SOL    HW232379   0.833   3.567   3.369 -0.3613 -0.1313  2.9063
 6973SOL     OW32380   4.340   1.610  11.610 -0.3560  0.0923  0.0201
 6973SOL    HW132381   4.384   1.602  11.695 -0.0358 -1.2415 -0.2732
 6973SOL    HW232382   4.324   1.520  11.582  1.8741 -0.2847 -0.0871
 6974SOL     OW32383   3.094   2.648   2.433  0.5384  0.0894 -0.0659
 6974SOL    HW132384   3.174   2.661   2.382 -0.2717 -1.3465 -1.7108
 6974SOL    HW232385   3.050   2.722   2.392  1.3670  0.7825  0.3158
 6975SOL     OW32386   3.652   2.740   3.263  0.5535 -0.1975  0.2273
 6975SOL    HW132387   3.568   2.766   3.300  0.2321 -0.7899 -0.0838
 6975SOL    HW232388   3.667   2.814   3.203  1.0528 -0.0308  0.5560
 6976SOL     OW32389   4.699   3.188   8.185  0.0800  0.3219 -0.1500
 6976SOL    HW132390   0.004   3.133   8.258 -1.1642 -0.7302 -0.4597
 6976SOL    HW232391   0.063   3.212   8.156  0.9820  0.7865  2.9345
 6977SOL     OW32392   1.893   4.656   4.136  0.4654  0.7834  0.2180
 6977SOL    HW132393   1.978   4.613   4.127  0.9858  2.1117 -1.2042
 6977SOL    HW232394   1.895   0.010   4.080  0.5004  0.6441  0.0248
 6978SOL     OW32395   2.467   3.855   2.675 -0.6252 -0.3797 -0.0232
 6978SOL    HW132396   2.387   3.809   2.702 -3.1233  3.7045 -0.4697
 6978SOL    HW232397   2.464   3.829   2.582 -1.7591  2.7866 -0.8564
 6979SOL     OW32398   0.676   2.643   1.854 -0.0227  0.0431 -0.2145
 6979SOL    HW132399   0.589   2.604   1.869 -1.1238  2.0058 -1.4562
 6979SOL    HW232400   0.670   2.676   1.764 -1.8174 -1.4953 -0.6706
 6980SOL     OW32401   1.137   2.585  10.976  0.3732  0.1639 -0.0056
 6980SOL    HW132402   1.171   2.548  11.058  0.6234 -0.4855 -0.4047
 6980SOL    HW232403   1.178   2.672  10.979 -2.7541  1.6967 -2.3955
 6981SOL     OW32404   3.258   4.085  10.186 -0.8499 -0.4877 -0.3298
 6981SOL    HW132405   3.242   3.992  10.203  1.8026 -0.5166  2.0403
 6981SOL    HW232406   3.307   4.110  10.264 -2.5029 -1.5364  1.0546
 6982SOL     OW32407   3.178   1.984   7.290  0.3550 -0.3946  0.4392
 6982SOL    HW132408   3.179   1.951   7.200  0.6841 -0.9421  0.6457
 6982SOL    HW232409   3.144   2.072   7.276  2.3200 -0.0885 -2.3673
 6983SOL     OW32410   1.063   4.228   1.573  0.6120  0.0013 -0.5298
 6983SOL    HW132411   1.158   4.230   1.583  0.9246 -1.0520 -3.3423
 6983SOL    HW232412   1.073   4.222   1.478 -0.7046  0.3899 -0.7001
 6984SOL     OW32413   2.620   1.743  15.569 -0.2554  0.2026 -0.1256
 6984SOL    HW132414   2.643   1.667  15.622 -0.6342 -1.2917 -2.0697
 6984SOL    HW232415   2.564   1.789  15.631  1.2876  0.7792  0.8415
 6985SOL     OW32416   1.140   2.165   3.468  0.6044  0.0088 -0.1173
 6985SOL    HW132417   1.085   2.103   3.515 -2.0572  2.6136  0.1916
 6985SOL    HW232418   1.230   2.152   3.500  0.4671  0.8133  0.5985
 6986SOL     OW32419   3.641   0.471  16.827  0.7510 -0.1538 -0.5031
 6986SOL    HW132420   3.574   0.540  16.820 -1.0243 -1.7094  1.3545
 6986SOL    HW232421   3.653   0.434  16.739 -1.2027 -0.8423 -0.4839
 6987SOL     OW32422   1.449   2.154   4.373 -0.1925 -0.2601 -0.0762
 6987SOL    HW132423   1.496   2.136   4.292 -0.6247  0.1435 -0.4237
 6987SOL    HW232424   1.512   2.143   4.443  0.9402  0.6553 -0.9520
 6988SOL     OW32425   3.161   0.478   7.864  0.2129 -0.1764 -0.2526
 6988SOL    HW132426   3.142   0.422   7.789  0.1758  1.5627 -1.5397
 6988SOL    HW232427   3.257   0.486   7.857  0.3136 -1.3501 -0.1193
 6989SOL     OW32428   0.853   0.930   0.251  0.0784 -0.3437 -0.5314
 6989SOL    HW132429   0.808   0.850   0.277  0.2662 -0.9315 -2.0330
 6989SOL    HW232430   0.870   0.915   0.158  0.0893 -0.9098 -0.4356
 6990SOL     OW32431   2.567   2.881   6.154 -0.3146 -0.4176  0.2560
 6990SOL    HW132432   2.611   2.880   6.239  1.1164 -0.8149 -0.4855
 6990SOL    HW232433   2.635   2.933   6.110  0.3428  0.8927  2.8260
 6991SOL     OW32434   1.989   4.302  15.094  0.0689  0.4520 -0.0408
 6991SOL    HW132435   1.997   4.364  15.166 -0.3164 -0.3973  0.7432
 6991SOL    HW232436   2.004   4.360  15.020  2.0145 -0.0666 -0.0747
 6992SOL     OW32437   2.333   3.901   7.490 -0.3914  0.1799  0.4859
 6992SOL    HW132438   2.247   3.882   7.529 -0.8926  2.8692  0.7282
 6992SOL    HW232439   2.304   3.954   7.416 -0.8303  1.8171  1.8359
 6993SOL     OW32440   4.414   3.610   4.292  0.1119  0.1644  0.0423
 6993SOL    HW132441   4.419   3.524   4.250  2.1825 -0.0955  0.8035
 6993SOL    HW232442   4.404   3.580   4.382 -0.6996  1.5804  0.4270
 6994SOL     OW32443   4.719   0.927   8.396  0.5651 -0.8170  0.0371
 6994SOL    HW132444   4.632   0.936   8.356  0.2231 -0.2888  0.9033
 6994SOL    HW232445   0.048   0.890   8.325  1.8149  0.7810  0.1381
 6995SOL     OW32446   0.462   3.987  14.076  0.0529 -0.2045  0.0968
 6995SOL    HW132447   0.542   4.019  14.033  0.7501 -1.2814  0.5866
 6995SOL    HW232448   0.416   3.948  14.002  0.5223  1.4884 -1.1175
 6996SOL     OW32449   0.113   4.562  16.892 -0.4289 -0.0328  0.1909
 6996SOL    HW132450   0.184   4.595  16.947 -0.4871 -1.6773  1.2752
 6996SOL    HW232451   0.063   4.641  16.873  1.0825  0.5746 -1.3026
 6997SOL     OW32452   2.988   3.371   7.045  0.0179 -0.1848  0.1858
 6997SOL    HW132453   2.985   3.334   6.956 -1.7811 -2.8698  1.3702
 6997SOL    HW232454   2.897   3.364   7.073 -0.5767  0.7119 -1.5269
 6998SOL     OW32455   0.010   0.946   6.292 -0.9435 -0.2325  0.4602
 6998SOL    HW132456   4.651   0.934   6.246 -0.2133 -2.0127 -0.4008
 6998SOL    HW232457   0.062   1.001   6.234  0.2403 -3.3484 -1.4316
 6999SOL     OW32458   2.627   2.712   9.812  0.1557 -0.2094 -0.0350
 6999SOL    HW132459   2.646   2.620   9.795  0.8481  0.1285 -1.1083
 6999SOL    HW232460   2.536   2.720   9.785 -0.1642 -1.9735  0.5325
 7000SOL     OW32461   0.824   3.574  12.783 -0.9595 -0.6138  0.2112
 7000SOL    HW132462   0.906   3.542  12.745 -1.5314  0.4912 -1.9673
 7000SOL    HW232463   0.820   3.504  12.848 -1.6888  0.4643  1.3162
 7001SOL     OW32464   2.015   2.749   2.270  0.6444  0.3100  0.2955
 7001SOL    HW132465   2.002   2.657   2.251 -0.0809  0.7468 -1.3023
 7001SOL    HW232466   1.961   2.766   2.347  0.8531 -0.0003  0.5111
 7002SOL     OW32467   3.075   1.751  17.665  0.0602  0.1200  0.6888
 7002SOL    HW132468   3.027   1.680  17.622 -1.4663  1.1721  0.6380
 7002SOL    HW232469   3.004   1.809  17.693 -1.3497 -1.2817 -0.0046
 7003SOL     OW32470   0.054   0.103  16.862 -0.2240 -0.0811  0.2272
 7003SOL    HW132471   0.118   0.156  16.909  0.4257  1.2374 -2.1115
 7003SOL    HW232472   0.052   0.134  16.771  1.2969  0.6587  0.4478
 7004SOL     OW32473   4.168   4.043   3.780  0.0613 -0.4135  0.0074
 7004SOL    HW132474   4.243   4.018   3.835 -0.3012 -1.4715  0.0163
 7004SOL    HW232475   4.184   3.974   3.716 -1.3929 -0.5532 -0.2088
 7005SOL     OW32476   2.005   2.362   4.788 -0.3855 -0.2575 -0.2479
 7005SOL    HW132477   1.940   2.432   4.782  0.0482  0.1294 -0.4777
 7005SOL    HW232478   2.017   2.354   4.883  2.0812  1.9049 -0.3812
 7006SOL     OW32479   3.540   1.928   3.419 -0.1140 -0.0428 -0.6879
 7006SOL    HW132480   3.511   1.890   3.335 -0.4850 -1.4924  0.0972
 7006SOL    HW232481   3.581   2.012   3.400 -0.1509  0.2206  0.4482
 7007SOL     OW32482   2.499   4.585   9.256  0.4419  0.3376  0.4936
 7007SOL    HW132483   2.589   4.593   9.286  1.2689 -0.5378 -1.7994
 7007SOL    HW232484   2.460   4.663   9.296 -0.6567  0.9526 -1.7604
 7008SOL     OW32485   2.949   1.642   2.261  0.0601  0.0006  0.0622
 7008SOL    HW132486   2.934   1.557   2.219 -1.2516 -0.0884  0.7034
 7008SOL    HW232487   2.936   1.702   2.188  1.1208  1.9196  1.4467
 7009SOL     OW32488   1.253   4.250   8.456  0.4096 -0.0598 -0.2359
 7009SOL    HW132489   1.174   4.196   8.463 -0.7344  1.6017 -0.3390
 7009SOL    HW232490   1.238   4.324   8.514 -0.2506  0.1307 -0.6437
 7010SOL     OW32491   1.237   0.127   5.322 -0.3498  0.8238  0.1663
 7010SOL    HW132492   1.313   0.110   5.377 -0.5043  2.6060  0.9430
 7010SOL    HW232493   1.261   0.218   5.304  1.1514  0.2743 -0.6846
 7011SOL     OW32494   1.422   0.500   2.608  0.5123  0.3193  0.3225
 7011SOL    HW132495   1.509   0.539   2.601  0.3847  0.8206  1.3984
 7011SOL    HW232496   1.377   0.562   2.665 -0.2359  0.7596 -0.7453
 7012SOL     OW32497   1.359   1.166  10.614  0.2860  0.6009  0.1388
 7012SOL    HW132498   1.410   1.154  10.534  0.6053  2.7378  0.0245
 7012SOL    HW232499   1.362   1.261  10.618  0.6179  0.5766  0.4306
 7013SOL     OW32500   3.689   2.115  16.254  0.0227 -0.2635 -0.3814
 7013SOL    HW132501   3.688   2.148  16.164  0.7698  1.1630  0.1452
 7013SOL    HW232502   3.617   2.051  16.252 -0.6332  0.4666 -0.4042
 7014SOL     OW32503   1.337   2.689  15.568 -0.2734  0.3922  0.5571
 7014SOL    HW132504   1.272   2.705  15.636  1.5434  0.1636  2.3321
 7014SOL    HW232505   1.415   2.659  15.614  1.0066  1.1966 -1.0636
 7015SOL     OW32506   4.649   3.384   1.423  0.7465 -0.4154  0.1584
 7015SOL    HW132507   4.679   3.464   1.381  0.3240 -1.2714 -1.8165
 7015SOL    HW232508   4.672   3.405   1.513  4.0534  2.3864 -1.3714
 7016SOL     OW32509   2.800   4.338  10.944  0.4158  0.0094  0.0681
 7016SOL    HW132510   2.756   4.397  10.883 -0.4624 -1.3029 -0.5398
 7016SOL    HW232511   2.816   4.392  11.022  1.5546 -0.1394 -0.0531
 7017SOL     OW32512   3.255   3.572   4.960 -0.3214 -0.5588  0.1380
 7017SOL    HW132513   3.166   3.551   4.932  0.1755 -0.5843 -1.4265
 7017SOL    HW232514   3.303   3.583   4.878 -1.9276 -1.7653 -0.9637
 7018SOL     OW32515   3.760   0.550   6.602  0.2503  0.6122 -0.6232
 7018SOL    HW132516   3.759   0.508   6.516  0.5295 -0.7000  0.0069
 7018SOL    HW232517   3.667   0.541   6.623  1.4833 -3.0324  3.3375
 7019SOL     OW32518   3.833   2.667  16.134  0.3139  0.4665 -0.0344
 7019SOL    HW132519   3.781   2.720  16.074  3.5553  2.6530 -0.8680
 7019SOL    HW232520   3.896   2.611  16.089  0.9208  1.6908 -0.7098
 7020SOL     OW32521   1.979   3.752  12.093 -0.4401  0.4026  0.1644
 7020SOL    HW132522   2.046   3.820  12.081  0.8209 -0.8907 -0.1477
 7020SOL    HW232523   1.971   3.716  12.005 -0.9064 -0.2070  0.4597
 7021SOL     OW32524   0.115   0.712   9.723 -0.0169 -0.4324  0.2293
 7021SOL    HW132525   0.088   0.647   9.787  0.5748  0.3484  1.2772
 7021SOL    HW232526   0.178   0.664   9.670 -0.3532 -0.9813  0.3216
 7022SOL     OW32527   2.090   1.917   3.355  0.3462 -0.4190 -0.0241
 7022SOL    HW132528   2.081   1.925   3.450 -1.6907 -0.7837 -0.1866
 7022SOL    HW232529   2.048   1.831   3.344 -1.5389  0.7136 -1.6076
 7023SOL     OW32530   2.122   3.684   7.883 -0.4286 -0.9342 -0.2811
 7023SOL    HW132531   2.099   3.753   7.945  2.0514  0.2003 -0.6430
 7023SOL    HW232532   2.184   3.632   7.934  0.6330  1.5706  0.9333
 7024SOL     OW32533   0.875   1.389   4.438  0.8459  0.0909  0.2684
 7024SOL    HW132534   0.823   1.438   4.375  0.6317  0.4986  0.7581
 7024SOL    HW232535   0.805   1.369   4.501 -2.0304  1.4532 -2.4573
 7025SOL     OW32536   0.916   0.276   3.922  0.1748 -0.6722 -0.3899
 7025SOL    HW132537   1.011   0.286   3.917  0.3808 -2.6741 -0.4046
 7025SOL    HW232538   0.898   0.342   3.989  2.7722  0.6660 -0.9752
 7026SOL     OW32539   3.245   2.406   6.837  0.4169  0.4796  0.3448
 7026SOL    HW132540   3.323   2.385   6.785 -0.7627  1.9381 -2.0467
 7026SOL    HW232541   3.277   2.473   6.897  0.7217  0.3179  0.3591
 7027SOL     OW32542   4.630   1.071   5.209  0.0494 -0.3099  0.0767
 7027SOL    HW132543   4.557   1.021   5.243  0.5316  0.7433  2.6850
 7027SOL    HW232544   4.615   1.154   5.254 -0.8587  0.0546 -0.9122
 7028SOL     OW32545   1.305   4.617   1.858  0.1182 -0.0197 -0.1627
 7028SOL    HW132546   1.211   4.618   1.874 -0.1846 -2.8382 -1.6145
 7028SOL    HW232547   1.303   4.661   1.773 -0.1119 -1.2493 -0.8104
 7029SOL     OW32548   2.029   0.392  15.294  0.3621  0.0608  0.0809
 7029SOL    HW132549   2.093   0.381  15.223 -0.0805  2.5337 -0.6858
 7029SOL    HW232550   1.948   0.348  15.266  0.5438 -0.5017  0.4474
 7030SOL     OW32551   3.191   2.180   8.100 -0.5525 -0.0043  0.1005
 7030SOL    HW132552   3.197   2.276   8.101  0.9559 -0.1067  1.6649
 7030SOL    HW232553   3.278   2.152   8.070 -0.8231  0.5645 -1.2011
 7031SOL     OW32554   3.382   2.824   3.886  0.6696  0.3018 -0.2473
 7031SOL    HW132555   3.439   2.825   3.810  0.9064  0.2070 -0.0699
 7031SOL    HW232556   3.331   2.905   3.879 -0.2517  0.0868  4.2183
 7032SOL     OW32557   4.458   1.163   6.958  0.3097  0.3183 -0.5114
 7032SOL    HW132558   4.449   1.184   6.865  2.2876  0.3307 -0.7005
 7032SOL    HW232559   4.471   1.068   6.958  0.1130  0.2836  1.7430
 7033SOL     OW32560   1.087   3.668   2.443 -0.0772 -0.1107 -0.3262
 7033SOL    HW132561   1.131   3.752   2.456  1.3921 -0.6354 -1.9067
 7033SOL    HW232562   1.163   3.624   2.406  0.4703 -1.3031  2.1818
 7034SOL     OW32563   0.340   2.849   6.360  0.0350  0.1880 -0.8002
 7034SOL    HW132564   0.420   2.798   6.376  0.1317  0.2447 -1.1016
 7034SOL    HW232565   0.365   2.933   6.400  1.6683  0.2583 -1.9395
 7035SOL     OW32566   1.951   0.578   8.594  0.5230 -0.3360 -0.4650
 7035SOL    HW132567   2.030   0.590   8.541  2.5426 -0.1639  2.6537
 7035SOL    HW232568   1.890   0.524   8.544 -1.2050 -0.5192  1.8789
 7036SOL     OW32569   0.107   4.014   3.667 -0.0434 -0.2016  0.1409
 7036SOL    HW132570   0.152   3.987   3.587  1.8322  2.2127  0.3608
 7036SOL    HW232571   0.040   3.947   3.679 -1.5713  1.4310  0.6603
 7037SOL     OW32572   0.160   2.391   8.265 -0.0035 -0.5244  0.0617
 7037SOL    HW132573   0.112   2.387   8.182  1.0673 -2.1019 -0.4799
 7037SOL    HW232574   0.155   2.304   8.305  0.2635 -0.9413 -0.8159
 7038SOL     OW32575   1.293   2.245   5.939 -0.7396  0.8163 -0.4201
 7038SOL    HW132576   1.263   2.168   5.891  0.8129  1.2862 -2.1637
 7038SOL    HW232577   1.217   2.266   5.992 -0.6381  0.4764 -0.1387
 7039SOL     OW32578   0.358   1.631   7.875 -0.2609  0.8705 -0.3286
 7039SOL    HW132579   0.443   1.654   7.912 -0.3351  1.4056 -0.4831
 7039SOL    HW232580   0.373   1.671   7.789  1.0685 -0.0451 -0.5221
 7040SOL     OW32581   0.107   2.581   3.151  0.1882 -0.3771 -0.3654
 7040SOL    HW132582   0.036   2.603   3.091  0.6591  0.2783 -0.6818
 7040SOL    HW232583   0.078   2.492   3.175  0.0972  0.1865  1.6382
 7041SOL     OW32584   4.338   0.054   6.475 -0.3552 -0.3677 -0.8029
 7041SOL    HW132585   4.408   0.059   6.540 -1.1830 -1.0124  0.1482
 7041SOL    HW232586   4.306   0.144   6.472 -0.2484 -0.2955  0.1660
 7042SOL     OW32587   0.820   1.993   9.442  0.1107  0.8703 -0.1865
 7042SOL    HW132588   0.839   1.910   9.398 -0.2571  1.1157 -0.8097
 7042SOL    HW232589   0.782   2.049   9.375 -0.3707 -1.5952 -1.9597
 7043SOL     OW32590   1.203   2.190  16.704 -0.2023 -0.3109  0.1847
 7043SOL    HW132591   1.199   2.133  16.627 -0.5494 -0.2271  0.1407
 7043SOL    HW232592   1.153   2.268  16.682  3.8651  1.7156 -1.7537
 7044SOL     OW32593   0.612   2.389   8.452 -0.7932 -0.6638  1.0565
 7044SOL    HW132594   0.641   2.319   8.393 -0.1980 -0.6627  1.3469
 7044SOL    HW232595   0.573   2.451   8.391 -2.4831 -3.3018 -0.5668
 7045SOL     OW32596   2.728   3.482   6.608  0.5073 -0.6794 -0.0995
 7045SOL    HW132597   2.670   3.527   6.669  1.3470 -0.8841  0.8536
 7045SOL    HW232598   2.795   3.550   6.597  1.2500 -1.4645 -0.5511
 7046SOL     OW32599   3.580   3.218   2.334 -0.0283  0.1580 -0.5358
 7046SOL    HW132600   3.626   3.221   2.417  0.8930  0.0698 -1.0457
 7046SOL    HW232601   3.486   3.224   2.354  0.2223  1.5292  0.1765
 7047SOL     OW32602   1.394   3.907   5.283 -0.2309  0.3781 -0.4819
 7047SOL    HW132603   1.369   3.984   5.335  1.0873  1.4771 -1.4475
 7047SOL    HW232604   1.481   3.935   5.254  0.2029  0.4851  0.9113
 7048SOL     OW32605   3.577   4.102   5.209  0.2198 -0.2255 -0.5552
 7048SOL    HW132606   3.585   4.197   5.212 -0.8430 -0.1790  0.9939
 7048SOL    HW232607   3.652   4.066   5.162  1.5587  1.5274  0.2780
 7049SOL     OW32608   3.174   0.327   6.525  0.5274  0.5382  0.4113
 7049SOL    HW132609   3.096   0.362   6.567  0.7681  0.1435  1.1884
 7049SOL    HW232610   3.151   0.317   6.433  0.2442  1.1571  0.4162
 7050SOL     OW32611   4.461   0.216  17.689 -0.0021  0.4812  0.6423
 7050SOL    HW132612   4.370   0.194  17.668  0.9223  1.2685 -4.2235
 7050SOL    HW232613   4.497   0.226  17.601 -0.3147 -1.1735  0.3187
 7051SOL     OW32614   3.666   0.027   3.604 -0.2760 -0.2041 -0.1849
 7051SOL    HW132615   3.581   0.012   3.645  1.0076  0.6589  2.7859
 7051SOL    HW232616   3.656   4.693   3.529 -0.8558 -1.1012  0.5870
 7052SOL     OW32617   3.539   3.795   5.299  0.0083 -0.4689  0.1346
 7052SOL    HW132618   3.567   3.791   5.207 -0.4290 -1.7229  0.0512
 7052SOL    HW232619   3.520   3.887   5.317  1.1512 -0.4836  1.3893
 7053SOL     OW32620   0.036   3.940   4.150 -0.4375 -0.1163  0.2754
 7053SOL    HW132621   0.039   3.993   4.229  1.6783  1.0871 -0.6238
 7053SOL    HW232622   4.701   3.991   4.094 -0.0031 -0.9295 -0.9410
 7054SOL     OW32623   3.549   1.021   2.410 -0.8945 -0.1420  0.3464
 7054SOL    HW132624   3.557   1.049   2.318 -2.0158 -0.1190  0.2511
 7054SOL    HW232625   3.638   1.006   2.442 -0.7575  1.2775  0.6320
 7055SOL     OW32626   3.220   0.788   4.807  0.4439 -0.2968  0.5722
 7055SOL    HW132627   3.178   0.734   4.874 -1.4298  0.1936 -0.2271
 7055SOL    HW232628   3.272   0.721   4.761 -1.1401  0.2914 -2.0814
 7056SOL     OW32629   3.573   0.568   4.081 -0.4158  0.3703  0.1128
 7056SOL    HW132630   3.495   0.622   4.092  0.0686  0.2023  4.5588
 7056SOL    HW232631   3.537   0.509   4.015  1.3025  0.8785 -1.2633
 7057SOL     OW32632   3.230   0.816   3.110  0.1290  0.5666 -0.1149
 7057SOL    HW132633   3.165   0.749   3.131 -0.2811  0.2992 -2.2369
 7057SOL    HW232634   3.241   0.797   3.017 -0.1106  1.2988 -0.3008
 7058SOL     OW32635   1.696   4.724   9.359  0.0375 -0.5753  0.2930
 7058SOL    HW132636   1.705   0.088   9.394 -0.1533  0.8982 -3.3727
 7058SOL    HW232637   1.787   4.695   9.361  0.3562  0.6697  3.8064
 7059SOL     OW32638   0.330   0.718   8.019 -0.1673 -0.2687  0.3089
 7059SOL    HW132639   0.408   0.750   7.974  0.2326  1.7032  2.4068
 7059SOL    HW232640   0.310   0.636   7.974  0.0852  0.5605 -1.2995
 7060SOL     OW32641   2.046   3.950   8.316 -0.4828  0.4690  0.0891
 7060SOL    HW132642   2.112   3.889   8.348 -1.4376 -0.3824  0.4341
 7060SOL    HW232643   2.026   4.019   8.380  1.5970 -0.0137  1.2478
 7061SOL     OW32644   1.606   3.070   6.370  0.2336 -0.1167 -0.5312
 7061SOL    HW132645   1.606   3.085   6.464  0.6704 -2.2456 -0.1850
 7061SOL    HW232646   1.678   3.008   6.361  0.8839  0.3145  1.7364
 7062SOL     OW32647   2.762   3.435  10.114 -0.6967  0.6284 -0.2682
 7062SOL    HW132648   2.751   3.529  10.100  1.8552  0.6510 -1.9292
 7062SOL    HW232649   2.687   3.407  10.166 -0.2533  1.6249  0.9150
 7063SOL     OW32650   4.036   3.300   0.107  0.1114  0.1475 -0.3909
 7063SOL    HW132651   4.083   3.366   0.057 -0.1061 -0.1085 -0.9317
 7063SOL    HW232652   4.048   3.343   0.192 -0.7580  1.1011 -0.7388
 7064SOL     OW32653   4.717   3.085  12.226 -0.3416 -0.6975  0.1355
 7064SOL    HW132654   4.683   3.166  12.188  3.7738 -1.0118 -4.2082
 7064SOL    HW232655   0.003   3.118  12.315 -0.5162 -1.9160  0.6046
 7065SOL     OW32656   2.599   3.701   8.156  0.2406 -0.1169 -0.1230
 7065SOL    HW132657   2.626   3.788   8.184 -0.1211  0.1863 -0.7096
 7065SOL    HW232658   2.588   3.704   8.061  0.7718  0.5264 -0.1678
 7066SOL     OW32659   4.125   0.911   7.572 -0.3192  0.2454  0.2579
 7066SOL    HW132660   4.038   0.947   7.552 -0.9024 -1.0548  0.4352
 7066SOL    HW232661   4.175   0.993   7.572  1.2799 -0.7161  4.2125
 7067SOL     OW32662   2.930   0.239  11.092  0.3159 -0.1264  0.6151
 7067SOL    HW132663   2.839   0.257  11.068  1.0149 -0.1632 -2.1265
 7067SOL    HW232664   2.946   0.323  11.136  0.0222  0.0846  0.3189
 7068SOL     OW32665   1.565   2.419  14.467  0.7221  0.6117 -0.0963
 7068SOL    HW132666   1.540   2.512  14.469  0.4088  0.5716 -1.7071
 7068SOL    HW232667   1.493   2.382  14.416 -0.1947  0.8543  1.0242
 7069SOL     OW32668   2.402   0.886  12.452 -0.2533  0.3517 -0.4115
 7069SOL    HW132669   2.403   0.914  12.544  1.5583 -1.2171  0.0390
 7069SOL    HW232670   2.313   0.917  12.434 -1.1708 -1.1445  1.5745
 7070SOL     OW32671   3.352   0.305   9.009  0.5885 -0.0149  0.7956
 7070SOL    HW132672   3.418   0.253   9.054 -1.4354 -1.8080  1.6809
 7070SOL    HW232673   3.278   0.266   9.055 -0.5384  1.0723 -0.0775
 7071SOL     OW32674   1.442   1.883   5.233  0.0927  0.2441 -0.4141
 7071SOL    HW132675   1.355   1.888   5.273  1.2998 -0.5917  2.2676
 7071SOL    HW232676   1.493   1.839   5.300  0.8503 -0.8631 -1.7269
 7072SOL     OW32677   4.384   0.232   6.804 -0.1846  0.7046 -0.2065
 7072SOL    HW132678   4.444   0.165   6.771  0.4692  0.1086  2.1995
 7072SOL    HW232679   4.442   0.308   6.804  1.4039 -0.5209  0.3712
 7073SOL     OW32680   4.515   4.029   9.504 -0.3847 -0.0297  0.6525
 7073SOL    HW132681   4.461   3.954   9.478 -0.2320 -0.4791  1.6398
 7073SOL    HW232682   4.543   4.051   9.416  0.1347  0.7386  1.0166
 7074SOL     OW32683   2.120   0.845   6.783 -0.0883 -0.6051  0.5949
 7074SOL    HW132684   2.079   0.860   6.698 -0.1562 -2.0094  0.3831
 7074SOL    HW232685   2.199   0.798   6.755  1.2162  1.6191  0.5833
 7075SOL     OW32686   1.706   1.036   6.306 -0.1081  0.0031 -0.0664
 7075SOL    HW132687   1.755   0.956   6.285 -0.1548 -0.0457  0.0100
 7075SOL    HW232688   1.740   1.064   6.390  3.9358  0.1695 -1.7551
 7076SOL     OW32689   3.045   3.702  16.079  0.0973 -0.3665  0.2350
 7076SOL    HW132690   3.103   3.742  16.014 -2.2269 -0.2670 -1.7887
 7076SOL    HW232691   3.085   3.730  16.161 -2.3081  2.0492  0.5450
 7077SOL     OW32692   1.329   0.786  13.204 -0.7742 -0.2100 -0.7490
 7077SOL    HW132693   1.314   0.693  13.185  2.7165 -0.2511 -3.3750
 7077SOL    HW232694   1.399   0.802  13.140 -1.7597  1.2021 -1.4606
 7078SOL     OW32695   1.993   1.800  13.936 -0.5173 -0.3298  0.2105
 7078SOL    HW132696   1.980   1.739  14.009  2.1790 -0.6898  0.3850
 7078SOL    HW232697   1.973   1.887  13.972  0.1397  0.2823 -0.8855
 7079SOL     OW32698   1.602   2.550   5.987 -0.0408  0.7152 -0.0822
 7079SOL    HW132699   1.523   2.572   5.937  1.8002  0.8337 -2.9280
 7079SOL    HW232700   1.640   2.471   5.950  0.5296  1.0068 -0.1274
 7080SOL     OW32701   0.870   2.471   2.345  0.6836 -0.0579 -0.5494
 7080SOL    HW132702   0.783   2.500   2.319  0.1807  0.9787  2.2731
 7080SOL    HW232703   0.856   2.380   2.319 -0.6665 -0.0890  0.3038
 7081SOL     OW32704   1.942   0.727  17.093 -0.2821 -0.2715  0.2339
 7081SOL    HW132705   1.992   0.657  17.052 -1.6598 -1.4221  0.4864
 7081SOL    HW232706   2.003   0.795  17.120  0.7780 -1.6424  1.2752
 7082SOL     OW32707   1.921   3.011  13.781 -0.1393  0.2874  0.1235
 7082SOL    HW132708   1.932   2.949  13.708  0.8434 -0.4543  0.9081
 7082SOL    HW232709   2.008   3.029  13.817 -0.9425  0.4296  1.9941
 7083SOL     OW32710   1.979   4.609   3.234  0.2009 -1.1393  0.1612
 7083SOL    HW132711   1.985   4.687   3.179  1.0388 -1.6656 -0.4756
 7083SOL    HW232712   1.964   4.542   3.167  1.6147 -0.6010 -0.6597
 7084SOL     OW32713   4.376   3.891   4.286 -0.2735  0.2308  0.2451
 7084SOL    HW132714   4.401   3.800   4.273 -0.3552  0.1802  0.4479
 7084SOL    HW232715   4.358   3.896   4.379  0.3186 -1.1585  0.4302
 7085SOL     OW32716   2.699   3.251   8.681  0.1873 -0.3674 -0.1002
 7085SOL    HW132717   2.623   3.302   8.710 -1.1430 -0.9674 -2.5509
 7085SOL    HW232718   2.776   3.286   8.725  0.3656 -1.5478  0.5125
 7086SOL     OW32719   4.499   4.367   9.800  0.3773 -0.0256  0.5372
 7086SOL    HW132720   4.469   4.457   9.786  1.9344 -0.0784 -3.0787
 7086SOL    HW232721   4.579   4.377   9.750  1.4799 -0.4424  2.2313
 7087SOL     OW32722   0.996   4.130   4.853 -0.4874  0.5204 -0.7433
 7087SOL    HW132723   0.941   4.085   4.789 -0.1749 -1.0154  0.0696
 7087SOL    HW232724   1.035   4.211   4.820  2.2772 -0.7252 -0.5137
 7088SOL     OW32725   0.370   2.606  14.884  0.2718  0.0359 -0.5717
 7088SOL    HW132726   0.435   2.593  14.952 -0.8070 -0.2306  0.4116
 7088SOL    HW232727   0.357   2.514  14.859 -0.8648  0.2626 -0.8198
 7089SOL     OW32728   1.417   2.185   2.709  0.3544  0.2273 -0.1515
 7089SOL    HW132729   1.433   2.206   2.617  2.1648  0.5034  0.2371
 7089SOL    HW232730   1.388   2.094   2.702 -1.2036  0.7234 -0.1755
 7090SOL     OW32731   4.006   4.350   0.367 -0.1758  0.7082 -0.0103
 7090SOL    HW132732   4.068   4.315   0.431  1.3817  1.2337 -1.2339
 7090SOL    HW232733   3.991   4.276   0.308  0.2972  0.9091 -0.3830
 7091SOL     OW32734   4.659   0.362   0.130  0.3777 -0.2834  0.1770
 7091SOL    HW132735   4.675   0.277   0.171  0.8961 -0.7540 -0.9849
 7091SOL    HW232736   4.594   0.344   0.062 -0.2475  0.4902  0.5669
 7092SOL     OW32737   4.402   3.337  13.966 -0.1903  0.1324 -0.6781
 7092SOL    HW132738   4.363   3.327  14.053 -0.5545 -1.1216 -0.9946
 7092SOL    HW232739   4.387   3.430  13.946  0.5656  0.9106  2.2336
 7093SOL     OW32740   3.428   2.457   9.361 -0.2405  0.9086 -0.4199
 7093SOL    HW132741   3.495   2.397   9.393 -0.5399  1.5904  1.5148
 7093SOL    HW232742   3.344   2.413   9.349  1.1621 -1.5643 -1.0999
 7094SOL     OW32743   2.233   3.164   8.021  0.4530 -0.1847  0.0858
 7094SOL    HW132744   2.306   3.112   8.055 -0.2644 -0.3958  1.3135
 7094SOL    HW232745   2.171   3.092   8.028  0.9890 -0.7011 -0.4754
 7095SOL     OW32746   1.968   1.971  12.862  0.0955 -0.5022 -0.3685
 7095SOL    HW132747   1.879   2.004  12.847  0.5707  1.5124  1.4021
 7095SOL    HW232748   1.989   2.012  12.945 -0.4629 -1.1718  0.1121
 7096SOL     OW32749   0.812   0.344  16.663 -0.1209  0.1683  0.0614
 7096SOL    HW132750   0.800   0.369  16.755  0.5088  2.0140 -0.3763
 7096SOL    HW232751   0.720   0.318  16.652  0.8397 -2.4037 -1.7281
 7097SOL     OW32752   4.283   1.836   7.762 -0.1293  0.4239 -0.0215
 7097SOL    HW132753   4.283   1.867   7.853 -0.4809  1.2081 -0.2879
 7097SOL    HW232754   4.330   1.907   7.719  0.8208 -0.9278 -1.2205
 7098SOL     OW32755   0.698   1.229   2.898 -0.2621  0.0206 -0.0769
 7098SOL    HW132756   0.682   1.253   2.806  2.8074  1.2663 -0.2946
 7098SOL    HW232757   0.724   1.309   2.943  1.1749 -1.3698  1.5352
 7099SOL     OW32758   0.001   4.078   4.845 -0.3185  0.0994  0.4452
 7099SOL    HW132759   0.093   4.088   4.821 -0.5194 -2.6314 -1.4533
 7099SOL    HW232760   4.715   4.128   4.926 -1.0565 -0.6161  0.7978
 7100SOL     OW32761   0.195   4.277   9.633  0.1131 -0.1451  0.3399
 7100SOL    HW132762   0.182   4.284   9.727  1.1941 -1.0048  0.5456
 7100SOL    HW232763   0.119   4.321   9.595  2.5165  3.4137 -0.2805
 7101SOL     OW32764   3.984   2.977   9.214 -0.0192 -0.5075  0.2266
 7101SOL    HW132765   3.975   3.016   9.301 -0.2706  1.1352 -0.5324
 7101SOL    HW232766   3.904   3.015   9.178  0.0953 -0.5279 -0.0498
 7102SOL     OW32767   2.004   0.279   7.613  0.1443 -0.0793 -0.2879
 7102SOL    HW132768   1.975   0.279   7.705  1.7927  0.5362  0.2361
 7102SOL    HW232769   2.091   0.317   7.624 -0.9620  1.8602  1.9164
 7103SOL     OW32770   4.289   3.004   1.119 -0.0283  0.1287  0.1990
 7103SOL    HW132771   4.257   2.956   1.196 -0.4395  0.3906  0.1927
 7103SOL    HW232772   4.234   2.961   1.053 -1.1700  0.1820  1.1034
 7104SOL     OW32773   3.008   2.524   1.581 -0.0359 -0.1901 -0.7369
 7104SOL    HW132774   2.971   2.494   1.665 -1.5882  1.3393 -0.8938
 7104SOL    HW232775   2.930   2.536   1.528 -0.4163  0.0474 -0.1265
 7105SOL     OW32776   1.795   2.139   2.761 -0.7692  0.2766  0.3944
 7105SOL    HW132777   1.802   2.057   2.810  0.9884  0.8319  1.0569
 7105SOL    HW232778   1.888   2.159   2.767 -1.1968  2.1642  0.8098
 7106SOL     OW32779   0.311   2.596   8.693  0.2352  0.5794 -0.2385
 7106SOL    HW132780   0.329   2.549   8.774  1.0750  0.2815 -0.6025
 7106SOL    HW232781   0.218   2.619   8.701  0.1419  0.5377 -1.1766
 7107SOL     OW32782   3.108   3.355   3.523 -0.1958  0.2246 -0.1525
 7107SOL    HW132783   3.151   3.441   3.520  0.6992 -0.1874  0.7802
 7107SOL    HW232784   3.028   3.387   3.565 -0.4186 -2.1769  1.2258
 7108SOL     OW32785   0.336   1.399   3.485 -0.0675 -0.4966 -0.6230
 7108SOL    HW132786   0.299   1.426   3.569  2.4815 -0.0178  0.3361
 7108SOL    HW232787   0.361   1.309   3.507  2.9103 -0.0576 -2.2244
 7109SOL     OW32788   3.715   0.759   8.448  0.5047 -0.1230 -0.0476
 7109SOL    HW132789   3.746   0.845   8.475  1.5234 -0.4279 -0.2292
 7109SOL    HW232790   3.785   0.696   8.466 -0.3303  0.0253  3.8428
 7110SOL     OW32791   3.901   2.810   7.651  0.6390 -0.3248 -0.3204
 7110SOL    HW132792   3.951   2.835   7.574  1.3621  0.4256  0.3980
 7110SOL    HW232793   3.926   2.718   7.656  0.6302 -0.3553 -0.8619
 7111SOL     OW32794   4.228   2.137   4.612  0.1077  0.5023  0.6233
 7111SOL    HW132795   4.169   2.100   4.547 -0.7861  1.5531  0.8361
 7111SOL    HW232796   4.269   2.054   4.636 -1.3199 -0.3734 -0.0098
 7112SOL     OW32797   2.393   0.538   6.671 -0.0759 -0.4863 -0.2521
 7112SOL    HW132798   2.373   0.619   6.718 -0.5998 -1.1403  0.6579
 7112SOL    HW232799   2.397   0.473   6.741  1.4542  0.7327  0.8028
 7113SOL     OW32800   2.029   0.115   4.913  0.8379  0.0086 -0.1127
 7113SOL    HW132801   2.060   0.105   5.003 -1.1457 -1.3148  0.4237
 7113SOL    HW232802   1.936   0.132   4.922  1.1980  1.9585 -0.0697
 7114SOL     OW32803   4.127   1.869   8.418 -0.2529 -0.3794  0.1395
 7114SOL    HW132804   4.043   1.911   8.397  0.6857  2.0406  1.1953
 7114SOL    HW232805   4.129   1.879   8.513  1.3505  0.7061 -0.0045
 7115SOL     OW32806   2.019   1.995  16.324  0.1963 -0.3752  0.2545
 7115SOL    HW132807   2.071   2.069  16.354  0.3925 -0.5268  0.2873
 7115SOL    HW232808   1.941   2.009  16.378 -0.1070 -0.8929 -0.0501
 7116SOL     OW32809   0.637   4.202   8.938 -0.0767 -0.2914 -0.3514
 7116SOL    HW132810   0.574   4.202   9.009  2.3403  1.2802  1.7936
 7116SOL    HW232811   0.580   4.193   8.862 -0.3666  1.0496 -0.2827
 7117SOL     OW32812   2.005   1.520   8.627  0.7123 -0.0175  0.3941
 7117SOL    HW132813   2.016   1.567   8.545  1.1158 -0.2320  0.3296
 7117SOL    HW232814   1.995   1.597   8.684 -1.1067 -0.0776  0.1616
 7118SOL     OW32815   1.507   1.132   7.454  0.1952 -0.8227 -0.0168
 7118SOL    HW132816   1.454   1.188   7.511  2.0663  0.5350  0.3963
 7118SOL    HW232817   1.515   1.195   7.383 -1.7397 -0.0663  0.4298
 7119SOL     OW32818   3.215   3.743   8.289 -0.1064 -0.3880 -0.1156
 7119SOL    HW132819   3.233   3.657   8.253 -0.7514 -1.0590  1.1604
 7119SOL    HW232820   3.297   3.764   8.335 -0.5896 -2.1577  1.5683
 7120SOL     OW32821   1.446   4.102   5.841  0.2339 -0.2240 -0.2779
 7120SOL    HW132822   1.498   4.158   5.897 -0.5049 -0.5227  0.7000
 7120SOL    HW232823   1.496   4.021   5.849  1.1921  0.3309 -0.7138
 7121SOL     OW32824   0.415   3.888   7.653  0.3944 -0.6712 -0.3866
 7121SOL    HW132825   0.456   3.918   7.734 -2.5992 -0.7591  1.1652
 7121SOL    HW232826   0.327   3.857   7.673  0.1086  0.1042 -0.4094
 7122SOL     OW32827   0.550   4.691   3.296 -0.1398 -0.1792 -0.1929
 7122SOL    HW132828   0.641   4.685   3.266  0.0209 -0.5393  0.3706
 7122SOL    HW232829   0.553   4.720   3.387  1.2030  1.7480 -0.8302
 7123SOL     OW32830   1.657   3.468   7.676  0.3058  0.0903  0.0964
 7123SOL    HW132831   1.749   3.490   7.660  0.2671 -0.0405 -0.3273
 7123SOL    HW232832   1.641   3.382   7.637  0.7489 -0.2555  0.6921
 7124SOL     OW32833   4.650   1.402   8.175 -0.2714  0.4136 -0.6715
 7124SOL    HW132834   4.570   1.448   8.151 -1.4048 -1.0124  0.4062
 7124SOL    HW232835   4.635   1.386   8.268 -0.2844  0.3635 -0.6820
 7125SOL     OW32836   1.188   2.580   2.877 -0.2334 -0.2799  0.5821
 7125SOL    HW132837   1.097   2.552   2.879 -0.4840  0.5432  0.8420
 7125SOL    HW232838   1.218   2.494   2.906  1.0128 -0.0661 -0.0786
 7126SOL     OW32839   0.924   1.086   6.483 -0.3006 -0.3690 -0.4053
 7126SOL    HW132840   0.924   1.160   6.543  3.7583 -0.5501 -0.2041
 7126SOL    HW232841   0.869   1.121   6.413  0.3042 -1.6736 -1.5333
 7127SOL     OW32842   3.204   0.225  12.266 -0.6687  0.5140 -0.2310
 7127SOL    HW132843   3.294   0.214  12.235 -0.2079 -0.7268  1.5730
 7127SOL    HW232844   3.207   0.321  12.271 -1.3766  0.5023  0.3941
 7128SOL     OW32845   0.486   0.319   4.848  0.1298  0.0859 -0.0869
 7128SOL    HW132846   0.574   0.305   4.811 -0.3827  3.7729 -2.6529
 7128SOL    HW232847   0.467   0.400   4.801  0.6072 -0.8643 -1.9483
 7129SOL     OW32848   2.630   4.634   7.994 -0.2115 -0.0804 -0.1014
 7129SOL    HW132849   2.640   4.678   8.079  1.0352 -0.1227 -0.2249
 7129SOL    HW232850   2.659   4.711   7.946 -0.4227  0.5495  0.7778
 7130SOL     OW32851   1.082   0.556   2.960 -0.3908  0.0031  0.1103
 7130SOL    HW132852   1.040   0.494   3.020  1.0607 -0.4815  0.6199
 7130SOL    HW232853   1.008   0.611   2.933 -0.2004 -0.7477 -1.9300
 7131SOL     OW32854   2.424   0.511   5.998  0.3181  0.4701  0.2651
 7131SOL    HW132855   2.378   0.480   5.920  0.8449  0.4868 -0.0537
 7131SOL    HW232856   2.343   0.526   6.045 -1.1221 -3.5994 -0.9200
 7132SOL     OW32857   4.202   0.201   8.148 -0.1803  0.4705  0.2376
 7132SOL    HW132858   4.237   0.126   8.100 -0.5876  0.4101  0.0410
 7132SOL    HW232859   4.264   0.203   8.222 -0.3715  0.8005  0.3880
 7133SOL     OW32860   0.232   0.804  13.042  0.2595  0.0348  0.2958
 7133SOL    HW132861   0.150   0.807  12.993 -0.1876 -1.3481  0.9452
 7133SOL    HW232862   0.290   0.829  12.970  1.8952 -5.0298 -0.1437
 7134SOL     OW32863   1.907   3.275   5.693 -0.1292  0.3715 -0.2135
 7134SOL    HW132864   1.836   3.275   5.629 -0.9936 -3.1639  0.7460
 7134SOL    HW232865   1.873   3.213   5.757 -1.2077  0.7611 -0.4164
 7135SOL     OW32866   1.307   4.129   2.991 -0.0969  0.3269  0.1437
 7135SOL    HW132867   1.251   4.169   3.058  1.9990  1.9808  0.9181
 7135SOL    HW232868   1.302   4.187   2.914  0.7260 -1.2244 -1.0703
 7136SOL     OW32869   1.408   2.957   3.250  0.3383  0.3630  0.5090
 7136SOL    HW132870   1.331   2.940   3.304 -1.2498 -0.0400 -1.8754
 7136SOL    HW232871   1.368   2.919   3.171  0.6381  1.0214  0.0412
 7137SOL     OW32872   4.616   2.748   1.733 -0.7987  0.3245 -0.2284
 7137SOL    HW132873   4.662   2.701   1.664 -2.3175  2.6017 -2.7751
 7137SOL    HW232874   4.544   2.780   1.679  0.3243 -1.6131 -2.8894
 7138SOL     OW32875   3.462   0.384   3.902  0.5263 -0.2514 -0.0713
 7138SOL    HW132876   3.432   0.377   3.811  0.6065  0.9517 -0.1851
 7138SOL    HW232877   3.539   0.328   3.905 -0.2035 -1.1768  1.6459
 7139SOL     OW32878   2.612   2.976   4.351  0.1058  0.2010  0.2039
 7139SOL    HW132879   2.705   2.971   4.327  0.0704  2.2713 -0.3571
 7139SOL    HW232880   2.577   2.888   4.333 -1.6821  1.4628 -2.5569
 7140SOL     OW32881   3.065   4.356  12.199  0.0151  0.3595  0.9226
 7140SOL    HW132882   2.991   4.365  12.138 -0.0027  1.1925  1.0660
 7140SOL    HW232883   3.044   4.438  12.243 -0.4138  0.5306  0.4114
 7141SOL     OW32884   1.003   2.058   3.185 -0.4205 -0.3114 -0.4010
 7141SOL    HW132885   1.077   2.059   3.124  1.2603 -1.5844  1.6163
 7141SOL    HW232886   0.961   1.973   3.174  0.3303 -0.8266  0.7240
 7142SOL     OW32887   0.668   4.077  13.878 -0.2341  0.4184  0.0751
 7142SOL    HW132888   0.694   4.059  13.788 -3.3191  1.5301 -1.0277
 7142SOL    HW232889   0.714   4.004  13.919  0.0445  1.1643  1.1022
 7143SOL     OW32890   0.766   3.389   6.400 -0.1215 -0.5264 -0.2523
 7143SOL    HW132891   0.725   3.378   6.486  2.9185  1.5898  1.4705
 7143SOL    HW232892   0.692   3.406   6.342  0.7469 -0.8610 -1.4517
 7144SOL     OW32893   0.955   1.488   2.101  0.5747 -0.0574 -0.2585
 7144SOL    HW132894   0.923   1.446   2.180  0.2480 -0.2634 -0.5004
 7144SOL    HW232895   0.972   1.571   2.146  0.3431 -1.2629  2.0416
 7145SOL     OW32896   2.581   3.812  15.590  0.1600  0.2200 -0.0176
 7145SOL    HW132897   2.557   3.850  15.505 -0.9906  0.1473  0.2748
 7145SOL    HW232898   2.675   3.798  15.578 -0.0745 -0.7726 -0.6355
 7146SOL     OW32899   4.674   3.285  16.410 -0.1651 -0.3779 -1.2568
 7146SOL    HW132900   0.027   3.285  16.466 -1.7728 -0.2325  0.9173
 7146SOL    HW232901   4.705   3.337  16.335  0.8377  0.4566 -0.2515
 7147SOL     OW32902   4.679   2.370   4.968 -0.7210 -1.0492  0.0700
 7147SOL    HW132903   4.672   2.369   4.873  0.6615 -0.8016 -0.0330
 7147SOL    HW232904   4.623   2.293   4.981 -0.7515 -0.8203  1.2982
 7148SOL     OW32905   0.602   3.785   2.526 -0.5075 -0.0247 -0.0580
 7148SOL    HW132906   0.665   3.816   2.590 -0.3346 -0.3326 -0.0758
 7148SOL    HW232907   0.553   3.722   2.580 -2.0662  0.1699 -1.2395
 7149SOL     OW32908   2.541   2.063   6.676 -0.8007  0.3509  0.5366
 7149SOL    HW132909   2.590   2.129   6.627 -0.2960 -0.1611  0.3343
 7149SOL    HW232910   2.537   2.095   6.766 -2.6571 -1.0646  0.9648
 7150SOL     OW32911   1.582   0.228   6.857  0.5966  0.0545  0.2923
 7150SOL    HW132912   1.649   0.262   6.917  2.0013 -1.7670 -0.2268
 7150SOL    HW232913   1.500   0.263   6.890  0.3765  1.0836 -1.3356
 7151SOL     OW32914   3.295   2.755   1.501  0.1712  0.1651  0.2454
 7151SOL    HW132915   3.285   2.850   1.500  0.7494  0.2250 -0.0796
 7151SOL    HW232916   3.388   2.740   1.482 -0.5497 -1.8235 -1.7337
 7152SOL     OW32917   4.384   2.531   8.203 -0.3495  0.1955  0.0479
 7152SOL    HW132918   4.354   2.589   8.273  1.9936  2.0923 -0.5269
 7152SOL    HW232919   4.320   2.461   8.216  0.7604 -0.8989 -0.3781
 7153SOL     OW32920   0.001   1.162  16.944 -0.2011  0.1641 -0.1705
 7153SOL    HW132921   0.091   1.155  16.913  0.0073  0.6402  0.3140
 7153SOL    HW232922   4.673   1.190  16.869  1.0240  1.0830 -0.6779
 7154SOL     OW32923   3.030   1.671   1.072 -0.2540  0.3457  0.3425
 7154SOL    HW132924   3.044   1.604   1.139  3.0518  0.1188 -0.5804
 7154SOL    HW232925   3.028   1.621   0.991  1.6627 -0.2824  0.6795
 7155SOL     OW32926   2.612   3.925   7.434 -0.2318  0.5551 -0.1418
 7155SOL    HW132927   2.517   3.922   7.429 -0.2077 -0.7069  0.0873
 7155SOL    HW232928   2.635   3.932   7.341 -1.5243 -0.5575 -0.5321
 7156SOL     OW32929   4.669   3.310   6.890  0.2013  0.2949 -0.3245
 7156SOL    HW132930   4.681   3.315   6.795 -2.1722 -1.6439 -0.7135
 7156SOL    HW232931   4.716   3.229   6.910  2.4346  1.5424 -0.5506
 7157SOL     OW32932   4.618   1.014   6.692 -0.0234  0.2415  0.2761
 7157SOL    HW132933   4.604   1.033   6.599 -2.4177  0.1362  0.6194
 7157SOL    HW232934   4.582   0.926   6.697 -0.4342  0.3320 -1.0184
 7158SOL     OW32935   1.686   1.639   1.120 -0.2089 -0.5367 -0.0573
 7158SOL    HW132936   1.737   1.590   1.185  0.1218 -0.1179 -0.0039
 7158SOL    HW232937   1.716   1.597   1.040 -0.2691 -0.3551 -0.1752
 7159SOL     OW32938   3.230   3.054   3.915 -0.4905 -0.6331  0.5403
 7159SOL    HW132939   3.305   3.098   3.876 -0.3325  0.2440  1.8326
 7159SOL    HW232940   3.159   3.109   3.880 -0.6454 -0.5270  1.0258
 7160SOL     OW32941   2.516   3.570   9.843  0.7807 -0.2715  0.3324
 7160SOL    HW132942   2.575   3.531   9.778 -0.7995 -3.6016  0.9089
 7160SOL    HW232943   2.483   3.642   9.789 -1.9104  0.3284  2.8190
 7161SOL     OW32944   3.635   4.400   6.281  0.3145 -0.0057 -0.3659
 7161SOL    HW132945   3.562   4.458   6.299 -0.2735 -0.8009 -0.1982
 7161SOL    HW232946   3.654   4.371   6.370  1.7669  1.9208 -0.0552
 7162SOL     OW32947   0.962   4.547   8.453 -0.7355  0.0299 -0.1435
 7162SOL    HW132948   0.956   4.479   8.520 -2.2265  0.4251  0.1189
 7162SOL    HW232949   1.009   4.508   8.379  0.4899  0.2623  0.5130
 7163SOL     OW32950   3.256   3.325   2.231 -0.1440  0.3134  0.0686
 7163SOL    HW132951   3.268   3.244   2.280 -2.0647  0.3285  0.5701
 7163SOL    HW232952   3.172   3.344   2.275 -0.0956 -0.1816  0.3731
 7164SOL     OW32953   1.637   1.855  13.307  0.2303  0.7270 -0.4122
 7164SOL    HW132954   1.557   1.863  13.359  0.8341 -0.8370  0.7500
 7164SOL    HW232955   1.705   1.873  13.371  1.4440 -0.0391 -1.4706
 7165SOL     OW32956   4.111   4.500   5.677  0.1165  0.1486 -0.3437
 7165SOL    HW132957   4.177   4.461   5.735  0.6788 -1.3367 -1.9718
 7165SOL    HW232958   4.068   4.418   5.650  1.3223 -0.5108 -0.2373
 7166SOL     OW32959   1.914   1.174   6.797  0.2138  0.2717  0.0077
 7166SOL    HW132960   1.971   1.200   6.725  2.2634 -0.9321  1.1815
 7166SOL    HW232961   1.836   1.156   6.745 -0.8146  1.2558  1.2271
 7167SOL     OW32962   4.690   3.960   6.033  0.2588  0.1433  0.4261
 7167SOL    HW132963   0.045   3.919   5.999 -0.6443 -1.0384 -0.2433
 7167SOL    HW232964   4.641   3.991   5.957  1.1358 -2.2417 -1.1075
 7168SOL     OW32965   2.958   3.650   6.827  0.1635  0.2651  0.4854
 7168SOL    HW132966   2.946   3.690   6.741  2.7355 -0.8869 -0.3945
 7168SOL    HW232967   3.021   3.581   6.810  2.3723  1.8236  2.3470
 7169SOL     OW32968   2.052   2.505   6.506 -0.2188  0.5395 -0.8404
 7169SOL    HW132969   2.076   2.422   6.546  0.6645  1.8683  1.3560
 7169SOL    HW232970   2.068   2.493   6.412 -1.5447  0.8826 -1.1129
 7170SOL     OW32971   4.292   1.070   3.466 -0.9955 -0.3479  0.5786
 7170SOL    HW132972   4.342   1.057   3.547 -0.9501 -0.3658  0.5481
 7170SOL    HW232973   4.286   0.977   3.441  0.5266  0.3063 -2.2171
 7171SOL     OW32974   3.825   2.409   6.028 -0.2412 -1.2659  0.3087
 7171SOL    HW132975   3.851   2.333   5.975  1.1433 -2.0852  2.1638
 7171SOL    HW232976   3.814   2.475   5.959  0.5207 -0.3307  1.0916
 7172SOL     OW32977   1.022   0.669   0.642  0.3367  0.5096  0.4849
 7172SOL    HW132978   1.052   0.599   0.701 -0.5660  0.2472  0.6354
 7172SOL    HW232979   0.954   0.615   0.600  0.4717  0.3290  0.4973
 7173SOL     OW32980   3.208   2.921   1.191 -0.1555  0.2917 -0.2198
 7173SOL    HW132981   3.140   2.876   1.241  1.6907  0.4189  2.4060
 7173SOL    HW232982   3.204   3.011   1.222 -0.6148 -0.7389  2.7027
 7174SOL     OW32983   2.437   0.261  13.328  0.0025  0.1535  0.0132
 7174SOL    HW132984   2.430   0.334  13.266 -3.4758 -1.1598 -1.1581
 7174SOL    HW232985   2.367   0.205  13.293 -0.7819  1.2113 -0.1076
 7175SOL     OW32986   0.706   1.359   5.424 -0.2822  0.2502  0.6458
 7175SOL    HW132987   0.613   1.359   5.400 -0.0783 -0.6158 -0.1538
 7175SOL    HW232988   0.695   1.420   5.497 -1.9163 -0.2306  0.8174
 7176SOL     OW32989   1.263   4.717   8.915  0.2130  0.2425  0.7762
 7176SOL    HW132990   1.254   0.050   8.839 -3.0819 -0.1369  0.8984
 7176SOL    HW232991   1.232   0.048   8.987 -0.3544 -0.6659  1.2290
 7177SOL     OW32992   2.301   2.363   2.457 -0.0489  0.6004  0.3796
 7177SOL    HW132993   2.212   2.331   2.443  0.3064  0.1169 -0.8323
 7177SOL    HW232994   2.318   2.405   2.372 -2.6569 -1.1236 -1.0055
 7178SOL     OW32995   1.918   0.025  15.115  0.7157 -0.4239 -0.0464
 7178SOL    HW132996   1.878   0.018  15.202  1.6712  1.8029  0.5821
 7178SOL    HW232997   1.918   0.121  15.112  0.1300 -0.4001  0.6492
 7179SOL     OW32998   3.934   0.740   6.731 -0.2676 -0.4600 -0.2567
 7179SOL    HW132999   3.988   0.702   6.662  0.9619  1.1467 -0.1888
 7179SOL    HW233000   3.845   0.707   6.715  0.1166  0.2085 -3.7266
 7180SOL     OW33001   3.206   2.315  17.448  0.2818 -0.0104  0.2638
 7180SOL    HW133002   3.174   2.264  17.523 -0.8393 -1.8349 -1.4342
 7180SOL    HW233003   3.267   2.376  17.489  2.8356 -2.5455  0.2308
 7181SOL     OW33004   3.295   0.038   7.732 -0.3571  0.1274 -0.3512
 7181SOL    HW133005   3.349   4.684   7.725 -0.1958  0.0688  1.7999
 7181SOL    HW233006   3.330   0.083   7.809 -0.5160 -1.7712  0.8148
 7182SOL     OW33007   3.831   0.169   4.840 -0.9781 -0.2644 -0.0785
 7182SOL    HW133008   3.808   0.204   4.754  3.8377  0.7721 -0.9080
 7182SOL    HW233009   3.921   0.142   4.821 -0.8993 -1.6738  2.3163
 7183SOL     OW33010   0.645   3.820  17.696 -0.3079  0.0399  0.3680
 7183SOL    HW133011   0.681   3.907   0.016  1.7099 -0.9137  1.0431
 7183SOL    HW233012   0.621   3.828  17.604 -2.4744 -0.2505  0.9195
 7184SOL     OW33013   0.868   4.020   1.322  0.1132  0.4391  0.5793
 7184SOL    HW133014   0.933   4.088   1.301 -1.0977  0.7359 -2.2137
 7184SOL    HW233015   0.810   4.034   1.247 -1.5887  1.9511  2.1919
 7185SOL     OW33016   3.066   0.397   9.424 -0.0448  0.1143 -0.3434
 7185SOL    HW133017   3.097   0.392   9.514 -1.5147  0.2372  0.1670
 7185SOL    HW233018   3.110   0.319   9.389 -0.2369 -0.1160 -0.0620
 7186SOL     OW33019   2.527   3.008   2.708 -0.0426 -0.2475 -0.2894
 7186SOL    HW133020   2.443   2.962   2.715  0.7352 -1.3454  1.9648
 7186SOL    HW233021   2.519   3.089   2.759  0.0013 -0.3534 -0.1109
 7187SOL     OW33022   1.853   2.652   7.612 -0.5862  0.0932 -0.0554
 7187SOL    HW133023   1.843   2.651   7.517 -1.1707 -0.0829  0.0107
 7187SOL    HW233024   1.776   2.610   7.650 -0.0151  0.2668  1.3098
 7188SOL     OW33025   4.265   1.838  12.555 -0.2277 -0.2176 -0.0386
 7188SOL    HW133026   4.274   1.932  12.547 -1.0725 -0.3633 -2.6968
 7188SOL    HW233027   4.222   1.826  12.471  0.4889 -2.2671 -0.1166
 7189SOL     OW33028   3.678   0.913   7.312 -0.3985  0.1000 -0.0182
 7189SOL    HW133029   3.691   0.928   7.405  0.5655  1.5576 -0.3828
 7189SOL    HW233030   3.728   0.978   7.263 -1.1202  0.5637 -0.1511
 7190SOL     OW33031   4.422   1.748   7.459  0.3735  0.1874 -0.2777
 7190SOL    HW133032   4.371   1.782   7.385  1.9245 -0.0478 -1.4514
 7190SOL    HW233033   4.430   1.823   7.517  0.2964  0.7483 -0.9974
 7191SOL     OW33034   1.950   4.702   8.910 -0.7236 -1.0389 -0.3502
 7191SOL    HW133035   1.896   4.685   8.833 -0.8190  0.4482 -0.6078
 7191SOL    HW233036   2.038   4.674   8.885 -0.0783 -0.3946  1.1426
 7192SOL     OW33037   1.450   3.519   8.957  0.0883  0.7101  0.5055
 7192SOL    HW133038   1.480   3.609   8.966 -0.0292  0.6801  1.1878
 7192SOL    HW233039   1.531   3.476   8.982  1.5843  3.1576 -0.1726
 7193SOL     OW33040   1.544   3.212  15.503 -0.0786 -0.2428  0.0010
 7193SOL    HW133041   1.514   3.122  15.513  0.7024 -0.3529  1.3009
 7193SOL    HW233042   1.474   3.250  15.449  0.1637  0.9069  0.5019
 7194SOL     OW33043   3.203   1.432   1.274  0.4572 -0.4562  0.7626
 7194SOL    HW133044   3.268   1.489   1.233 -1.3360  0.2416 -1.1259
 7194SOL    HW233045   3.248   1.397   1.351 -1.3357 -0.6188  1.7394
 7195SOL     OW33046   3.849   1.486   8.537  0.2686  0.0430  0.4818
 7195SOL    HW133047   3.832   1.508   8.445  2.2555  1.1902  0.3955
 7195SOL    HW233048   3.845   1.578   8.561  0.2960 -0.1801  1.3363
 7196SOL     OW33049   0.970   3.276   4.664  0.3549 -0.8029 -0.4907
 7196SOL    HW133050   0.880   3.300   4.684  1.0033  0.7656  0.5649
 7196SOL    HW233051   1.008   3.360   4.637 -1.5471 -0.3028 -1.5811
 7197SOL     OW33052   1.455   0.175  17.355 -0.2633 -0.0595  0.1104
 7197SOL    HW133053   1.522   0.132  17.408  1.5427  1.8063 -0.6606
 7197SOL    HW233054   1.477   0.157  17.263  0.6863  1.0924  0.1115
 7198SOL     OW33055   3.397   3.073   0.250  0.6249  0.0782  0.4643
 7198SOL    HW133056   3.363   3.023   0.175  2.1234  0.9170 -0.7872
 7198SOL    HW233057   3.350   3.039   0.326 -1.5358 -1.3791 -1.5352
 7199SOL     OW33058   0.402   2.188  11.018 -0.1304  0.6396 -0.3228
 7199SOL    HW133059   0.317   2.225  10.995 -0.5770 -0.0382  0.2474
 7199SOL    HW233060   0.390   2.094  11.003  0.5468  0.6607 -1.0252
 7200SOL     OW33061   3.082   3.373  17.210 -0.2926 -0.0471 -0.4401
 7200SOL    HW133062   3.082   3.314  17.285 -0.3722 -0.2618 -0.6109
 7200SOL    HW233063   3.106   3.456  17.253  0.9012 -0.5482 -0.1679
 7201SOL     OW33064   4.416   3.830   1.744  0.0214  0.3241 -0.0971
 7201SOL    HW133065   4.380   3.748   1.776  1.0231  0.1422  0.6003
 7201SOL    HW233066   4.365   3.853   1.667 -1.8023 -1.2929  0.6585
 7202SOL     OW33067   0.153   3.898   8.587  0.0172  0.5846 -0.2878
 7202SOL    HW133068   0.071   3.936   8.619 -1.3408 -2.2822 -0.3363
 7202SOL    HW233069   0.215   3.968   8.608  1.1932 -0.7780  0.7233
 7203SOL     OW33070   0.420   3.999   2.469 -0.1274 -0.8741  0.7356
 7203SOL    HW133071   0.498   3.943   2.475  0.8486  0.1197 -2.6872
 7203SOL    HW233072   0.474   4.065   2.427  0.2664 -0.2536  2.2459
 7204SOL     OW33073   2.994   4.370   8.281 -0.2941 -0.2139 -0.3925
 7204SOL    HW133074   3.038   4.286   8.296 -2.6788 -1.4838 -0.4752
 7204SOL    HW233075   2.931   4.375   8.352 -0.1118 -0.5840 -0.2037
 7205SOL     OW33076   0.605   2.915  14.959 -0.4487  0.0299  0.0415
 7205SOL    HW133077   0.624   2.974  14.886  1.0738 -0.3727  0.0994
 7205SOL    HW233078   0.693   2.913  14.996  0.7647 -0.4244 -2.8314
 7206SOL     OW33079   0.174   2.477   9.965  0.3351  0.1759  0.2485
 7206SOL    HW133080   0.094   2.467   9.914  0.1182  1.7972  0.2694
 7206SOL    HW233081   0.225   2.536   9.909 -0.6632  3.3718  2.6683
 7207SOL     OW33082   2.692   3.454  17.212  0.3016 -0.1747 -0.1226
 7207SOL    HW133083   2.693   3.550  17.208 -1.6856 -0.0551  2.1256
 7207SOL    HW233084   2.737   3.429  17.132  1.2073  1.3147 -0.0821
 7208SOL     OW33085   2.105   2.758   6.074  0.7312 -0.5672  0.5553
 7208SOL    HW133086   2.199   2.748   6.089  0.7534 -0.3658  0.5440
 7208SOL    HW233087   2.076   2.801   6.154 -1.3787  0.2131 -0.6286
 7209SOL     OW33088   4.700   0.401   2.599 -0.1085 -0.3137 -0.2382
 7209SOL    HW133089   4.630   0.339   2.581  0.1597 -0.6871 -0.0062
 7209SOL    HW233090   4.651   0.480   2.578  1.9952  0.0825 -3.6778
 7210SOL     OW33091   0.918   4.303   9.194  0.2763  0.3751  0.0864
 7210SOL    HW133092   0.998   4.346   9.222  0.6878  1.1584 -2.2577
 7210SOL    HW233093   0.944   4.211   9.202 -0.7693 -0.0769 -1.5411
 7211SOL     OW33094   3.124   4.458   7.856 -0.3017 -0.3315  0.5265
 7211SOL    HW133095   3.051   4.437   7.915 -1.2598 -0.7999 -0.8264
 7211SOL    HW233096   3.106   4.539   7.808 -0.7822 -0.1744  0.9629
 7212SOL     OW33097   0.227   4.719  13.781 -0.2299  0.1337 -0.0398
 7212SOL    HW133098   0.266   0.015  13.696  0.7437 -3.1901 -0.3670
 7212SOL    HW233099   0.192   0.076  13.818  0.4974  0.9281 -1.0994
 7213SOL     OW33100   3.562   0.739   2.262 -0.3205 -0.3460  0.1319
 7213SOL    HW133101   3.602   0.696   2.187 -0.2907 -0.4623  0.2141
 7213SOL    HW233102   3.620   0.813   2.275  0.1237 -0.4607 -1.2626
 7214SOL     OW33103   0.973   3.161   2.038 -0.2874  0.4053  0.4324
 7214SOL    HW133104   0.895   3.122   1.998 -0.2838 -0.6416  1.4358
 7214SOL    HW233105   0.994   3.093   2.102  1.4898  0.1624 -0.4217
 7215SOL     OW33106   2.714   1.198   3.597 -0.3812  0.1079  0.0486
 7215SOL    HW133107   2.681   1.183   3.508  0.6857  0.6591 -0.4360
 7215SOL    HW233108   2.760   1.281   3.584 -0.2339 -0.0766 -0.5748
 7216SOL     OW33109   4.382   2.558   7.205  0.3925  0.2328  0.3456
 7216SOL    HW133110   4.295   2.539   7.170 -0.3795  3.6006  0.4310
 7216SOL    HW233111   4.439   2.490   7.170 -2.3895 -2.2642  0.7486
 7217SOL     OW33112   2.313   3.876   8.482 -0.4876 -0.2323 -0.0546
 7217SOL    HW133113   2.406   3.896   8.484 -1.1889  2.8376  2.8922
 7217SOL    HW233114   2.284   3.930   8.556  0.1592 -0.4948  0.3909
 7218SOL     OW33115   1.693   2.192   6.219  0.4512  0.6602 -0.5586
 7218SOL    HW133116   1.779   2.151   6.218  0.0194 -0.2696 -0.3584
 7218SOL    HW233117   1.709   2.275   6.264 -3.4074  1.2399 -0.2266
 7219SOL     OW33118   2.024   1.981   8.174 -0.1639 -0.2385 -0.2561
 7219SOL    HW133119   2.082   2.055   8.156 -0.4376 -0.0079 -0.1979
 7219SOL    HW233120   2.067   1.932   8.243  1.3584  0.3414 -0.7987
 7220SOL     OW33121   4.268   0.150   8.833  0.2942  0.2485  0.2530
 7220SOL    HW133122   4.206   0.223   8.830 -1.6158 -1.3724 -0.2855
 7220SOL    HW233123   4.218   0.077   8.795  1.3246  0.1374 -0.8760
 7221SOL     OW33124   1.292   0.734   7.172  0.4682 -0.6974  0.1197
 7221SOL    HW133125   1.370   0.697   7.130  0.9326  0.3855  0.0182
 7221SOL    HW233126   1.310   0.828   7.178 -1.6446 -0.3057  0.2302
 7222SOL     OW33127   3.057   1.500   1.713 -0.5459  0.0070 -0.2032
 7222SOL    HW133128   2.997   1.499   1.787 -2.4694 -2.8477 -1.8212
 7222SOL    HW233129   3.064   1.409   1.685 -1.1316 -0.3176  0.7477
 7223SOL     OW33130   1.884   4.390  17.279  0.1755  0.1073  0.1856
 7223SOL    HW133131   1.890   4.295  17.273  1.9305  0.0454  2.9453
 7223SOL    HW233132   1.974   4.410  17.303  0.1256  0.6478 -0.0683
 7224SOL     OW33133   1.104   4.418   8.258 -0.4670 -0.3546  0.3343
 7224SOL    HW133134   1.139   4.341   8.213 -1.5480  1.3983 -3.4835
 7224SOL    HW233135   1.115   4.475   8.183 -1.4885 -2.2234 -1.2324
 7225SOL     OW33136   2.706   1.324   8.413 -0.5170 -0.2586 -0.6686
 7225SOL    HW133137   2.688   1.238   8.451  0.2971 -0.5280 -0.9107
 7225SOL    HW233138   2.780   1.354   8.466  0.1206 -0.9845 -1.1506
 7226SOL     OW33139   2.591   2.444   5.674 -0.4167 -0.8475  0.3632
 7226SOL    HW133140   2.643   2.367   5.654 -0.2406 -0.1475 -1.9049
 7226SOL    HW233141   2.659   2.508   5.656  0.7187 -1.7634  1.4634
 7227SOL     OW33142   4.099   2.951   0.551 -0.1752 -0.0317  0.2351
 7227SOL    HW133143   4.163   3.022   0.555  0.3599 -0.5012 -0.0471
 7227SOL    HW233144   4.149   2.878   0.588  1.2115  1.3526  1.1159
 7228SOL     OW33145   0.490   4.473  11.446  0.6677 -0.3181  0.1127
 7228SOL    HW133146   0.541   4.444  11.370  2.8922  0.9015  1.1480
 7228SOL    HW233147   0.501   4.395  11.500  0.9132 -0.7323 -0.5314
 7229SOL     OW33148   0.824   4.246   6.776  0.2324  0.3509 -0.0071
 7229SOL    HW133149   0.798   4.250   6.684 -0.2658  1.2166  0.1707
 7229SOL    HW233150   0.757   4.187   6.810 -0.3689  2.0909  1.8189
 7230SOL     OW33151   2.500   0.197   5.322  0.4843  0.4247 -0.2608
 7230SOL    HW133152   2.500   0.116   5.373  2.7691  0.5956 -0.0062
 7230SOL    HW233153   2.459   0.257   5.384  2.0423  0.1154  1.0629
 7231SOL     OW33154   2.976   0.177   4.524 -0.3742  0.2616  0.5971
 7231SOL    HW133155   2.930   0.095   4.541 -2.8021  1.7548  1.2313
 7231SOL    HW233156   2.987   0.222   4.608  1.6518  0.2926  0.3036
 7232SOL     OW33157   4.333   2.421   7.700 -0.0688  0.2781 -0.3584
 7232SOL    HW133158   4.424   2.446   7.682  0.4009 -1.3048 -0.1567
 7232SOL    HW233159   4.334   2.373   7.783 -2.0545 -2.0795 -1.6908
 7233SOL     OW33160   3.323   4.681   9.610 -0.0464 -0.2368  0.9400
 7233SOL    HW133161   3.266   4.622   9.560 -1.3556 -0.1958  2.3883
 7233SOL    HW233162   3.287   4.675   9.698  0.4601 -1.0847  1.0917
 7234SOL     OW33163   4.694   2.806  14.568 -0.0677 -0.5736  0.3157
 7234SOL    HW133164   0.010   2.836  14.487 -1.4663 -1.5658 -0.7482
 7234SOL    HW233165   4.693   2.886  14.620  1.2196 -1.6426  1.9806
 7235SOL     OW33166   3.832   2.962   8.717 -0.2867 -0.1585  0.1021
 7235SOL    HW133167   3.899   3.013   8.672 -0.8006  1.2833  0.9536
 7235SOL    HW233168   3.786   2.940   8.636  2.5857  2.0336 -2.1399
 7236SOL     OW33169   3.548   2.547   7.862 -0.3281 -0.0647 -0.5112
 7236SOL    HW133170   3.473   2.509   7.906  1.3369 -0.1113  2.3068
 7236SOL    HW233171   3.542   2.529   7.768 -2.0466  1.6121 -0.7254
 7237SOL     OW33172   0.447   3.807   6.292 -0.2919  0.2770 -0.3610
 7237SOL    HW133173   0.437   3.797   6.387 -0.7167  0.8018 -0.3543
 7237SOL    HW233174   0.366   3.774   6.253 -0.7750 -1.6390  2.2114
 7238SOL     OW33175   2.228   2.160  16.758 -0.3338  0.4754 -0.7098
 7238SOL    HW133176   2.206   2.083  16.811  0.1169  0.8953  0.0735
 7238SOL    HW233177   2.309   2.138  16.713  0.8445  1.4973  0.9400
 7239SOL     OW33178   2.670   1.868   5.933 -0.4249 -0.7609  0.5609
 7239SOL    HW133179   2.599   1.810   5.960 -1.2197  0.1132  0.3576
 7239SOL    HW233180   2.639   1.950   5.970  0.4426 -0.0476 -0.3017
 7240SOL     OW33181   4.216   2.710   0.197 -0.3198  0.0091  0.1461
 7240SOL    HW133182   4.204   2.804   0.207 -0.0426 -0.0995  1.5621
 7240SOL    HW233183   4.228   2.684   0.289  0.3522  1.7314  0.5395
 7241SOL     OW33184   3.141   3.216  16.843 -0.5745  0.4874  0.0177
 7241SOL    HW133185   3.101   3.303  16.837 -1.6910  0.1115  1.9256
 7241SOL    HW233186   3.226   3.230  16.887  0.1076 -1.4293 -0.6995
 7242SOL     OW33187   3.280   1.248   5.290 -0.2893  0.0154 -0.1454
 7242SOL    HW133188   3.367   1.221   5.318 -0.1095  0.2681 -0.4538
 7242SOL    HW233189   3.260   1.189   5.217  0.6554 -0.2861 -0.1666
 7243SOL     OW33190   2.495   0.725   1.226  0.3291 -0.6529  0.7238
 7243SOL    HW133191   2.514   0.747   1.135  1.5769 -1.3317  0.8122
 7243SOL    HW233192   2.443   0.801   1.251  0.5941  0.2848 -1.6357
 7244SOL     OW33193   0.582   0.948  15.538  0.1177 -0.4134  0.1065
 7244SOL    HW133194   0.582   0.942  15.443  0.5515 -1.0439  0.1463
 7244SOL    HW233195   0.505   0.895  15.559 -1.6591  2.5415  1.1542
 7245SOL     OW33196   1.162   3.950   2.402 -0.0902  0.5938 -0.0807
 7245SOL    HW133197   1.228   3.986   2.343 -0.7109 -3.0075 -2.9058
 7245SOL    HW233198   1.220   3.914   2.469 -1.7298 -0.9852  0.4868
 7246SOL     OW33199   2.834   1.392   5.237 -0.4220 -0.0802 -0.1004
 7246SOL    HW133200   2.802   1.419   5.324  2.5270 -0.7450  1.1965
 7246SOL    HW233201   2.928   1.410   5.238 -1.0041  2.9947 -0.5378
 7247SOL     OW33202   4.522   4.011   7.664 -0.3189  0.3138 -0.3747
 7247SOL    HW133203   4.475   3.963   7.731 -0.0052 -0.3784 -0.6521
 7247SOL    HW233204   4.544   3.939   7.604  0.2965 -0.6021  0.9668
 7248SOL     OW33205   4.515   4.258   8.764  0.5824 -0.1532 -0.7075
 7248SOL    HW133206   4.579   4.187   8.763  0.6736 -0.0961  0.5177
 7248SOL    HW233207   4.425   4.225   8.769  0.6696 -0.2621  0.2478
 7249SOL     OW33208   2.438   3.688   7.629  0.3864  0.0075 -0.9233
 7249SOL    HW133209   2.424   3.766   7.575 -0.8954 -0.0782 -0.7108
 7249SOL    HW233210   2.522   3.658   7.594  0.8506 -1.1286  1.1866
 7250SOL     OW33211   3.032   2.968   8.327 -0.6448 -0.1145  0.4720
 7250SOL    HW133212   2.954   2.938   8.280 -0.2044  0.6234 -0.7267
 7250SOL    HW233213   2.995   2.991   8.412 -0.5514  0.0649  0.4637
 7251SOL     OW33214   2.270   1.289  13.233  0.2982  0.0936  0.6714
 7251SOL    HW133215   2.198   1.317  13.290  0.3767 -0.6577  1.1441
 7251SOL    HW233216   2.341   1.292  13.297 -1.8246  0.6132  3.0019
 7252SOL     OW33217   2.169   3.406   3.085 -0.2781 -0.0802  0.2861
 7252SOL    HW133218   2.208   3.396   3.171  2.3457 -0.2527 -0.9328
 7252SOL    HW233219   2.092   3.351   3.098 -2.8072  2.7810 -2.4773
 7253SOL     OW33220   4.508   2.828   7.933 -0.0201 -0.3960 -0.0444
 7253SOL    HW133221   4.483   2.921   7.932 -2.6812 -1.0997  1.3461
 7253SOL    HW233222   4.573   2.824   7.863  0.2925  2.1356  0.0850
 7254SOL     OW33223   3.080   3.867  17.175 -0.4986 -0.3531 -0.2095
 7254SOL    HW133224   3.171   3.838  17.180  0.1858  1.6295 -1.1436
 7254SOL    HW233225   3.049   3.806  17.108  3.3262 -1.0091 -1.3731
 7255SOL     OW33226   2.919   3.088   3.601 -0.7342 -0.0144  0.9178
 7255SOL    HW133227   2.931   3.119   3.690  1.8241 -1.4972  1.0804
 7255SOL    HW233228   3.009   3.056   3.592 -1.4574 -1.3620 -1.7569
 7256SOL     OW33229   3.099   2.653  13.912 -0.2632  0.4905  0.3782
 7256SOL    HW133230   3.181   2.622  13.874 -0.1239  0.8731  0.3639
 7256SOL    HW233231   3.122   2.730  13.965 -0.4477 -0.3681  1.7154
 7257SOL     OW33232   4.512   1.729   3.850 -0.3218 -0.1859 -0.4121
 7257SOL    HW133233   4.586   1.672   3.869 -2.3641 -2.4554  0.8128
 7257SOL    HW233234   4.463   1.727   3.932  2.1220  3.0383  1.0721
 7258SOL     OW33235   0.868   2.214   3.702 -0.2341  0.0896 -0.0778
 7258SOL    HW133236   0.915   2.288   3.742  0.0570 -0.9674  1.5332
 7258SOL    HW233237   0.857   2.254   3.616 -0.2351  0.2052 -0.0243
 7259SOL     OW33238   4.623   3.440   2.086 -0.3027  0.7025 -0.5407
 7259SOL    HW133239   4.603   3.362   2.033  0.2000  0.6072 -0.5901
 7259SOL    HW233240   4.583   3.418   2.170 -0.2957 -0.5520 -0.8647
 7260SOL     OW33241   3.942   2.204   8.506  0.3515  0.3708  0.0026
 7260SOL    HW133242   3.914   2.276   8.450  1.5526  0.5399 -0.3862
 7260SOL    HW233243   3.894   2.228   8.585 -0.7445 -0.2062 -0.4965
 7261SOL     OW33244   2.712   1.067   8.528 -0.1934 -0.2461  0.1532
 7261SOL    HW133245   2.804   1.086   8.545 -0.3900  0.7525  0.1102
 7261SOL    HW233246   2.689   1.006   8.598 -2.2659 -0.2589 -0.5472
 7262SOL     OW33247   3.792   2.237  17.514 -0.1412 -0.0819 -0.3436
 7262SOL    HW133248   3.842   2.292  17.574  1.0311 -1.8355  0.2948
 7262SOL    HW233249   3.751   2.177  17.576  0.8319 -1.7572 -1.3191
 7263SOL     OW33250   2.840   2.477   0.052 -0.2738 -0.4596  0.2051
 7263SOL    HW133251   2.853   2.508   0.141 -1.8038  0.0478  0.2378
 7263SOL    HW233252   2.904   2.405   0.058 -0.9208 -0.9809  0.8566
 7264SOL     OW33253   0.147   1.761   3.013  0.3894 -0.2252 -0.3181
 7264SOL    HW133254   0.151   1.735   3.105 -0.0599 -0.6404 -0.4099
 7264SOL    HW233255   0.173   1.679   2.970 -0.9801 -1.2823  0.8304
 7265SOL     OW33256   1.317   0.094   3.905  0.2907  0.0388  0.4096
 7265SOL    HW133257   1.326   0.009   3.862  1.3692 -0.4022  1.5073
 7265SOL    HW233258   1.406   0.115   3.933  0.1011  0.6998  0.5172
 7266SOL     OW33259   2.988   2.574   2.078  0.2364 -0.1190  0.0493
 7266SOL    HW133260   3.003   2.668   2.070 -1.6043 -0.0158 -2.3885
 7266SOL    HW233261   2.893   2.566   2.071  0.2922 -0.5012 -0.2973
 7267SOL     OW33262   2.118   1.768   2.816  0.1273 -0.0612  0.1186
 7267SOL    HW133263   2.165   1.830   2.873 -0.9426 -0.1556  1.1180
 7267SOL    HW233264   2.147   1.690   2.863 -2.4583 -1.7004 -1.0312
 7268SOL     OW33265   4.592   1.096   9.069  0.2166  0.2349 -0.2190
 7268SOL    HW133266   4.613   1.074   9.159  0.3421 -0.5276 -0.4355
 7268SOL    HW233267   4.591   1.190   9.085 -1.0677  0.4528 -1.5707
 7269SOL     OW33268   4.550   1.251   3.738 -0.1354  0.1074 -0.4612
 7269SOL    HW133269   4.508   1.329   3.775 -0.0523 -0.3970  0.6753
 7269SOL    HW233270   4.481   1.188   3.756  0.1245 -0.1404 -0.3193
 7270SOL     OW33271   0.773   0.229   6.561  0.6539 -0.7785 -0.5718
 7270SOL    HW133272   0.777   0.263   6.651  1.5023  2.5892 -1.8927
 7270SOL    HW233273   0.769   0.310   6.510 -1.4447  0.3536  1.3985
 7271SOL     OW33274   4.311   4.710   7.401 -0.0408 -0.1674 -0.0871
 7271SOL    HW133275   4.216   4.716   7.412 -0.1640 -0.3543 -1.0566
 7271SOL    HW233276   4.336   4.686   7.490  0.9825 -0.8895 -0.5756
 7272SOL     OW33277   0.685   0.236   8.315  0.7649 -0.5186  0.0911
 7272SOL    HW133278   0.637   0.295   8.373 -1.7827 -1.7589 -0.7381
 7272SOL    HW233279   0.708   0.159   8.367 -1.7251 -1.3139 -0.0005
 7273SOL     OW33280   1.877   0.960   4.366 -0.1675  0.2704  0.2397
 7273SOL    HW133281   1.894   0.868   4.350  0.5853  0.2734  1.0275
 7273SOL    HW233282   1.804   0.950   4.427 -0.7927 -1.2568 -0.7708
 7274SOL     OW33283   0.200   0.266   3.848 -0.0785 -0.1772 -0.0588
 7274SOL    HW133284   0.159   0.205   3.909 -0.6292  1.0659  0.8328
 7274SOL    HW233285   0.184   0.352   3.888  1.1031  0.6934 -1.4777
 7275SOL     OW33286   3.698   0.288   0.345  0.3226 -0.0657 -0.3877
 7275SOL    HW133287   3.719   0.289   0.252  0.7383  1.2143 -0.2799
 7275SOL    HW233288   3.726   0.202   0.377 -0.1787  0.0364  0.3099
 7276SOL     OW33289   0.320   3.775   8.392  0.1133 -0.5484  0.1389
 7276SOL    HW133290   0.263   3.811   8.459  0.8971  2.0765 -0.6055
 7276SOL    HW233291   0.378   3.850   8.376 -1.2173  0.1748 -1.2499
 7277SOL     OW33292   2.822   0.465   3.713  0.3120  0.5983  0.3901
 7277SOL    HW133293   2.838   0.371   3.723 -0.5077  0.2498 -1.5270
 7277SOL    HW233294   2.851   0.488   3.625  2.5558  1.8481  1.4601
 7278SOL     OW33295   1.656   3.481   7.233  0.3499  0.1099  0.2835
 7278SOL    HW133296   1.712   3.429   7.291  1.4040 -0.7180 -1.4393
 7278SOL    HW233297   1.661   3.565   7.277 -0.6291 -0.4727  1.4870
 7279SOL     OW33298   3.223   4.020   8.189 -0.5658  0.1160 -0.1699
 7279SOL    HW133299   3.220   3.925   8.198 -1.1768  0.1608  0.1079
 7279SOL    HW233300   3.316   4.036   8.175 -0.3459 -0.8948  0.1120
 7280SOL     OW33301   3.094   0.636   5.025  0.2150  0.0131 -0.2044
 7280SOL    HW133302   3.054   0.624   5.111  0.0530 -2.9824 -0.6986
 7280SOL    HW233303   3.143   0.553   5.020 -2.2078 -1.6271  2.9937
 7281SOL     OW33304   2.519   4.659  13.074 -0.2086  0.3666 -0.0990
 7281SOL    HW133305   2.460   4.677  13.000 -0.8923  3.4067  1.2317
 7281SOL    HW233306   2.458   4.611  13.130 -0.4046 -0.7432 -1.2566
 7282SOL     OW33307   1.768   1.443   8.448 -0.4196  0.0999  0.4223
 7282SOL    HW133308   1.787   1.462   8.539 -1.5758 -0.5167  0.7904
 7282SOL    HW233309   1.839   1.498   8.415 -0.9194 -0.4057 -1.5246
 7283SOL     OW33310   1.300   2.670   4.952  0.0507 -0.0805 -0.1448
 7283SOL    HW133311   1.299   2.679   4.856 -0.9342  0.9174 -0.0326
 7283SOL    HW233312   1.248   2.589   4.949  0.4998 -0.3240 -1.4076
 7284SOL     OW33313   3.808   3.961   1.434  0.3094  0.4682  0.4887
 7284SOL    HW133314   3.766   4.046   1.422  1.3508  0.8982 -0.1012
 7284SOL    HW233315   3.741   3.896   1.409  1.9564 -1.0101 -0.0782
 7285SOL     OW33316   4.235   2.582  12.606  0.4198  0.0122  0.1941
 7285SOL    HW133317   4.293   2.507  12.611  2.3034  1.4789  0.2778
 7285SOL    HW233318   4.298   2.640  12.564  1.4690 -0.8715  0.5545
 7286SOL     OW33319   1.252   0.797   5.424  0.2579  0.0879  0.3201
 7286SOL    HW133320   1.229   0.708   5.397  0.1486 -0.1510  1.2193
 7286SOL    HW233321   1.178   0.841   5.381  0.3420  2.4598  2.6229
 7287SOL     OW33322   1.136   0.407   9.223 -0.0708  0.0083  0.3160
 7287SOL    HW133323   1.043   0.389   9.214  0.4496 -1.7003 -1.6241
 7287SOL    HW233324   1.128   0.499   9.198 -2.7452 -0.2780  0.1506
 7288SOL     OW33325   3.010   0.892   9.153  0.5058 -0.2811 -0.2136
 7288SOL    HW133326   3.094   0.890   9.107  0.5189  1.2069 -0.2740
 7288SOL    HW233327   2.964   0.969   9.120 -0.0779  0.1769  1.6749
 7289SOL     OW33328   2.666   1.278   5.064 -0.0958  0.1401 -0.4435
 7289SOL    HW133329   2.586   1.324   5.090 -1.2077 -3.0497  1.7308
 7289SOL    HW233330   2.735   1.323   5.112 -0.2446 -2.3078  2.0467
 7290SOL     OW33331   4.382   4.380   6.149 -0.2429 -0.4892 -0.2511
 7290SOL    HW133332   4.425   4.296   6.163 -1.1109 -1.2167 -1.9115
 7290SOL    HW233333   4.353   4.401   6.238  0.0560  1.3755 -0.5914
 7291SOL     OW33334   0.334   4.257   7.117  0.2175 -0.0481 -0.3932
 7291SOL    HW133335   0.297   4.169   7.107  2.3820 -0.7621 -2.1565
 7291SOL    HW233336   0.256   4.312   7.112  1.5018  1.6651 -1.3622
 7292SOL     OW33337   3.698   0.081   2.624 -0.4276 -0.0826 -0.5755
 7292SOL    HW133338   3.771   0.051   2.679  1.0056  0.7063 -2.0563
 7292SOL    HW233339   3.651   4.723   2.609  2.3391 -1.2271 -2.9138
 7293SOL     OW33340   2.180   3.528  11.736 -0.2596 -0.3191 -0.7271
 7293SOL    HW133341   2.092   3.556  11.759  0.1537  0.5520 -0.2212
 7293SOL    HW233342   2.212   3.481  11.813  2.6318 -1.0990 -2.3692
 7294SOL     OW33343   1.826   1.478   2.924  0.0238  0.6222  0.2053
 7294SOL    HW133344   1.820   1.551   2.862  0.0961 -0.4177 -1.0163
 7294SOL    HW233345   1.763   1.417   2.885 -0.3627  2.0255 -1.3745
 7295SOL     OW33346   1.055   0.490   0.857  0.4911 -0.6569  0.1250
 7295SOL    HW133347   0.994   0.416   0.852  0.9093 -1.0862  1.5088
 7295SOL    HW233348   0.992   0.540   0.908  0.1482 -1.2785  0.3148
 7296SOL     OW33349   1.243   1.313   2.997 -0.1421 -0.0277  0.5724
 7296SOL    HW133350   1.179   1.282   3.061  0.2041  0.4671  1.1615
 7296SOL    HW233351   1.203   1.278   2.918  0.3350  1.6706 -0.4331
 7297SOL     OW33352   2.915   2.811   1.921 -0.4397  0.3043  0.4589
 7297SOL    HW133353   2.839   2.772   1.877  1.3911 -0.0433 -2.3527
 7297SOL    HW233354   2.977   2.829   1.850  0.0640 -2.2302  0.2524
 7298SOL     OW33355   3.257   1.051   2.139  0.3672  0.0454 -0.5356
 7298SOL    HW133356   3.352   1.062   2.136  0.4604 -0.2747  1.0738
 7298SOL    HW233357   3.236   0.972   2.188  1.7352 -0.3039 -0.5187
 7299SOL     OW33358   3.647   0.619   3.180  0.1547  0.5512 -0.2510
 7299SOL    HW133359   3.719   0.646   3.123  0.5200  3.9169  1.8339
 7299SOL    HW233360   3.632   0.534   3.138 -1.7350  0.8194 -0.1032
 7300SOL     OW33361   3.763   3.195   1.487 -0.7288 -0.3755 -0.1099
 7300SOL    HW133362   3.699   3.245   1.538  0.4678  1.8724 -0.8004
 7300SOL    HW233363   3.840   3.203   1.543 -0.9031  0.6076 -0.0192
 7301SOL     OW33364   3.979   2.081   3.769  0.4547 -0.7646  0.1797
 7301SOL    HW133365   4.002   1.989   3.777  2.6051 -0.0945  1.9068
 7301SOL    HW233366   3.970   2.098   3.676  1.6399 -0.0191  0.1914
 7302SOL     OW33367   4.647   2.444  14.854  1.0505 -0.8127  0.3041
 7302SOL    HW133368   4.596   2.379  14.903  1.7357  1.0168  3.4009
 7302SOL    HW233369   0.009   2.403  14.853  1.5065  0.1129  2.1319
 7303SOL     OW33370   4.640   4.547   5.827  0.3083 -0.7353  0.0642
 7303SOL    HW133371   4.598   4.575   5.909 -1.9350 -3.4617 -0.1485
 7303SOL    HW233372   4.715   4.496   5.858  0.0510  0.9801  3.5625
 7304SOL     OW33373   0.850   0.277   6.820 -0.2258  0.3996 -0.5833
 7304SOL    HW133374   0.937   0.314   6.830 -0.1680 -0.8851  3.3622
 7304SOL    HW233375   0.847   0.223   6.899 -0.5252 -0.0207 -0.8808
 7305SOL     OW33376   1.277   0.459   1.080 -0.2839 -0.7222  0.5853
 7305SOL    HW133377   1.248   0.416   1.000 -1.6300 -2.1617  1.8329
 7305SOL    HW233378   1.193   0.499   1.101 -0.7330 -1.8141  0.8780
 7306SOL     OW33379   1.832   0.738  13.200 -0.2236 -0.0394 -0.4678
 7306SOL    HW133380   1.927   0.735  13.211 -0.2190  1.0146 -0.2531
 7306SOL    HW233381   1.819   0.822  13.158  1.9383 -0.1585 -1.3656
 7307SOL     OW33382   3.497   4.593   6.415  0.1466 -0.0692 -0.5105
 7307SOL    HW133383   3.512   4.688   6.409  0.7056 -0.0700  0.7916
 7307SOL    HW233384   3.495   4.592   6.511  1.1945  0.4520 -0.4827
 7308SOL     OW33385   0.945   3.459   8.591 -0.4286 -0.3698  1.3385
 7308SOL    HW133386   1.015   3.396   8.577 -1.5154 -1.0971 -0.8169
 7308SOL    HW233387   0.996   3.539   8.603  1.3899 -1.4286  0.6668
 7309SOL     OW33388   2.120   3.950   6.816  0.0990 -0.4796  0.1976
 7309SOL    HW133389   2.031   3.944   6.850 -0.3380  0.9474 -0.7388
 7309SOL    HW233390   2.163   4.019   6.867 -0.6864  0.2592 -0.1442
 7310SOL     OW33391   3.298   3.661   1.705  0.5902 -0.3467 -0.1948
 7310SOL    HW133392   3.365   3.659   1.637  1.9646 -1.6492  1.1864
 7310SOL    HW233393   3.351   3.676   1.784  0.4616 -0.3623 -0.1061
 7311SOL     OW33394   1.852   3.490   3.605  0.1718 -0.1460  0.3485
 7311SOL    HW133395   1.760   3.498   3.631  0.0833  0.0814 -0.0207
 7311SOL    HW233396   1.854   3.519   3.514 -0.7712  1.7955  0.9428
 7312SOL     OW33397   2.366   1.378   8.355  0.0746 -0.5917  0.1167
 7312SOL    HW133398   2.353   1.329   8.274  1.6747 -0.6236 -0.1222
 7312SOL    HW233399   2.370   1.306   8.418 -0.8802 -2.4083 -1.8899
 7313SOL     OW33400   2.093   3.474   0.659  0.4357  0.3101 -0.1836
 7313SOL    HW133401   2.134   3.556   0.683  1.4543  0.0527 -1.0518
 7313SOL    HW233402   2.104   3.491   0.565  0.0018  0.7777 -0.1502
 7314SOL     OW33403   4.180   3.562   8.502 -0.1828 -0.4996 -0.0189
 7314SOL    HW133404   4.260   3.514   8.523  1.3504  1.7508 -0.7129
 7314SOL    HW233405   4.146   3.506   8.433  2.6783  0.0272 -1.8313
 7315SOL     OW33406   2.870   4.151   6.152  0.0693 -0.3372 -0.2740
 7315SOL    HW133407   2.826   4.077   6.111  1.5779  0.0010 -2.5002
 7315SOL    HW233408   2.940   4.184   6.096  0.0836 -0.8669 -0.5659
 7316SOL     OW33409   3.918   2.824   5.850 -0.5659  0.4037 -0.0090
 7316SOL    HW133410   3.879   2.893   5.904 -3.1486  0.7028 -2.2271
 7316SOL    HW233411   3.836   2.782   5.822 -0.4552  0.4231 -0.3570
 7317SOL     OW33412   3.345   4.034   7.133  0.0465 -0.1107 -0.4014
 7317SOL    HW133413   3.420   3.982   7.159  0.4887  1.5356  1.6631
 7317SOL    HW233414   3.338   4.102   7.201  1.4885  1.0031 -1.3758
 7318SOL     OW33415   0.516   3.843   9.000 -0.4064  0.3211  0.5429
 7318SOL    HW133416   0.426   3.844   8.968 -0.6800  1.0173  1.3626
 7318SOL    HW233417   0.488   3.813   9.086 -1.1219  0.9083  0.5118
 7319SOL     OW33418   0.828   0.453   0.623  0.6836  0.4399  0.4153
 7319SOL    HW133419   0.762   0.426   0.560  2.7204 -0.9259 -1.0958
 7319SOL    HW233420   0.773   0.466   0.701  1.2988 -3.3153  1.4669
 7320SOL     OW33421   1.653   2.216   4.723 -0.7349  0.3420 -0.0465
 7320SOL    HW133422   1.572   2.248   4.682 -1.5716  0.1715  1.5027
 7320SOL    HW233423   1.664   2.129   4.684  2.1058  0.6480  0.0654
 7321SOL     OW33424   1.756   3.926  14.221  0.1926  0.7008 -0.0355
 7321SOL    HW133425   1.805   4.008  14.208  0.4872  0.8100  1.7295
 7321SOL    HW233426   1.667   3.951  14.197 -0.6644  0.5520  2.9956
 7322SOL     OW33427   0.584   0.928   5.379 -0.3191 -0.4443  0.1255
 7322SOL    HW133428   0.611   0.847   5.422  1.3369 -1.7246 -3.3285
 7322SOL    HW233429   0.500   0.936   5.425  0.5191  0.7507  1.4370
 7323SOL     OW33430   2.548   3.424  14.834  0.1932  0.1409 -0.3319
 7323SOL    HW133431   2.599   3.421  14.915  2.1594 -0.1651 -1.5777
 7323SOL    HW233432   2.592   3.348  14.796 -0.5533 -0.1981 -0.5165
 7324SOL     OW33433   1.057   3.814   6.234  0.4430  0.3612  0.5567
 7324SOL    HW133434   1.066   3.775   6.147 -0.8695  1.5389 -0.1065
 7324SOL    HW233435   1.011   3.743   6.278  1.2307 -0.7896 -0.4778
 7325SOL     OW33436   3.243   1.898   2.479 -0.3005  0.2501 -0.2960
 7325SOL    HW133437   3.209   1.944   2.401 -0.3776 -0.5777 -0.7540
 7325SOL    HW233438   3.254   1.976   2.532 -0.7362  1.2710 -1.7019
 7326SOL     OW33439   3.756   3.779   5.584  0.4073 -0.6356 -0.6093
 7326SOL    HW133440   3.675   3.824   5.563  1.2267  0.9644 -0.4139
 7326SOL    HW233441   3.814   3.789   5.508  2.8340 -0.9045  1.2026
 7327SOL     OW33442   4.548   3.557  15.301  0.3754  0.2483  0.1395
 7327SOL    HW133443   4.485   3.545  15.372  1.6565 -1.2555  1.0100
 7327SOL    HW233444   4.529   3.648  15.277 -1.0505  0.7070  3.0783
 7328SOL     OW33445   3.137   3.435   6.334  0.0926  0.3356  0.4113
 7328SOL    HW133446   3.186   3.363   6.374  1.9223 -0.8347 -3.9210
 7328SOL    HW233447   3.188   3.432   6.253 -0.2382 -1.1469  0.2726
 7329SOL     OW33448   0.774   1.336  17.051 -0.1438  0.4554  0.2795
 7329SOL    HW133449   0.743   1.390  16.978  1.9633 -1.2328 -1.8488
 7329SOL    HW233450   0.845   1.286  17.011  1.5181  0.9840  2.5383
 7330SOL     OW33451   3.970   4.452   6.447 -0.1866 -0.1477  0.4866
 7330SOL    HW133452   3.999   4.535   6.484 -0.9907  0.7452 -0.8858
 7330SOL    HW233453   3.892   4.440   6.502 -0.3689 -0.8311  0.0734
 7331SOL     OW33454   3.523   3.427   1.099  0.1703  0.0352 -0.3163
 7331SOL    HW133455   3.510   3.353   1.159 -1.4295  1.4844  1.1191
 7331SOL    HW233456   3.468   3.394   1.028  0.6655  1.5247 -1.3905
 7332SOL     OW33457   3.483   2.312   2.190 -0.0149 -0.7703 -0.3452
 7332SOL    HW133458   3.391   2.323   2.215  0.7350  2.8327  0.7635
 7332SOL    HW233459   3.466   2.245   2.123 -0.1175 -1.4368  0.3495
 7333SOL     OW33460   0.501   3.238   1.883 -0.2414 -0.3995  0.7837
 7333SOL    HW133461   0.419   3.209   1.843 -0.8563  0.7498  1.2134
 7333SOL    HW233462   0.530   3.158   1.927 -1.2271 -0.6440  0.9906
 7334SOL     OW33463   0.154   3.795   5.905  0.3333  0.1790 -0.4077
 7334SOL    HW133464   0.109   3.727   5.956 -0.4917  0.2029 -1.1039
 7334SOL    HW233465   0.157   3.755   5.818 -1.4065  1.6837 -1.1693
 7335SOL     OW33466   0.889   1.282   6.667  0.2774  0.0519 -0.5919
 7335SOL    HW133467   0.866   1.229   6.743  1.3748 -1.7860 -1.5283
 7335SOL    HW233468   0.804   1.281   6.623  0.9432  1.4736 -1.8944
 7336SOL     OW33469   4.034   3.242   0.587 -0.1629 -0.2280  0.0124
 7336SOL    HW133470   4.003   3.221   0.499 -1.7554 -1.5853  0.8969
 7336SOL    HW233471   4.043   3.337   0.580 -0.5894 -0.3184 -1.7969
 7337SOL     OW33472   1.253   0.990   2.443  0.6162  0.0804 -0.4469
 7337SOL    HW133473   1.276   0.972   2.534 -0.7700 -0.4295 -0.1947
 7337SOL    HW233474   1.257   0.906   2.397  1.1258  0.3853 -0.9613
 7338SOL     OW33475   3.313   0.314   1.726  0.3785 -0.3670  0.1314
 7338SOL    HW133476   3.222   0.299   1.753  0.5707 -2.7962 -0.5393
 7338SOL    HW233477   3.303   0.404   1.697 -1.2889 -0.2060  1.2059
 7339SOL     OW33478   3.191   3.804  12.588  0.2177  0.7839 -0.5574
 7339SOL    HW133479   3.125   3.741  12.620  1.4839 -0.8143 -1.0939
 7339SOL    HW233480   3.195   3.792  12.493 -2.5045  1.9083 -0.8133
 7340SOL     OW33481   3.217   0.387   5.896  0.1777 -0.0522  0.4220
 7340SOL    HW133482   3.162   0.317   5.932 -2.0955  1.3152 -0.4165
 7340SOL    HW233483   3.159   0.430   5.833 -0.6952 -0.1871  1.1285
 7341SOL     OW33484   4.328   3.294  14.225 -0.0341  0.5915  0.6508
 7341SOL    HW133485   4.358   3.342  14.303  1.7796  0.3189  0.1145
 7341SOL    HW233486   4.325   3.208  14.266 -0.5876 -0.2694 -1.1912
 7342SOL     OW33487   2.320   3.404   3.320  0.2452  0.4899  0.1170
 7342SOL    HW133488   2.332   3.313   3.292  1.3013  0.2056  1.5000
 7342SOL    HW233489   2.318   3.400   3.416  1.3463  1.9875  0.2043
 7343SOL     OW33490   4.647   0.648  13.074 -0.4954 -0.2255 -0.0314
 7343SOL    HW133491   4.713   0.661  13.142 -0.2030 -2.2821  0.0766
 7343SOL    HW233492   4.686   0.691  12.998  1.8441  0.0136  1.3092
 7344SOL     OW33493   3.070   1.723   3.620  0.7698 -0.1379 -0.1870
 7344SOL    HW133494   3.075   1.751   3.528 -2.5261  0.5377 -0.1682
 7344SOL    HW233495   3.131   1.786   3.657  0.1241  1.4189 -1.8046
 7345SOL     OW33496   1.673   0.288   3.525 -0.3167  0.2805  0.2706
 7345SOL    HW133497   1.626   0.354   3.474  2.4921  1.4913 -0.7287
 7345SOL    HW233498   1.602   0.228   3.548  0.7335 -1.5642 -1.2888
 7346SOL     OW33499   3.781   2.407   7.567  0.2946  0.0771  0.3679
 7346SOL    HW133500   3.770   2.433   7.476 -1.3268  2.1304  1.1351
 7346SOL    HW233501   3.862   2.452   7.594 -1.3373  4.2354 -1.7371
 7347SOL     OW33502   0.411   3.345   9.080 -0.0320 -0.3820  0.3830
 7347SOL    HW133503   0.441   3.382   9.163 -0.6468 -0.4120  0.6186
 7347SOL    HW233504   0.373   3.427   9.048 -1.2195 -0.1967  2.2824
 7348SOL     OW33505   4.291   4.144   2.557 -0.0074 -0.1587 -0.0050
 7348SOL    HW133506   4.262   4.203   2.487  0.8130 -1.3965 -1.4181
 7348SOL    HW233507   4.208   4.111   2.593  1.0533 -1.8924  0.8440
 7349SOL     OW33508   0.083   1.749   3.744 -0.2190  1.0724 -0.4994
 7349SOL    HW133509   0.124   1.774   3.827 -1.5220 -1.5348  0.9364
 7349SOL    HW233510   0.053   1.660   3.761  4.6610 -0.3808  0.4913
 7350SOL     OW33511   3.260   1.440  13.446  0.1577 -0.4676  0.3502
 7350SOL    HW133512   3.283   1.347  13.440  2.1215  0.0577 -0.2567
 7350SOL    HW233513   3.348   1.478  13.445  0.2976 -0.7638  1.4145
 7351SOL     OW33514   4.038   0.173   5.639  0.5671  0.2117  0.1987
 7351SOL    HW133515   3.987   0.093   5.651 -1.4321  1.4788  0.1118
 7351SOL    HW233516   4.035   0.205   5.729 -1.2787  2.2137 -0.5918
 7352SOL     OW33517   4.112   4.046   9.547  0.2401  0.2833  0.0044
 7352SOL    HW133518   4.084   4.022   9.635  0.1062  2.2781  0.5114
 7352SOL    HW233519   4.167   3.969   9.535  0.3069  0.3675 -0.2486
 7353SOL     OW33520   1.499   2.238   8.219 -0.1129 -0.0970 -0.2028
 7353SOL    HW133521   1.467   2.220   8.308 -0.9089 -2.4136 -0.9785
 7353SOL    HW233522   1.585   2.276   8.240 -0.0573  0.3808 -1.2839
 7354SOL     OW33523   3.234   2.783  12.576  0.3613 -0.1046 -0.3249
 7354SOL    HW133524   3.206   2.721  12.643  1.2175 -1.4264 -1.1948
 7354SOL    HW233525   3.178   2.855  12.607  0.0996 -0.3115 -0.3221
 7355SOL     OW33526   1.102   0.118   9.610  0.3346  0.0292  0.1172
 7355SOL    HW133527   1.157   0.040   9.619 -2.7878 -2.0317  1.1302
 7355SOL    HW233528   1.015   0.081   9.624 -0.4499  1.6711 -0.4616
 7356SOL     OW33529   0.311   0.367   0.477 -0.1071  0.2833  0.0050
 7356SOL    HW133530   0.355   0.348   0.559 -0.3628 -0.8040 -0.1073
 7356SOL    HW233531   0.359   0.314   0.412  1.4268  0.6935  0.8092
 7357SOL     OW33532   1.818   1.410   6.589  0.1550  0.3342  0.6810
 7357SOL    HW133533   1.807   1.360   6.508 -3.5929 -0.0596  1.4243
 7357SOL    HW233534   1.755   1.480   6.569  0.5548  1.0300  1.8793
 7358SOL     OW33535   2.493   0.647   5.681 -0.2420  0.2846 -0.2837
 7358SOL    HW133536   2.404   0.671   5.654 -0.3192 -0.6587 -0.8525
 7358SOL    HW233537   2.498   0.678   5.771  0.8746  0.1503 -0.2987
 7359SOL     OW33538   2.192   1.578  11.262  0.5601 -0.2976  0.1507
 7359SOL    HW133539   2.132   1.614  11.197  1.1776 -0.3289 -0.4432
 7359SOL    HW233540   2.146   1.494  11.272 -1.7677  0.8985 -0.5375
 7360SOL     OW33541   1.401   3.823   1.769  0.5533  0.1082 -0.4351
 7360SOL    HW133542   1.312   3.855   1.783 -0.3191 -2.0035 -1.0874
 7360SOL    HW233543   1.435   3.900   1.724 -1.9889  1.3711 -0.2193
 7361SOL     OW33544   2.606   4.274   0.888  0.3469  0.3267  0.3086
 7361SOL    HW133545   2.570   4.274   0.799  0.1255  0.4965  0.3977
 7361SOL    HW233546   2.534   4.276   0.951 -0.5842 -0.3958 -0.7248
 7362SOL     OW33547   0.174   0.890   7.415  0.5444  0.3532  0.1537
 7362SOL    HW133548   0.255   0.919   7.372  1.5238 -0.1335  1.6743
 7362SOL    HW233549   0.134   0.835   7.347 -1.7158  0.7647  1.1496
 7363SOL     OW33550   0.306   4.034  16.807  0.3401 -0.5124 -0.7695
 7363SOL    HW133551   0.259   4.113  16.778 -0.3357  0.6291  3.5548
 7363SOL    HW233552   0.340   4.015  16.719 -1.4456  1.7046 -1.9528
 7364SOL     OW33553   0.270   0.155   2.265  0.2062 -0.0675 -0.3485
 7364SOL    HW133554   0.217   0.125   2.191 -0.7646  2.2255 -0.5762
 7364SOL    HW233555   0.270   0.249   2.251  0.8120 -0.0910 -0.5236
 7365SOL     OW33556   1.266   3.039   5.107 -0.1622 -0.2908  0.1114
 7365SOL    HW133557   1.180   3.056   5.067  0.4895  1.8280 -0.3902
 7365SOL    HW233558   1.277   3.112   5.168 -0.9126  1.4209 -1.7805
 7366SOL     OW33559   3.922   1.120  12.434 -0.7629 -0.1136 -0.3375
 7366SOL    HW133560   3.978   1.043  12.444 -1.5256 -0.6247 -0.0187
 7366SOL    HW233561   3.895   1.105  12.344  2.4750  0.5162 -1.4401
 7367SOL     OW33562   4.165   2.846   2.893 -0.3358 -0.1738  0.3275
 7367SOL    HW133563   4.260   2.852   2.902 -0.1529 -2.8755  0.1291
 7367SOL    HW233564   4.149   2.849   2.798  0.8400 -1.7310  0.0791
 7368SOL     OW33565   3.215   4.269   3.036 -0.5044 -0.7689 -0.6307
 7368SOL    HW133566   3.284   4.274   2.969 -3.9102  0.5040 -4.0546
 7368SOL    HW233567   3.161   4.199   2.999 -2.2006 -0.6072  1.5737
 7369SOL     OW33568   0.684   1.602   2.039 -0.2538 -0.1503  0.0994
 7369SOL    HW133569   0.657   1.510   2.044 -1.2797  0.1744  0.5852
 7369SOL    HW233570   0.773   1.594   2.074  0.0324 -4.3024 -1.5763
 7370SOL     OW33571   4.002   3.635  14.775 -0.4599 -0.0298 -0.2938
 7370SOL    HW133572   4.037   3.609  14.690 -1.1902 -0.9989 -0.2972
 7370SOL    HW233573   4.073   3.697  14.791  0.8214 -1.0658 -1.9374
 7371SOL     OW33574   3.239   2.306  13.583 -0.1993  0.7571 -0.2192
 7371SOL    HW133575   3.198   2.291  13.668  0.8798 -2.3582 -0.2290
 7371SOL    HW233576   3.303   2.234  13.588 -2.6269 -1.3419  0.5337
 7372SOL     OW33577   3.511   0.294   5.114 -0.1251 -0.1625  0.4328
 7372SOL    HW133578   3.599   0.256   5.114  0.2496  0.6914  1.4289
 7372SOL    HW233579   3.460   0.228   5.160 -0.3953  0.4637  1.0303
 7373SOL     OW33580   0.722   2.139   8.221  0.2834 -0.3030  0.3110
 7373SOL    HW133581   0.762   2.072   8.275  1.0448  0.3096  0.5166
 7373SOL    HW233582   0.790   2.191   8.178 -3.0404  3.2435 -0.6993
 7374SOL     OW33583   4.718   3.309   6.610 -0.6006  0.7049 -0.5372
 7374SOL    HW133584   0.090   3.314   6.609 -0.6097  0.8707 -0.6495
 7374SOL    HW233585   4.700   3.216   6.596  0.3468  0.7555 -2.2185
 7375SOL     OW33586   3.997   2.539   7.647  0.0333 -0.6276  0.1626
 7375SOL    HW133587   4.081   2.563   7.608 -1.5564  2.1636 -1.6265
 7375SOL    HW233588   4.005   2.556   7.741  1.2313 -0.3147  0.0064
 7376SOL     OW33589   2.158   1.593  13.198  0.3529 -0.1383  0.0505
 7376SOL    HW133590   2.063   1.584  13.210  0.7514  0.1272  3.4830
 7376SOL    HW233591   2.168   1.677  13.153  3.2585  0.2691  1.4846
 7377SOL     OW33592   3.242   0.255   8.048 -0.6012  0.7082  0.0166
 7377SOL    HW133593   3.201   0.338   8.022  1.6782  0.8748 -3.1059
 7377SOL    HW233594   3.174   0.198   8.013 -1.6275  0.7511  1.9235
 7378SOL     OW33595   1.385   2.517  11.958  0.4771  0.0432 -0.1648
 7378SOL    HW133596   1.402   2.545  11.868  0.2016 -0.7680 -0.4671
 7378SOL    HW233597   1.293   2.542  11.967  0.2714 -0.0823 -1.7742
 7379SOL     OW33598   0.971   1.927  11.394  0.1278 -0.0360 -0.0295
 7379SOL    HW133599   1.004   2.014  11.418  0.3928  0.1018 -0.9125
 7379SOL    HW233600   0.982   1.923  11.299  0.5369 -0.5260  0.0425
 7380SOL     OW33601   4.299   1.411   4.667 -0.1740 -0.6397 -0.2687
 7380SOL    HW133602   4.218   1.362   4.652 -0.1116 -0.6729 -0.4972
 7380SOL    HW233603   4.360   1.343   4.639 -0.9799 -1.7473  0.6273
 7381SOL     OW33604   2.230   0.309  15.123  0.5402 -0.2652 -0.0664
 7381SOL    HW133605   2.269   0.237  15.073  2.3007 -0.3991  1.4965
 7381SOL    HW233606   2.304   0.370  15.132 -1.5073  2.1340  0.5871
 7382SOL     OW33607   3.236   1.732   2.242 -0.0933  0.0664  0.3959
 7382SOL    HW133608   3.296   1.795   2.201  0.8185 -1.2646 -0.2870
 7382SOL    HW233609   3.201   1.686   2.166 -1.0709 -0.3716  1.1261
 7383SOL     OW33610   0.797   3.834  10.132  0.5107 -0.1688  0.1299
 7383SOL    HW133611   0.756   3.748  10.126 -1.1904  0.6475  0.2042
 7383SOL    HW233612   0.887   3.806  10.147  0.5765  0.3352  0.6706
 7384SOL     OW33613   2.020   3.944  13.598 -0.4088 -0.3011  0.3901
 7384SOL    HW133614   2.032   3.869  13.656  1.5579 -1.2607 -1.2070
 7384SOL    HW233615   1.969   4.004  13.651  0.9501  2.7798 -1.8145
 7385SOL     OW33616   0.452   1.198   4.282 -0.3833  0.2658  0.5637
 7385SOL    HW133617   0.450   1.126   4.345  1.4122  0.6166  1.0263
 7385SOL    HW233618   0.519   1.157   4.227  0.0589  0.8568  0.6601
 7386SOL     OW33619   1.006   4.198   3.798 -0.6652 -0.0509 -0.2010
 7386SOL    HW133620   1.022   4.289   3.825 -0.1129  0.4494 -2.2546
 7386SOL    HW233621   0.997   4.148   3.879 -2.8401  1.2462  0.3749
 7387SOL     OW33622   2.280   2.840   6.466 -0.5688 -0.2462 -0.1837
 7387SOL    HW133623   2.317   2.795   6.390 -0.0042 -0.1350  0.0261
 7387SOL    HW233624   2.334   2.917   6.481  0.0196 -0.8004  0.5119
 7388SOL     OW33625   2.472   1.720   6.945  0.2415  0.6107 -0.1531
 7388SOL    HW133626   2.560   1.756   6.932  1.5852 -2.0055  1.6059
 7388SOL    HW233627   2.487   1.666   7.023 -1.8641 -0.2181 -0.3228
 7389SOL     OW33628   0.709   0.286   8.658  0.0656 -0.4401 -0.3160
 7389SOL    HW133629   0.657   0.328   8.590 -0.4933  1.1379  1.0649
 7389SOL    HW233630   0.795   0.311   8.625 -0.0539 -0.6564 -0.7803
 7390SOL     OW33631   2.054   0.426  10.153  0.0003  0.0953  0.4685
 7390SOL    HW133632   2.086   0.382  10.232 -1.8095 -0.1261  1.0678
 7390SOL    HW233633   2.015   0.502  10.196  0.7260  0.9664 -0.4142
 7391SOL     OW33634   1.069   3.483   0.065  0.1834  0.3083 -0.6107
 7391SOL    HW133635   1.079   3.503  17.670  2.2290  0.4653 -0.3569
 7391SOL    HW233636   1.111   3.562   0.100 -0.5459  1.1083 -1.5261
 7392SOL     OW33637   3.328   4.388   2.629  0.3407  0.3186 -0.3327
 7392SOL    HW133638   3.364   4.469   2.665  1.1915  0.1651 -0.8208
 7392SOL    HW233639   3.239   4.378   2.661  0.5666 -1.8816 -0.3383
 7393SOL     OW33640   2.423   0.460   3.275 -0.1686  0.1057  0.4979
 7393SOL    HW133641   2.503   0.472   3.327  0.7270  1.7696 -1.2293
 7393SOL    HW233642   2.375   0.538   3.303  1.6655  0.8580  1.5615
 7394SOL     OW33643   0.966   3.060   7.233  0.3567  0.4442  0.7142
 7394SOL    HW133644   0.954   2.985   7.175 -1.3310  3.0313 -2.2700
 7394SOL    HW233645   0.906   3.126   7.198 -0.9542 -0.4617  1.2330
 7395SOL     OW33646   0.994   0.291   7.628  0.0387  0.1737  0.7465
 7395SOL    HW133647   0.984   0.320   7.537  0.8363  1.2167  0.9945
 7395SOL    HW233648   0.914   0.336   7.653  0.7552  1.8562 -0.0093
 7396SOL     OW33649   1.936   4.619   9.304  0.0130  0.3193  0.4639
 7396SOL    HW133650   2.011   4.675   9.283  0.7665 -1.2966 -1.1403
 7396SOL    HW233651   1.913   4.575   9.222  1.0360  1.5006 -0.4702
 7397SOL     OW33652   2.680   1.151   6.979 -0.7041  0.1137  0.0468
 7397SOL    HW133653   2.711   1.109   7.060 -1.1172  0.0153  0.1553
 7397SOL    HW233654   2.729   1.233   6.974 -1.3447  0.6079  1.8180
 7398SOL     OW33655   3.625   3.653   0.403  0.3642 -0.9642 -0.3984
 7398SOL    HW133656   3.597   3.611   0.322 -1.0040  1.0863 -1.0029
 7398SOL    HW233657   3.644   3.740   0.367 -0.2285 -0.5108  0.3969
 7399SOL     OW33658   3.697   1.177  10.221  0.0164 -0.0804  0.3296
 7399SOL    HW133659   3.660   1.195  10.308 -2.0887  0.1421 -0.6251
 7399SOL    HW233660   3.749   1.256  10.211  1.4253 -0.9128  1.0301
 7400SOL     OW33661   0.881   3.765   1.448  0.5320 -0.2966 -0.5500
 7400SOL    HW133662   0.900   3.851   1.408 -2.5023  0.6288  0.0437
 7400SOL    HW233663   0.911   3.718   1.369  0.5234 -0.8698 -0.2101
 7401SOL     OW33664   1.904   4.296   8.894 -0.4410 -0.1794  0.8441
 7401SOL    HW133665   1.884   4.258   8.809  0.4459 -2.2524  1.5596
 7401SOL    HW233666   1.870   4.385   8.889 -0.3867 -0.2817 -1.1580
 7402SOL     OW33667   2.064   4.216   6.335  0.2826 -0.7114 -0.1309
 7402SOL    HW133668   2.012   4.174   6.404  0.8391 -1.5617 -0.2292
 7402SOL    HW233669   2.044   4.307   6.355 -0.5109 -0.7044 -0.9513
 7403SOL     OW33670   3.487   0.342   5.925 -0.1214  0.2334 -0.2073
 7403SOL    HW133671   3.501   0.310   5.836  1.7251 -0.2625  0.2614
 7403SOL    HW233672   3.393   0.356   5.929  0.1548  1.5443  2.2334
 7404SOL     OW33673   2.896   2.397   7.130 -0.3530  0.6217 -0.3090
 7404SOL    HW133674   2.973   2.434   7.087  0.7889 -1.0374  0.2759
 7404SOL    HW233675   2.854   2.344   7.061 -0.4822 -0.7574  0.8213
 7405SOL     OW33676   1.741   1.483   7.726 -0.0088 -0.5198 -0.5162
 7405SOL    HW133677   1.803   1.543   7.769  0.1433 -1.3891  0.4898
 7405SOL    HW233678   1.692   1.448   7.801 -0.4501 -0.0277 -0.5747
 7406SOL     OW33679   1.129   3.089   8.990 -0.7581  0.1951 -0.0902
 7406SOL    HW133680   1.175   3.032   8.928  0.4916  0.1323  0.8747
 7406SOL    HW233681   1.075   3.149   8.938 -2.6308  0.5284  2.2760
 7407SOL     OW33682   4.188   3.988   7.021  0.4004  0.0366 -0.0162
 7407SOL    HW133683   4.244   3.982   7.099  1.2617 -1.6250 -0.7557
 7407SOL    HW233684   4.107   3.942   7.044  1.0058  0.2076  2.4465
 7408SOL     OW33685   1.337   4.591   8.338  0.8334 -0.0143 -0.0203
 7408SOL    HW133686   1.276   4.533   8.292 -1.0226  2.1673 -0.3547
 7408SOL    HW233687   1.307   4.680   8.315  0.9620  0.7823  2.9639
 7409SOL     OW33688   3.983   1.426  10.287 -0.3389  0.8396 -0.3036
 7409SOL    HW133689   4.019   1.396  10.370  0.6268  0.9434 -0.6843
 7409SOL    HW233690   3.910   1.476  10.324 -0.9715  1.0146 -1.7748
 7410SOL     OW33691   1.873   3.464  15.800 -0.1284 -0.4173  0.4689
 7410SOL    HW133692   1.811   3.531  15.830 -0.4315 -0.3918 -0.2194
 7410SOL    HW233693   1.932   3.463  15.876 -0.6469  1.0981  0.9007
 7411SOL     OW33694   3.808   1.049   2.009 -0.1514 -0.0583 -0.1896
 7411SOL    HW133695   3.860   1.125   1.983  2.0743 -1.4561  0.1925
 7411SOL    HW233696   3.864   1.006   2.073  0.0387  2.9197  1.6353
 7412SOL     OW33697   4.470   3.606   6.885  0.0177 -0.0160  0.1266
 7412SOL    HW133698   4.553   3.573   6.918  0.3077  1.2176  0.6279
 7412SOL    HW233699   4.412   3.608   6.962  0.0170 -0.5886  0.1468
 7413SOL     OW33700   1.664   2.658   9.377  0.1201 -0.0992  0.5650
 7413SOL    HW133701   1.609   2.590   9.337 -0.5173 -0.2903  1.7701
 7413SOL    HW233702   1.710   2.613   9.447  0.6079 -1.5201 -0.6691
 7414SOL     OW33703   3.305   3.009   5.399  0.3464 -0.7287  0.1618
 7414SOL    HW133704   3.281   3.002   5.306 -3.1171  0.6361  0.9704
 7414SOL    HW233705   3.246   3.078   5.429  2.2713  1.0464 -0.1764
 7415SOL     OW33706   0.282   3.674   4.282 -0.0530  0.2800 -0.8458
 7415SOL    HW133707   0.322   3.600   4.236  1.5843 -0.5670  1.9351
 7415SOL    HW233708   0.194   3.669   4.245 -1.2043 -0.2104  2.0074
 7416SOL     OW33709   4.183   2.525   5.041  0.2710  0.7029  0.2563
 7416SOL    HW133710   4.255   2.461   5.039 -0.7635 -0.4980  1.5839
 7416SOL    HW233711   4.156   2.516   4.950 -3.2690 -1.0775  1.4805
 7417SOL     OW33712   0.578   0.683   7.297  0.0783 -0.0782  0.4131
 7417SOL    HW133713   0.648   0.622   7.274 -1.1590 -0.9092 -1.1848
 7417SOL    HW233714   0.504   0.626   7.278 -0.9092  0.9301  1.2146
 7418SOL     OW33715   2.417   0.154   8.423  0.5723  0.1159 -0.1969
 7418SOL    HW133716   2.344   0.130   8.480 -0.6240  2.9136 -0.5625
 7418SOL    HW233717   2.451   0.230   8.469  0.3578  0.1795 -0.1465
 7419SOL     OW33718   0.459   1.940   2.397 -0.4873  0.8527 -0.0705
 7419SOL    HW133719   0.479   1.849   2.375  0.1057  0.8208  0.5726
 7419SOL    HW233720   0.398   1.959   2.326 -1.9267 -1.1963  0.6204
 7420SOL     OW33721   4.448   0.627   4.018  0.3822  0.2399  0.0783
 7420SOL    HW133722   4.361   0.591   4.036 -0.1616  1.3159 -0.3609
 7420SOL    HW233723   4.471   0.571   3.944 -0.8115 -1.2562  0.8189
 7421SOL     OW33724   1.997   3.379   6.001  0.0641  0.7476 -0.1263
 7421SOL    HW133725   2.000   3.439   5.926  1.0716  0.1957 -0.5277
 7421SOL    HW233726   1.904   3.358   5.997  0.0544  0.4430  1.9001
 7422SOL     OW33727   2.673   1.343  11.124 -0.2166 -0.0969  0.2577
 7422SOL    HW133728   2.609   1.306  11.063 -0.9272 -0.5599  1.2664
 7422SOL    HW233729   2.618   1.380  11.194  0.6567 -3.2712  2.6254
 7423SOL     OW33730   3.973   1.985   5.388  0.6336 -0.2907 -0.1951
 7423SOL    HW133731   3.882   1.968   5.410  0.5018 -0.1074 -0.6087
 7423SOL    HW233732   3.963   1.985   5.293 -1.0505 -1.4782 -0.0186
 7424SOL     OW33733   1.143   2.192   1.896  0.0144  0.0567 -0.2872
 7424SOL    HW133734   1.125   2.265   1.956 -1.8875  0.6715 -1.6125
 7424SOL    HW233735   1.092   2.121   1.934 -0.9445  0.8290 -0.1114
 7425SOL     OW33736   0.167   1.623  11.702  0.4685  0.2216  0.1570
 7425SOL    HW133737   0.250   1.631  11.655 -0.0069 -1.8759 -1.0342
 7425SOL    HW233738   0.186   1.669  11.784  2.4351  3.0052 -1.8788
 7426SOL     OW33739   0.392   3.957   9.517 -0.2188 -0.5777 -0.1112
 7426SOL    HW133740   0.432   3.886   9.568  1.7114 -0.9306 -2.0879
 7426SOL    HW233741   0.461   4.023   9.519 -2.0713  1.2852  2.8502
 7427SOL     OW33742   2.607   3.951   8.449 -0.2267 -0.1445 -0.0292
 7427SOL    HW133743   2.701   3.968   8.451 -0.0458 -1.0700 -0.6308
 7427SOL    HW233744   2.614   3.865   8.491  1.1948 -0.8973 -1.8188
 7428SOL     OW33745   2.225   4.386   5.796  0.2040  0.0509  0.3791
 7428SOL    HW133746   2.221   4.291   5.809 -1.0051  0.0903  0.2824
 7428SOL    HW233747   2.210   4.409   5.887  1.3639  1.9723  0.0880
 7429SOL     OW33748   1.287   4.087   1.125  0.5028  0.3831  0.1936
 7429SOL    HW133749   1.301   4.121   1.036 -0.8435 -1.4729 -0.7398
 7429SOL    HW233750   1.346   4.011   1.125  0.6538  0.4976 -0.0651
 7430SOL     OW33751   2.922   1.889   5.234 -0.2680  0.0844 -0.4262
 7430SOL    HW133752   2.955   1.814   5.284 -0.5604  0.1354 -0.1595
 7430SOL    HW233753   2.953   1.866   5.147 -0.8784  1.6164 -1.0441
 7431SOL     OW33754   2.979   0.053   8.229 -0.0214 -0.0878 -0.0899
 7431SOL    HW133755   2.916   0.119   8.201  0.1717 -0.1749 -0.7212
 7431SOL    HW233756   3.029   0.045   8.148  1.5499  1.4531  0.7447
 7432SOL     OW33757   3.759   3.370   4.098  0.4093 -0.7120  0.1217
 7432SOL    HW133758   3.715   3.441   4.147  2.1993  1.0471 -0.8170
 7432SOL    HW233759   3.842   3.402   4.062  1.2444 -0.7276  2.0002
 7433SOL     OW33760   2.543   2.474   6.230 -0.2001  0.7558 -0.2945
 7433SOL    HW133761   2.622   2.522   6.204  0.0997  0.0208 -0.7653
 7433SOL    HW233762   2.537   2.504   6.320  1.3413 -0.6546  0.2926
 7434SOL     OW33763   2.565   2.476   7.665 -0.4783  0.6020  0.1904
 7434SOL    HW133764   2.626   2.542   7.632  1.4466 -1.3246 -0.0994
 7434SOL    HW233765   2.499   2.481   7.596  0.1456  1.1777 -0.3646
 7435SOL     OW33766   0.586   0.580   8.923  0.2251  0.0226 -0.4569
 7435SOL    HW133767   0.515   0.634   8.959  0.4634 -1.6298  2.4839
 7435SOL    HW233768   0.660   0.641   8.920 -1.2225  1.9118  1.7923
 7436SOL     OW33769   3.481   2.072  10.206  0.3975 -0.4434 -0.3067
 7436SOL    HW133770   3.485   2.083  10.111  3.0141  1.0794 -0.0189
 7436SOL    HW233771   3.457   2.158  10.240  2.6773  0.3031 -0.5986
 7437SOL     OW33772   1.072   4.070  12.758 -0.1799  0.1351  0.1480
 7437SOL    HW133773   1.046   3.984  12.726  0.2652 -0.4967  1.4472
 7437SOL    HW233774   1.091   4.122  12.680 -1.1915  1.9204  1.0763
 7438SOL     OW33775   2.244   2.683   6.661 -0.0784  0.0653  0.5052
 7438SOL    HW133776   2.173   2.626   6.634  0.1258 -0.1950  0.5224
 7438SOL    HW233777   2.254   2.740   6.585  0.8817  1.2302  1.4963
 7439SOL     OW33778   1.447   4.021  11.977 -0.0562  0.0422  0.4505
 7439SOL    HW133779   1.531   3.976  11.986  0.7765  1.6465  0.6870
 7439SOL    HW233780   1.421   4.027  12.069  3.0038 -0.8301  1.3557
 7440SOL     OW33781   3.369   0.426   3.638 -0.4297  0.3161  0.5283
 7440SOL    HW133782   3.315   0.351   3.614  1.9915 -1.6184  1.1228
 7440SOL    HW233783   3.401   0.471   3.561 -2.6619 -1.0299 -1.1782
 7441SOL     OW33784   2.816   0.140   6.993 -0.2978  0.4306  0.3863
 7441SOL    HW133785   2.903   0.110   6.967 -0.2807  3.4826 -3.1231
 7441SOL    HW233786   2.799   0.085   7.069 -0.6232  2.0877  1.5214
 7442SOL     OW33787   3.669   3.093   2.039 -0.5185 -0.3153 -0.4039
 7442SOL    HW133788   3.647   3.012   1.993 -0.8477  0.8316 -2.2823
 7442SOL    HW233789   3.697   3.059   2.124 -0.1245 -2.2475 -1.3060
 7443SOL     OW33790   1.534   4.566   5.068  0.7076 -0.3899 -0.1143
 7443SOL    HW133791   1.498   4.498   5.009  0.6395 -2.1751  1.9783
 7443SOL    HW233792   1.459   4.626   5.069 -0.2235 -1.5078 -1.5735
 7444SOL     OW33793   0.854   2.691   6.544 -0.5459  0.6400  0.0838
 7444SOL    HW133794   0.870   2.597   6.553 -1.4387  0.3996 -0.7704
 7444SOL    HW233795   0.934   2.739   6.525 -0.8558  1.2901  0.4315
 7445SOL     OW33796   1.616   4.661   8.386 -0.4944 -0.6865  0.0374
 7445SOL    HW133797   1.532   4.632   8.421 -0.2790 -1.3062  0.0288
 7445SOL    HW233798   1.617   4.645   8.292  0.0468  0.6646 -0.1927
 7446SOL     OW33799   3.067   1.817   4.391 -0.2428  0.2295 -0.1482
 7446SOL    HW133800   3.109   1.782   4.313 -2.4646 -1.2608 -0.6718
 7446SOL    HW233801   3.036   1.900   4.354  0.8872  0.8444  0.2950
 7447SOL     OW33802   3.053   2.444  11.031 -0.1939 -1.1905  0.2463
 7447SOL    HW133803   3.029   2.361  10.989 -0.2814 -0.4278 -1.2178
 7447SOL    HW233804   3.061   2.414  11.122  0.8588 -0.4232  0.4037
 7448SOL     OW33805   1.991   0.408   7.905  0.1403  0.4689 -0.3916
 7448SOL    HW133806   1.962   0.463   7.977 -0.4480 -0.5016  0.1135
 7448SOL    HW233807   1.940   0.328   7.919 -2.3467  2.6184  2.6489
 7449SOL     OW33808   3.397   2.830   3.315 -0.3795  0.4914 -0.1777
 7449SOL    HW133809   3.398   2.753   3.372 -0.4444  0.2395 -0.5153
 7449SOL    HW233810   3.306   2.853   3.331 -0.8068 -0.5528 -1.1343
 7450SOL     OW33811   3.248   1.486  15.675 -0.8375 -0.0968  0.2430
 7450SOL    HW133812   3.225   1.460  15.586  0.6188 -0.8086  0.0816
 7450SOL    HW233813   3.343   1.489  15.663 -0.8430  0.6057  0.3873
 7451SOL     OW33814   2.404   3.459   4.485  0.1590  0.3253  0.6359
 7451SOL    HW133815   2.451   3.500   4.412 -0.2761 -1.1776 -0.5047
 7451SOL    HW233816   2.432   3.370   4.463 -1.3442  0.2151 -0.8736
 7452SOL     OW33817   1.430   2.179   8.469  0.1844  0.1975  0.2023
 7452SOL    HW133818   1.363   2.110   8.478  0.2977  0.4172  2.8026
 7452SOL    HW233819   1.507   2.144   8.513  0.7113 -0.0235 -0.9153
 7453SOL     OW33820   4.129   2.528   7.084 -0.1674 -0.3854 -0.2852
 7453SOL    HW133821   4.041   2.491   7.077 -0.4146  0.5691 -2.1977
 7453SOL    HW233822   4.148   2.534   6.990  0.4009 -3.2612 -0.3662
 7454SOL     OW33823   1.898   1.930   2.890  0.1564 -0.1990  0.2442
 7454SOL    HW133824   1.988   1.901   2.880 -0.1961 -1.4582  0.8076
 7454SOL    HW233825   1.914   1.987   2.965 -0.6055  0.5623 -0.1691
 7455SOL     OW33826   2.776   1.757   4.952 -0.2402  0.1234 -0.7127
 7455SOL    HW133827   2.746   1.811   4.879 -0.4322  0.6956 -0.2082
 7455SOL    HW233828   2.738   1.802   5.028 -0.8947  0.1004 -1.0265
 7456SOL     OW33829   3.933   2.856   0.357 -0.5484  0.1594 -0.7975
 7456SOL    HW133830   3.904   2.941   0.322 -1.4891  0.8086  1.5967
 7456SOL    HW233831   4.010   2.887   0.406 -1.6858  0.6316  0.6685
 7457SOL     OW33832   1.428   0.352   0.785 -0.3229 -0.4895  0.2295
 7457SOL    HW133833   1.469   0.379   0.703  0.1120  1.1580  0.9780
 7457SOL    HW233834   1.453   0.430   0.835 -1.6288 -0.8758  1.4558
 7458SOL     OW33835   1.861   1.520   8.976 -0.0919 -0.3561 -0.4072
 7458SOL    HW133836   1.892   1.461   8.906  0.3833 -1.6623  0.8941
 7458SOL    HW233837   1.917   1.511   9.054 -1.3304  1.0495  0.6325
 7459SOL     OW33838   1.150   2.879   9.327  0.0544  0.5431  0.1563
 7459SOL    HW133839   1.068   2.915   9.291  2.7661  3.0456 -3.5488
 7459SOL    HW233840   1.223   2.927   9.287 -0.2585  1.1155  0.2667
 7460SOL     OW33841   4.407   4.612   8.986  0.0395  0.6221 -0.0423
 7460SOL    HW133842   4.357   4.611   9.068 -0.6472 -1.7041 -0.4805
 7460SOL    HW233843   4.420   4.705   8.969 -0.2772  0.8920  1.1879
 7461SOL     OW33844   4.255   2.130   2.524  0.0130 -0.7156 -0.4217
 7461SOL    HW133845   4.171   2.175   2.520 -0.1589 -0.8453  1.3992
 7461SOL    HW233846   4.221   2.041   2.517 -2.1678  0.0842  0.0035
 7462SOL     OW33847   0.561   3.661   5.094  0.1761 -0.1737  0.2063
 7462SOL    HW133848   0.628   3.662   5.026  0.2431  0.6987  0.2943
 7462SOL    HW233849   0.497   3.727   5.068 -0.0035 -0.8101 -0.9338
 7463SOL     OW33850   3.418   4.180   2.811  0.5354  0.6591 -0.1280
 7463SOL    HW133851   3.332   4.138   2.805  0.1776  1.3491  0.1878
 7463SOL    HW233852   3.409   4.224   2.727 -0.7460  2.3720  0.9218
 7464SOL     OW33853   0.180   1.276   2.587  0.0235  0.5114  0.3692
 7464SOL    HW133854   0.154   1.363   2.555  0.0529  0.7801  1.0775
 7464SOL    HW233855   0.113   1.222   2.544  0.6500 -1.3411  1.7282
 7465SOL     OW33856   4.173   0.401   8.712 -0.0954 -0.0903 -0.3040
 7465SOL    HW133857   4.253   0.441   8.678 -0.2815 -0.3726 -1.0944
 7465SOL    HW233858   4.129   0.391   8.627 -0.6262 -2.0768  0.2077
 7466SOL     OW33859   3.194   3.486   6.828 -0.2381 -0.3718 -0.2210
 7466SOL    HW133860   3.219   3.451   6.742  2.2363 -1.0611  0.7837
 7466SOL    HW233861   3.233   3.423   6.889 -0.9372  0.0279  0.6452
 7467SOL     OW33862   3.125   4.076  12.243 -0.1394 -0.1178 -0.2213
 7467SOL    HW133863   3.121   4.169  12.219  0.0294 -0.1715 -0.4553
 7467SOL    HW233864   3.169   4.037  12.168 -0.9799 -1.6120  0.0545
 7468SOL     OW33865   4.477   2.308   2.587  0.1860 -0.0715 -0.0714
 7468SOL    HW133866   4.568   2.290   2.564  0.0116  2.2082 -2.5359
 7468SOL    HW233867   4.446   2.221   2.612  0.7302 -0.4067 -0.5644
 7469SOL     OW33868   0.873   3.313  10.312 -0.2920 -0.1087 -0.4137
 7469SOL    HW133869   0.824   3.233  10.331  0.0742 -0.5566 -1.3448
 7469SOL    HW233870   0.945   3.274  10.262 -0.1994 -0.2221 -0.1907
 7470SOL     OW33871   4.062   4.228   7.717 -0.0257 -0.2171 -0.0403
 7470SOL    HW133872   3.979   4.184   7.734  0.2208  0.1025  2.0035
 7470SOL    HW233873   4.078   4.270   7.802  1.4800 -0.0311 -0.4101
 7471SOL     OW33874   4.600   0.464  14.394 -0.1537  0.2309  0.2277
 7471SOL    HW133875   4.660   0.413  14.340  2.4805  0.2825  3.1066
 7471SOL    HW233876   4.629   0.553  14.377 -2.5793  0.8977 -0.4124
 7472SOL     OW33877   2.822   0.580   7.763 -0.4599 -0.6006 -0.0070
 7472SOL    HW133878   2.891   0.537   7.814  0.0830 -0.1846 -0.3970
 7472SOL    HW233879   2.859   0.567   7.676 -0.1752  1.9801 -0.2514
 7473SOL     OW33880   3.853   0.135   8.646  0.0244 -0.0124  0.5159
 7473SOL    HW133881   3.914   0.175   8.585  0.2708 -1.3315 -0.1007
 7473SOL    HW233882   3.899   0.168   8.723 -1.4499  2.2213  0.4354
 7474SOL     OW33883   4.053   2.405   0.452  0.2516 -0.1259  0.0244
 7474SOL    HW133884   4.080   2.486   0.496  3.0765 -1.7516  1.2400
 7474SOL    HW233885   4.127   2.347   0.471 -0.9892 -0.8323  2.5920
 7475SOL     OW33886   3.715   4.107   8.060  0.2997 -0.0532  0.0597
 7475SOL    HW133887   3.738   4.200   8.071 -0.4506  0.0317  0.9489
 7475SOL    HW233888   3.805   4.076   8.050 -0.0215 -1.6293  2.1091
 7476SOL     OW33889   3.684   0.217   3.839 -0.3540 -0.1346  0.2616
 7476SOL    HW133890   3.645   0.135   3.809  1.0919  0.4957 -3.3868
 7476SOL    HW233891   3.710   0.261   3.758  1.1732 -3.0972 -0.8295
 7477SOL     OW33892   0.999   4.665  15.407  0.2956  0.2223  0.2525
 7477SOL    HW133893   1.014   4.577  15.442  0.2146 -0.4055 -1.2875
 7477SOL    HW233894   0.951   4.644  15.328 -0.7868  0.5603  0.8215
 7478SOL     OW33895   0.622   1.770   2.924 -0.2521  0.3006  0.6461
 7478SOL    HW133896   0.597   1.833   2.856  0.0675 -0.5142 -0.2292
 7478SOL    HW233897   0.540   1.723   2.936 -0.4430  0.1200 -1.3213
 7479SOL     OW33898   0.041   3.525   7.295  0.1531 -0.0110  0.0009
 7479SOL    HW133899   4.719   3.445   7.271 -1.5808  0.9818  0.0059
 7479SOL    HW233900   0.110   3.479   7.341 -0.6285 -2.1846 -1.0121
 7480SOL     OW33901   0.698   1.295  13.217  0.0488 -0.0613  0.8312
 7480SOL    HW133902   0.668   1.237  13.147  0.5110  1.1952 -0.4080
 7480SOL    HW233903   0.755   1.351  13.165 -2.1686  0.2907 -1.2434
 7481SOL     OW33904   2.945   0.931   1.958  0.2039  0.0787 -0.0682
 7481SOL    HW133905   2.956   0.890   2.044 -3.1543  0.3587  0.5129
 7481SOL    HW233906   2.853   0.960   1.960  1.3696  3.7348  0.3143
 7482SOL     OW33907   2.416   1.177   6.939 -0.1196 -0.0298 -0.0903
 7482SOL    HW133908   2.379   1.118   7.005 -1.1314  0.5414 -0.1340
 7482SOL    HW233909   2.509   1.179   6.961  0.1229 -0.8939 -1.0079
 7483SOL     OW33910   2.482   4.710   0.549  0.1966 -0.1017 -0.3066
 7483SOL    HW133911   2.514   0.036   0.474  0.3000  1.1529  0.5862
 7483SOL    HW233912   2.492   4.622   0.511  3.8504 -0.5724  1.7561
 7484SOL     OW33913   3.556   3.526   5.347 -0.7235  0.0671 -0.2653
 7484SOL    HW133914   3.572   3.620   5.360 -0.8326 -0.1571  1.4394
 7484SOL    HW233915   3.646   3.499   5.330 -0.7755 -1.2319  1.5255
 7485SOL     OW33916   1.578   3.965   4.808 -0.0969  0.2303  0.2273
 7485SOL    HW133917   1.491   4.006   4.802 -0.6475 -1.0694 -0.7635
 7485SOL    HW233918   1.589   3.939   4.899  3.3555  0.8999 -0.0297
 7486SOL     OW33919   1.472   0.073   2.894 -0.8698 -0.4920 -0.4898
 7486SOL    HW133920   1.497   0.146   2.837  0.0511 -0.9811 -0.7225
 7486SOL    HW233921   1.488   4.718   2.841 -0.1901 -0.5330 -0.2252
 7487SOL     OW33922   3.272   4.149   9.112 -0.3524  0.0911 -0.7026
 7487SOL    HW133923   3.364   4.130   9.126 -0.4103  0.2756 -0.0853
 7487SOL    HW233924   3.278   4.204   9.034 -0.8067 -0.2314 -0.9670
 7488SOL     OW33925   2.702   1.358   5.498  0.0478  0.7698 -0.4490
 7488SOL    HW133926   2.683   1.267   5.523  2.5666 -0.4008 -2.7958
 7488SOL    HW233927   2.754   1.398   5.568  3.5286 -2.8893 -0.9475
 7489SOL     OW33928   3.728   1.894   0.214  0.4464  0.1224 -0.5021
 7489SOL    HW133929   3.773   1.904   0.298 -2.0619  1.1842  0.7205
 7489SOL    HW233930   3.772   1.966   0.170  0.6303  0.6531  0.5376
 7490SOL     OW33931   0.325   4.676   7.299 -0.5368 -0.8678  0.3171
 7490SOL    HW133932   0.258   4.666   7.232  0.4381 -2.7805 -0.3832
 7490SOL    HW233933   0.276   4.705   7.376 -0.7839 -1.3239  0.3293
 7491SOL     OW33934   1.703   2.104  15.132 -0.3113  0.0524  0.6813
 7491SOL    HW133935   1.766   2.038  15.162  1.7470  0.9360 -1.6579
 7491SOL    HW233936   1.742   2.126  15.047  0.4688  0.8839  1.2506
 7492SOL     OW33937   2.442   1.345   9.598  0.6313  0.3860 -0.2843
 7492SOL    HW133938   2.416   1.426   9.553 -2.6287 -0.8872 -0.7167
 7492SOL    HW233939   2.368   1.338   9.658 -0.0658  1.0596 -1.0672
 7493SOL     OW33940   3.232   4.528   8.321 -0.6422 -0.6349 -0.6345
 7493SOL    HW133941   3.216   4.525   8.416  1.3513  0.3845 -0.2857
 7493SOL    HW233942   3.144   4.503   8.292 -0.6348 -1.3795 -0.0169
 7494SOL     OW33943   3.966   1.161  15.130  0.1207 -0.1671  0.4582
 7494SOL    HW133944   4.050   1.206  15.142 -0.9683  2.2986 -1.2120
 7494SOL    HW233945   3.931   1.199  15.049 -1.0837  1.0828  1.5755
 7495SOL     OW33946   3.969   0.620   3.222 -0.5913 -0.1911 -0.0471
 7495SOL    HW133947   3.928   0.652   3.142 -1.4145 -2.7222 -0.6364
 7495SOL    HW233948   3.934   0.677   3.291 -0.6264  0.8248 -0.9076
 7496SOL     OW33949   0.094   2.354   1.689 -0.0455 -0.1527  0.3565
 7496SOL    HW133950   0.125   2.379   1.776  1.2578 -1.1033  0.1635
 7496SOL    HW233951   0.031   2.284   1.707 -0.6012 -0.2155 -1.9343
 7497SOL     OW33952   1.242   3.635  16.390 -0.3172  0.0744 -0.2207
 7497SOL    HW133953   1.285   3.720  16.385  0.9224 -0.6776 -2.3574
 7497SOL    HW233954   1.247   3.617  16.484  0.7668 -2.2312 -0.7348
 7498SOL     OW33955   0.826   4.417   3.294 -0.2706  0.3527  0.3346
 7498SOL    HW133956   0.814   4.479   3.365 -0.5266  2.2819 -1.3790
 7498SOL    HW233957   0.878   4.470   3.233 -1.5214  1.5154  0.2599
 7499SOL     OW33958   1.822   0.550   3.600 -0.0677  0.1631  0.0229
 7499SOL    HW133959   1.917   0.540   3.602  0.0637  1.2370 -1.2508
 7499SOL    HW233960   1.807   0.527   3.508  0.2929  1.5247 -0.3788
 7500SOL     OW33961   0.873   3.109   3.767  0.2620 -0.8143  0.5657
 7500SOL    HW133962   0.829   3.193   3.761 -0.3732 -1.3319 -1.9849
 7500SOL    HW233963   0.884   3.093   3.673 -0.5688  2.0715  0.0013
 7501SOL     OW33964   4.441   0.710   4.397 -0.6794 -0.5135 -0.2397
 7501SOL    HW133965   4.434   0.770   4.472  0.1447 -0.5288 -0.1531
 7501SOL    HW233966   4.531   0.736   4.377 -0.4335 -0.8575  0.4122
 7502SOL     OW33967   1.950   1.709   6.492 -0.2200  0.2395  0.0070
 7502SOL    HW133968   1.933   1.803   6.497  0.8022  0.3771  1.1606
 7502SOL    HW233969   2.039   1.727   6.461  0.5807 -0.8536  1.6854
 7503SOL     OW33970   3.412   2.992   7.162 -0.1929 -0.4649 -0.0945
 7503SOL    HW133971   3.404   2.987   7.067  0.4489  1.0685 -0.2307
 7503SOL    HW233972   3.346   3.061   7.175  1.8345  1.4800 -0.2669
 7504SOL     OW33973   3.050   2.488   8.418  0.4501 -0.0009  0.3034
 7504SOL    HW133974   2.964   2.478   8.459  0.6942 -1.3994  0.4671
 7504SOL    HW233975   3.042   2.559   8.354  2.6372 -0.3155 -0.3016
 7505SOL     OW33976   1.763   0.113  14.800 -0.4865  0.0276 -0.2718
 7505SOL    HW133977   1.769   0.198  14.844  1.6901  1.0423 -2.5058
 7505SOL    HW233978   1.813   0.132  14.721  0.2616  1.8351  0.6411
 7506SOL     OW33979   4.449   1.047  11.851 -0.6043 -0.5454  0.4656
 7506SOL    HW133980   4.468   0.974  11.792 -0.5694 -0.1421 -0.0147
 7506SOL    HW233981   4.477   1.124  11.801 -1.4164 -0.6955 -0.2097
 7507SOL     OW33982   3.825   2.663   6.394 -0.1233  0.1528 -0.4694
 7507SOL    HW133983   3.883   2.657   6.318  0.4833  1.1671 -0.0902
 7507SOL    HW233984   3.751   2.708   6.355 -0.1640 -0.9228 -1.6330
 7508SOL     OW33985   3.219   2.472   7.317 -0.2894 -0.4390 -0.3660
 7508SOL    HW133986   3.250   2.394   7.270 -0.3861 -0.8975  0.3281
 7508SOL    HW233987   3.267   2.459   7.399  2.0059 -2.1953 -1.9729
 7509SOL     OW33988   0.759   4.610   3.508  0.0067  0.0006  0.0602
 7509SOL    HW133989   0.739   4.704   3.509  0.0357  0.0250 -1.2963
 7509SOL    HW233990   0.681   4.567   3.541  0.0603  0.0268  0.2182
 7510SOL     OW33991   4.104   2.892   6.796  0.0743 -0.0670  0.3192
 7510SOL    HW133992   4.144   2.917   6.879 -0.6705  1.8821  0.0841
 7510SOL    HW233993   4.088   2.979   6.759 -2.1080 -0.7639 -0.3559
 7511SOL     OW33994   1.939   2.775  15.079 -0.1937  0.1266 -0.0124
 7511SOL    HW133995   1.985   2.780  15.162 -0.8280  0.0268  0.3441
 7511SOL    HW233996   1.888   2.695  15.085 -0.2428  0.2871  1.5454
 7512SOL     OW33997   0.074   3.211   4.006  0.0448  0.6309 -0.0057
 7512SOL    HW133998   0.082   3.130   3.955  1.1270  0.2387  0.7673
 7512SOL    HW233999   0.088   3.173   4.093 -1.4286  0.4294  0.1374
 7513SOL     OW34000   4.243   4.194   1.986 -0.3238  0.1023  0.4049
 7513SOL    HW134001   4.310   4.145   1.938 -1.0720 -1.3143  0.8011
 7513SOL    HW234002   4.297   4.273   1.991  0.9330 -0.8652  2.2299
 7514SOL     OW34003   0.650   2.098  13.296 -0.1600  0.3062  0.1424
 7514SOL    HW134004   0.617   2.083  13.385 -0.6888  0.2130 -0.0712
 7514SOL    HW234005   0.596   2.170  13.265  0.9903  0.8967 -0.5046
 7515SOL     OW34006   1.262   1.438   4.149  0.3067 -0.1130 -0.3527
 7515SOL    HW134007   1.251   1.391   4.067 -1.0452 -1.3337  0.5340
 7515SOL    HW234008   1.211   1.386   4.211  1.0582 -1.5463 -0.9302
 7516SOL     OW34009   2.396   1.288   3.606  0.6441 -0.1432 -0.2009
 7516SOL    HW134010   2.457   1.221   3.634 -0.6142 -0.6443  1.3590
 7516SOL    HW234011   2.322   1.280   3.667 -1.7286  0.7399 -2.9696
 7517SOL     OW34012   4.230   1.405   6.521 -1.0822  0.0768  0.2062
 7517SOL    HW134013   4.172   1.347   6.472 -0.4997  0.1729 -0.6018
 7517SOL    HW234014   4.231   1.361   6.606 -1.1458 -2.3795 -1.0705
 7518SOL     OW34015   3.632   2.577  15.172 -0.6427  0.0463  0.6360
 7518SOL    HW134016   3.587   2.653  15.210 -1.0760  1.0241 -1.8469
 7518SOL    HW234017   3.665   2.613  15.090 -2.1864  2.0808  0.9310
 7519SOL     OW34018   1.052   4.091   6.853  0.7276  0.3757  0.5179
 7519SOL    HW134019   0.962   4.120   6.838  2.1121  3.2693 -2.2621
 7519SOL    HW234020   1.077   4.098   6.761  1.0982 -0.1793  0.5822
 7520SOL     OW34021   0.555   0.900   6.070  0.1046 -0.3571  0.1066
 7520SOL    HW134022   0.502   0.854   6.134  0.0776 -2.2848 -1.2926
 7520SOL    HW234023   0.638   0.851   6.072  0.2079 -0.2791 -1.7283
 7521SOL     OW34024   0.530   2.131   5.695 -0.2709  0.1042  0.4452
 7521SOL    HW134025   0.447   2.151   5.650  0.5400 -0.5828 -1.3375
 7521SOL    HW234026   0.540   2.208   5.751  0.3428  0.9003 -0.7649
 7522SOL     OW34027   1.774   3.085   2.288  0.5471 -0.5230  0.4526
 7522SOL    HW134028   1.716   3.018   2.323 -0.1735 -0.5667 -0.8150
 7522SOL    HW234029   1.723   3.165   2.274  0.2210 -0.6969  0.6473
 7523SOL     OW34030   2.702   4.641  13.700 -0.5815  0.3478 -0.0784
 7523SOL    HW134031   2.625   4.584  13.698  1.1433 -1.9618 -0.3948
 7523SOL    HW234032   2.682   4.690  13.621 -1.3587  2.2600  1.2905
 7524SOL     OW34033   0.072   4.060   3.134  0.6425  0.7800  0.0326
 7524SOL    HW134034   0.133   4.068   3.061  0.5409 -1.1228 -0.2600
 7524SOL    HW234035   0.078   3.965   3.140 -1.1030  0.9139  3.9771
 7525SOL     OW34036   4.721   0.885   9.531 -0.2761 -0.0778 -0.2904
 7525SOL    HW134037   4.658   0.915   9.596  1.0029  0.5251  0.6539
 7525SOL    HW234038   0.060   0.838   9.586  0.5250  1.8939  0.4623
 7526SOL     OW34039   4.120   0.883   8.487  0.5424  0.7447  0.1601
 7526SOL    HW134040   4.191   0.943   8.469 -0.1553  1.9498  1.4582
 7526SOL    HW234041   4.064   0.921   8.555  1.3044 -1.2751  1.9031
 7527SOL     OW34042   3.848   1.952   8.395 -0.1635 -0.1161  0.8341
 7527SOL    HW134043   3.771   1.948   8.339  0.1085  1.7339  0.3097
 7527SOL    HW234044   3.860   2.042   8.427 -2.0081 -0.4664  2.5201
 7528SOL     OW34045   4.177   2.943   3.744  0.2999 -0.2317  0.3364
 7528SOL    HW134046   4.261   2.969   3.707  0.8430 -3.7175 -0.8733
 7528SOL    HW234047   4.180   2.848   3.732 -2.2504 -0.1295 -1.0112
 7529SOL     OW34048   0.501   3.077   1.114 -0.2149  0.0121  0.1213
 7529SOL    HW134049   0.554   3.156   1.125 -1.8941  1.0140  0.9217
 7529SOL    HW234050   0.569   3.012   1.130  0.4154 -0.0382 -2.6255
 7530SOL     OW34051   4.485   0.754   8.535  0.1341  0.5190 -0.1882
 7530SOL    HW134052   4.577   0.764   8.558 -0.0242  1.4879  0.0051
 7530SOL    HW234053   4.480   0.810   8.457 -0.4591 -0.9397 -1.2129
 7531SOL     OW34054   3.724   3.635   9.782 -0.5038  0.1213 -0.4192
 7531SOL    HW134055   3.686   3.547   9.794  1.2312 -0.2858  1.9819
 7531SOL    HW234056   3.746   3.633   9.689 -4.2239  1.7647 -1.3255
 7532SOL     OW34057   2.848   2.494  13.437 -0.4918 -0.5193  0.3741
 7532SOL    HW134058   2.781   2.536  13.490  0.2117  1.2089 -0.1209
 7532SOL    HW234059   2.795   2.424  13.398 -0.4162  0.3462 -1.2521
 7533SOL     OW34060   0.244   3.956   7.178 -0.0831 -0.0519  0.1477
 7533SOL    HW134061   0.193   3.952   7.259 -0.0419  1.3350  0.2419
 7533SOL    HW234062   0.184   3.926   7.111  1.9112  1.4230 -2.2862
 7534SOL     OW34063   4.548   4.332  10.861 -0.2250  0.3394 -0.4679
 7534SOL    HW134064   4.475   4.364  10.914  0.1277  1.9141 -0.9283
 7534SOL    HW234065   4.612   4.401  10.878 -0.9232  1.1468 -1.0601
 7535SOL     OW34066   0.529   2.713   6.104  0.0587  0.2220 -1.2673
 7535SOL    HW134067   0.557   2.652   6.036 -0.8445 -0.0809 -1.3618
 7535SOL    HW234068   0.599   2.778   6.091  0.3936 -0.0695 -0.9336
 7536SOL     OW34069   1.851   0.161  10.668 -0.2849 -0.0915 -0.8317
 7536SOL    HW134070   1.848   0.227  10.737  0.6924 -1.7239  0.7755
 7536SOL    HW234071   1.777   0.198  10.621  0.3264  1.5525 -0.5036
 7537SOL     OW34072   2.094   3.843   7.627  0.2362  0.4908 -0.0005
 7537SOL    HW134073   2.074   3.795   7.546  2.5764  0.3099 -0.4823
 7537SOL    HW234074   2.087   3.771   7.689 -1.2018 -0.0870 -0.8323
 7538SOL     OW34075   3.300   1.230   8.174 -0.1654 -0.5154  0.2589
 7538SOL    HW134076   3.240   1.299   8.203  0.5255  0.2082 -0.0073
 7538SOL    HW234077   3.331   1.205   8.261 -0.5017  1.3187  0.9041
 7539SOL     OW34078   2.491   1.039   1.651 -0.0966 -0.5169 -0.3260
 7539SOL    HW134079   2.527   0.952   1.633  1.2831  0.0910 -0.5818
 7539SOL    HW234080   2.502   1.084   1.567  1.1483  1.5251  0.9339
 7540SOL     OW34081   4.359   1.540   0.779  0.1333 -0.4230  0.6714
 7540SOL    HW134082   4.304   1.613   0.750 -1.4310 -2.1083 -0.5743
 7540SOL    HW234083   4.304   1.464   0.762  0.0070 -0.1375 -0.2090
 7541SOL     OW34084   0.113   2.398   5.197  0.7029  0.2265  0.0606
 7541SOL    HW134085   0.091   2.484   5.234  0.4741 -0.2264  0.9658
 7541SOL    HW234086   0.088   2.401   5.105  1.0515 -1.0814 -0.0686
 7542SOL     OW34087   0.638   4.037   8.199 -0.5452  0.4292 -0.2191
 7542SOL    HW134088   0.591   4.012   8.120 -0.8487  1.7836 -0.4585
 7542SOL    HW234089   0.708   4.095   8.169  0.2914 -0.9328 -0.9178
 7543SOL     OW34090   3.683   1.910   1.748  0.1290 -0.1988  0.1804
 7543SOL    HW134091   3.680   2.006   1.751 -0.4768 -0.2239  0.4243
 7543SOL    HW234092   3.635   1.900   1.667  1.8691 -2.4367 -0.5810
 7544SOL     OW34093   2.386   1.481   9.228  0.5905  0.1120 -0.2012
 7544SOL    HW134094   2.410   1.571   9.247  0.7169  0.6152 -2.7976
 7544SOL    HW234095   2.336   1.444   9.301 -1.0095 -1.3753 -2.0745
 7545SOL     OW34096   0.299   2.744   1.932  0.1370  0.2224  0.4368
 7545SOL    HW134097   0.268   2.743   1.842 -3.1186 -0.5901  1.5649
 7545SOL    HW234098   0.351   2.664   1.931 -1.1834 -0.6011 -1.4784
 7546SOL     OW34099   0.631   0.248   4.158  0.0990  0.1742 -0.2883
 7546SOL    HW134100   0.559   0.281   4.103  1.8957  0.8725 -2.2117
 7546SOL    HW234101   0.610   0.297   4.237 -0.3595  0.3608 -0.5237
 7547SOL     OW34102   2.497   4.199   4.639  0.8777 -0.0939 -0.1284
 7547SOL    HW134103   2.515   4.258   4.565  1.4753 -1.1189 -0.8053
 7547SOL    HW234104   2.493   4.114   4.596 -2.4209  0.1314 -0.2527
 7548SOL     OW34105   0.408   4.388   4.208  0.0381 -0.2355  0.6900
 7548SOL    HW134106   0.405   4.297   4.239  2.1094 -0.5681 -0.1181
 7548SOL    HW234107   0.402   4.446   4.284 -1.5592  1.9446 -1.1311
 7549SOL     OW34108   2.560   4.508  17.146  0.6251 -0.1279 -0.0951
 7549SOL    HW134109   2.534   4.548  17.063 -1.1785 -0.9477  0.0704
 7549SOL    HW234110   2.629   4.449  17.119  0.6023 -0.3199  0.2644
 7550SOL     OW34111   4.029   3.534  11.442  0.8516 -0.2453  0.6823
 7550SOL    HW134112   4.037   3.581  11.359 -1.2433 -0.6791  0.2444
 7550SOL    HW234113   4.107   3.559  11.492  0.7456 -0.2073  0.8262
 7551SOL     OW34114   4.251   3.144   2.388 -0.1312  0.1124  0.1188
 7551SOL    HW134115   4.323   3.187   2.435  1.5391 -1.6719 -0.8198
 7551SOL    HW234116   4.217   3.223   2.347 -2.1155 -1.5787 -1.4670
 7552SOL     OW34117   1.871   1.977  16.958  0.1674 -0.0751 -0.7527
 7552SOL    HW134118   1.855   2.071  16.953 -1.1838 -0.2492  0.3181
 7552SOL    HW234119   1.847   1.964  17.050 -0.0376 -2.1393 -1.1023
 7553SOL     OW34120   3.753   0.349  15.422  0.0401  0.7027 -0.0900
 7553SOL    HW134121   3.730   0.382  15.335 -3.3341 -0.1742  0.4438
 7553SOL    HW234122   3.747   0.436  15.461 -1.5834 -0.2382  1.7665
 7554SOL     OW34123   4.689   1.367   0.335 -0.2922  0.1529 -0.3346
 7554SOL    HW134124   4.633   1.444   0.329  0.1743  0.4951 -0.3575
 7554SOL    HW234125   0.037   1.403   0.387  0.4088 -0.3288 -0.9748
 7555SOL     OW34126   2.471   4.296   0.662  0.0277  0.0655  0.0818
 7555SOL    HW134127   2.424   4.214   0.648  0.2505  0.2911 -1.8912
 7555SOL    HW234128   2.445   4.348   0.587  1.2329 -0.3335 -0.6186
 7556SOL     OW34129   3.363   2.610  12.398 -0.1196  0.0231  0.2831
 7556SOL    HW134130   3.338   2.661  12.475  1.9078  0.7572  0.4568
 7556SOL    HW234131   3.450   2.644  12.375  0.9492 -2.0393  1.3490
 7557SOL     OW34132   3.850   2.268   8.746 -0.2844  0.7418 -0.0063
 7557SOL    HW134133   3.860   2.350   8.794 -1.5627  2.2896 -2.4409
 7557SOL    HW234134   3.924   2.223   8.787  1.4708  3.4743 -0.1765
 7558SOL     OW34135   3.137   1.089   3.059  0.3875  0.1709  0.0121
 7558SOL    HW134136   3.208   1.147   3.089  2.7915 -2.7129 -0.1013
 7558SOL    HW234137   3.158   1.003   3.094 -0.5727 -0.1461 -0.2238
 7559SOL     OW34138   4.491   4.367   9.053 -0.8426  0.2228 -0.5815
 7559SOL    HW134139   4.451   4.449   9.026 -3.2733 -0.4766  0.9717
 7559SOL    HW234140   4.499   4.330   8.965 -3.2064 -1.7062  0.0070
 7560SOL     OW34141   2.748   2.240   8.614 -0.3582 -0.2727  0.3720
 7560SOL    HW134142   2.785   2.328   8.619 -0.6162 -0.2988  2.5622
 7560SOL    HW234143   2.698   2.251   8.532  1.5122 -0.5995 -0.8086
 7561SOL     OW34144   3.954   4.509   3.262  0.4827 -0.1527 -0.2027
 7561SOL    HW134145   3.999   4.573   3.317  1.6508 -1.0109 -0.1511
 7561SOL    HW234146   3.924   4.449   3.331  0.2747  0.4484  0.2222
 7562SOL     OW34147   4.313   1.074   9.413 -0.0550 -0.3125 -0.2116
 7562SOL    HW134148   4.345   1.048   9.500 -0.1776  0.1101 -0.0388
 7562SOL    HW234149   4.338   1.166   9.418 -0.3736 -0.2252 -0.2032
 7563SOL     OW34150   1.605   4.492   7.701  0.1176 -0.1051 -0.1256
 7563SOL    HW134151   1.554   4.412   7.712 -0.0929  0.2131  1.1713
 7563SOL    HW234152   1.583   4.518   7.612  1.1524  2.4116  0.3421
 7564SOL     OW34153   2.778   1.314   0.321  0.2823 -0.1550 -0.5531
 7564SOL    HW134154   2.851   1.256   0.341  1.1541  1.7209  1.6451
 7564SOL    HW234155   2.796   1.395   0.368  0.1446  0.4332 -1.5191
 7565SOL     OW34156   2.013   3.006   3.216 -0.0992 -0.3013  0.6794
 7565SOL    HW134157   1.954   2.991   3.143  0.8089  0.0585 -0.1292
 7565SOL    HW234158   2.044   3.095   3.200  0.2484 -0.1655  2.0425
 7566SOL     OW34159   2.155   0.188   5.684 -0.4738  0.6556 -0.4972
 7566SOL    HW134160   2.074   0.237   5.672 -1.7511 -1.7255 -1.5239
 7566SOL    HW234161   2.175   0.179   5.591  3.3807  0.8578  0.2971
 7567SOL     OW34162   1.102   3.470   7.975 -0.5363 -0.5064 -1.0310
 7567SOL    HW134163   1.155   3.545   7.947  1.2740 -1.7168 -0.9151
 7567SOL    HW234164   1.022   3.493   7.928 -0.5170 -0.7302 -1.1720
 7568SOL     OW34165   1.072   4.654   0.337  0.0645 -0.3694  0.1745
 7568SOL    HW134166   1.110   0.008   0.377  0.3568  0.0101 -0.8563
 7568SOL    HW234167   0.979   4.670   0.356 -0.0822 -1.7510  0.5823
 7569SOL     OW34168   1.300   3.540   7.481 -0.2631 -0.1425  0.5594
 7569SOL    HW134169   1.334   3.462   7.439 -0.5795 -0.4796  0.9318
 7569SOL    HW234170   1.257   3.500   7.557  0.4827 -2.3527 -0.2127
 7570SOL     OW34171   0.213   2.086   8.306 -0.5556 -0.0835  0.3078
 7570SOL    HW134172   0.301   2.048   8.308 -1.2990 -1.8841 -0.8865
 7570SOL    HW234173   0.204   2.131   8.222  0.3480  1.0790  0.8417
 7571SOL     OW34174   1.278   0.384   8.274  0.1587  0.2144 -0.1219
 7571SOL    HW134175   1.264   0.465   8.323  0.2747  0.3374 -0.2922
 7571SOL    HW234176   1.368   0.378   8.242  0.8115 -1.0927  1.9545
 7572SOL     OW34177   3.590   2.999   2.544  0.0373  0.1551  0.6776
 7572SOL    HW134178   3.617   3.032   2.630  0.8650 -0.1608  0.5445
 7572SOL    HW234179   3.537   2.923   2.571 -0.2687  0.4930  1.0279
 7573SOL     OW34180   3.301   3.416   1.969  0.1394  0.2777 -0.5435
 7573SOL    HW134181   3.283   3.415   2.063  1.0139 -0.3117 -0.3818
 7573SOL    HW234182   3.227   3.366   1.934 -1.9309  4.7042 -2.4404
 7574SOL     OW34183   3.778   3.132  10.868 -0.0947  0.0155 -0.3206
 7574SOL    HW134184   3.742   3.185  10.939 -1.6507 -3.2178  1.2884
 7574SOL    HW234185   3.742   3.050  10.902 -0.4119  1.6826  3.3062
 7575SOL     OW34186   2.164   0.954  10.268  0.0027  0.0641  0.2502
 7575SOL    HW134187   2.143   0.946  10.361  2.2916  0.7573  0.8230
 7575SOL    HW234188   2.212   1.037  10.265  2.2788 -1.2441  1.3730
 7576SOL     OW34189   2.651   2.395  11.053  0.2721 -0.2975 -0.2874
 7576SOL    HW134190   2.697   2.364  10.975  0.6059 -0.1414 -0.1554
 7576SOL    HW234191   2.684   2.483  11.068 -0.7567 -0.0084  0.3037
 7577SOL     OW34192   2.079   1.873   3.649 -0.0407  0.3158  0.2526
 7577SOL    HW134193   2.135   1.941   3.687  0.0732 -0.1229  0.8814
 7577SOL    HW234194   1.989   1.897   3.672 -0.0069  1.5604 -0.9428
 7578SOL     OW34195   0.443   1.887   7.661 -0.0728  0.1434  0.3708
 7578SOL    HW134196   0.410   1.814   7.609  0.1420 -0.0704  0.5350
 7578SOL    HW234197   0.397   1.959   7.618  0.9271  0.3807 -0.3037
 7579SOL     OW34198   2.800   1.913  14.456 -0.1642  0.1844  0.3788
 7579SOL    HW134199   2.802   1.910  14.361  1.7279  2.7908  0.3443
 7579SOL    HW234200   2.838   1.826  14.471 -0.8053 -0.0849  0.4759
 7580SOL     OW34201   1.551   4.053   3.015  0.4246  0.8188  0.1894
 7580SOL    HW134202   1.461   4.079   2.999  0.6089  1.2962 -0.0553
 7580SOL    HW234203   1.602   4.127   2.983 -0.2420  0.7252 -1.0733
 7581SOL     OW34204   2.406   1.794  13.585 -0.3110 -0.2493 -0.1588
 7581SOL    HW134205   2.357   1.765  13.508 -1.4486  0.8753  0.1450
 7581SOL    HW234206   2.369   1.746  13.659  0.6078  3.0447  2.4421
 7582SOL     OW34207   2.362   0.344   6.486 -0.6461 -0.1455 -0.0925
 7582SOL    HW134208   2.457   0.354   6.492 -0.5709 -1.2728  0.6073
 7582SOL    HW234209   2.326   0.418   6.535  1.2037  1.1210 -0.6390
 7583SOL     OW34210   4.609   2.779   3.300 -0.2187  0.4359 -0.3403
 7583SOL    HW134211   4.684   2.743   3.252 -0.8497 -1.2238 -0.0673
 7583SOL    HW234212   4.648   2.787   3.387  0.5594 -2.0468 -0.4572
 7584SOL     OW34213   2.310   1.648   8.302  0.5357 -0.1610 -0.4058
 7584SOL    HW134214   2.373   1.680   8.367  0.1724  1.2042 -0.7185
 7584SOL    HW234215   2.319   1.553   8.303  2.0777 -0.0025 -0.1243
 7585SOL     OW34216   1.987   4.248   2.559  0.4278 -0.4672  0.4687
 7585SOL    HW134217   2.057   4.215   2.503 -0.4176  0.8390 -1.3766
 7585SOL    HW234218   1.914   4.192   2.532  1.0209 -2.1382  2.3243
 7586SOL     OW34219   2.326   0.813   4.492  0.1539  0.5232  0.0770
 7586SOL    HW134220   2.326   0.851   4.404 -0.9857  0.8275  0.2150
 7586SOL    HW234221   2.418   0.811   4.518  0.9366  1.1931 -2.6183
 7587SOL     OW34222   3.972   1.300   5.464  0.2030 -0.5620 -0.4938
 7587SOL    HW134223   3.912   1.341   5.526  0.2880  0.3241 -1.0101
 7587SOL    HW234224   4.038   1.369   5.457  0.9672 -1.3011 -0.5933
 7588SOL     OW34225   1.642   4.403   9.261  0.2604  0.3636 -0.2956
 7588SOL    HW134226   1.707   4.391   9.192  0.0642  2.5495 -0.8366
 7588SOL    HW234227   1.649   4.496   9.280  1.7499 -0.1343  1.6219
 7589SOL     OW34228   3.581   2.290   1.056 -0.3160  0.3689 -0.0815
 7589SOL    HW134229   3.544   2.368   1.013  0.6250 -0.2525 -2.0056
 7589SOL    HW234230   3.516   2.224   1.033  0.8703 -0.8484  0.1001
 7590SOL     OW34231   2.626   4.585   3.871 -0.4455 -0.5779  0.5719
 7590SOL    HW134232   2.547   4.628   3.903  0.2769  2.0210 -1.1806
 7590SOL    HW234233   2.598   4.582   3.780 -0.7196 -2.5024  0.7114
 7591SOL     OW34234   4.169   3.078  17.080  0.1799  0.2703 -0.2935
 7591SOL    HW134235   4.138   2.991  17.104 -0.1894  0.3747 -0.3995
 7591SOL    HW234236   4.162   3.130  17.160  1.7194 -0.0479  0.0543
 7592SOL     OW34237   3.351   3.148  11.620 -0.3836 -0.2009  0.3250
 7592SOL    HW134238   3.326   3.169  11.530 -2.5944 -3.1258  0.2849
 7592SOL    HW234239   3.306   3.064  11.626  0.3078 -0.7327 -1.9596
 7593SOL     OW34240   0.058   0.460  15.990 -0.7973  0.1347  0.0002
 7593SOL    HW134241   0.136   0.405  15.980 -1.3176 -0.4045 -1.0410
 7593SOL    HW234242   4.716   0.403  15.950 -0.9569 -1.0834  1.9896
 7594SOL     OW34243   3.901   3.535   2.737  0.1217 -0.3417  0.9038
 7594SOL    HW134244   3.807   3.530   2.752  0.1183  0.9567  1.2919
 7594SOL    HW234245   3.902   3.610   2.678 -2.9942  0.3538  1.7236
 7595SOL     OW34246   0.572   0.079   3.580 -0.7699 -0.1285  0.0208
 7595SOL    HW134247   0.618   0.125   3.650 -0.1088 -0.0903 -0.4369
 7595SOL    HW234248   0.492   0.055   3.625 -0.1921 -1.1947  0.4782
 7596SOL     OW34249   2.176   4.432  12.965 -0.2918  0.6294 -0.6883
 7596SOL    HW134250   2.181   4.389  12.880  1.1657  0.9357 -0.7555
 7596SOL    HW234251   2.187   4.362  13.029 -0.9553  1.1177 -0.0442
 7597SOL     OW34252   2.978   1.162   0.404 -0.2504  0.0879 -0.2162
 7597SOL    HW134253   2.938   1.084   0.442 -0.8180  0.4659 -0.0330
 7597SOL    HW234254   3.030   1.191   0.479 -2.4358  0.2899  1.2059
 7598SOL     OW34255   4.575   0.816  14.599 -0.0793  0.1855 -0.2598
 7598SOL    HW134256   4.633   0.794  14.526  1.1107  0.2539  0.6684
 7598SOL    HW234257   4.615   0.751  14.658 -1.0514  1.4169  1.7614
 7599SOL     OW34258   2.472   3.673  10.316 -0.2148  0.4229  0.5604
 7599SOL    HW134259   2.562   3.642  10.310 -1.5103 -3.2332 -0.2050
 7599SOL    HW234260   2.442   3.660  10.226  1.6258  0.6056 -0.0716
 7600SOL     OW34261   1.287   3.068  15.244 -0.3570 -0.2737 -0.0312
 7600SOL    HW134262   1.275   3.089  15.336 -0.8232 -0.8552  0.0409
 7600SOL    HW234263   1.313   3.150  15.202 -0.7625 -1.8411 -3.3909
 7601SOL     OW34264   0.867   1.396   2.335 -0.6008  0.3155  0.1124
 7601SOL    HW134265   0.869   1.468   2.399  0.1793  0.7691 -0.4129
 7601SOL    HW234266   0.810   1.330   2.373  0.5051 -0.3828  0.5511
 7602SOL     OW34267   0.274   0.469   7.902 -0.5372 -0.0501  0.0276
 7602SOL    HW134268   0.282   0.403   7.833 -1.5155 -0.9771  0.8068
 7602SOL    HW234269   0.210   0.416   7.950  0.2893  1.0667  2.3624
 7603SOL     OW34270   3.404   3.225   3.789  0.1012 -0.1175  0.0682
 7603SOL    HW134271   3.477   3.200   3.732 -0.4093 -3.9459  1.1189
 7603SOL    HW234272   3.413   3.320   3.776 -3.2872  0.3322  1.0109
 7604SOL     OW34273   1.720   4.463   4.285 -0.0455  0.1037 -0.1173
 7604SOL    HW134274   1.765   4.388   4.324 -0.2712 -1.1800 -2.3333
 7604SOL    HW234275   1.797   4.520   4.277  0.0813 -0.2161 -1.1742
 7605SOL     OW34276   1.401   0.479   1.319  0.1838 -0.2346 -0.4167
 7605SOL    HW134277   1.371   0.490   1.228  0.0839 -0.6022 -0.4312
 7605SOL    HW234278   1.493   0.460   1.300 -0.0223  0.3644 -2.0662
 7606SOL     OW34279   4.265   0.187   1.458 -0.4646  0.5103  0.4047
 7606SOL    HW134280   4.360   0.201   1.467 -0.2760 -0.1641 -0.5165
 7606SOL    HW234281   4.235   0.154   1.542 -1.7371  0.8656  0.0849
 7607SOL     OW34282   3.635   4.183   6.763 -0.1365  0.3998 -0.3352
 7607SOL    HW134283   3.620   4.229   6.845 -0.8187 -0.9684  0.3020
 7607SOL    HW234284   3.556   4.130   6.755  0.2925  0.2500 -3.8430
 7608SOL     OW34285   0.428   2.713   8.305 -0.0163 -0.4909  0.9035
 7608SOL    HW134286   0.438   2.618   8.302  0.3775 -0.4056 -0.4337
 7608SOL    HW234287   0.422   2.733   8.212 -1.3761 -0.9936  0.8876
 7609SOL     OW34288   4.715   2.505   2.376 -0.0750 -0.3888  0.2339
 7609SOL    HW134289   0.082   2.526   2.356  0.2408 -1.0266  1.0018
 7609SOL    HW234290   4.722   2.411   2.396 -0.9258 -0.4199  0.3784
 7610SOL     OW34291   2.399   2.996   3.920  0.4005 -0.7761  0.0771
 7610SOL    HW134292   2.466   2.931   3.899  0.0011 -0.8010 -1.1117
 7610SOL    HW234293   2.339   2.950   3.978  1.6590 -0.0066  1.9965
 7611SOL     OW34294   3.791   2.699   1.046 -0.4774  0.0257 -1.3402
 7611SOL    HW134295   3.826   2.659   0.966 -0.7080  0.0235 -1.4426
 7611SOL    HW234296   3.800   2.636   1.117  0.0634  0.2059 -1.2555
 7612SOL     OW34297   0.624   4.538  12.802  0.0185 -0.4329 -0.2047
 7612SOL    HW134298   0.676   4.583  12.869  0.9359  1.9398 -2.4838
 7612SOL    HW234299   0.643   4.446  12.823  2.7044  0.0007 -0.7579
 7613SOL     OW34300   2.481   0.136   1.926 -0.4116  0.1227 -0.0739
 7613SOL    HW134301   2.463   0.140   1.833 -1.8857  1.4032  0.2670
 7613SOL    HW234302   2.426   0.061   1.951 -0.9346  0.6042  0.2158
 7614SOL     OW34303   2.194   2.695   8.054 -0.0780  0.0412 -0.3753
 7614SOL    HW134304   2.110   2.704   8.009  0.2128 -1.0168 -1.1385
 7614SOL    HW234305   2.233   2.623   8.004 -2.7658 -0.4424 -1.8130
 7615SOL     OW34306   0.953   3.668   9.012  0.1643  0.3170 -0.7974
 7615SOL    HW134307   0.969   3.755   9.048 -1.6203  0.0371  0.7105
 7615SOL    HW234308   0.934   3.620   9.093  1.1143  2.7839  0.9112
 7616SOL     OW34309   2.232   3.246   2.174 -1.0368 -0.2560  0.0507
 7616SOL    HW134310   2.231   3.157   2.139 -1.4458 -0.0518 -0.4640
 7616SOL    HW234311   2.305   3.295   2.136 -0.2335 -1.5779 -0.1065
 7617SOL     OW34312   0.081   2.941   4.555  0.5456 -0.3770 -0.0378
 7617SOL    HW134313   0.140   2.869   4.535  1.5459  0.2613  0.6594
 7617SOL    HW234314   0.015   2.904   4.613  0.9399 -2.0380 -0.6452
 7618SOL     OW34315   4.231   4.293  16.578  0.7586  0.4565  0.0247
 7618SOL    HW134316   4.160   4.325  16.633  0.2876  1.9176 -1.4510
 7618SOL    HW234317   4.276   4.374  16.554 -0.5839  1.1205 -0.2321
 7619SOL     OW34318   0.360   3.845   2.904 -0.2102 -0.3022  0.0388
 7619SOL    HW134319   0.424   3.803   2.847  1.0472  1.0896  0.4261
 7619SOL    HW234320   0.278   3.801   2.880  0.1086 -0.4688 -0.7542
 7620SOL     OW34321   1.896   2.882  13.534  0.4656  0.1666 -0.0172
 7620SOL    HW134322   1.812   2.928  13.530  0.4226  0.0400 -0.5513
 7620SOL    HW234323   1.858   2.795  13.531 -0.8125  0.7283 -0.3249
 7621SOL     OW34324   4.267   2.388   3.198 -0.4727 -0.3555 -0.1056
 7621SOL    HW134325   4.298   2.299   3.179  0.1610 -0.5279  1.7322
 7621SOL    HW234326   4.329   2.436   3.143 -0.7379 -1.7355 -1.6173
 7622SOL     OW34327   4.421   2.595   6.863 -0.2580  0.1458  0.0987
 7622SOL    HW134328   4.334   2.564   6.837 -0.1247 -0.1332 -0.0168
 7622SOL    HW234329   4.411   2.686   6.834 -0.3955  0.3686  0.8513
 7623SOL     OW34330   4.059   1.353  13.286 -0.4801  0.1206  0.0903
 7623SOL    HW134331   4.033   1.441  13.314  1.3607  1.2684 -1.8733
 7623SOL    HW234332   4.073   1.319  13.375 -1.4980  1.1795  0.6576
 7624SOL     OW34333   2.944   1.979   2.041 -0.2958  0.1510 -0.5974
 7624SOL    HW134334   2.998   1.974   2.120 -0.8031 -0.4134 -0.2803
 7624SOL    HW234335   2.873   1.919   2.063 -0.6669  0.8109  0.0156
 7625SOL     OW34336   0.010   1.394  11.718  0.1922 -0.1873  0.2120
 7625SOL    HW134337   0.044   1.387  11.628  1.0611  2.0414  0.3616
 7625SOL    HW234338   0.022   1.487  11.740  1.2847 -0.5778  1.2578
 7626SOL     OW34339   0.789   4.210   7.579  0.0948 -0.0018 -0.2272
 7626SOL    HW134340   0.754   4.198   7.491 -1.6706 -2.5683  0.8390
 7626SOL    HW234341   0.742   4.286   7.613 -1.6085 -0.5804 -1.2963
 7627SOL     OW34342   0.885   1.770  12.060 -0.0222 -0.1997 -0.2924
 7627SOL    HW134343   0.888   1.682  12.022  0.7552 -0.8277  1.2494
 7627SOL    HW234344   0.805   1.764  12.113 -0.7021  0.9594 -1.1889
 7628SOL     OW34345   2.394   2.507   9.594 -0.4482  0.3863  0.0717
 7628SOL    HW134346   2.375   2.532   9.684 -2.6102 -1.0881  0.0408
 7628SOL    HW234347   2.367   2.415   9.599  0.6520  0.0829  0.3829
 7629SOL     OW34348   3.905   3.938   3.553 -0.6256 -0.4315  0.5012
 7629SOL    HW134349   3.839   3.909   3.616  0.1234 -0.6122  1.2086
 7629SOL    HW234350   3.986   3.916   3.599 -0.4768  1.3695  1.1064
 7630SOL     OW34351   2.887   3.200   5.305 -0.2597  0.0564  0.3590
 7630SOL    HW134352   2.792   3.200   5.313 -0.3692 -0.6214 -1.0631
 7630SOL    HW234353   2.903   3.196   5.211  0.2301  0.4229  0.4265
 7631SOL     OW34354   4.014   2.617   3.454 -0.1988  0.0614 -0.5431
 7631SOL    HW134355   4.107   2.633   3.467  0.0355 -0.8259 -1.1661
 7631SOL    HW234356   4.018   2.571   3.371 -3.8950 -1.2375 -0.0244
 7632SOL     OW34357   3.582   3.417   8.321  0.7245 -0.2173 -0.1044
 7632SOL    HW134358   3.646   3.437   8.389  2.0797 -1.1793 -1.0774
 7632SOL    HW234359   3.503   3.393   8.370 -0.2873  1.2731 -1.0282
 7633SOL     OW34360   4.592   3.391   0.142  0.0224  0.2741 -0.0545
 7633SOL    HW134361   4.672   3.429   0.178  1.2349 -0.4665 -2.0189
 7633SOL    HW234362   4.534   3.467   0.144  0.0627  0.3097 -0.2614
 7634SOL     OW34363   3.934   2.895   1.183  0.4769 -0.2129  0.0617
 7634SOL    HW134364   3.855   2.859   1.142  1.7042 -1.2510 -1.4225
 7634SOL    HW234365   4.001   2.869   1.120 -0.8545 -2.0381 -0.6137
 7635SOL     OW34366   2.715   3.061   3.099  0.8412 -1.1671 -0.0945
 7635SOL    HW134367   2.745   3.001   3.031 -0.8154 -0.7502 -1.2002
 7635SOL    HW234368   2.776   3.042   3.171  0.0420 -1.2282  0.5735
 7636SOL     OW34369   3.226   2.153   9.022  0.5405  0.5112  0.6865
 7636SOL    HW134370   3.267   2.202   8.951  0.1376  1.4004  1.0667
 7636SOL    HW234371   3.290   2.164   9.092 -0.3596  0.4476  1.5169
 7637SOL     OW34372   1.696   2.258   3.969 -0.3026  0.2971  0.2759
 7637SOL    HW134373   1.711   2.301   4.053  0.9314  0.4657 -0.0423
 7637SOL    HW234374   1.629   2.319   3.936 -1.3683 -0.5474  0.8638
 7638SOL     OW34375   3.752   3.728  14.691  0.4599  0.1122 -0.0467
 7638SOL    HW134376   3.829   3.683  14.724 -0.5155 -1.9883 -0.6760
 7638SOL    HW234377   3.727   3.677  14.614 -1.6092  0.7760  0.1806
 7639SOL     OW34378   2.973   2.356   5.707  0.2740  0.0434 -0.1559
 7639SOL    HW134379   2.910   2.327   5.773  1.1369  1.1811  1.1868
 7639SOL    HW234380   2.969   2.287   5.642  0.8575 -0.1098 -0.0227
 7640SOL     OW34381   4.345   3.789   8.651 -0.3876  0.1116  0.0099
 7640SOL    HW134382   4.325   3.700   8.621 -0.6121 -0.3219  1.3991
 7640SOL    HW234383   4.294   3.843   8.591  1.5101  1.1305 -0.6472
 7641SOL     OW34384   3.121   1.284   9.232 -0.0084  0.1920  0.3486
 7641SOL    HW134385   3.189   1.225   9.263  0.6486  0.6777 -0.1725
 7641SOL    HW234386   3.046   1.241   9.273  1.0702 -2.4687 -0.4955
 7642SOL     OW34387   0.531   0.144   5.840  0.7244 -0.2853  0.5339
 7642SOL    HW134388   0.553   0.176   5.752 -0.2001 -1.5005 -0.1234
 7642SOL    HW234389   0.594   0.192   5.894 -0.6910 -0.6285  2.4843
 7643SOL     OW34390   3.611   1.185   0.707 -0.0984  0.0767 -0.7458
 7643SOL    HW134391   3.659   1.103   0.718  0.6415  0.9219  2.4230
 7643SOL    HW234392   3.586   1.187   0.800  1.5689  2.4725 -0.3435
 7644SOL     OW34393   2.615   0.481   3.475  0.0889 -0.0971  1.0697
 7644SOL    HW134394   2.636   0.393   3.505  0.0440  0.4989  2.8971
 7644SOL    HW234395   2.597   0.525   3.558  0.6572  2.1979 -0.0185
 7645SOL     OW34396   4.426   0.649  15.318  0.6599  0.2073 -0.1919
 7645SOL    HW134397   4.396   0.740  15.316 -0.8534 -0.3062 -0.5611
 7645SOL    HW234398   4.520   0.665  15.317 -0.1659  4.9639  0.4487
 7646SOL     OW34399   1.679   2.219   7.667 -0.4521 -0.3463 -0.2819
 7646SOL    HW134400   1.619   2.151   7.697 -0.4348 -0.8685 -1.4210
 7646SOL    HW234401   1.760   2.173   7.690 -1.1093 -1.1997  0.3653
 7647SOL     OW34402   1.883   3.029  10.536 -0.0748  0.3133  0.2564
 7647SOL    HW134403   1.947   2.960  10.554  1.8277  1.5457 -1.7731
 7647SOL    HW234404   1.858   3.048  10.626  0.5166 -1.9457  0.9160
 7648SOL     OW34405   2.909   1.202  13.599  0.0036  0.2083  0.1511
 7648SOL    HW134406   2.978   1.211  13.664  0.7247  2.2741 -0.9156
 7648SOL    HW234407   2.862   1.285  13.606 -2.4275 -1.0812 -0.5947
 7649SOL     OW34408   0.868   4.661   5.853 -0.0692 -0.1275 -0.0963
 7649SOL    HW134409   0.933   4.597   5.825  0.7567  0.9422 -0.6314
 7649SOL    HW234410   0.794   4.643   5.794 -0.1873  0.8097 -0.2402
 7650SOL     OW34411   2.271   4.102   5.844  0.1100  0.1996  0.4516
 7650SOL    HW134412   2.269   4.093   5.940  3.6050  1.3237  0.6105
 7650SOL    HW234413   2.364   4.083   5.830  0.9141  2.4380  2.7086
 7651SOL     OW34414   0.764   0.823   1.090  0.5397 -0.3869 -0.0347
 7651SOL    HW134415   0.822   0.841   1.017  0.0983  1.0440 -0.0330
 7651SOL    HW234416   0.678   0.854   1.059  0.4104 -1.9080 -1.2031
 7652SOL     OW34417   3.502   1.209   4.343  0.3302  0.2475 -0.5619
 7652SOL    HW134418   3.435   1.224   4.410  0.7335 -0.8617  0.0947
 7652SOL    HW234419   3.477   1.127   4.299 -1.9332 -0.3643  1.8343
 7653SOL     OW34420   2.081   0.528  15.528 -0.2490 -0.1902  0.3592
 7653SOL    HW134421   2.071   0.623  15.520  0.7355 -0.1425 -0.2786
 7653SOL    HW234422   2.060   0.499  15.440  1.5742 -0.5075  0.0317
 7654SOL     OW34423   2.676   3.862   9.872 -0.2525 -0.0491 -0.4798
 7654SOL    HW134424   2.746   3.912   9.915 -0.0529 -1.2704  0.5976
 7654SOL    HW234425   2.682   3.779   9.919 -0.5877  0.2470  0.0779
 7655SOL     OW34426   3.648   0.636   5.770 -0.4523 -0.2169  0.4678
 7655SOL    HW134427   3.580   0.637   5.702  2.9816 -0.3299 -2.9629
 7655SOL    HW234428   3.659   0.731   5.779  1.6290 -0.2666 -1.4135
 7656SOL     OW34429   1.441   4.686   9.431 -0.2161  0.0683  0.1363
 7656SOL    HW134430   1.520   4.714   9.385  2.7270 -1.1683  4.3317
 7656SOL    HW234431   1.469   4.699   9.522 -1.0012  2.5853  0.0282
 7657SOL     OW34432   4.686   2.876   8.599  0.1461  0.0544 -0.2472
 7657SOL    HW134433   4.719   2.846   8.684 -0.5189 -1.6062 -0.5657
 7657SOL    HW234434   4.621   2.814   8.565  0.6852  0.0332 -1.2424
 7658SOL     OW34435   3.616   2.808   7.939  0.6877  0.8237 -0.6183
 7658SOL    HW134436   3.605   2.826   7.846  0.6450  1.4194 -0.4968
 7658SOL    HW234437   3.607   2.713   7.932  1.7011  0.8689 -2.4757
 7659SOL     OW34438   1.759   0.351   9.030 -0.2822 -0.3088 -0.8790
 7659SOL    HW134439   1.698   0.320   8.963  1.1975  0.7727 -2.7124
 7659SOL    HW234440   1.821   0.409   8.985 -1.2352  0.0142 -1.7631
 7660SOL     OW34441   2.370   1.111   1.918 -0.1842  0.2025 -0.5318
 7660SOL    HW134442   2.343   1.192   1.873 -1.5919 -0.8355 -1.5929
 7660SOL    HW234443   2.407   1.069   1.840 -1.3271 -3.3293  0.8323
 7661SOL     OW34444   0.998   1.587   6.754  0.5150  0.0576  0.1311
 7661SOL    HW134445   0.920   1.533   6.736 -0.5506  1.6882 -0.1603
 7661SOL    HW234446   0.948   1.662   6.786  0.5754 -0.1337  0.6729
 7662SOL     OW34447   3.013   0.030   1.859  0.0433 -0.4852  0.0101
 7662SOL    HW134448   2.924   0.064   1.865  1.0272  2.1785 -0.4932
 7662SOL    HW234449   3.059   0.090   1.918 -0.1021 -0.1540 -0.2230
 7663SOL     OW34450   1.398   1.239   5.771 -0.1096  0.3934 -0.1688
 7663SOL    HW134451   1.395   1.334   5.761  2.5628  0.6010  0.9531
 7663SOL    HW234452   1.412   1.203   5.684 -0.7130  0.1813 -0.1821
 7664SOL     OW34453   2.748   1.830   1.780  0.0636 -0.8405  0.1841
 7664SOL    HW134454   2.716   1.920   1.783  2.3326  0.0271 -1.0478
 7664SOL    HW234455   2.725   1.798   1.867  0.1068 -0.5110  0.3164
 7665SOL     OW34456   0.744   3.934  12.260  0.1558  0.2071 -0.7677
 7665SOL    HW134457   0.821   3.927  12.203 -0.1354  1.8986 -1.3534
 7665SOL    HW234458   0.685   3.868  12.224 -1.4903  2.3926 -2.0654
 7666SOL     OW34459   1.630   1.878   7.877 -0.1006 -0.4677  0.1182
 7666SOL    HW134460   1.693   1.921   7.934  0.4144 -0.2170 -0.6429
 7666SOL    HW234461   1.580   1.828   7.942 -0.2624 -1.2375 -0.5881
 7667SOL     OW34462   4.464   4.017  17.530 -0.7735 -0.0616  0.1530
 7667SOL    HW134463   4.394   3.972  17.485 -0.9404 -0.4703  0.8251
 7667SOL    HW234464   4.522   3.941  17.538  1.3977  1.5904  0.2586
 7668SOL     OW34465   3.935   4.214   3.817 -0.0887 -0.3765 -0.1337
 7668SOL    HW134466   3.849   4.210   3.776 -1.3338 -1.2826  2.5260
 7668SOL    HW234467   4.001   4.166   3.766  2.3074  1.4680  1.2263
 7669SOL     OW34468   3.494   1.394  12.570 -0.3634  0.1207  0.0031
 7669SOL    HW134469   3.546   1.329  12.521 -1.9225 -1.2517  0.1718
 7669SOL    HW234470   3.405   1.375  12.541 -0.6747  0.4240  0.7749
 7670SOL     OW34471   4.667   1.297  10.603 -0.1846 -0.3826 -0.1084
 7670SOL    HW134472   0.001   1.247  10.546  0.7273  0.8381 -0.2476
 7670SOL    HW234473   4.723   1.371  10.624 -0.4989  0.0205 -0.6748
 7671SOL     OW34474   3.644   2.649  11.224 -0.2622  0.4867  0.0292
 7671SOL    HW134475   3.684   2.562  11.222 -0.7225  0.2918 -0.5960
 7671SOL    HW234476   3.565   2.631  11.276 -1.5639  0.2577 -2.0157
 7672SOL     OW34477   0.771   1.506  12.859 -0.3951  0.3548  0.4367
 7672SOL    HW134478   0.693   1.539  12.903 -1.4411 -2.3875  0.6058
 7672SOL    HW234479   0.764   1.567  12.786 -1.8000  0.0466  0.3228
 7673SOL     OW34480   2.266   3.923   5.417 -0.1158  0.3036 -0.2383
 7673SOL    HW134481   2.254   3.937   5.324 -0.9406 -2.7324 -0.6045
 7673SOL    HW234482   2.194   3.859   5.423  1.0915 -1.1012 -0.7318
 7674SOL     OW34483   2.314   2.916   4.342 -0.8217 -0.2882  0.2353
 7674SOL    HW134484   2.326   2.935   4.435 -0.3241  0.8835 -0.0622
 7674SOL    HW234485   2.344   2.996   4.298  1.2244 -2.4626 -2.2771
 7675SOL     OW34486   3.853   2.641   0.220 -0.3975 -0.0028  0.5115
 7675SOL    HW134487   3.915   2.682   0.280  2.4406  0.2497 -2.5780
 7675SOL    HW234488   3.816   2.724   0.188  0.4675 -0.6461 -2.1787
 7676SOL     OW34489   0.320   3.576   8.996 -0.3845 -0.2790 -0.6116
 7676SOL    HW134490   0.317   3.567   8.901  0.0632 -0.0480 -0.6475
 7676SOL    HW234491   0.281   3.663   9.002  2.6458  1.0555 -0.0678
 7677SOL     OW34492   3.911   4.630  10.470  0.3462  0.5536 -0.0562
 7677SOL    HW134493   3.945   4.551  10.429  0.3711  0.0147  0.9995
 7677SOL    HW234494   3.986   4.654  10.524  1.7732 -2.0140 -0.9021
 7678SOL     OW34495   0.137   3.228   8.503  0.1256  0.5340 -0.3685
 7678SOL    HW134496   0.189   3.150   8.484 -1.7519 -0.7333 -0.3582
 7678SOL    HW234497   0.193   3.301   8.478  0.6957 -0.4223 -1.9060
 7679SOL     OW34498   3.685   4.137   3.734  0.2656 -0.1110 -0.9788
 7679SOL    HW134499   3.623   4.165   3.801  0.8615 -0.9750 -0.0627
 7679SOL    HW234500   3.636   4.141   3.652 -0.3064 -1.7919 -0.7105
 7680SOL     OW34501   2.609   0.080   0.124  0.4448  0.1600 -0.5209
 7680SOL    HW134502   2.676   0.015   0.104  0.0852 -0.3472 -0.0872
 7680SOL    HW234503   2.655   0.129   0.192 -1.1975 -1.0604  1.4831
 7681SOL     OW34504   3.224   3.593   4.071  1.2420 -1.0962  0.3843
 7681SOL    HW134505   3.192   3.552   3.991 -0.4440  1.1368 -0.0703
 7681SOL    HW234506   3.179   3.532   4.129 -1.1614 -0.5173 -0.8818
 7682SOL     OW34507   4.257   4.166  10.802 -0.0945  0.0755  0.0452
 7682SOL    HW134508   4.182   4.217  10.833  0.6253  0.9871  0.2964
 7682SOL    HW234509   4.295   4.245  10.764  0.7477 -0.8411 -1.0081
 7683SOL     OW34510   1.544   3.439   6.476 -0.3179  0.0759 -0.1941
 7683SOL    HW134511   1.601   3.423   6.551 -0.8899  1.8483  0.6283
 7683SOL    HW234512   1.524   3.348   6.455 -0.1517 -0.0952  0.4015
 7684SOL     OW34513   3.890   2.191   1.533 -0.4913  0.0001 -0.1961
 7684SOL    HW134514   3.892   2.280   1.497  0.8237  0.5552  1.2596
 7684SOL    HW234515   3.942   2.146   1.466  2.2160  0.1941  1.7727
 7685SOL     OW34516   0.569   2.596  10.104 -0.5288  0.4081 -0.9058
 7685SOL    HW134517   0.497   2.534  10.103 -1.1748  1.1462 -0.1993
 7685SOL    HW234518   0.584   2.622  10.013  1.3568  1.3583 -0.3297
 7686SOL     OW34519   1.526   0.465   8.412  0.0948  0.0731  0.6781
 7686SOL    HW134520   1.540   0.534   8.478  2.1883  0.1017  0.2060
 7686SOL    HW234521   1.494   0.510   8.334 -2.3638 -3.0882 -0.0938
 7687SOL     OW34522   4.272   1.376   7.704  0.1763  0.2568  0.6233
 7687SOL    HW134523   4.205   1.443   7.691 -0.5321 -0.2056  1.9367
 7687SOL    HW234524   4.339   1.432   7.743  2.0579 -0.0119 -2.2288
 7688SOL     OW34525   0.623   0.164   0.603 -0.3343 -0.4829 -0.1820
 7688SOL    HW134526   0.627   0.198   0.514 -2.0174 -0.5596 -0.2789
 7688SOL    HW234527   0.562   0.233   0.630 -0.0441 -1.1602  2.2710
 7689SOL     OW34528   2.384   1.952  13.332 -0.2369  0.0508 -0.3884
 7689SOL    HW134529   2.300   1.921  13.366  1.6412 -2.1969  2.2244
 7689SOL    HW234530   2.435   1.871  13.342 -0.2908  0.2162  1.1595
 7690SOL     OW34531   2.044   4.558   5.725 -0.0443 -0.0315  0.2732
 7690SOL    HW134532   2.042   4.537   5.632 -1.9143  0.2931  0.2350
 7690SOL    HW234533   2.098   4.486   5.758  2.8056  0.1832 -3.9310
 7691SOL     OW34534   0.777   3.942   7.558  0.0935  0.6295  0.2092
 7691SOL    HW134535   0.781   4.037   7.559  1.9189  0.5640 -0.8557
 7691SOL    HW234536   0.704   3.915   7.501 -0.5818  0.9949  0.8970
 7692SOL     OW34537   4.565   1.151   8.095  0.1536 -0.3876 -0.3224
 7692SOL    HW134538   4.574   1.186   8.006  0.6322  1.0583  0.2933
 7692SOL    HW234539   4.598   1.227   8.142  2.1618 -0.7366 -1.1344
 7693SOL     OW34540   3.486   1.354   0.070 -0.4473  0.9365  0.1635
 7693SOL    HW134541   3.579   1.340   0.086 -0.8545 -0.9307  0.8571
 7693SOL    HW234542   3.452   1.403   0.145 -2.1864 -1.4314  0.9312
 7694SOL     OW34543   2.412   4.413   1.619 -0.0248 -0.4017  0.0143
 7694SOL    HW134544   2.337   4.428   1.678 -0.3766  0.7718 -0.7308
 7694SOL    HW234545   2.472   4.475   1.662 -0.2843  0.7201 -1.2481
 7695SOL     OW34546   1.098   0.391   6.853 -0.0363 -0.8070 -0.3937
 7695SOL    HW134547   1.178   0.440   6.872 -0.3103  0.5911 -2.8114
 7695SOL    HW234548   1.104   0.395   6.757 -2.0928  0.8856 -0.4515
 7696SOL     OW34549   2.882   4.474   8.040 -0.0686 -1.3651 -0.0254
 7696SOL    HW134550   2.791   4.503   8.049  0.0799 -0.5965 -0.9587
 7696SOL    HW234551   2.908   4.465   8.131  0.1211  0.3587  0.0941
 7697SOL     OW34552   4.645   3.349  11.781  0.5530 -0.4141  0.4807
 7697SOL    HW134553   4.695   3.271  11.758  1.3262  0.9239 -2.3195
 7697SOL    HW234554   4.569   3.322  11.730  0.6082 -0.0714  0.2185
 7698SOL     OW34555   1.884   3.732   9.852 -0.5096 -0.0016  0.0501
 7698SOL    HW134556   1.842   3.656   9.892  1.2649 -0.5697  0.8644
 7698SOL    HW234557   1.842   3.800   9.905 -2.2120 -1.4968  0.6129
 7699SOL     OW34558   2.510   3.232  16.033 -0.2370  0.0595 -0.3728
 7699SOL    HW134559   2.520   3.327  16.043 -2.0520  0.2788 -0.8386
 7699SOL    HW234560   2.480   3.227  15.943  0.7619 -0.0826 -0.6970
 7700SOL     OW34561   3.327   3.213   5.704 -0.6888 -0.5902  0.1594
 7700SOL    HW134562   3.352   3.267   5.629 -1.4112 -1.1194 -0.4604
 7700SOL    HW234563   3.244   3.175   5.678 -1.2217 -0.3026  1.4437
 7701SOL     OW34564   4.656   0.638   4.891  0.4962 -0.3306  0.4241
 7701SOL    HW134565   4.631   0.558   4.937 -0.5570 -0.8602 -1.0692
 7701SOL    HW234566   4.637   0.711   4.950 -1.4599 -0.2174 -0.3580
 7702SOL     OW34567   3.050   1.199   2.347 -0.4797  0.8003 -0.0368
 7702SOL    HW134568   3.100   1.153   2.280 -0.0532  1.2376 -0.0224
 7702SOL    HW234569   3.026   1.126   2.405  0.0871 -0.0013 -0.8244
 7703SOL     OW34570   4.592   0.896  15.074 -0.4178 -0.7169 -0.1712
 7703SOL    HW134571   4.585   0.844  14.994 -2.0347 -2.1037  0.8630
 7703SOL    HW234572   4.588   0.825  15.139  3.7255 -2.1332 -1.4511
 7704SOL     OW34573   0.887   4.721   4.692  0.6439  0.1329  0.5399
 7704SOL    HW134574   0.969   0.019   4.648  0.0872  1.1549  0.0154
 7704SOL    HW234575   0.830   0.070   4.666 -0.9119 -0.6586  1.7177
 7705SOL     OW34576   3.588   1.948   0.660 -0.1076  0.6182  0.1329
 7705SOL    HW134577   3.655   1.958   0.728  1.3592  1.6000 -1.4701
 7705SOL    HW234578   3.514   1.948   0.720 -0.5249  0.5455 -0.3863
 7706SOL     OW34579   2.250   1.391  12.977 -0.5110  0.6898 -0.4948
 7706SOL    HW134580   2.200   1.471  12.996 -1.8548 -0.5291  1.1090
 7706SOL    HW234581   2.255   1.358  13.067  3.0937 -0.3117 -1.0792
 7707SOL     OW34582   3.157   1.668  12.285  0.1098  0.2646  0.1369
 7707SOL    HW134583   3.223   1.663  12.215  1.4098 -1.5385  1.4956
 7707SOL    HW234584   3.091   1.723  12.242 -0.7119 -0.2003  0.8130
 7708SOL     OW34585   1.488   4.023   8.492  0.3422  0.6334 -0.3490
 7708SOL    HW134586   1.554   3.953   8.491  1.1780  1.4192  0.0284
 7708SOL    HW234587   1.423   3.998   8.426  0.4248  1.1824 -0.6388
 7709SOL     OW34588   0.599   2.482   8.989 -0.0141  0.2292 -0.5609
 7709SOL    HW134589   0.663   2.511   9.054 -0.4270  0.9455 -0.4658
 7709SOL    HW234590   0.641   2.399   8.969 -0.9215 -0.5585  0.8376
 7710SOL     OW34591   1.051   1.649   7.591 -0.3876 -0.2402  0.4086
 7710SOL    HW134592   1.116   1.579   7.599  1.1120  0.8171 -2.5169
 7710SOL    HW234593   0.973   1.604   7.622  0.2189 -1.7005 -0.1831
 7711SOL     OW34594   1.008   2.764  16.965  0.4073 -0.7403  0.0544
 7711SOL    HW134595   0.931   2.724  16.925  0.2009  0.2539 -0.5376
 7711SOL    HW234596   1.080   2.762  16.902  1.7718 -1.3530  1.6352
 7712SOL     OW34597   2.299   3.856  11.248  0.5294  0.0571 -0.0023
 7712SOL    HW134598   2.348   3.797  11.306  1.2471  1.2080  0.5478
 7712SOL    HW234599   2.313   3.817  11.162 -0.0311 -0.9023  0.3379
 7713SOL     OW34600   0.116   2.691  14.038 -0.0060 -0.0752 -0.0693
 7713SOL    HW134601   0.192   2.643  14.071 -1.1055 -1.2930  0.6722
 7713SOL    HW234602   0.087   2.734  14.118  1.5563  1.5710 -0.3912
 7714SOL     OW34603   4.172   4.163  15.662 -0.2884  0.4478 -0.3223
 7714SOL    HW134604   4.131   4.167  15.748  2.1789  1.4922  0.8220
 7714SOL    HW234605   4.111   4.217  15.612 -2.0509 -2.8000 -1.6750
 7715SOL     OW34606   0.971   0.028   4.026  0.6116 -1.0919 -0.6545
 7715SOL    HW134607   0.905   4.693   3.990 -0.6676 -1.3674  2.1316
 7715SOL    HW234608   0.935   0.116   4.020 -0.2431 -1.6005 -2.8734
 7716SOL     OW34609   3.219   3.386   6.039 -0.5548  0.1026  0.3860
 7716SOL    HW134610   3.304   3.344   6.026 -1.9639 -2.3163 -0.9994
 7716SOL    HW234611   3.227   3.465   5.986 -0.5342 -0.5718 -0.6177
 7717SOL     OW34612   0.629   1.775  12.210  0.4609  0.2037 -0.1333
 7717SOL    HW134613   0.634   1.806  12.300 -0.4476  0.8159 -0.2890
 7717SOL    HW234614   0.588   1.689  12.219 -2.4480  1.3559 -2.4070
 7718SOL     OW34615   3.800   1.037   8.412  0.2179  0.5530 -0.9548
 7718SOL    HW134616   3.779   1.117   8.461 -0.5527 -1.8188  2.5700
 7718SOL    HW234617   3.890   1.028   8.442 -0.3609  1.1712  1.0078
 7719SOL     OW34618   3.499   1.055   0.033 -0.2241  0.4018 -0.5251
 7719SOL    HW134619   3.503   1.045   0.128 -0.2082  0.0812 -0.5624
 7719SOL    HW234620   3.465   1.144   0.022  2.0099  1.4942  1.3738
 7720SOL     OW34621   3.597   4.076  13.719  0.8307 -0.7985 -0.0480
 7720SOL    HW134622   3.590   4.111  13.630 -3.2994 -1.1047  0.1768
 7720SOL    HW234623   3.689   4.052  13.730  0.4808 -1.6716  1.0179
 7721SOL     OW34624   3.499   3.036   8.344  0.3502  0.0980 -0.1248
 7721SOL    HW134625   3.544   3.102   8.291  0.4945  0.4906  0.4956
 7721SOL    HW234626   3.416   3.044   8.297  0.4721  0.6830 -0.2495
 7722SOL     OW34627   0.195   0.173   9.034 -0.2476  0.4749 -0.4818
 7722SOL    HW134628   0.180   0.267   9.038  1.2560  0.7409 -0.9615
 7722SOL    HW234629   0.203   0.145   9.126  2.0112 -1.0244 -1.1288
 7723SOL     OW34630   2.087   0.243  12.230 -0.5634 -0.5442  0.4495
 7723SOL    HW134631   2.103   0.150  12.212  0.6228 -0.1743 -0.3659
 7723SOL    HW234632   2.007   0.228  12.280 -0.5364 -1.1977  0.3074
 7724SOL     OW34633   1.260   0.135   8.683  0.0285 -0.2030 -0.4640
 7724SOL    HW134634   1.210   0.104   8.607 -0.7581  0.7941 -0.3540
 7724SOL    HW234635   1.245   0.229   8.681  0.6282 -0.1064 -0.3504
 7725SOL     OW34636   2.297   2.104   1.975 -0.4722 -0.0119 -0.0216
 7725SOL    HW134637   2.256   2.081   1.892  0.2567  1.1545 -0.6997
 7725SOL    HW234638   2.221   2.115   2.032 -0.0723  0.1909  0.4795
 7726SOL     OW34639   1.852   3.270   6.336  0.0757 -0.2215  0.0297
 7726SOL    HW134640   1.927   3.227   6.377  1.8729  2.6393 -0.2327
 7726SOL    HW234641   1.857   3.355   6.378  0.2112 -0.1585 -0.1124
 7727SOL     OW34642   4.501   4.545  14.208 -0.4551 -0.1343 -0.1995
 7727SOL    HW134643   4.438   4.474  14.206 -1.4157  0.6163  3.5392
 7727SOL    HW234644   4.570   4.511  14.152  0.1791  0.9084 -0.0527
 7728SOL     OW34645   2.617   0.041  11.392  0.7840  0.3290 -0.4225
 7728SOL    HW134646   2.694   0.006  11.346  1.0187 -0.4647  0.5637
 7728SOL    HW234647   2.580   4.680  11.416 -1.7486  1.3800 -0.6830
 7729SOL     OW34648   0.221   4.185   7.894  0.0441 -0.1788  0.0830
 7729SOL    HW134649   0.301   4.234   7.872 -0.1711  0.5738  0.9848
 7729SOL    HW234650   0.161   4.259   7.900  0.7623  0.4485 -0.3853
 7730SOL     OW34651   3.793   1.962   0.818  0.5848 -0.4898 -0.3754
 7730SOL    HW134652   3.815   2.032   0.880 -1.6006  0.8466 -1.1118
 7730SOL    HW234653   3.857   1.981   0.750  0.4825  1.0857 -0.0350
 7731SOL     OW34654   3.864   3.807   2.055  0.2934 -0.0868 -0.0687
 7731SOL    HW134655   3.844   3.794   1.963  2.5541  0.0430 -0.5730
 7731SOL    HW234656   3.937   3.745   2.060 -0.1516 -0.4886  1.8380
 7732SOL     OW34657   2.737   2.137  16.482 -0.2162 -0.0315  0.2264
 7732SOL    HW134658   2.655   2.149  16.435 -1.6128  0.0984  2.6818
 7732SOL    HW234659   2.735   2.214  16.539 -0.2209  0.8685 -1.0128
 7733SOL     OW34660   1.356   1.755   7.720  0.1995  0.1793  0.6593
 7733SOL    HW134661   1.409   1.747   7.799  2.0282  1.9706 -0.3664
 7733SOL    HW234662   1.267   1.739   7.751  1.2868 -3.2912  1.9026
 7734SOL     OW34663   3.574   0.228   6.159  0.1914  0.4314 -0.1192
 7734SOL    HW134664   3.528   0.275   6.090  0.2855  1.1772  0.3322
 7734SOL    HW234665   3.533   0.142   6.147 -3.3267  2.2500 -1.1587
 7735SOL     OW34666   0.701   0.724   5.504 -0.2743 -0.4014 -0.2304
 7735SOL    HW134667   0.729   0.769   5.583  0.0665 -0.3091 -0.4030
 7735SOL    HW234668   0.770   0.671   5.464 -0.7697 -2.2635  1.3881
 7736SOL     OW34669   4.037   2.677  10.123  0.2200 -0.1749 -0.2426
 7736SOL    HW134670   4.123   2.668  10.165  0.4444  0.4755 -0.5770
 7736SOL    HW234671   3.981   2.672  10.201  1.7248 -1.3958  0.7592
 7737SOL     OW34672   4.308   1.492  13.227  0.1239 -0.0027  0.1928
 7737SOL    HW134673   4.288   1.586  13.225  2.0953  0.3997 -0.3264
 7737SOL    HW234674   4.224   1.457  13.198  0.7773 -2.1683  0.9676
 7738SOL     OW34675   4.397   3.371   3.393 -0.5717 -0.4347 -0.7169
 7738SOL    HW134676   4.380   3.430   3.467  0.6344 -0.2075 -0.6177
 7738SOL    HW234677   4.480   3.411   3.366 -0.6626 -0.3581 -0.8764
 7739SOL     OW34678   1.166   1.227   5.478 -0.0845  0.4281 -0.0967
 7739SOL    HW134679   1.183   1.135   5.497  3.2600  1.1198  0.1915
 7739SOL    HW234680   1.255   1.263   5.483  0.0617 -0.0315  0.5553
 7740SOL     OW34681   4.416   4.406   2.217 -0.8351  0.1293  0.4637
 7740SOL    HW134682   4.489   4.466   2.201  0.4888 -1.4314  0.6458
 7740SOL    HW234683   4.468   4.329   2.240  1.9374  1.7149 -0.5044
 7741SOL     OW34684   4.686   1.949   3.570  0.0426  0.1229  0.7220
 7741SOL    HW134685   4.693   1.862   3.610  0.7446 -0.1113  0.0984
 7741SOL    HW234686   0.025   1.952   3.498 -2.8151  1.3144 -1.7361
 7742SOL     OW34687   2.383   0.056   6.585  0.2205 -0.7869  0.5634
 7742SOL    HW134688   2.386   0.077   6.492 -0.3534 -0.4183  0.6323
 7742SOL    HW234689   2.465   0.092   6.621  0.9502 -1.4004 -0.5166
 7743SOL     OW34690   1.190   0.258   6.607  0.2599  0.3656 -0.3287
 7743SOL    HW134691   1.170   0.283   6.516 -1.7843 -1.9282 -0.4996
 7743SOL    HW234692   1.152   0.171   6.593 -0.2333  0.8036 -1.8161
 7744SOL     OW34693   2.573   1.033   7.363 -0.7307 -0.1643  0.2108
 7744SOL    HW134694   2.562   0.960   7.423 -1.9109 -0.5819 -0.5141
 7744SOL    HW234695   2.504   1.088   7.401  0.9462  1.8753  0.2975
 7745SOL     OW34696   4.473   1.202   4.598 -0.0577 -0.0936 -0.1641
 7745SOL    HW134697   4.454   1.158   4.515 -0.1808  2.0581 -1.2744
 7745SOL    HW234698   4.557   1.247   4.582 -0.8277  1.0950 -0.8671
 7746SOL     OW34699   2.720   2.757   0.550  0.9014  0.1807  0.5655
 7746SOL    HW134700   2.736   2.784   0.460  1.7988  2.1135  1.2868
 7746SOL    HW234701   2.669   2.829   0.589  1.5918  1.0804 -0.1904
 7747SOL     OW34702   3.890   4.295   3.040  0.2129  0.4587 -0.2395
 7747SOL    HW134703   3.894   4.256   3.127 -0.2392 -0.2614 -0.5446
 7747SOL    HW234704   3.870   4.387   3.059 -0.0007  0.6556 -1.4404
 7748SOL     OW34705   1.138   4.077   8.995 -0.1009 -0.2934  0.6449
 7748SOL    HW134706   1.058   4.045   9.037 -0.9704  0.2678 -0.5836
 7748SOL    HW234707   1.113   4.168   8.981  2.2194 -0.1111 -2.4250
 7749SOL     OW34708   4.324   1.914  16.621  0.1090  0.2204 -0.2983
 7749SOL    HW134709   4.329   1.835  16.568  0.4631 -0.0371  0.1203
 7749SOL    HW234710   4.230   1.931  16.618  0.2744  1.5089  1.3729
 7750SOL     OW34711   1.978   2.739   8.526 -0.5968 -0.3537 -0.1371
 7750SOL    HW134712   2.055   2.762   8.474 -0.0417 -0.1060  0.7970
 7750SOL    HW234713   2.013   2.696   8.604 -1.2870  1.5944  1.2433
 7751SOL     OW34714   3.158   4.008   3.894  0.2583 -0.0010 -0.3407
 7751SOL    HW134715   3.111   3.933   3.929 -0.0275  1.1101  1.6420
 7751SOL    HW234716   3.175   4.054   3.976 -0.1343 -0.1265 -0.1946
 7752SOL     OW34717   4.099   1.273  16.087 -0.2500  0.1548  0.2348
 7752SOL    HW134718   4.007   1.248  16.080 -0.3127  0.1570  1.1245
 7752SOL    HW234719   4.123   1.208  16.154  1.8857 -0.0497 -0.7229
 7753SOL     OW34720   2.826   4.336  12.062  0.1902 -0.1574 -0.2486
 7753SOL    HW134721   2.789   4.418  12.095  1.4589  0.9456 -1.6185
 7753SOL    HW234722   2.857   4.354  11.974 -0.2584  1.4045 -0.0864
 7754SOL     OW34723   4.359   1.979   2.809  0.3322  0.0061  0.4408
 7754SOL    HW134724   4.297   1.941   2.747  0.9244  0.8831 -0.6801
 7754SOL    HW234725   4.373   1.903   2.866 -0.4636 -0.2705  0.2609
 7755SOL     OW34726   3.082   2.033   0.594 -0.3860  0.2185 -0.2635
 7755SOL    HW134727   3.074   1.955   0.539 -0.1562 -0.1088  0.1729
 7755SOL    HW234728   3.002   2.073   0.561  0.9799  2.6455 -0.6037
 7756SOL     OW34729   4.541   2.425   7.056  0.3223  0.6837  0.3688
 7756SOL    HW134730   4.558   2.344   7.008 -0.5022  0.0825  1.0912
 7756SOL    HW234731   4.493   2.476   6.991 -0.8595 -0.0219  0.6920
 7757SOL     OW34732   1.070   3.758  10.444 -0.1234 -0.6808  1.1691
 7757SOL    HW134733   1.142   3.787  10.388 -0.6718 -1.6296 -0.0279
 7757SOL    HW234734   1.029   3.702  10.378 -0.3735 -0.7335  1.3682
 7758SOL     OW34735   3.470   4.249   8.419  0.2877 -0.1952 -0.0822
 7758SOL    HW134736   3.506   4.178   8.367 -1.6117  0.2567 -2.0228
 7758SOL    HW234737   3.483   4.330   8.370 -0.8644 -0.2652 -0.5110
 7759SOL     OW34738   0.499   1.439   8.459 -0.3994  0.3764 -0.1632
 7759SOL    HW134739   0.579   1.387   8.467 -0.2391  0.5680 -0.5068
 7759SOL    HW234740   0.457   1.406   8.539  0.8441 -1.2949 -0.1930
 7760SOL     OW34741   2.262   3.869  15.525  0.4000  0.1856 -0.2002
 7760SOL    HW134742   2.210   3.911  15.457  0.6493 -0.7117 -0.9631
 7760SOL    HW234743   2.347   3.858  15.482 -0.7781 -3.2035 -1.6848
 7761SOL     OW34744   0.378   0.940   5.582  0.2825  0.1478  0.0427
 7761SOL    HW134745   0.395   0.912   5.672 -0.0764  1.2006  0.4299
 7761SOL    HW234746   0.366   0.850   5.550  1.6239  0.1640 -0.5424
 7762SOL     OW34747   2.181   1.227   5.498  0.8201  0.9393  0.0125
 7762SOL    HW134748   2.159   1.140   5.530  0.7337  0.8993 -0.1547
 7762SOL    HW234749   2.225   1.208   5.415  0.8702 -3.2668  1.0556
 7763SOL     OW34750   4.249   1.645  11.900 -0.0996 -0.5736  0.2772
 7763SOL    HW134751   4.221   1.628  11.990 -0.5317 -0.6311  0.1273
 7763SOL    HW234752   4.200   1.583  11.846  0.0409  1.4548 -2.2090
 7764SOL     OW34753   2.211   2.756   5.341  0.0459  0.3590  0.6657
 7764SOL    HW134754   2.116   2.739   5.344  0.1936 -0.4281  0.9773
 7764SOL    HW234755   2.215   2.836   5.393  1.0915  0.4337  0.4556
 7765SOL     OW34756   4.130   4.138   1.607 -0.2777 -0.1263 -0.0443
 7765SOL    HW134757   4.069   4.198   1.563 -0.0562  1.9540  2.4874
 7765SOL    HW234758   4.068   4.077   1.646 -1.8296  2.1745  1.0758
 7766SOL     OW34759   1.570   2.564   4.769 -0.6644  0.5059 -0.0108
 7766SOL    HW134760   1.545   2.498   4.705 -2.5319  1.4996 -0.3192
 7766SOL    HW234761   1.490   2.614   4.782 -0.5900  0.4807  0.5432
 7767SOL     OW34762   1.164   0.524   5.938 -0.0268 -0.1572  0.0588
 7767SOL    HW134763   1.221   0.574   5.996 -0.3097 -1.9982  1.9413
 7767SOL    HW234764   1.218   0.446   5.921 -0.2806 -0.4414  0.5444
 7768SOL     OW34765   3.497   2.541   0.987  0.5396 -0.4167  0.9324
 7768SOL    HW134766   3.520   2.597   1.061 -0.6794  0.7539  0.4340
 7768SOL    HW234767   3.402   2.555   0.986  0.4447 -1.1843 -0.7953
 7769SOL     OW34768   4.435   2.389  10.298 -0.0089  0.0306 -0.1611
 7769SOL    HW134769   4.385   2.352  10.225  2.0305  0.0666 -1.5445
 7769SOL    HW234770   4.416   2.482  10.286 -2.4885 -0.2960  1.1047
 7770SOL     OW34771   1.717   4.232  12.762 -0.4102 -0.1391 -0.0664
 7770SOL    HW134772   1.797   4.279  12.784 -1.1771  2.4788 -2.7426
 7770SOL    HW234773   1.754   4.181  12.689  1.2491  1.3444 -0.2632
 7771SOL     OW34774   3.543   0.050   7.267 -0.1962  0.2339  0.0620
 7771SOL    HW134775   3.536   4.717   7.343  0.3109  0.7973  0.5365
 7771SOL    HW234776   3.552   0.135   7.310  0.0949 -0.2911  1.0240
 7772SOL     OW34777   4.666   3.629   8.497 -0.8161  0.0877  0.1827
 7772SOL    HW134778   4.659   3.534   8.490  0.8675 -0.0630  0.5574
 7772SOL    HW234779   4.723   3.635   8.574  1.5902 -2.0694 -1.4039
 7773SOL     OW34780   3.293   3.948  11.668 -0.1474 -0.1987 -0.1562
 7773SOL    HW134781   3.321   3.859  11.688 -2.6947 -1.4180 -2.0791
 7773SOL    HW234782   3.375   3.997  11.682 -0.6962  0.3013  1.3256
 7774SOL     OW34783   0.531   1.125   5.208 -0.2500  0.0039  0.0049
 7774SOL    HW134784   0.502   1.182   5.279  2.4913  0.7502  0.5337
 7774SOL    HW234785   0.549   1.044   5.257  1.6744  0.8793  0.7489
 7775SOL     OW34786   4.078   1.879   8.710  0.0132  0.3533 -0.1907
 7775SOL    HW134787   4.132   1.957   8.726 -1.4301  1.3954 -0.4045
 7775SOL    HW234788   4.081   1.835   8.795  0.2307 -0.0501 -0.4073
 7776SOL     OW34789   2.631   3.661   5.584  0.1704 -0.1811  0.1232
 7776SOL    HW134790   2.645   3.573   5.549  0.8312 -0.5120  1.2230
 7776SOL    HW234791   2.548   3.631   5.621  0.1279 -0.1718  0.0342
 7777SOL     OW34792   4.351   0.027   3.820  0.1361 -0.3796  0.1992
 7777SOL    HW134793   4.435   4.709   3.841 -1.9308 -3.9416  1.3096
 7777SOL    HW234794   4.310   4.678   3.775  0.2841 -0.3394  0.0033
 7778SOL     OW34795   1.950   4.679  10.884  0.0506  0.3041  0.6559
 7778SOL    HW134796   1.896   4.678  10.964 -1.8435 -2.7877 -0.6559
 7778SOL    HW234797   1.894   0.007  10.826  0.0278 -1.1134 -0.6035
 7779SOL     OW34798   3.626   1.503   1.240 -0.0218 -0.1952  0.1622
 7779SOL    HW134799   3.562   1.574   1.238  1.0877  0.8475  1.5392
 7779SOL    HW234800   3.704   1.546   1.204  0.0135  0.9749  1.6112
 7780SOL     OW34801   0.765   3.474   8.795  0.0178 -0.1601  0.0485
 7780SOL    HW134802   0.816   3.469   8.715 -1.7190 -1.6363 -0.9646
 7780SOL    HW234803   0.741   3.567   8.791 -1.6120 -0.5420  0.8994
 7781SOL     OW34804   4.213   3.672   8.205  0.4006 -0.0708 -0.1876
 7781SOL    HW134805   4.205   3.595   8.148 -1.1325 -1.9633  2.6079
 7781SOL    HW234806   4.302   3.701   8.183  0.8705 -0.8119  0.7159
 7782SOL     OW34807   1.028   4.723   5.375  0.2589  0.3555 -0.1153
 7782SOL    HW134808   1.068   4.655   5.430 -0.2761  0.1102 -0.0366
 7782SOL    HW234809   1.109   0.038   5.342 -0.9784  2.9325 -0.1171
 7783SOL     OW34810   0.046   0.730   2.765  0.0101 -0.0140  0.5046
 7783SOL    HW134811   0.133   0.706   2.797 -0.2481 -1.1539  0.3651
 7783SOL    HW234812   0.074   0.816   2.736  0.5205 -0.7365 -1.1479
 7784SOL     OW34813   4.687   2.519   5.838 -0.2640 -0.3145  0.0825
 7784SOL    HW134814   0.025   2.448   5.854 -0.2926  0.0244  1.6717
 7784SOL    HW234815   4.606   2.478   5.809  0.9107 -2.5026 -0.0670
 7785SOL     OW34816   4.250   2.096   3.340  0.4895  0.2821  0.2149
 7785SOL    HW134817   4.191   2.021   3.349 -1.3450  1.6875 -0.0410
 7785SOL    HW234818   4.283   2.085   3.251 -2.1692 -1.1185 -0.5969
 7786SOL     OW34819   2.172   3.537   6.527  0.2480 -0.5628 -0.6037
 7786SOL    HW134820   2.261   3.537   6.491 -0.0929  0.7732 -1.4222
 7786SOL    HW234821   2.182   3.605   6.594  0.8433  0.6682 -1.9494
 7787SOL     OW34822   3.816   2.856   6.824  0.0186 -0.0672 -0.2382
 7787SOL    HW134823   3.894   2.910   6.839 -0.3052  0.0665  0.9587
 7787SOL    HW234824   3.861   2.772   6.816 -0.1168 -0.1876  0.2909
 7788SOL     OW34825   2.528   4.581   3.609 -0.3936 -0.1779  0.3831
 7788SOL    HW134826   2.497   4.657   3.560  0.9226  2.0741  3.0435
 7788SOL    HW234827   2.601   4.550   3.555  0.4226  0.3580  1.1630
 7789SOL     OW34828   3.528   1.209  13.757 -0.6421  0.2132  0.2061
 7789SOL    HW134829   3.513   1.148  13.830  1.3276  0.6942  0.9904
 7789SOL    HW234830   3.542   1.139  13.693 -1.3843  0.2965 -0.0467
 7790SOL     OW34831   2.661   1.228   9.718  0.2573 -0.3564 -0.3284
 7790SOL    HW134832   2.603   1.282   9.664  1.8863  0.1215 -1.5753
 7790SOL    HW234833   2.719   1.189   9.653  0.9518  0.1679 -0.0152
 7791SOL     OW34834   4.157   3.819   6.245 -0.6173  0.0398 -0.1264
 7791SOL    HW134835   4.248   3.811   6.273 -0.4551 -3.1631 -1.5093
 7791SOL    HW234836   4.133   3.900   6.290  1.4235  0.0169  1.0072
 7792SOL     OW34837   4.663   0.168  14.488 -0.2988 -0.0574  0.4063
 7792SOL    HW134838   4.625   0.241  14.440  1.6670 -0.0932 -1.1785
 7792SOL    HW234839   4.696   0.108  14.422 -1.9549 -1.7787  1.1249
 7793SOL     OW34840   0.223   1.936  16.755 -0.1543 -0.2173 -0.1929
 7793SOL    HW134841   0.282   1.878  16.707  1.8260 -0.0681  2.0167
 7793SOL    HW234842   0.289   1.946  16.824 -1.0359 -0.8605  0.7429
 7794SOL     OW34843   4.671   0.067  15.375  0.1781 -0.1968  0.2993
 7794SOL    HW134844   4.706   0.122  15.304  0.4968  0.2024  0.7707
 7794SOL    HW234845   4.719   4.711  15.355 -0.8364 -0.8260  0.4217
 7795SOL     OW34846   4.194   1.676   1.206 -0.3543 -0.0537 -0.2471
 7795SOL    HW134847   4.261   1.684   1.139 -2.2009 -0.9747 -2.1756
 7795SOL    HW234848   4.144   1.755   1.185  1.0426  0.8852 -0.0446
 7796SOL     OW34849   0.382   3.441   4.165  0.1461  0.0855  0.5109
 7796SOL    HW134850   0.464   3.419   4.121  0.9084 -0.3035  2.1301
 7796SOL    HW234851   0.355   3.354   4.195  1.9868  0.2667  2.6440
 7797SOL     OW34852   2.229   4.270   7.754 -0.3477  0.1200 -0.0709
 7797SOL    HW134853   2.231   4.321   7.835 -1.3123  0.2937 -0.1538
 7797SOL    HW234854   2.251   4.186   7.795 -0.4528  0.1136 -0.0267
 7798SOL     OW34855   0.541   2.543   2.673 -0.6171 -0.7056  0.0017
 7798SOL    HW134856   0.470   2.562   2.734 -0.2875  1.3007 -0.2472
 7798SOL    HW234857   0.493   2.557   2.591  1.7626 -0.0488 -1.2859
 7799SOL     OW34858   3.711   0.794   6.130  0.0791  0.9826  0.1348
 7799SOL    HW134859   3.710   0.830   6.041  3.4393  3.0806  0.9500
 7799SOL    HW234860   3.730   0.703   6.108 -0.7629  0.5540  1.1695
 7800SOL     OW34861   2.609   3.545  16.767  0.2649  0.5445  0.1103
 7800SOL    HW134862   2.623   3.640  16.767  0.7385  0.4678  1.6887
 7800SOL    HW234863   2.514   3.551  16.760  0.5239  0.9982 -3.0389
 7801SOL     OW34864   2.665   3.374   5.557 -0.0791 -0.1932 -0.5563
 7801SOL    HW134865   2.571   3.372   5.538 -0.5181  0.0168  1.5005
 7801SOL    HW234866   2.673   3.279   5.561  0.2810 -0.1275  0.3194
 7802SOL     OW34867   1.399   2.688   3.965 -0.8210 -0.1098  0.0565
 7802SOL    HW134868   1.419   2.595   3.977 -0.1774  0.3930  2.9712
 7802SOL    HW234869   1.480   2.723   4.002 -1.9919  0.5521  2.0101
 7803SOL     OW34870   2.824   3.918   6.410 -0.0919 -0.0256 -0.1702
 7803SOL    HW134871   2.916   3.945   6.411  0.2313 -1.1074 -0.9818
 7803SOL    HW234872   2.818   3.876   6.325 -1.8788  1.9296 -1.0151
 7804SOL     OW34873   1.447   3.503   4.124 -0.0758 -0.4248  0.0581
 7804SOL    HW134874   1.491   3.588   4.118  1.3657 -1.2491 -1.0982
 7804SOL    HW234875   1.414   3.484   4.036 -1.9188 -0.6323  0.7880
 7805SOL     OW34876   1.077   4.463   3.811 -0.1975  0.2429 -0.8037
 7805SOL    HW134877   1.158   4.514   3.808  0.0014  0.0090  0.4270
 7805SOL    HW234878   1.024   4.525   3.861 -0.7159 -0.2857 -0.7008
 7806SOL     OW34879   0.677   4.369   2.972  0.6121  0.3743  0.1875
 7806SOL    HW134880   0.709   4.450   2.932 -2.1058  1.6102  0.4784
 7806SOL    HW234881   0.599   4.404   3.017  0.6181 -0.9872  1.2517
 7807SOL     OW34882   4.174   2.855   5.914 -0.1579  0.5158  0.1682
 7807SOL    HW134883   4.165   2.948   5.892 -2.9335  0.2556  0.1412
 7807SOL    HW234884   4.089   2.818   5.891 -0.2971  2.2092 -2.0774
 7808SOL     OW34885   3.076   2.297   6.018 -0.0059  0.0596  0.0535
 7808SOL    HW134886   2.999   2.315   5.964  0.7142 -0.6241 -1.2075
 7808SOL    HW234887   3.039   2.294   6.106  1.2082 -1.4415  0.5203
 7809SOL     OW34888   4.405   2.788   1.509  0.1276  0.0781  0.0577
 7809SOL    HW134889   4.365   2.821   1.428 -0.2169 -0.9720 -0.2006
 7809SOL    HW234890   4.495   2.817   1.494  0.0659 -0.0849 -0.6302
 7810SOL     OW34891   3.053   2.834   4.972 -0.3621  0.1082 -0.6643
 7810SOL    HW134892   3.054   2.755   4.919  2.5390  0.7427 -1.5644
 7810SOL    HW234893   2.958   2.841   4.979 -0.4940 -1.2661 -1.2038
 7811SOL     OW34894   1.163   3.031   7.797  0.5291  0.3331 -0.2658
 7811SOL    HW134895   1.209   3.107   7.761  1.0316  0.7427  1.2468
 7811SOL    HW234896   1.222   2.998   7.865 -0.7185  1.5975  1.4117
 7812SOL     OW34897   2.414   2.576   9.333  0.6189 -0.6173  0.0783
 7812SOL    HW134898   2.322   2.567   9.312 -0.0775  0.2393  2.7562
 7812SOL    HW234899   2.402   2.552   9.425  3.1727  1.1014  0.8645
 7813SOL     OW34900   0.880   4.027   9.262 -0.2219  0.5432  0.0560
 7813SOL    HW134901   0.803   4.021   9.318  1.0490 -0.8066  1.6811
 7813SOL    HW234902   0.944   3.978   9.314 -0.0467 -0.4368 -1.0812
 7814SOL     OW34903   3.663   0.848  10.075  0.0542  0.1721 -0.3898
 7814SOL    HW134904   3.608   0.837   9.997 -0.4824  0.9554 -0.1259
 7814SOL    HW234905   3.702   0.934  10.056  0.7335 -0.0905 -0.1664
 7815SOL     OW34906   0.738   0.247   7.277 -0.1652 -0.5654 -0.1811
 7815SOL    HW134907   0.654   0.208   7.252 -0.3738 -0.2675  0.0518
 7815SOL    HW234908   0.795   0.170   7.272  1.1158  0.4270 -0.8337
 7816SOL     OW34909   0.501   0.076   8.108 -0.2904 -0.3496 -0.3842
 7816SOL    HW134910   0.525   0.163   8.076 -0.3666 -0.8883 -1.8626
 7816SOL    HW234911   0.534   0.092   8.197  2.8694 -0.3963 -1.5654
 7817SOL     OW34912   3.702   2.669  10.697 -0.4024  0.0598 -0.0262
 7817SOL    HW134913   3.763   2.597  10.684  1.5466  1.9728 -1.4615
 7817SOL    HW234914   3.620   2.624  10.716 -0.4537  0.4578  0.6721
 7818SOL     OW34915   2.173   1.055   9.683  0.0064  0.8352 -0.5671
 7818SOL    HW134916   2.104   1.077   9.745  1.1566  1.7370  0.3762
 7818SOL    HW234917   2.188   0.961   9.693  2.5369  1.6344  2.9832
 7819SOL     OW34918   1.904   4.063   0.649  0.2593  0.0509  0.3825
 7819SOL    HW134919   1.947   4.107   0.722  1.9239  2.0935 -1.8387
 7819SOL    HW234920   1.956   3.983   0.650 -0.6723 -0.5866 -2.1867
 7820SOL     OW34921   1.497   4.238   8.651  0.4126 -0.2435  0.0503
 7820SOL    HW134922   1.587   4.264   8.630  0.5221 -0.6937 -0.0418
 7820SOL    HW234923   1.481   4.192   8.569 -0.9542  1.7096 -0.7621
 7821SOL     OW34924   2.946   2.513   9.475  0.3544  0.0776 -0.5934
 7821SOL    HW134925   2.993   2.555   9.404 -0.0240  0.8752 -0.3769
 7821SOL    HW234926   3.012   2.452   9.508  0.6460  0.2983 -0.7681
 7822SOL     OW34927   3.354   1.346  10.505  0.0767  0.2564  0.0250
 7822SOL    HW134928   3.259   1.344  10.511  0.0200  0.2745 -0.8772
 7822SOL    HW234929   3.375   1.274  10.564  0.9023  1.1227  0.7957
 7823SOL     OW34930   1.856   1.577   5.779  0.0441  0.2669 -0.2814
 7823SOL    HW134931   1.886   1.487   5.795  1.4442  0.5498 -1.3614
 7823SOL    HW234932   1.930   1.627   5.814  0.1281 -0.0514  0.0005
 7824SOL     OW34933   3.943   3.676   4.618 -0.3039 -0.2462 -0.3542
 7824SOL    HW134934   3.866   3.673   4.561 -0.8233 -1.1679  0.3831
 7824SOL    HW234935   3.941   3.591   4.662 -0.2794 -0.3579 -0.5720
 7825SOL     OW34936   0.265   3.203   1.692  0.0348 -0.0281 -0.4437
 7825SOL    HW134937   0.203   3.131   1.682  0.7206 -0.7247  0.3420
 7825SOL    HW234938   0.221   3.270   1.745  2.1720 -0.4764  1.8951
 7826SOL     OW34939   1.329   0.666   5.010 -0.0487 -0.1021 -0.0201
 7826SOL    HW134940   1.407   0.642   4.960 -0.1920  0.7948 -0.6567
 7826SOL    HW234941   1.273   0.709   4.946  0.5601 -2.5340 -2.2021
 7827SOL     OW34942   0.055   2.138   7.227 -0.5672 -0.7685 -0.1784
 7827SOL    HW134943   0.057   2.132   7.132 -0.6080 -3.2289 -0.0385
 7827SOL    HW234944   0.143   2.172   7.239 -0.9421  1.2489 -3.0987
 7828SOL     OW34945   4.000   3.166   7.046  0.3661  0.1489  0.0577
 7828SOL    HW134946   4.063   3.232   7.073  1.7833 -1.2298  0.0666
 7828SOL    HW234947   3.957   3.133   7.125  0.2372  0.1315 -0.0183
 7829SOL     OW34948   1.936   0.934   8.454  0.1376  0.0464  0.7241
 7829SOL    HW134949   2.027   0.927   8.425  0.1928  1.1274  0.6134
 7829SOL    HW234950   1.917   1.021   8.418 -1.0500 -0.2565  0.6192
 7830SOL     OW34951   2.633   1.563   7.156 -0.2806  0.5538  0.2182
 7830SOL    HW134952   2.666   1.530   7.072  0.3499  1.2517  0.1863
 7830SOL    HW234953   2.700   1.527   7.215 -3.1187 -1.9338  1.9236
 7831SOL     OW34954   3.406   3.846   5.795  0.5018 -0.4314  0.6660
 7831SOL    HW134955   3.381   3.918   5.853  0.5145 -0.1670  0.3426
 7831SOL    HW234956   3.500   3.839   5.806  0.8779  2.6814 -0.5649
 7832SOL     OW34957   1.879   3.014   4.640  0.0575 -0.2907 -0.4436
 7832SOL    HW134958   1.941   2.957   4.596 -0.4317 -1.0189 -0.1870
 7832SOL    HW234959   1.825   2.951   4.688  1.7143 -1.4760 -0.1498
 7833SOL     OW34960   2.159   3.076  13.899 -0.8749 -0.4100  0.3098
 7833SOL    HW134961   2.116   3.153  13.935 -1.8361 -0.4525 -0.7647
 7833SOL    HW234962   2.244   3.097  13.939 -1.6066 -0.5265  1.9528
 7834SOL     OW34963   2.542   1.248   4.409 -0.1158  0.6367  0.0605
 7834SOL    HW134964   2.453   1.235   4.375  0.2120 -2.2920  0.3327
 7834SOL    HW234965   2.592   1.214   4.335 -0.7384 -1.8059  0.7670
 7835SOL     OW34966   3.632   0.205  16.263 -0.1143  0.5224  0.3179
 7835SOL    HW134967   3.570   0.229  16.195 -1.9026  1.1591  2.1812
 7835SOL    HW234968   3.611   0.272  16.328 -2.6650  1.7953 -1.8133
 7836SOL     OW34969   0.107   1.537   2.525 -0.0718 -0.1753 -0.2448
 7836SOL    HW134970   0.083   1.584   2.605  2.2068  1.1067 -0.3126
 7836SOL    HW234971   0.182   1.588   2.494  1.3559 -0.2688  3.0720
 7837SOL     OW34972   0.707   3.421  16.448  0.0633  0.0050  0.0330
 7837SOL    HW134973   0.744   3.418  16.360 -2.8514 -1.3561 -1.1202
 7837SOL    HW234974   0.679   3.332  16.468  0.0524  0.1402  0.6393
 7838SOL     OW34975   2.172   4.672   1.300  0.1856  0.1431  0.4757
 7838SOL    HW134976   2.107   0.007   1.340 -1.2503  0.3240 -2.0857
 7838SOL    HW234977   2.231   0.010   1.257  1.4292 -1.0230  0.5258
 7839SOL     OW34978   0.708   4.363   9.411  0.1436 -0.6031  0.0417
 7839SOL    HW134979   0.773   4.317   9.359  1.6400  4.0026 -2.1109
 7839SOL    HW234980   0.746   4.451   9.406  1.2923 -1.1837 -1.1306
 7840SOL     OW34981   2.309   1.374   6.813 -0.4203 -0.1758 -0.0852
 7840SOL    HW134982   2.336   1.295   6.859 -2.3308 -0.4811  0.5188
 7840SOL    HW234983   2.394   1.409   6.788  0.3723 -2.1985 -0.2164
 7841SOL     OW34984   3.510   0.551  12.484  0.1029 -0.4901  0.3419
 7841SOL    HW134985   3.507   0.505  12.400 -2.8402 -1.2218  0.8558
 7841SOL    HW234986   3.455   0.497  12.540  2.0651 -0.8679  1.9120
 7842SOL     OW34987   4.194   2.957   3.141 -0.7749 -0.1739 -0.0309
 7842SOL    HW134988   4.184   2.917   3.055  1.1741 -1.3004  0.2631
 7842SOL    HW234989   4.239   2.887   3.188 -1.3085  0.3311  1.2343
 7843SOL     OW34990   2.501   0.169   1.664  0.0396  0.5803  0.6256
 7843SOL    HW134991   2.530   0.255   1.696 -1.4538  1.1102  0.5274
 7843SOL    HW234992   2.470   0.182   1.575 -0.3344  2.4137  1.0092
 7844SOL     OW34993   2.225   0.605   4.642 -0.7172 -0.2408  0.6325
 7844SOL    HW134994   2.277   0.670   4.594  0.0064 -1.6653 -0.4878
 7844SOL    HW234995   2.150   0.598   4.584  0.6013 -0.0894 -1.0872
 7845SOL     OW34996   2.247   2.183   5.681 -0.4130  0.1300 -0.5890
 7845SOL    HW134997   2.194   2.113   5.720 -1.8888  1.6324  0.0856
 7845SOL    HW234998   2.295   2.134   5.614 -0.7854  0.2987 -0.9842
 7846SOL     OW34999   0.241   4.317   1.794 -0.1161  0.2497 -1.0480
 7846SOL    HW135000   0.284   4.268   1.864  1.5312  0.3421 -1.9973
 7846SOL    HW235001   0.303   4.297   1.723  2.3596 -1.4718  1.5869
 7847SOL     OW35002   3.318   1.091   9.301 -0.1780  0.9626  0.3219
 7847SOL    HW135003   3.385   1.032   9.267  0.6458  1.2038  1.5569
 7847SOL    HW235004   3.331   1.078   9.395  4.0900 -0.4568 -0.4840
 7848SOL     OW35005   4.353   1.694   4.087 -0.1433  0.2170  0.0043
 7848SOL    HW135006   4.375   1.626   4.150 -0.1210  2.0691  1.9796
 7848SOL    HW235007   4.285   1.663   4.026  0.4619  0.9437 -1.0544
 7849SOL     OW35008   0.243   2.208   2.965 -0.0849  0.1134 -0.8394
 7849SOL    HW135009   0.268   2.125   3.007 -0.2951  0.6887  0.4131
 7849SOL    HW235010   0.275   2.276   3.024  1.3790 -2.2976  1.1356
 7850SOL     OW35011   0.190   3.198  11.121  0.3625 -0.5003  0.2518
 7850SOL    HW135012   0.179   3.152  11.037  0.8312 -0.4336  0.1543
 7850SOL    HW235013   0.137   3.149  11.184  0.9742 -2.1204 -0.4769
 7851SOL     OW35014   2.216   3.897   4.904 -0.7328  0.1259 -0.2094
 7851SOL    HW135015   2.282   3.873   4.839  1.4189  3.1371  0.8846
 7851SOL    HW235016   2.147   3.941   4.854 -1.3621 -0.9685 -0.3108
 7852SOL     OW35017   3.504   2.751   8.395  0.7304 -0.3801 -0.3550
 7852SOL    HW135018   3.498   2.845   8.378 -1.1792 -0.4790 -0.2529
 7852SOL    HW235019   3.462   2.726   8.313 -1.4419 -1.1216  0.9601
 7853SOL     OW35020   3.516   0.299   5.630 -0.7477  0.7488  0.0200
 7853SOL    HW135021   3.550   0.313   5.542  2.1560 -3.1909  0.5177
 7853SOL    HW235022   3.578   0.231   5.658 -2.2378 -0.5528  0.1649
 7854SOL     OW35023   0.524   4.348   9.191  0.3447  0.2737 -0.2905
 7854SOL    HW135024   0.547   4.434   9.156 -0.9856  1.0410  0.7139
 7854SOL    HW235025   0.597   4.342   9.253  0.3521 -0.3714 -0.3587
 7855SOL     OW35026   0.990   0.153  16.597  0.1083  0.1502  0.0995
 7855SOL    HW135027   1.004   0.100  16.676  0.8873 -1.0004 -0.8161
 7855SOL    HW235028   0.928   0.221  16.623 -0.1856 -0.3588  0.7393
 7856SOL     OW35029   1.716   0.049   2.406  0.8894 -0.1061  0.3730
 7856SOL    HW135030   1.657   0.124   2.393  3.3242  1.6385 -0.6780
 7856SOL    HW235031   1.699   0.000   2.325 -3.3329 -0.6429  1.5854
 7857SOL     OW35032   1.426   0.843   2.591 -0.1480  0.3696 -0.3476
 7857SOL    HW135033   1.478   0.868   2.515  0.7172  0.5169  0.2853
 7857SOL    HW235034   1.487   0.850   2.665  0.5801  3.4237 -1.2369
 7858SOL     OW35035   2.004   2.317   7.090 -0.0954 -0.7295  0.0779
 7858SOL    HW135036   2.093   2.315   7.125 -0.7405 -1.7183  1.6704
 7858SOL    HW235037   2.023   2.364   7.008 -0.5558 -0.6669  0.0073
 7859SOL     OW35038   0.384   2.337   8.602  0.4190 -0.2717 -0.1028
 7859SOL    HW135039   0.370   2.429   8.625  2.1566 -0.2397  0.8370
 7859SOL    HW235040   0.467   2.337   8.554  1.2999 -1.6733  1.4134
 7860SOL     OW35041   2.677   1.496   2.151 -0.3321  0.0459  0.2778
 7860SOL    HW135042   2.658   1.404   2.135  1.0020 -0.2373  0.3195
 7860SOL    HW235043   2.608   1.520   2.212  0.3466  0.6066  0.8377
 7861SOL     OW35044   0.015   0.302   3.387 -0.2557 -0.4241 -0.0542
 7861SOL    HW135045   0.060   0.244   3.448 -0.8334  0.3647  1.1231
 7861SOL    HW235046   4.666   0.246   3.361 -0.4133 -1.5316  2.7782
 7862SOL     OW35047   3.530   0.858   4.421  0.2857  0.3610 -0.8253
 7862SOL    HW135048   3.462   0.799   4.452  0.9269  0.1303  0.1552
 7862SOL    HW235049   3.483   0.896   4.347  1.4320 -0.2679 -1.8876
 7863SOL     OW35050   4.079   0.915  12.483 -0.1091  0.1323 -0.3682
 7863SOL    HW135051   4.120   0.908  12.570  0.4614 -1.4652 -0.7714
 7863SOL    HW235052   4.026   0.835  12.484 -0.0392  0.0913  0.3367
 7864SOL     OW35053   1.973   1.530   5.178  0.0307 -0.3417  0.0195
 7864SOL    HW135054   1.981   1.565   5.089  1.1846  0.3299  0.3951
 7864SOL    HW235055   2.064   1.533   5.207 -0.2150 -0.3498  0.7919
 7865SOL     OW35056   2.936   0.439   8.596 -0.1795 -0.1363 -0.2675
 7865SOL    HW135057   2.891   0.368   8.550 -0.8865 -0.7997  1.4747
 7865SOL    HW235058   2.998   0.391   8.649 -1.7812 -3.2513 -1.2338
 7866SOL     OW35059   0.262   3.339   6.627 -0.2731  0.4095  0.7837
 7866SOL    HW135060   0.289   3.378   6.710  2.9882  1.1126 -0.5922
 7866SOL    HW235061   0.311   3.258   6.641  0.2587  0.7370  0.8230
 7867SOL     OW35062   1.773   3.109   7.140 -0.3350 -0.7556 -0.6570
 7867SOL    HW135063   1.831   3.063   7.201 -0.1478 -0.3461 -0.5311
 7867SOL    HW235064   1.699   3.053   7.113 -1.0829 -0.6997  1.2820
 7868SOL     OW35065   2.122   1.765  12.367 -0.3187 -0.3042  0.6543
 7868SOL    HW135066   2.096   1.740  12.456  1.6192 -0.5470  1.1453
 7868SOL    HW235067   2.060   1.837  12.356  0.4258  0.4187  1.2165
 7869SOL     OW35068   0.102   1.740   4.491  0.0617 -0.0336 -0.1751
 7869SOL    HW135069   0.157   1.662   4.482  0.9276  0.6737 -1.0339
 7869SOL    HW235070   0.166   1.810   4.488  1.8088 -1.5624  2.1778
 7870SOL     OW35071   2.553   1.252   2.158  0.0948  0.6396  0.4507
 7870SOL    HW135072   2.533   1.159   2.148  2.3778  0.2301 -0.3037
 7870SOL    HW235073   2.467   1.290   2.140 -0.6361 -1.1864  0.1190
 7871SOL     OW35074   0.267   4.278   7.528 -0.1085 -0.1668  0.1853
 7871SOL    HW135075   0.317   4.263   7.448 -1.5182 -1.2344 -0.5058
 7871SOL    HW235076   0.284   4.195   7.574 -2.7233 -2.3596 -2.7715
 7872SOL     OW35077   3.646   2.398   6.529 -0.0862  0.2150 -0.2561
 7872SOL    HW135078   3.664   2.334   6.460  0.8502 -0.7323  0.8644
 7872SOL    HW235079   3.693   2.475   6.497 -1.4832  0.8283 -0.8650
 7873SOL     OW35080   3.395   0.175  12.848 -0.3449  0.4373  0.5459
 7873SOL    HW135081   3.436   0.090  12.834 -1.9217 -0.3139  0.5090
 7873SOL    HW235082   3.430   0.197  12.935  2.8663  0.8827 -0.9003
 7874SOL     OW35083   4.229   0.797  11.697 -0.1321  0.0231  0.0598
 7874SOL    HW135084   4.269   0.748  11.769  0.4849 -0.3191 -0.5137
 7874SOL    HW235085   4.314   0.830  11.670  0.0756 -1.2697 -0.8995
 7875SOL     OW35086   2.510   3.272   2.731  0.5486  0.4514  0.5652
 7875SOL    HW135087   2.434   3.310   2.687  1.2128 -0.1112 -1.0840
 7875SOL    HW235088   2.570   3.266   2.656  0.8452 -0.6099  0.8896
 7876SOL     OW35089   3.125   4.049  11.474  0.0555 -0.2413  0.2433
 7876SOL    HW135090   3.084   4.104  11.541  0.6024  1.4789 -0.8243
 7876SOL    HW235091   3.197   4.010  11.523  0.6976  2.4007  1.4026
 7877SOL     OW35092   2.690   0.749   7.192  0.3899 -0.1437 -0.1931
 7877SOL    HW135093   2.611   0.796   7.218 -1.2533 -2.8340 -0.3340
 7877SOL    HW235094   2.729   0.729   7.277  0.5184  1.8054  0.2028
 7878SOL     OW35095   3.058   3.679   5.491  0.4444  0.1343  0.0903
 7878SOL    HW135096   3.106   3.690   5.409 -1.7344 -1.2480 -1.3691
 7878SOL    HW235097   2.996   3.612   5.464  2.6379 -2.7976  2.2691
 7879SOL     OW35098   4.633   0.091   0.165 -0.1958 -0.0614 -0.1872
 7879SOL    HW135099   4.558   0.103   0.224 -0.0067 -0.2723  0.0916
 7879SOL    HW235100   4.589   0.098   0.080  1.0884 -1.7557 -1.0079
 7880SOL     OW35101   4.378   4.458   5.351 -0.1506 -0.2069  0.3019
 7880SOL    HW135102   4.413   4.371   5.332  1.2511  0.5386 -0.4911
 7880SOL    HW235103   4.376   4.467   5.446 -0.3000 -1.4581  0.4291
 7881SOL     OW35104   4.722   4.364   7.871 -0.1677 -0.0379 -0.0499
 7881SOL    HW135105   4.720   4.436   7.808  1.5097 -2.9117 -3.4183
 7881SOL    HW235106   4.670   4.296   7.828  0.1528 -1.1229  1.2790
 7882SOL     OW35107   1.700   2.754   8.471 -0.2970 -0.2446  0.6321
 7882SOL    HW135108   1.690   2.725   8.380  0.5402 -0.4854  0.6110
 7882SOL    HW235109   1.792   2.738   8.493 -0.3378 -0.1774  0.8496
 7883SOL     OW35110   4.691   3.270  13.292  0.3383  0.0611  0.1864
 7883SOL    HW135111   0.024   3.323  13.348  2.1887 -0.5492 -1.1364
 7883SOL    HW235112   4.608   3.286  13.336 -0.3163  0.3264 -1.1627
 7884SOL     OW35113   0.306   1.019   8.884  0.5417 -0.1662 -0.0731
 7884SOL    HW135114   0.244   1.006   8.813 -1.2905  2.1311  1.0825
 7884SOL    HW235115   0.346   0.933   8.878 -2.0052 -1.3840  0.2076
 7885SOL     OW35116   1.580   0.877   2.323  0.3649 -0.2449 -0.7147
 7885SOL    HW135117   1.567   0.860   2.230 -0.7068  0.8478 -0.7654
 7885SOL    HW235118   1.660   0.929   2.316  0.0265  0.3853  0.1116
 7886SOL     OW35119   1.368   0.989   7.167  0.3230 -0.3913  0.7210
 7886SOL    HW135120   1.305   1.011   7.237  0.1309 -2.8632  1.3112
 7886SOL    HW235121   1.378   1.073   7.122  0.3448 -2.1132 -2.4730
 7887SOL     OW35122   2.948   4.408   5.894  0.1020 -0.5628 -0.0383
 7887SOL    HW135123   2.929   4.429   5.985  2.1555  0.1379  0.2183
 7887SOL    HW235124   2.871   4.424   5.839 -1.7111  0.7140  2.9004
 7888SOL     OW35125   1.721   0.364   5.812  0.5620  0.6104 -0.4154
 7888SOL    HW135126   1.736   0.366   5.718 -0.0665 -2.1552 -0.5839
 7888SOL    HW235127   1.637   0.409   5.817  0.3704  0.2728 -0.6358
 7889SOL     OW35128   0.583   3.117   6.909  0.1572  0.4220 -0.0338
 7889SOL    HW135129   0.568   3.024   6.891  1.0986  0.0932  0.8754
 7889SOL    HW235130   0.511   3.138   6.967  0.2507 -1.2353  0.7120
 7890SOL     OW35131   1.305   3.860   2.592 -0.3478  0.0979 -0.2844
 7890SOL    HW135132   1.290   3.863   2.686 -0.9261  0.8938 -0.4086
 7890SOL    HW235133   1.397   3.835   2.582  0.0651  0.3891  3.1081
 7891SOL     OW35134   3.262   2.897   0.380  0.1397  0.3510  0.0585
 7891SOL    HW135135   3.183   2.895   0.435 -2.2689 -1.0030 -3.4320
 7891SOL    HW235136   3.259   2.812   0.338 -0.5447 -0.1247  1.0630
 7892SOL     OW35137   3.825   0.762   3.408  0.9413 -0.0560  0.1269
 7892SOL    HW135138   3.882   0.835   3.431  2.0405 -1.2438  1.1749
 7892SOL    HW235139   3.741   0.806   3.394 -0.2659 -2.2572  0.2618
 7893SOL     OW35140   1.806   2.846  17.633  0.3826 -0.5486  0.3925
 7893SOL    HW135141   1.831   2.824   0.024  0.0771 -0.5106  0.4878
 7893SOL    HW235142   1.891   2.849  17.589 -1.0722 -1.0436 -2.4839
 7894SOL     OW35143   1.312   3.727   8.689 -0.3180 -0.0894  0.3110
 7894SOL    HW135144   1.335   3.798   8.750  2.2085 -1.8431  1.3959
 7894SOL    HW235145   1.249   3.686   8.748 -0.6710 -0.2253 -0.1640
 7895SOL     OW35146   3.662   4.695   5.949  0.4494 -0.1134  0.0802
 7895SOL    HW135147   3.707   4.615   5.977 -0.3469 -0.6936 -0.2980
 7895SOL    HW235148   3.707   0.031   6.008  0.8422  0.8379 -1.1834
 7896SOL     OW35149   1.285   2.935   2.093  0.2822  0.1980  0.0054
 7896SOL    HW135150   1.196   2.936   2.127  0.5975 -1.2632  0.8592
 7896SOL    HW235151   1.265   2.930   1.999  0.3322  0.4469 -0.0183
 7897SOL     OW35152   2.251   3.373  16.061  0.7270 -0.1839 -0.4167
 7897SOL    HW135153   2.280   3.452  16.106 -0.0823 -0.4527  0.5907
 7897SOL    HW235154   2.217   3.405  15.978  2.5520  0.4690 -0.9055
 7898SOL     OW35155   2.067   3.245   4.243  0.4536 -0.5794  0.3574
 7898SOL    HW135156   1.973   3.252   4.228  0.8234 -2.8103 -2.9875
 7898SOL    HW235157   2.060   3.229   4.337 -0.6706 -0.2568  0.3332
 7899SOL     OW35158   3.390   0.070   5.177  0.2687 -0.1063 -0.3203
 7899SOL    HW135159   3.427   0.026   5.254 -3.9793 -3.1765 -0.0403
 7899SOL    HW235160   3.412   0.002   5.113 -0.6986  0.3715 -1.1656
 7900SOL     OW35161   1.496   4.488   1.586  0.4244  0.1165 -0.2144
 7900SOL    HW135162   1.473   4.573   1.622 -1.8662 -1.1102  1.2294
 7900SOL    HW235163   1.502   4.437   1.667 -1.6022 -0.5183 -0.4653
 7901SOL     OW35164   3.394   2.194  14.472  0.4638 -0.1287  0.0039
 7901SOL    HW135165   3.457   2.236  14.413  1.5658  0.4830  1.6114
 7901SOL    HW235166   3.452   2.174  14.545  1.1293  0.4343 -0.3697
 7902SOL     OW35167   0.259   4.348  14.182  0.8831 -0.3777  0.6366
 7902SOL    HW135168   0.314   4.382  14.112  1.1647 -1.8872  0.1350
 7902SOL    HW235169   0.294   4.398  14.256  0.1387  1.1451 -0.0276
 7903SOL     OW35170   3.796   2.684   2.771 -0.4056 -0.6023 -0.2025
 7903SOL    HW135171   3.845   2.705   2.850  3.4660 -0.1105 -2.7237
 7903SOL    HW235172   3.813   2.590   2.764  0.8906 -0.2486 -1.7631
 7904SOL     OW35173   0.952   4.423   4.487 -0.2072  0.4954 -0.9705
 7904SOL    HW135174   0.930   4.485   4.418  0.3485  1.7391 -0.0231
 7904SOL    HW235175   1.017   4.474   4.535  0.0721 -0.7310 -0.0459
 7905SOL     OW35176   2.422   3.247   5.702  0.2225 -0.3140  0.1234
 7905SOL    HW135177   2.387   3.272   5.617 -1.2633  1.2048  1.2027
 7905SOL    HW235178   2.338   3.220   5.739 -0.3799  1.8438  0.2948
 7906SOL     OW35179   2.138   1.490   9.076 -0.0943  0.1521 -0.4686
 7906SOL    HW135180   2.210   1.495   9.139  1.0266 -0.0986 -1.7218
 7906SOL    HW235181   2.162   1.407   9.036  2.5169  1.2802 -1.2764
 7907SOL     OW35182   0.881   3.215   9.460 -0.2921 -0.2131  0.2216
 7907SOL    HW135183   0.970   3.217   9.495 -0.0996  1.4924 -0.3810
 7907SOL    HW235184   0.901   3.177   9.375  0.4042 -0.3895  0.4631
 7908SOL     OW35185   3.080   2.258   2.853  0.5076  0.1316 -0.4907
 7908SOL    HW135186   3.069   2.205   2.931 -0.0388 -0.0808 -0.7121
 7908SOL    HW235187   3.124   2.335   2.889  2.8650 -1.2098 -0.4937
 7909SOL     OW35188   0.458   1.971   5.933  0.4203 -0.6876  0.4400
 7909SOL    HW135189   0.508   2.041   5.891 -1.2873 -0.2276 -0.8124
 7909SOL    HW235190   0.518   1.898   5.917 -0.5989 -1.5714  0.6669
 7910SOL     OW35191   4.156   2.811   6.457  0.2630  0.1558  0.3978
 7910SOL    HW135192   4.089   2.878   6.465 -2.2465 -2.4421  1.0767
 7910SOL    HW235193   4.218   2.853   6.397  0.2828 -1.2618 -0.5845
 7911SOL     OW35194   3.537   3.839   1.715 -0.1959 -0.0803  0.1765
 7911SOL    HW135195   3.493   3.805   1.792 -0.9105 -0.4573 -0.3928
 7911SOL    HW235196   3.594   3.906   1.752  0.2528  0.7154 -1.9647
 7912SOL     OW35197   4.367   2.305   7.963  0.2299 -0.3719 -0.2085
 7912SOL    HW135198   4.335   2.251   8.035  1.4808 -1.0497 -0.1495
 7912SOL    HW235199   4.403   2.382   8.008  0.1634  1.3322 -3.0911
 7913SOL     OW35200   0.727   3.330   6.010 -0.2210  0.3160  0.7879
 7913SOL    HW135201   0.641   3.302   6.043 -0.6185 -1.3799 -1.6181
 7913SOL    HW235202   0.728   3.425   5.999 -0.3251  0.0158 -1.9542
 7914SOL     OW35203   3.891   3.728   2.558  0.6656 -0.3214 -0.6220
 7914SOL    HW135204   3.829   3.668   2.517  0.2794 -1.2030  1.2464
 7914SOL    HW235205   3.940   3.758   2.482  3.4044 -2.1875  0.4442
 7915SOL     OW35206   3.288   1.263   4.562 -0.2754 -0.1995 -0.0564
 7915SOL    HW135207   3.312   1.319   4.637  0.3928  1.5292 -1.5752
 7915SOL    HW235208   3.279   1.172   4.592 -2.7643  0.3541  0.8683
 7916SOL     OW35209   2.526   3.709   2.428 -0.0463  0.3792 -0.6251
 7916SOL    HW135210   2.529   3.616   2.407  0.0218  0.4373 -0.8687
 7916SOL    HW235211   2.501   3.756   2.348 -0.0071  0.6092 -0.5033
 7917SOL     OW35212   2.678   4.144   8.120 -0.1739  0.2783  1.0206
 7917SOL    HW135213   2.712   4.059   8.149 -1.5390 -0.2700  0.9874
 7917SOL    HW235214   2.589   4.139   8.154 -0.5125  1.0069  0.2315
 7918SOL     OW35215   3.916   2.923   5.162  0.1301  0.0528  0.2268
 7918SOL    HW135216   3.864   2.842   5.156 -1.6214  1.1338  0.7558
 7918SOL    HW235217   3.882   2.959   5.244  0.7517 -1.0616  0.9696
 7919SOL     OW35218   3.903   2.418   2.081  0.6371  0.2162  0.1559
 7919SOL    HW135219   3.943   2.382   2.160 -0.1897  0.9921  0.9337
 7919SOL    HW235220   3.873   2.503   2.114 -1.6975 -0.4076 -0.3676
 7920SOL     OW35221   0.325   1.655   4.039 -0.0048  0.3694 -0.3037
 7920SOL    HW135222   0.385   1.606   3.983 -0.5422 -1.4880  0.7489
 7920SOL    HW235223   0.301   1.726   3.979 -1.3393 -1.3049 -1.7471
 7921SOL     OW35224   4.317   1.932   6.937 -0.5654  0.1147  0.4322
 7921SOL    HW135225   4.283   1.856   6.890  2.2502  0.9010 -2.8824
 7921SOL    HW235226   4.391   1.895   6.984 -0.0354  2.1647  1.2135
 7922SOL     OW35227   4.325   4.488   6.874  0.3498  0.5185  0.5176
 7922SOL    HW135228   4.304   4.395   6.875  1.2780  0.3231  1.1404
 7922SOL    HW235229   4.285   4.520   6.792 -0.1791  3.0484  1.7454
 7923SOL     OW35230   2.461   1.920   2.859 -0.3763 -0.2123  0.2375
 7923SOL    HW135231   2.372   1.946   2.880  0.0851  1.4273  0.1674
 7923SOL    HW235232   2.452   1.891   2.768  0.6264 -0.3938  0.1942
 7924SOL     OW35233   0.677   2.711   9.874 -0.1857  0.3098  0.1263
 7924SOL    HW135234   0.713   2.781   9.820 -0.9420  0.4035 -0.2546
 7924SOL    HW235235   0.645   2.645   9.813  0.3798 -1.1392  1.3683
 7925SOL     OW35236   3.074   3.602   8.840 -0.0724  0.5588  0.4614
 7925SOL    HW135237   3.160   3.633   8.868  0.6554  1.0180 -2.2736
 7925SOL    HW235238   3.063   3.544   8.916 -0.6307  1.5693  1.1374
 7926SOL     OW35239   3.257   2.967   2.596 -0.0960 -0.0488  0.6719
 7926SOL    HW135240   3.326   2.902   2.608 -0.3011 -0.4096 -0.0908
 7926SOL    HW235241   3.212   2.962   2.680 -2.6958 -0.5404 -0.7339
 7927SOL     OW35242   1.932   3.269   1.913 -0.3285 -1.2546  0.4774
 7927SOL    HW135243   1.851   3.219   1.922 -1.4817  0.2384 -1.7251
 7927SOL    HW235244   1.925   3.320   1.994  0.5558  0.5237 -0.5551
 7928SOL     OW35245   3.242   0.336   7.245  0.2415  0.2544 -0.6276
 7928SOL    HW135246   3.168   0.389   7.275  2.3701  2.8731  0.0341
 7928SOL    HW235247   3.203   0.249   7.240  0.8680 -0.0980  0.8553
 7929SOL     OW35248   0.945   0.281   3.240  0.1678 -0.5353 -0.2714
 7929SOL    HW135249   0.951   0.289   3.335 -0.5558 -0.9308 -0.1935
 7929SOL    HW235250   0.898   0.361   3.215 -1.1943 -1.0606  0.5989
 7930SOL     OW35251   0.842   0.660  11.287 -0.4927 -0.2158 -0.1108
 7930SOL    HW135252   0.828   0.645  11.380 -0.0407 -2.0371 -0.3296
 7930SOL    HW235253   0.882   0.574  11.273 -1.5506 -0.7288  0.0461
 7931SOL     OW35254   3.402   1.135   3.399 -0.1453  0.0396 -0.3635
 7931SOL    HW135255   3.482   1.160   3.445  0.0284 -1.0728 -0.0660
 7931SOL    HW235256   3.339   1.202   3.424  0.4580 -0.1649  1.6654
 7932SOL     OW35257   2.422   4.233   2.504 -0.8315 -0.1423  0.0785
 7932SOL    HW135258   2.511   4.200   2.496 -0.8029  0.3264 -1.6418
 7932SOL    HW235259   2.404   4.285   2.426 -1.3010 -0.3163  0.0648
 7933SOL     OW35260   4.135   2.429   1.238 -0.4059 -0.0458  0.3546
 7933SOL    HW135261   4.160   2.342   1.268  0.7936  0.0460 -0.3636
 7933SOL    HW235262   4.222   2.467   1.252 -0.4182 -0.3644  1.3195
 7934SOL     OW35263   2.028   4.576   0.440 -0.1761  0.1874 -0.2400
 7934SOL    HW135264   2.110   4.625   0.436 -1.4842  2.4312  0.3920
 7934SOL    HW235265   2.010   4.562   0.348 -0.0486 -1.5706  0.0072
 7935SOL     OW35266   3.689   4.349   6.549  0.4231  0.2058  0.2183
 7935SOL    HW135267   3.656   4.434   6.580 -2.9140 -1.5221  1.4189
 7935SOL    HW235268   3.659   4.292   6.620  0.4395  1.5819  1.3196
 7936SOL     OW35269   0.736   0.788   7.798 -0.1921 -0.0441  0.0855
 7936SOL    HW135270   0.744   0.883   7.815 -1.0281 -0.2770  1.8224
 7936SOL    HW235271   0.672   0.789   7.727 -1.7383  1.1865  1.4948
 7937SOL     OW35272   0.787   0.643  11.577  0.1750 -0.1558 -0.0452
 7937SOL    HW135273   0.877   0.676  11.574  0.4980 -1.3060 -2.9907
 7937SOL    HW235274   0.782   0.602  11.663  2.1473 -0.0343  0.1138
 7938SOL     OW35275   0.298   1.457   5.715  0.2293 -0.1190 -0.5570
 7938SOL    HW135276   0.294   1.396   5.641 -0.0918  0.4926 -1.0439
 7938SOL    HW235277   0.204   1.467   5.726  0.2507  0.4211 -0.8582
 7939SOL     OW35278   4.303   1.636   7.023 -0.2698 -0.0600 -0.4266
 7939SOL    HW135279   4.302   1.550   6.980 -0.0631 -0.2738 -0.0033
 7939SOL    HW235280   4.212   1.638   7.052 -0.0190 -2.2698  0.5110
 7940SOL     OW35281   4.025   4.123  15.218 -0.2597  0.1347  0.5403
 7940SOL    HW135282   4.021   4.091  15.128  0.9372 -0.3296  0.6478
 7940SOL    HW235283   4.080   4.200  15.201 -0.4753  0.0121 -0.7507
 7941SOL     OW35284   2.783   3.705  12.955 -0.2661  0.4662  0.0213
 7941SOL    HW135285   2.811   3.766  13.023 -0.1268 -1.2301  1.4704
 7941SOL    HW235286   2.817   3.622  12.986  2.4094  2.4285  2.3042
 7942SOL     OW35287   0.479   3.497  13.081  0.4482 -0.4942  0.4191
 7942SOL    HW135288   0.466   3.591  13.072 -1.2280 -0.6734  0.9171
 7942SOL    HW235289   0.413   3.459  13.022  3.8747 -0.6086 -3.2812
 7943SOL     OW35290   0.025   0.353   5.521  0.2552 -0.2322 -0.1068
 7943SOL    HW135291   0.054   0.378   5.433 -0.7397  1.3554  0.0246
 7943SOL    HW235292   0.069   0.268   5.530  1.4229  0.4799  0.8709
 7944SOL     OW35293   2.367   4.151   6.182 -0.2015  0.0516 -0.1132
 7944SOL    HW135294   2.455   4.128   6.213  0.9262  1.6471 -2.0927
 7944SOL    HW235295   2.339   4.193   6.263 -0.9704 -0.2909 -0.2020
 7945SOL     OW35296   2.490   1.807   3.115 -0.0351  0.3692 -0.5177
 7945SOL    HW135297   2.483   1.847   3.029 -0.7608  0.9690 -0.1709
 7945SOL    HW235298   2.440   1.865   3.172  0.6911  0.4511  0.0394
 7946SOL     OW35299   1.783   2.119   2.486  0.0954  0.8646  0.7541
 7946SOL    HW135300   1.703   2.161   2.454  0.5221  0.8895 -0.3074
 7946SOL    HW235301   1.773   2.132   2.580  0.2199 -2.1108  1.1692
 7947SOL     OW35302   3.390   1.416   4.813 -0.6644  0.1655 -0.3573
 7947SOL    HW135303   3.434   1.491   4.852 -0.4952  0.1307 -0.4808
 7947SOL    HW235304   3.458   1.348   4.821  0.1256  0.9030 -0.8277
 7948SOL     OW35305   4.664   0.513   7.637 -0.3533  0.1145  0.0208
 7948SOL    HW135306   4.596   0.578   7.619 -0.0709  0.5932  0.7149
 7948SOL    HW235307   4.640   0.450   7.569  0.7404 -1.0447  0.7197
 7949SOL     OW35308   1.848   0.677   8.266  0.0753 -0.1559  0.0626
 7949SOL    HW135309   1.857   0.746   8.331 -0.5997 -1.0160  1.0683
 7949SOL    HW235310   1.821   0.601   8.317  0.1463 -1.2203 -1.4616
 7950SOL     OW35311   2.467   3.067   6.447  0.3088  0.6130  0.1515
 7950SOL    HW135312   2.411   3.137   6.413 -2.6864 -1.8045  0.0859
 7950SOL    HW235313   2.548   3.118   6.456  2.2284 -2.3576 -0.3577
 7951SOL     OW35314   4.429   2.077  17.475 -0.0071  0.1738  0.2786
 7951SOL    HW135315   4.433   2.172  17.460 -1.8289  0.3454  0.9219
 7951SOL    HW235316   4.445   2.079  17.569 -1.8441  1.3162  0.5753
 7952SOL     OW35317   4.293   0.058   4.406  0.3487 -0.2013  0.5391
 7952SOL    HW135318   4.280   0.000   4.482  0.1559  0.4154  0.9785
 7952SOL    HW235319   4.315   0.005   4.330  2.8506  0.7389  0.6262
 7953SOL     OW35320   3.916   1.735   1.684  0.3095  0.6000 -0.3932
 7953SOL    HW135321   3.885   1.694   1.604 -1.1432  2.1046 -0.5882
 7953SOL    HW235322   3.841   1.795   1.687 -1.6760 -1.9421  0.4036
 7954SOL     OW35323   2.418   3.012   2.416  0.0240 -0.3689  0.0708
 7954SOL    HW135324   2.334   3.052   2.439 -1.0414 -2.4145 -0.2706
 7954SOL    HW235325   2.444   2.984   2.504  3.7281  0.9529 -0.6033
 7955SOL     OW35326   2.807   2.489   0.612 -0.2991  0.3965 -0.4408
 7955SOL    HW135327   2.781   2.575   0.580 -1.1687  0.7619  1.2121
 7955SOL    HW235328   2.725   2.461   0.652 -0.9885 -1.0907 -2.9215
 7956SOL     OW35329   3.674   0.651   8.202 -0.0025  0.3024  0.0907
 7956SOL    HW135330   3.674   0.691   8.289  0.7402 -1.5339  0.9465
 7956SOL    HW235331   3.706   0.725   8.150 -0.8708 -0.3455 -1.3560
 7957SOL     OW35332   2.275   3.325   3.571  0.7535 -0.6637 -0.2551
 7957SOL    HW135333   2.301   3.233   3.576  0.6438 -0.8241 -3.0231
 7957SOL    HW235334   2.191   3.315   3.616  1.6364 -1.5949  1.2045
 7958SOL     OW35335   4.382   0.459   5.212 -0.6279 -0.5597 -0.6909
 7958SOL    HW135336   4.363   0.553   5.216 -1.6021 -0.8225  1.1288
 7958SOL    HW235337   4.421   0.452   5.299  1.5003  0.8427 -1.5466
 7959SOL     OW35338   0.479   4.327   4.994  0.0598 -0.4430 -0.3702
 7959SOL    HW135339   0.542   4.256   4.981  0.9837  0.1190  1.0761
 7959SOL    HW235340   0.460   4.346   4.903  2.2850  1.1665 -0.4861
 7960SOL     OW35341   0.948   0.494   6.199  0.4250  0.0237  0.7353
 7960SOL    HW135342   1.042   0.506   6.185  0.1872  2.4205  1.0997
 7960SOL    HW235343   0.917   0.489   6.108 -0.0950  0.5146  0.8805
 7961SOL     OW35344   2.447   0.608   1.566  0.2644  0.0388 -0.7877
 7961SOL    HW135345   2.370   0.552   1.561  0.5322 -0.4653  0.6544
 7961SOL    HW235346   2.501   0.573   1.496  2.4700  1.6922  0.0605
 7962SOL     OW35347   1.302   1.485   2.344  0.2374 -0.0841  0.1204
 7962SOL    HW135348   1.210   1.511   2.345 -0.3490 -2.1672  0.8101
 7962SOL    HW235349   1.291   1.395   2.374  0.7161 -0.6757 -1.4837
 7963SOL     OW35350   4.564   3.863  11.988  0.0185 -0.5228 -0.2427
 7963SOL    HW135351   4.475   3.872  11.955  0.6846 -0.9894 -2.1845
 7963SOL    HW235352   4.601   3.946  11.958 -1.4189 -0.7680 -2.6641
 7964SOL     OW35353   2.173   4.358  12.712  0.0210 -0.3029  0.0270
 7964SOL    HW135354   2.124   4.424  12.662  2.0704  0.5328 -0.8662
 7964SOL    HW235355   2.245   4.336  12.653  0.3023  1.7740 -0.3939
 7965SOL     OW35356   0.156   3.241   3.455 -0.2922 -0.2821 -0.2759
 7965SOL    HW135357   0.137   3.334   3.444  0.1456 -0.1277  0.2446
 7965SOL    HW235358   0.250   3.254   3.441 -0.0319 -2.6481 -0.7119
 7966SOL     OW35359   2.053   3.077  12.759 -0.0469 -0.3171  0.5016
 7966SOL    HW135360   2.121   3.144  12.760 -0.6886  0.2944  2.5927
 7966SOL    HW235361   1.987   3.121  12.705 -0.6066 -0.6995  0.8801
 7967SOL     OW35362   2.371   2.391   8.233  0.5423 -0.3459 -0.3989
 7967SOL    HW135363   2.384   2.435   8.317  1.3428 -0.5910 -0.3967
 7967SOL    HW235364   2.279   2.365   8.233  0.4301  0.0194  1.3339
 7968SOL     OW35365   1.311   3.672   8.426 -0.2348 -0.1578  0.0744
 7968SOL    HW135366   1.312   3.691   8.520 -0.4263 -0.9100  0.2337
 7968SOL    HW235367   1.313   3.763   8.399 -2.1174 -0.9922 -2.7973
 7969SOL     OW35368   0.272   3.168  16.564  0.7378 -0.4154  0.3878
 7969SOL    HW135369   0.366   3.163  16.545  0.9285 -1.4779  1.5956
 7969SOL    HW235370   0.281   3.240  16.627 -2.3292 -0.7849  1.2734
 7970SOL     OW35371   1.430   3.477   3.129  0.2448 -0.4901 -0.2921
 7970SOL    HW135372   1.408   3.394   3.171  1.4969 -0.0174  1.3105
 7970SOL    HW235373   1.487   3.440   3.061  0.9871  0.1275 -0.0034
 7971SOL     OW35374   2.046   2.515   8.206 -0.4807 -0.1072 -0.4117
 7971SOL    HW135375   2.067   2.480   8.292  0.1021  1.8161  0.2149
 7971SOL    HW235376   2.090   2.600   8.206 -0.5425 -0.0747 -0.4685
 7972SOL     OW35377   2.829   0.621   8.089  0.0548  0.0049  0.4203
 7972SOL    HW135378   2.744   0.603   8.050  0.0759 -0.8359  0.7722
 7972SOL    HW235379   2.803   0.621   8.182 -2.1675  0.7610 -0.2004
 7973SOL     OW35380   4.539   4.155   3.628 -0.3170 -0.5318 -0.7870
 7973SOL    HW135381   4.511   4.063   3.627  2.5025 -1.3485 -1.9800
 7973SOL    HW235382   4.625   4.138   3.666 -1.0090 -0.0175  1.0179
 7974SOL     OW35383   1.991   3.862   2.678 -0.0644 -0.3181  0.3202
 7974SOL    HW135384   1.909   3.817   2.657 -0.5391  0.4466  0.5571
 7974SOL    HW235385   2.043   3.790   2.714 -0.8798 -2.3211 -2.4281
 7975SOL     OW35386   3.486   2.044   6.745  0.8310 -0.0068 -0.1877
 7975SOL    HW135387   3.395   2.014   6.751  0.5397  1.2669  1.6660
 7975SOL    HW235388   3.525   1.980   6.804  0.9462  1.3197  1.1643
 7976SOL     OW35389   3.540   2.059   2.567 -0.4053  0.5742  0.2561
 7976SOL    HW135390   3.474   2.035   2.502 -0.3919 -0.0406  0.4718
 7976SOL    HW235391   3.513   2.004   2.641 -0.4087  0.2434  0.0087
 7977SOL     OW35392   0.951   3.084   2.338  0.4103  0.0676 -0.5448
 7977SOL    HW135393   1.044   3.090   2.359  0.3513  0.1668 -0.3017
 7977SOL    HW235394   0.949   3.000   2.293  0.9063 -0.6896  0.8227
 7978SOL     OW35395   4.258   3.552  12.447 -0.3535 -0.0399  0.0109
 7978SOL    HW135396   4.304   3.535  12.365 -0.5098  0.2764 -0.1427
 7978SOL    HW235397   4.283   3.645  12.446 -0.0899 -0.0990  0.7182
 7979SOL     OW35398   2.077   3.706   4.615  0.7712  0.4463 -0.0750
 7979SOL    HW135399   2.030   3.757   4.681 -1.8580  0.4629 -1.9431
 7979SOL    HW235400   2.069   3.756   4.533 -2.6858 -1.3658 -0.8826
 7980SOL     OW35401   1.081   2.210   8.340  0.0537  0.4176  0.1330
 7980SOL    HW135402   1.037   2.192   8.423  0.1346 -2.7703 -0.5153
 7980SOL    HW235403   1.149   2.144   8.352  1.4157  2.0961  1.8024
 7981SOL     OW35404   1.705   3.067   4.971 -0.1761  0.4671  0.8796
 7981SOL    HW135405   1.627   3.028   4.931  0.1377 -0.6540  1.3826
 7981SOL    HW235406   1.676   3.060   5.062  0.8575 -3.0447  0.9412
 7982SOL     OW35407   1.237   4.307   3.241 -0.2718  0.5571  0.2355
 7982SOL    HW135408   1.155   4.281   3.284  1.4537 -3.3050  1.0973
 7982SOL    HW235409   1.196   4.352   3.167 -2.2215 -1.6545 -0.0445
 7983SOL     OW35410   3.637   1.085   3.079  0.3820 -0.2273  0.3012
 7983SOL    HW135411   3.597   1.019   3.136 -0.3918 -0.8657 -0.9778
 7983SOL    HW235412   3.724   1.048   3.061  0.5605  0.5318 -0.4208
 7984SOL     OW35413   3.353   3.032   4.875 -0.0362  0.0369  0.0221
 7984SOL    HW135414   3.443   3.039   4.907  0.2826  4.0307 -1.7528
 7984SOL    HW235415   3.344   3.123   4.847  1.8348  0.4193  0.6705
 7985SOL     OW35416   0.481   1.023   2.946  0.2201 -0.7409 -0.4409
 7985SOL    HW135417   0.430   1.103   2.962  1.1758 -0.4340  1.0517
 7985SOL    HW235418   0.555   1.078   2.921 -0.8270  1.4118  1.0836
 7986SOL     OW35419   3.627   3.276  13.854 -0.3586 -0.1139 -0.1745
 7986SOL    HW135420   3.711   3.230  13.860 -0.6241 -0.9060 -2.5336
 7986SOL    HW235421   3.567   3.224  13.908  1.1279 -0.4897  1.1037
 7987SOL     OW35422   4.162   2.837   4.639  0.0124  0.1916  0.7826
 7987SOL    HW135423   4.139   2.918   4.685 -0.6600 -0.4538  1.5974
 7987SOL    HW235424   4.076   2.823   4.597  0.1083  0.3959  0.5182
 7988SOL     OW35425   1.952   3.734   9.595  0.3017  0.3549 -0.0292
 7988SOL    HW135426   1.914   3.821   9.609  1.5603  0.9318 -0.3024
 7988SOL    HW235427   1.925   3.698   9.680  1.0638 -0.6382 -0.2075
 7989SOL     OW35428   2.679   2.720  16.151 -0.0792  0.5373  0.0833
 7989SOL    HW135429   2.651   2.811  16.157 -2.5685 -0.1147 -1.6191
 7989SOL    HW235430   2.724   2.726  16.067  1.2256  2.9443  0.9391
 7990SOL     OW35431   1.896   2.747  16.319 -0.7121  0.3013  0.4007
 7990SOL    HW135432   1.899   2.816  16.385  2.0225  0.6336 -0.0773
 7990SOL    HW235433   1.847   2.684  16.372 -0.5215 -0.3363 -0.1857
 7991SOL     OW35434   0.599   0.912   7.155  0.0302 -0.2665  0.4273
 7991SOL    HW135435   0.573   0.839   7.211 -2.3087 -0.7581 -1.3136
 7991SOL    HW235436   0.680   0.876   7.120 -0.5369 -1.4152  0.3066
 7992SOL     OW35437   4.066   2.171   4.855 -0.4830  0.4501 -0.7801
 7992SOL    HW135438   4.090   2.263   4.862  0.9402  0.0452 -0.2833
 7992SOL    HW235439   4.101   2.141   4.771  0.0873 -2.0153  0.3124
 7993SOL     OW35440   2.485   4.450   9.513  0.2816 -0.4224  0.1273
 7993SOL    HW135441   2.565   4.483   9.473 -0.7648 -0.0037 -1.5950
 7993SOL    HW235442   2.517   4.420   9.598  1.0265  0.5718  0.1972
 7994SOL     OW35443   4.286   4.382  13.008  0.0315 -0.4348  0.2939
 7994SOL    HW135444   4.283   4.384  12.913  0.0646  0.5086  0.3123
 7994SOL    HW235445   4.198   4.357  13.036 -1.1425  2.0575 -1.2056
 7995SOL     OW35446   3.321   3.654   1.397  0.3955 -0.6777 -0.3646
 7995SOL    HW135447   3.232   3.631   1.370 -0.5942 -0.1192  2.3694
 7995SOL    HW235448   3.313   3.718   1.468  0.4993 -0.8001 -0.2426
 7996SOL     OW35449   1.068   0.052   8.522  0.2083 -0.1858 -0.1425
 7996SOL    HW135450   1.017   4.699   8.499 -0.8517  0.3842  0.3033
 7996SOL    HW235451   1.051   0.116   8.453  0.0856  0.6609  0.6655
 7997SOL     OW35452   0.098   3.534   3.038 -0.2894  0.2930  0.2104
 7997SOL    HW135453   0.124   3.609   2.984 -0.6404 -0.0681 -0.4695
 7997SOL    HW235454   0.175   3.479   3.025 -1.5322 -1.3905 -0.0446
 7998SOL     OW35455   4.117   2.036  10.273  0.2326  0.7645  0.4405
 7998SOL    HW135456   4.207   2.007  10.256  0.2092  2.0187 -1.7827
 7998SOL    HW235457   4.083   2.015  10.186  0.4299  0.4555  0.4403
 7999SOL     OW35458   1.055   0.018   6.644 -0.4508  0.3996 -0.4787
 7999SOL    HW135459   1.050   4.690   6.564  0.2457 -0.0324 -0.2422
 7999SOL    HW235460   0.982   4.705   6.693  1.0475 -0.8905  0.7884
 8000SOL     OW35461   0.029   0.697   0.178 -0.2706  0.1745 -0.9427
 8000SOL    HW135462   0.022   0.694   0.082  0.7737 -1.2943 -0.9884
 8000SOL    HW235463   0.066   0.784   0.193  0.5214 -0.3498  0.1689
 8001SOL     OW35464   1.134   4.421   7.814  0.7337 -0.3267 -0.4879
 8001SOL    HW135465   1.052   4.441   7.769 -1.1227 -0.4455  2.8024
 8001SOL    HW235466   1.193   4.417   7.739  0.5341 -1.5737 -0.5748
 8002SOL     OW35467   3.219   2.104  17.643  0.1721 -0.0194 -0.4146
 8002SOL    HW135468   3.280   2.031  17.655  0.0820  0.2737  1.7533
 8002SOL    HW235469   3.130   2.070  17.653 -1.0079  2.8795 -1.1898
 8003SOL     OW35470   2.970   2.683   9.080  0.1183  0.0783 -0.2038
 8003SOL    HW135471   3.035   2.716   9.019 -0.2722  0.8167 -0.2274
 8003SOL    HW235472   3.018   2.656   9.158 -0.7300 -2.1874 -0.4792
 8004SOL     OW35473   3.137   4.478  12.511  0.4564 -0.3529  0.1692
 8004SOL    HW135474   3.218   4.520  12.539 -0.2448  0.6171  0.7241
 8004SOL    HW235475   3.100   4.444  12.592  1.1547 -0.8569  0.2740
 8005SOL     OW35476   2.654   1.571  15.771  0.8241 -0.0142 -0.0362
 8005SOL    HW135477   2.733   1.542  15.816  1.7117 -2.6613 -3.2184
 8005SOL    HW235478   2.583   1.547  15.831  1.6999 -2.4416  0.0163
 8006SOL     OW35479   3.574   0.163   9.063  0.9048 -0.1927  0.4078
 8006SOL    HW135480   3.659   0.119   9.061  0.7471 -0.3638 -1.9904
 8006SOL    HW235481   3.598   0.228   8.997 -0.5552  0.7604  0.8084
 8007SOL     OW35482   4.181   3.160   1.869  0.1860 -0.0830  0.1110
 8007SOL    HW135483   4.260   3.153   1.924  1.7060  1.6502 -1.8438
 8007SOL    HW235484   4.151   3.072   1.847  2.5635 -0.1963 -2.7286
 8008SOL     OW35485   0.859   0.007   9.621 -0.1602 -0.0346  0.0635
 8008SOL    HW135486   0.867   4.686   9.537 -0.1388  1.7265 -0.8917
 8008SOL    HW235487   0.782   4.679   9.645 -0.3246  0.0454 -0.2797
 8009SOL     OW35488   1.541   0.372   2.884  0.0049 -0.3282 -0.0382
 8009SOL    HW135489   1.607   0.439   2.868  0.4620 -1.3474 -2.4750
 8009SOL    HW235490   1.542   0.312   2.809 -1.3381 -0.9758  0.4541
 8010SOL     OW35491   0.769   4.094   2.207 -0.8354  0.1238 -0.1701
 8010SOL    HW135492   0.702   4.123   2.268  0.1351  0.1458  0.8976
 8010SOL    HW235493   0.829   4.045   2.265 -0.2171  3.6255  2.1153
 8011SOL     OW35494   0.636   4.395  11.195 -0.5897 -0.3218  0.6595
 8011SOL    HW135495   0.700   4.461  11.167 -2.0351  0.6882 -0.2166
 8011SOL    HW235496   0.655   4.327  11.130  1.7343 -0.4226  1.4476
 8012SOL     OW35497   3.938   1.138  11.731 -0.1164  0.2689  0.0791
 8012SOL    HW135498   3.976   1.057  11.697  1.7756  0.4874  1.6349
 8012SOL    HW235499   4.018   1.171  11.772 -0.0808  1.0792 -0.6626
 8013SOL     OW35500   0.271   2.357   2.588  0.0501 -0.1607 -0.3225
 8013SOL    HW135501   0.320   2.334   2.509 -2.8258 -3.0376 -1.2962
 8013SOL    HW235502   0.295   2.278   2.637 -0.2671  0.9460  1.6195
 8014SOL     OW35503   0.600   2.182  11.220 -0.0175 -0.0614 -0.0321
 8014SOL    HW135504   0.550   2.149  11.146 -1.0468  0.4817  0.4325
 8014SOL    HW235505   0.559   2.268  11.223 -0.6304 -0.3060 -1.1116
 8015SOL     OW35506   3.146   4.204  12.471  0.1189 -0.1698 -0.5419
 8015SOL    HW135507   3.135   4.296  12.446  1.6717  0.2949  0.4748
 8015SOL    HW235508   3.123   4.172  12.384  1.6261 -1.7055 -0.3740
 8016SOL     OW35509   4.501   2.912   4.926 -0.5564 -0.6033  0.6949
 8016SOL    HW135510   4.537   2.886   4.842 -0.4105  2.0843 -0.0399
 8016SOL    HW235511   4.420   2.958   4.904 -0.9005 -0.3028  2.5942
 8017SOL     OW35512   2.729   4.625   6.834  0.4214 -0.0239  0.0716
 8017SOL    HW135513   2.793   4.696   6.842 -0.0068  0.5251 -1.4194
 8017SOL    HW235514   2.774   4.573   6.766  2.5235  2.1946 -0.2357
 8018SOL     OW35515   0.167   2.190   8.028  0.0691  0.1779  0.2693
 8018SOL    HW135516   0.127   2.264   7.982  0.4128  1.4563  2.0266
 8018SOL    HW235517   0.260   2.212   8.018 -0.0934  0.6759 -0.1546
 8019SOL     OW35518   2.244   0.999   2.641  0.0069  0.1943 -0.2068
 8019SOL    HW135519   2.155   0.963   2.643 -0.0587  0.3104 -1.0686
 8019SOL    HW235520   2.305   0.926   2.655 -0.3482 -0.0319  0.1474
 8020SOL     OW35521   2.937   2.857   5.418 -0.0690  0.1213  0.4286
 8020SOL    HW135522   2.998   2.929   5.400  0.0765 -0.7147 -2.4042
 8020SOL    HW235523   2.905   2.884   5.504 -2.1353 -1.4472  0.1376
 8021SOL     OW35524   3.297   1.683  10.797  0.1069 -0.2885  0.0548
 8021SOL    HW135525   3.362   1.641  10.741  1.1510 -2.2193  2.7109
 8021SOL    HW235526   3.218   1.673  10.744  0.3575 -1.6585 -0.0741
 8022SOL     OW35527   2.573   4.047   2.829  0.0372 -0.2833 -0.5620
 8022SOL    HW135528   2.493   4.097   2.818  1.5156  2.1132 -0.5016
 8022SOL    HW235529   2.572   3.986   2.755 -0.2567 -0.8581 -0.0753
 8023SOL     OW35530   3.385   0.781   5.234 -0.6799 -0.2743  0.1091
 8023SOL    HW135531   3.345   0.716   5.291  1.4299 -0.2472  1.6227
 8023SOL    HW235532   3.431   0.722   5.174 -3.4498 -1.8034 -0.5083
 8024SOL     OW35533   1.320   4.237  16.740  0.3032 -0.1875 -0.3868
 8024SOL    HW135534   1.366   4.277  16.666  1.1570  1.3532  0.9814
 8024SOL    HW235535   1.361   4.151  16.746  0.7642 -0.0162 -1.0101
 8025SOL     OW35536   4.165   0.023   8.566 -0.0674  0.1637  0.1599
 8025SOL    HW135537   4.226   4.689   8.610  0.8480  0.0445 -1.2828
 8025SOL    HW235538   4.216   0.062   8.495  1.6046 -0.5408  0.9889
 8026SOL     OW35539   4.185   0.869  17.257  0.1556 -0.2610 -0.0212
 8026SOL    HW135540   4.241   0.837  17.186  0.3610  0.3194 -0.1258
 8026SOL    HW235541   4.159   0.956  17.228  5.0797  0.3255 -2.6488
 8027SOL     OW35542   2.255   3.090  11.472 -0.7646 -0.6645  0.5385
 8027SOL    HW135543   2.322   3.157  11.476 -2.7411  1.2230  2.2131
 8027SOL    HW235544   2.252   3.060  11.563  2.8542 -2.7521 -0.0387
 8028SOL     OW35545   1.702   4.662   2.160 -0.5620  0.4933 -0.0336
 8028SOL    HW135546   1.678   4.615   2.080 -0.1436  3.1276 -1.6750
 8028SOL    HW235547   1.767   4.598   2.190  0.3059  0.7581 -1.3689
 8029SOL     OW35548   1.713   1.411  13.326  0.7110 -0.5777  0.1451
 8029SOL    HW135549   1.650   1.472  13.287 -0.5401 -2.3348 -0.5800
 8029SOL    HW235550   1.662   1.331  13.317 -0.3493 -0.0295  1.1223
 8030SOL     OW35551   4.408   3.142   7.421 -0.0020 -0.0905  0.0872
 8030SOL    HW135552   4.437   3.058   7.456 -0.1141  0.9166  2.6459
 8030SOL    HW235553   4.427   3.141   7.328 -2.1296 -0.4259 -0.3481
 8031SOL     OW35554   1.675   0.333   5.518 -0.2982  0.1262 -0.1550
 8031SOL    HW135555   1.628   0.260   5.559  2.6041 -0.8359  1.4642
 8031SOL    HW235556   1.658   0.322   5.424 -1.0500  0.0256 -0.0070
 8032SOL     OW35557   0.053   0.687   8.681  0.4833  0.0153 -0.6172
 8032SOL    HW135558   0.012   0.603   8.659  1.2781 -0.5741  0.1915
 8032SOL    HW235559   0.126   0.662   8.737  0.6350  1.5808 -0.1283
 8033SOL     OW35560   0.199   0.808   3.806 -0.6915 -0.2481  0.2022
 8033SOL    HW135561   0.150   0.889   3.821 -0.4682 -0.2075  0.7117
 8033SOL    HW235562   0.168   0.782   3.719 -1.6711  2.8883 -0.3870
 8034SOL     OW35563   2.559   4.098  11.686 -0.0898  0.3617 -0.2162
 8034SOL    HW135564   2.530   4.116  11.775  0.3508  2.1943 -0.4511
 8034SOL    HW235565   2.474   4.088  11.643 -0.2050  0.7958 -0.0880
 8035SOL     OW35566   2.899   0.077   3.430 -0.5577  0.2019  0.8593
 8035SOL    HW135567   2.877   0.021   3.356  0.3813  1.2745 -0.2377
 8035SOL    HW235568   2.881   0.018   3.503 -2.8103 -0.7470 -0.4916
 8036SOL     OW35569   0.775   0.573   3.412 -1.0608 -0.3284  0.2209
 8036SOL    HW135570   0.711   0.510   3.445 -1.0327 -0.1522  0.6063
 8036SOL    HW235571   0.736   0.597   3.328 -0.2647 -0.6990 -0.2621
 8037SOL     OW35572   3.007   0.659   3.091  0.1073  0.1481 -0.1303
 8037SOL    HW135573   3.061   0.664   3.013 -0.3508 -1.3296 -0.5488
 8037SOL    HW235574   2.936   0.604   3.059  0.1314 -0.6222  1.1151
 8038SOL     OW35575   4.217   3.337   7.196  0.5563  0.0058  0.3913
 8038SOL    HW135576   4.154   3.355   7.266  0.5704 -0.4325  0.5163
 8038SOL    HW235577   4.261   3.421   7.186  1.9536 -0.9208 -1.4016
 8039SOL     OW35578   1.316   0.514   6.453 -1.0843  0.0199 -0.2360
 8039SOL    HW135579   1.319   0.581   6.384 -1.8942  1.4124  1.0850
 8039SOL    HW235580   1.236   0.464   6.434 -1.6710  0.9326 -0.1663
 8040SOL     OW35581   4.645   4.157   6.433  0.6754 -0.4703 -0.0845
 8040SOL    HW135582   4.685   4.072   6.452  0.0367 -0.6811  0.3303
 8040SOL    HW235583   4.590   4.172   6.510  0.8219 -1.1695  0.1576
 8041SOL     OW35584   0.240   1.905   3.943  0.1517 -0.1744 -0.1208
 8041SOL    HW135585   0.247   1.966   3.869 -0.0979  0.4891  0.4105
 8041SOL    HW235586   0.153   1.939   3.966  1.5077  3.0139  0.2581
 8042SOL     OW35587   3.396   4.162  14.646  0.3051  0.0027 -0.0751
 8042SOL    HW135588   3.346   4.234  14.683 -0.3212 -0.8008  0.6439
 8042SOL    HW235589   3.454   4.214  14.590  0.6856  1.1652  1.3940
 8043SOL     OW35590   1.257   0.627   3.258 -0.0320  0.3632 -0.3840
 8043SOL    HW135591   1.309   0.591   3.186  1.7024  1.0160  0.5449
 8043SOL    HW235592   1.220   0.708   3.223  0.2319  0.7669  0.2824
 8044SOL     OW35593   3.261   3.842   4.320 -0.5122  0.1279  0.5097
 8044SOL    HW135594   3.197   3.912   4.334  0.0637  0.5368  1.0866
 8044SOL    HW235595   3.323   3.858   4.391 -0.2541  0.3265  0.2418
 8045SOL     OW35596   1.951   2.127   3.065 -0.0621 -0.4504 -0.1889
 8045SOL    HW135597   1.975   2.168   3.148 -2.1728  1.7644 -0.6663
 8045SOL    HW235598   1.917   2.209   3.028 -0.9134 -0.5870  0.2794
 8046SOL     OW35599   1.952   3.277  13.378  0.1020  0.5951  0.0646
 8046SOL    HW135600   1.926   3.247  13.291 -1.4618  0.6254  0.5321
 8046SOL    HW235601   2.041   3.243  13.384 -0.8471 -1.5885  1.8722
 8047SOL     OW35602   2.389   2.794   7.054 -0.0622 -0.6171 -0.7787
 8047SOL    HW135603   2.314   2.850   7.033  1.3203  1.8866  1.0180
 8047SOL    HW235604   2.405   2.758   6.966  0.7153 -0.5464 -0.6669
 8048SOL     OW35605   0.421   3.281   8.792 -0.0735  0.1258  0.3917
 8048SOL    HW135606   0.466   3.265   8.708  0.0067 -1.0089  0.6543
 8048SOL    HW235607   0.449   3.362   8.833 -0.7450  1.0187 -0.9008
 8049SOL     OW35608   3.890   1.008   7.803 -0.5605 -0.3026  0.5853
 8049SOL    HW135609   3.985   1.019   7.800 -0.5450 -0.7920 -0.9031
 8049SOL    HW235610   3.865   0.942   7.868  2.0522 -0.0370  1.8588
 8050SOL     OW35611   0.749   4.694   6.607  0.5843  0.5848  0.8503
 8050SOL    HW135612   0.774   0.058   6.576  0.4528  0.0730 -0.7262
 8050SOL    HW235613   0.660   4.713   6.638  0.2582  0.4327  0.0076
 8051SOL     OW35614   1.168   0.016  11.188 -1.1150  0.1752 -0.9729
 8051SOL    HW135615   1.193   4.694  11.267 -0.5791  1.0159 -0.6515
 8051SOL    HW235616   1.192   4.674  11.123  2.7291 -0.5975  1.2590
 8052SOL     OW35617   3.630   1.100  11.747 -0.0138  0.1789  0.4128
 8052SOL    HW135618   3.679   1.033  11.699 -0.8542  0.8192 -1.3600
 8052SOL    HW235619   3.617   1.164  11.677 -1.6732  2.7034  3.0333
 8053SOL     OW35620   1.631   3.787   3.021  0.0005 -0.2960 -0.4030
 8053SOL    HW135621   1.541   3.755   3.015 -0.5318  1.3369 -1.2131
 8053SOL    HW235622   1.628   3.874   2.981 -1.8124  0.5799  1.6384
 8054SOL     OW35623   2.039   3.742   5.395  0.1704 -0.6000  0.3063
 8054SOL    HW135624   2.062   3.651   5.411  1.3191 -0.7560 -2.3094
 8054SOL    HW235625   2.008   3.770   5.481 -1.2852  0.5841 -0.6016
 8055SOL     OW35626   1.895   2.085  11.405  0.8153  0.4966  0.4315
 8055SOL    HW135627   1.889   1.997  11.369 -0.7147 -1.1776  4.8827
 8055SOL    HW235628   1.806   2.118  11.389  0.3568 -1.4116 -0.9270
 8056SOL     OW35629   1.644   2.547  11.466 -0.3371 -0.4609  0.1125
 8056SOL    HW135630   1.676   2.485  11.531 -0.6459  0.8198  1.4837
 8056SOL    HW235631   1.684   2.625  11.504 -0.7298  0.8965 -2.2565
 8057SOL     OW35632   2.589   4.008   8.794 -0.5011  0.1594  0.4257
 8057SOL    HW135633   2.574   4.101   8.812 -0.5581 -0.3292  3.0004
 8057SOL    HW235634   2.498   3.986   8.774 -0.5162 -0.7920  1.5086
 8058SOL     OW35635   4.618   0.159   6.086 -0.3819 -0.1062 -0.5398
 8058SOL    HW135636   4.634   0.151   6.180  2.9393 -2.4236 -1.3088
 8058SOL    HW235637   4.687   0.102   6.054 -0.6973 -1.2445  0.7980
 8059SOL     OW35638   0.308   4.614   9.378  0.0525  0.3029  0.2266
 8059SOL    HW135639   0.371   4.577   9.316  0.3536  2.0218 -0.4778
 8059SOL    HW235640   0.318   4.704   9.349  0.1062  0.5071  0.8655
 8060SOL     OW35641   2.591   4.313   7.417  0.0838 -0.1898  0.5683
 8060SOL    HW135642   2.642   4.291   7.494  2.1102 -1.5252 -1.1758
 8060SOL    HW235643   2.582   4.407   7.434 -1.6800 -0.2622  0.1039
 8061SOL     OW35644   3.775   3.602   6.905 -0.0187  0.0851  0.0246
 8061SOL    HW135645   3.819   3.550   6.838  1.7914  0.8243  0.6413
 8061SOL    HW235646   3.763   3.544   6.980  0.5831 -0.7943 -0.5603
 8062SOL     OW35647   2.957   3.339  13.581  0.6752 -0.2715 -0.1739
 8062SOL    HW135648   2.917   3.389  13.653  2.3443  1.2132 -0.2744
 8062SOL    HW235649   3.033   3.290  13.612  0.6994 -1.0606 -1.5017
 8063SOL     OW35650   3.649   0.848   5.548 -0.3091  0.1121 -0.1130
 8063SOL    HW135651   3.642   0.753   5.541 -0.6008  0.0128  1.6142
 8063SOL    HW235652   3.678   0.863   5.458  1.2348 -0.2357  0.3240
 8064SOL     OW35653   4.120   0.911   3.175  0.2154  0.9777  0.1951
 8064SOL    HW135654   4.134   0.860   3.255  1.1973 -0.7766 -1.1064
 8064SOL    HW235655   4.173   0.866   3.110 -2.3743 -0.2939 -1.0296
 8065SOL     OW35656   2.553   4.293   8.830  0.3697  0.7807 -0.4489
 8065SOL    HW135657   2.495   4.357   8.873 -1.0707 -1.9983  1.7686
 8065SOL    HW235658   2.633   4.318   8.877 -0.1731 -1.2200  1.5223
 8066SOL     OW35659   4.028   3.351   7.439 -0.0163 -0.0971 -0.0272
 8066SOL    HW135660   3.951   3.322   7.488 -0.0239  0.9465  0.5873
 8066SOL    HW235661   4.040   3.440   7.472  2.7403  0.4474 -2.5850
 8067SOL     OW35662   2.579   1.884   1.109  0.0970  0.2376 -0.7093
 8067SOL    HW135663   2.581   1.794   1.141 -1.2128  1.3674  2.6477
 8067SOL    HW235664   2.546   1.864   1.022 -1.4477 -0.5810  0.0643
 8068SOL     OW35665   4.179   2.230  10.921  0.1871 -0.3156  0.0836
 8068SOL    HW135666   4.120   2.304  10.938  0.5656  0.6128 -2.7034
 8068SOL    HW235667   4.218   2.227  11.008  1.9973  3.0117 -0.6175
 8069SOL     OW35668   2.737   2.839   8.530 -0.1326  0.2858  0.1116
 8069SOL    HW135669   2.796   2.914   8.539  1.6739 -1.2329  0.9880
 8069SOL    HW235670   2.758   2.797   8.614  0.9870 -0.7701 -0.7002
 8070SOL     OW35671   2.260   3.658   0.188  0.2201  0.3885  0.9664
 8070SOL    HW135672   2.315   3.735   0.197 -0.8925  1.1428  1.3815
 8070SOL    HW235673   2.274   3.647   0.094 -3.5439  0.5922  0.3890
 8071SOL     OW35674   1.601   2.738   2.661  0.2960 -0.1947  1.0411
 8071SOL    HW135675   1.534   2.743   2.730 -1.3179 -1.9217 -0.3883
 8071SOL    HW235676   1.603   2.643   2.655  1.8176 -0.0805 -0.2054
 8072SOL     OW35677   1.420   3.808   3.371  0.0615 -0.0889 -0.0808
 8072SOL    HW135678   1.328   3.831   3.373  0.6881  2.3977  0.6398
 8072SOL    HW235679   1.432   3.803   3.276  3.5136 -0.2060  0.3417
 8073SOL     OW35680   0.287   4.227   5.159 -0.0324 -0.3509 -0.1101
 8073SOL    HW135681   0.209   4.242   5.106  0.6078  1.5678 -0.5135
 8073SOL    HW235682   0.359   4.259   5.104  0.7750 -0.7976  0.6881
 8074SOL     OW35683   3.725   0.546   5.322  0.1128 -0.3403 -0.3809
 8074SOL    HW135684   3.726   0.463   5.370 -2.2000 -0.8525 -1.2564
 8074SOL    HW235685   3.817   0.566   5.304 -0.0251  0.0677 -0.6410
 8075SOL     OW35686   2.499   2.920  10.544  0.3877 -0.5979 -0.7651
 8075SOL    HW135687   2.493   2.825  10.535 -0.0911 -0.7512  1.0935
 8075SOL    HW235688   2.513   2.926  10.639  0.5360 -2.1776 -0.6873
 8076SOL     OW35689   0.906   4.292   6.208 -0.4698  0.3546  0.2619
 8076SOL    HW135690   0.915   4.336   6.124  1.2527  0.5908  0.5601
 8076SOL    HW235691   0.925   4.366   6.266 -0.9476  1.7087 -1.3108
 8077SOL     OW35692   0.202   2.935   4.020 -0.3243 -0.1780 -0.2121
 8077SOL    HW135693   0.276   2.883   3.990 -0.4127 -0.1847 -0.4192
 8077SOL    HW235694   0.125   2.878   4.017 -1.0121  0.5928  2.8576
 8078SOL     OW35695   1.514   2.499   2.573 -0.2289 -0.1492  0.1484
 8078SOL    HW135696   1.456   2.561   2.530 -0.1723 -0.6114 -0.5966
 8078SOL    HW235697   1.449   2.447   2.621 -0.1129 -0.7861 -0.3786
 8079SOL     OW35698   2.931   3.579   7.489 -0.7846 -0.6627 -0.0922
 8079SOL    HW135699   2.839   3.585   7.464 -0.3640  1.0204 -1.2345
 8079SOL    HW235700   2.922   3.571   7.584 -0.4483 -1.8888 -0.1525
 8080SOL     OW35701   1.747   1.308  10.060  0.5690  0.1982  0.1565
 8080SOL    HW135702   1.776   1.345   9.976  0.4361  1.5577  0.7160
 8080SOL    HW235703   1.678   1.369  10.086  0.2088 -0.4685  0.7864
 8081SOL     OW35704   0.885   3.626   5.467  0.4993 -0.6749  0.0737
 8081SOL    HW135705   0.883   3.587   5.379  0.6526  0.4449 -0.4176
 8081SOL    HW235706   0.846   3.709   5.439  3.3879  1.3926  2.2952
 8082SOL     OW35707   2.192   2.938   6.919  0.1602  0.2378 -0.2447
 8082SOL    HW135708   2.241   3.019   6.911 -0.6395  0.6137 -1.3238
 8082SOL    HW235709   2.149   2.924   6.835 -1.6606 -0.1483  0.7231
 8083SOL     OW35710   0.119   0.264  12.319 -0.5393 -0.0610  0.6503
 8083SOL    HW135711   0.039   0.299  12.358 -1.7938  0.6113 -2.5663
 8083SOL    HW235712   0.181   0.281  12.391  0.2302 -1.2827  0.2789
 8084SOL     OW35713   1.201   3.592   4.965 -0.4132  0.5743 -0.0770
 8084SOL    HW135714   1.274   3.636   5.008 -0.5061 -0.1632  0.8513
 8084SOL    HW235715   1.126   3.609   5.022  1.4058  0.2895  2.4272
 8085SOL     OW35716   3.913   0.999   1.708  0.0463  0.3128 -0.1850
 8085SOL    HW135717   3.884   0.965   1.792  2.5369 -2.3651 -0.4334
 8085SOL    HW235718   3.854   1.067   1.674 -2.2433 -0.8308  1.5226
 8086SOL     OW35719   2.234   0.280   9.375 -0.3257  0.0012 -0.2439
 8086SOL    HW135720   2.166   0.213   9.384  0.5142 -0.7282  0.6776
 8086SOL    HW235721   2.187   0.325   9.305 -1.6904  0.2888  0.8744
 8087SOL     OW35722   0.247   0.589  12.047  0.3087  0.0838 -0.3086
 8087SOL    HW135723   0.250   0.627  12.134  2.8573 -0.9624  0.0393
 8087SOL    HW235724   0.302   0.654  12.004  0.2876  0.1286 -0.2671
 8088SOL     OW35725   3.408   3.977   3.273 -0.1982  0.1028  0.4613
 8088SOL    HW135726   3.336   4.012   3.327 -0.5298 -0.2199  0.2283
 8088SOL    HW235727   3.359   3.918   3.216  1.0284  2.1924 -2.7187
 8089SOL     OW35728   1.140   3.171  14.858 -0.2073  1.0878 -0.3238
 8089SOL    HW135729   1.078   3.133  14.796  0.5976 -0.9344  0.0937
 8089SOL    HW235730   1.227   3.147  14.826 -0.2252 -2.8728  2.5708
 8090SOL     OW35731   4.674   1.812   7.809  0.2736 -0.5195 -0.0311
 8090SOL    HW135732   4.715   1.769   7.884  0.7023 -2.6478 -1.4923
 8090SOL    HW235733   4.589   1.839   7.844 -0.8624  0.4916 -3.5548
 8091SOL     OW35734   2.626   1.354  14.887  0.5634  0.7659  0.2749
 8091SOL    HW135735   2.541   1.398  14.887  0.2442  0.1563  0.9322
 8091SOL    HW235736   2.656   1.372  14.976  1.2085 -3.1404  0.8577
 8092SOL     OW35737   3.188   0.815  10.900  0.6139 -0.4084  0.1654
 8092SOL    HW135738   3.126   0.838  10.969  1.1997 -0.4836  0.7127
 8092SOL    HW235739   3.145   0.859  10.826  1.9470  1.8955  0.7685
 8093SOL     OW35740   3.048   2.225   1.711  0.2832 -0.0797  0.1198
 8093SOL    HW135741   3.095   2.230   1.794  1.1435  0.4533 -0.3906
 8093SOL    HW235742   2.988   2.299   1.703 -1.8456 -1.9376 -0.9407
 8094SOL     OW35743   0.889   0.083  11.242  0.2899  0.0842  0.2813
 8094SOL    HW135744   0.985   0.082  11.244  0.2964  0.7745  0.3050
 8094SOL    HW235745   0.872   0.128  11.325  0.9040 -1.1405  1.0860
 8095SOL     OW35746   4.040   0.954  16.336 -0.4957 -0.0065 -0.1784
 8095SOL    HW135747   4.039   1.000  16.419 -1.7111  0.0692 -0.2226
 8095SOL    HW235748   4.111   0.892  16.350 -0.3009 -0.4911 -3.2283
 8096SOL     OW35749   3.498   3.712   2.372  0.0150 -0.2893 -0.2765
 8096SOL    HW135750   3.495   3.701   2.277 -0.5921 -0.6892 -0.2088
 8096SOL    HW235751   3.478   3.805   2.383 -0.9284 -0.4654 -0.4873
 8097SOL     OW35752   1.117   4.493   6.485  0.3405 -0.2197 -0.1517
 8097SOL    HW135753   1.022   4.478   6.482  0.2876 -0.1235  1.0077
 8097SOL    HW235754   1.138   4.469   6.576  3.9248  1.5121 -0.5166
 8098SOL     OW35755   0.630   3.613  14.336 -0.1206  0.4519 -0.1562
 8098SOL    HW135756   0.672   3.672  14.399 -0.1076 -1.0286  1.2058
 8098SOL    HW235757   0.664   3.636  14.249 -0.2464  1.7835  0.1421
 8099SOL     OW35758   0.581   3.563   6.850  0.1488 -0.3299 -0.1022
 8099SOL    HW135759   0.625   3.641   6.816 -0.6527  0.5567  0.9148
 8099SOL    HW235760   0.638   3.552   6.926  0.4401 -2.2754 -0.6104
 8100SOL     OW35761   3.896   3.475   1.719  0.0113  0.3926 -0.5533
 8100SOL    HW135762   3.989   3.453   1.724 -0.3571 -1.4005 -1.4142
 8100SOL    HW235763   3.862   3.407   1.778 -1.6054  1.3250 -0.4075
 8101SOL     OW35764   2.831   0.274   5.875 -0.5701 -0.6020 -0.3557
 8101SOL    HW135765   2.782   0.337   5.928 -1.3957 -0.0278 -1.8276
 8101SOL    HW235766   2.758   0.228   5.835  0.3300 -0.9987 -1.5172
 8102SOL     OW35767   2.450   4.529  11.976 -0.7868 -0.5854 -0.5138
 8102SOL    HW135768   2.420   4.610  12.017  1.7331  0.1438 -0.1554
 8102SOL    HW235769   2.366   4.504  11.936 -1.1966 -1.0633  0.6343
 8103SOL     OW35770   0.806   0.038  14.514 -0.2808 -0.1179  0.3529
 8103SOL    HW135771   0.814   0.102  14.584  1.4220  0.0862 -0.0367
 8103SOL    HW235772   0.874   0.071  14.455 -1.9346 -0.3941 -1.7356
 8104SOL     OW35773   2.469   4.557   6.913 -0.2578 -0.1797  0.3715
 8104SOL    HW135774   2.444   4.648   6.930 -0.1650 -0.0509 -0.1769
 8104SOL    HW235775   2.558   4.562   6.877 -0.6821  0.3652 -0.6225
 8105SOL     OW35776   2.168   2.296   8.800  0.7879  0.4714  0.4436
 8105SOL    HW135777   2.102   2.365   8.813  0.3771  0.1037  0.2858
 8105SOL    HW235778   2.241   2.351   8.771  0.6457 -0.7122 -2.1318
 8106SOL     OW35779   4.037   4.093  15.910 -0.8740 -0.0749  0.2980
 8106SOL    HW135780   4.039   4.143  15.992 -0.0134 -0.5004  0.5348
 8106SOL    HW235781   3.943   4.081  15.897 -1.0249 -2.4515  3.5049
 8107SOL     OW35782   3.690   4.720  10.172 -0.5667 -0.4129  0.2979
 8107SOL    HW135783   3.726   4.631  10.166  3.5041  1.1899  0.6818
 8107SOL    HW235784   3.734   0.027  10.093 -1.5014 -1.0997 -0.5022
 8108SOL     OW35785   1.668   2.191  12.393 -0.2003  0.2687 -0.4436
 8108SOL    HW135786   1.737   2.210  12.330  2.5040 -1.3314  2.0614
 8108SOL    HW235787   1.591   2.191  12.335 -1.1582 -0.2671  0.8297
 8109SOL     OW35788   0.137   0.438   6.789 -0.3214  0.2645 -0.6354
 8109SOL    HW135789   0.151   0.343   6.788 -0.7774  0.1970 -0.5902
 8109SOL    HW235790   0.050   0.446   6.829  0.1576  1.8491  0.0710
 8110SOL     OW35791   0.247   1.507   4.509  0.6872  0.2408 -0.0632
 8110SOL    HW135792   0.228   1.426   4.557  2.3368 -0.4691 -0.5920
 8110SOL    HW235793   0.293   1.555   4.578  1.1929  2.3089 -1.8393
 8111SOL     OW35794   3.990   4.049  14.507  0.0084  1.1144  0.0380
 8111SOL    HW135795   3.918   4.051  14.444 -0.6563 -1.3294  0.6946
 8111SOL    HW235796   3.941   4.059  14.588  0.1913  0.1840  0.2711
 8112SOL     OW35797   1.799   0.843   3.501 -0.1264  0.0556 -0.1386
 8112SOL    HW135798   1.870   0.907   3.506  1.2682 -1.5311  0.4192
 8112SOL    HW235799   1.727   0.891   3.543  0.9268 -1.1333  3.0416
 8113SOL     OW35800   0.885   1.116  13.761 -0.4008  0.0891  0.0248
 8113SOL    HW135801   0.823   1.088  13.828 -0.4456 -1.9985 -0.8765
 8113SOL    HW235802   0.833   1.108  13.681  1.5408 -0.6948 -1.1522
 8114SOL     OW35803   1.521   4.028   9.984  0.8496  0.0889  0.5028
 8114SOL    HW135804   1.542   3.997   9.896 -2.2382  1.2778 -0.6592
 8114SOL    HW235805   1.577   3.967  10.031 -0.4724 -1.2225  0.3701
 8115SOL     OW35806   3.254   3.381   3.100 -0.1509 -0.3761 -0.1528
 8115SOL    HW135807   3.181   3.421   3.053 -0.3812  0.1236  0.6312
 8115SOL    HW235808   3.276   3.312   3.037  1.0218  0.3217 -0.5079
 8116SOL     OW35809   3.198   3.177   1.270  0.5964 -0.5346  0.3807
 8116SOL    HW135810   3.124   3.237   1.275  1.3601  0.4665 -0.3955
 8116SOL    HW235811   3.266   3.243   1.284  0.7153 -0.6041  0.1377
 8117SOL     OW35812   2.450   0.919   3.530 -0.4075  0.9468  0.5939
 8117SOL    HW135813   2.412   0.887   3.612 -1.4154 -0.2677 -0.3559
 8117SOL    HW235814   2.383   0.980   3.497  0.5891  1.8376  0.2178
 8118SOL     OW35815   4.392   3.585   7.163 -0.3056  0.0300  0.4915
 8118SOL    HW135816   4.471   3.549   7.204 -0.4205  2.1201  2.5375
 8118SOL    HW235817   4.432   3.671   7.151  0.9551 -0.5974  0.2010
 8119SOL     OW35818   1.085   3.664   9.733  0.1191  0.1436 -0.1205
 8119SOL    HW135819   1.089   3.755   9.702 -0.0592 -0.0968 -0.8639
 8119SOL    HW235820   1.005   3.636   9.688 -0.5194  0.6637  0.6937
 8120SOL     OW35821   2.770   1.670  10.624  0.3759 -0.1016 -0.5155
 8120SOL    HW135822   2.696   1.616  10.598  1.6717 -1.7640 -0.7616
 8120SOL    HW235823   2.753   1.691  10.716  1.6835  0.3942 -0.3864
 8121SOL     OW35824   4.563   3.247  17.099 -0.6253  0.0559 -0.2372
 8121SOL    HW135825   4.589   3.271  17.010 -1.8756  0.7202 -0.4201
 8121SOL    HW235826   4.478   3.206  17.088  0.3191 -1.7244 -0.8789
 8122SOL     OW35827   0.670   1.235   0.983  0.2906  0.1502 -0.2275
 8122SOL    HW135828   0.762   1.214   0.999  0.4576  1.2527  0.2371
 8122SOL    HW235829   0.668   1.281   0.899  3.1381  0.5085 -0.0942
 8123SOL     OW35830   4.146   1.570   5.230  0.1249  0.3374  0.6198
 8123SOL    HW135831   4.194   1.597   5.152 -0.6599  0.4062  0.1693
 8123SOL    HW235832   4.078   1.523   5.182  0.6923 -1.3994  1.4984
 8124SOL     OW35833   4.557   0.699   2.940 -0.0940  0.2912 -0.2331
 8124SOL    HW135834   4.642   0.709   2.898  1.5447 -0.4714  2.9212
 8124SOL    HW235835   4.535   0.613   2.903  1.2349 -0.1205 -0.0476
 8125SOL     OW35836   2.437   2.578   7.222  0.4843  0.7784  0.4307
 8125SOL    HW135837   2.422   2.670   7.202  2.8121  0.8259 -1.0518
 8125SOL    HW235838   2.532   2.572   7.211  0.3319 -2.0754  0.6861
 8126SOL     OW35839   2.392   2.044   5.496  0.9803  0.0112 -0.2456
 8126SOL    HW135840   2.355   2.039   5.407  1.1878 -1.3525 -0.2456
 8126SOL    HW235841   2.437   1.961   5.509  0.8490  0.0063  0.1823
 8127SOL     OW35842   2.611   4.141   7.792  0.1948  0.0104  0.4040
 8127SOL    HW135843   2.529   4.119   7.835  0.4714  0.4175  1.1307
 8127SOL    HW235844   2.656   4.164   7.873 -1.2665  1.1774  0.8779
 8128SOL     OW35845   3.128   0.418   8.387  0.7153  0.3996  0.2692
 8128SOL    HW135846   3.062   0.416   8.456 -1.0266  0.1741 -1.4253
 8128SOL    HW235847   3.084   0.411   8.302 -0.9046 -0.2304  1.1723
 8129SOL     OW35848   3.764   2.921   8.197 -0.2157 -0.2464  0.1423
 8129SOL    HW135849   3.813   3.004   8.197 -1.6021  0.5814 -0.0357
 8129SOL    HW235850   3.720   2.924   8.112  1.5121 -0.3987 -0.7384
 8130SOL     OW35851   4.385   0.683  13.011 -0.2678  0.0926  0.2257
 8130SOL    HW135852   4.397   0.778  13.010 -2.5992  0.3694 -1.6112
 8130SOL    HW235853   4.471   0.658  13.046 -0.2782 -1.2595 -0.7243
 8131SOL     OW35854   4.612   4.430   3.141 -0.1504  0.2300  0.3075
 8131SOL    HW135855   4.645   4.412   3.229 -2.0359 -1.4436  0.6779
 8131SOL    HW235856   4.676   4.499   3.123  0.8193 -0.3451  1.5243
 8132SOL     OW35857   1.230   2.746   6.880  0.0397  0.4419  0.0768
 8132SOL    HW135858   1.222   2.702   6.964  0.1031  0.8086  0.2762
 8132SOL    HW235859   1.139   2.753   6.851 -0.7061  2.5478  3.0318
 8133SOL     OW35860   0.693   4.303   5.419  0.1107 -0.1329 -0.1900
 8133SOL    HW135861   0.697   4.398   5.427 -0.0116 -0.0823 -0.7153
 8133SOL    HW235862   0.614   4.271   5.464  1.3160 -2.7222  0.0930
 8134SOL     OW35863   3.707   3.556   2.436  0.1729 -1.0171  0.3367
 8134SOL    HW135864   3.642   3.624   2.420  1.7755  0.1348 -1.2877
 8134SOL    HW235865   3.698   3.518   2.348  0.0409 -0.2358  0.0113
 8135SOL     OW35866   2.370   4.069   9.189  0.4079 -0.3580 -0.2143
 8135SOL    HW135867   2.297   4.018   9.223  0.0518  0.6497  0.5372
 8135SOL    HW235868   2.407   4.005   9.128  1.9079 -0.1762  0.4837
 8136SOL     OW35869   0.841   4.368   9.687 -0.0203 -0.6127  0.6523
 8136SOL    HW135870   0.788   4.445   9.706 -0.3194 -0.3611 -1.1834
 8136SOL    HW235871   0.915   4.405   9.639 -0.4272  0.5898  0.9517
 8137SOL     OW35872   2.609   0.170   5.771 -0.3912 -0.1064  0.7158
 8137SOL    HW135873   2.538   0.148   5.831  0.1589 -1.5464  0.8586
 8137SOL    HW235874   2.557   0.233   5.721 -1.9002 -2.6471 -0.9695
 8138SOL     OW35875   3.152   4.581   5.865  0.2848 -0.5156 -0.4379
 8138SOL    HW135876   3.085   4.518   5.840 -2.0594  0.8586  2.2692
 8138SOL    HW235877   3.153   4.578   5.961  1.2887  4.8539 -0.2637
 8139SOL     OW35878   4.230   0.772   3.428 -0.1599  0.1763  0.1959
 8139SOL    HW135879   4.247   0.687   3.389 -0.0453 -0.2293  1.1298
 8139SOL    HW235880   4.234   0.752   3.521  1.8995  0.5783  0.1805
 8140SOL     OW35881   2.938   2.124   8.770 -0.0919  0.5381  0.5806
 8140SOL    HW135882   3.005   2.086   8.713 -1.0245 -1.1511  0.6210
 8140SOL    HW235883   2.875   2.160   8.708 -1.6107  0.1013  1.8565
 8141SOL     OW35884   0.149   2.439   1.969  0.2166  0.0469 -0.0392
 8141SOL    HW135885   0.172   2.530   1.984 -1.9573  0.5717  0.0982
 8141SOL    HW235886   0.058   2.433   1.998  0.2867 -1.4054 -0.0767
 8142SOL     OW35887   0.646   4.391   6.024  0.4106 -0.0085  0.2238
 8142SOL    HW135888   0.608   4.463   5.973  0.1746 -1.4779 -1.6911
 8142SOL    HW235889   0.716   4.362   5.966 -1.5564 -2.8084 -0.7277
 8143SOL     OW35890   0.562   4.132  16.584 -0.0931  0.0091 -0.2060
 8143SOL    HW135891   0.567   4.038  16.563  0.4527  0.0248 -0.1396
 8143SOL    HW235892   0.654   4.148  16.604  0.0431  0.1702 -0.9669
 8144SOL     OW35893   2.518   2.112   3.564 -0.7803  0.0542  0.1787
 8144SOL    HW135894   2.565   2.042   3.519 -1.9932 -0.7175  0.1278
 8144SOL    HW235895   2.514   2.075   3.653  3.0657 -2.2001 -0.5648
 8145SOL     OW35896   1.983   2.413  16.525 -0.3076  0.2226  0.0293
 8145SOL    HW135897   2.032   2.423  16.607 -0.0886 -1.7222  0.1333
 8145SOL    HW235898   1.937   2.496  16.515  2.0257  1.2775 -1.8931
 8146SOL     OW35899   4.372   1.912   8.280 -0.0454 -0.5717  0.1157
 8146SOL    HW135900   4.424   1.925   8.360  1.4293 -3.9657 -0.2918
 8146SOL    HW235901   4.280   1.916   8.307 -0.6379 -3.1737 -1.5354
 8147SOL     OW35902   3.654   3.327   6.590  0.1172  0.0724 -0.8573
 8147SOL    HW135903   3.613   3.244   6.614  1.9086 -0.2623  1.0002
 8147SOL    HW235904   3.572   3.371   6.615  0.3497  0.5504 -0.9367
 8148SOL     OW35905   4.332   0.916  15.317 -0.4271 -0.6876 -0.5116
 8148SOL    HW135906   4.378   0.987  15.272  0.3797 -0.8746  0.0217
 8148SOL    HW235907   4.249   0.934  15.272  0.3562  0.4583 -1.5012
 8149SOL     OW35908   4.674   1.224  10.261  0.2099  0.0089  0.2493
 8149SOL    HW135909   4.588   1.241  10.300  0.3801  2.0450 -0.2933
 8149SOL    HW235910   4.672   1.128  10.259 -2.5467  0.0642  0.7027
 8150SOL     OW35911   2.283   1.659   2.186  0.4901 -0.2430 -0.6449
 8150SOL    HW135912   2.225   1.639   2.259  0.5919  0.2343 -0.4333
 8150SOL    HW235913   2.356   1.696   2.235 -1.1096  1.1854  0.6666
 8151SOL     OW35914   4.348   0.270   0.929 -0.1365 -0.2939 -0.5096
 8151SOL    HW135915   4.430   0.319   0.920  0.7962 -1.8663 -0.6388
 8151SOL    HW235916   4.272   0.314   0.967 -0.0259 -0.2181 -0.3752
 8152SOL     OW35917   0.123   1.271   0.795 -0.4488 -0.5653 -0.3320
 8152SOL    HW135918   0.040   1.297   0.757  0.0568  0.0987 -0.9785
 8152SOL    HW235919   0.177   1.265   0.716  0.8166  2.7234  0.2878
 8153SOL     OW35920   1.655   0.405   4.648  0.4878 -0.0265  0.1318
 8153SOL    HW135921   1.580   0.458   4.676  1.1993  1.4037 -0.6570
 8153SOL    HW235922   1.598   0.343   4.603  0.9323 -0.0659 -0.3732
 8154SOL     OW35923   0.076   4.559   9.252  0.1647 -0.2045  0.4619
 8154SOL    HW135924   0.156   4.574   9.302  1.3733  0.3148 -1.6246
 8154SOL    HW235925   0.044   4.648   9.267 -0.8894 -0.5114  0.0463
 8155SOL     OW35926   2.164   1.569  11.558 -0.9450 -0.1509 -0.4807
 8155SOL    HW135927   2.114   1.488  11.565 -1.8854  0.5304  0.6122
 8155SOL    HW235928   2.166   1.585  11.464 -0.1243 -3.4815 -1.0406
 8156SOL     OW35929   1.378   0.887   3.490 -0.1676 -1.0634  0.5531
 8156SOL    HW135930   1.426   0.926   3.417 -1.0550 -0.2745  0.3901
 8156SOL    HW235931   1.318   0.959   3.509  2.1938  0.8461  0.8292
 8157SOL     OW35932   3.536   1.658   8.248 -0.5351 -0.3453  0.1299
 8157SOL    HW135933   3.618   1.609   8.253  0.8380  1.8444 -1.0355
 8157SOL    HW235934   3.486   1.607   8.185  0.8322  0.2248 -1.4275
 8158SOL     OW35935   0.992   3.319   6.041 -0.3981  0.1799 -0.3381
 8158SOL    HW135936   1.023   3.370   5.966  0.4804 -0.1489 -0.2019
 8158SOL    HW235937   0.897   3.312   6.030 -0.4936  1.9922 -0.7149
 8159SOL     OW35938   0.362   4.672   8.650 -0.0001 -0.0063  0.1905
 8159SOL    HW135939   0.378   0.041   8.633  0.1061 -0.0691 -0.0580
 8159SOL    HW235940   0.387   4.641   8.563 -0.4689 -3.1587  1.1735
 8160SOL     OW35941   3.766   4.672  17.348 -0.5328 -0.0758 -0.7180
 8160SOL    HW135942   3.711   4.699  17.274 -1.5812 -1.4736 -0.4575
 8160SOL    HW235943   3.786   4.580  17.332  0.3330  0.0952 -0.6021
 8161SOL     OW35944   0.418   3.206   2.369  0.7372  0.2685 -0.5113
 8161SOL    HW135945   0.501   3.159   2.368  0.9873  0.7357 -1.8697
 8161SOL    HW235946   0.424   3.269   2.297  0.8797 -0.2014 -0.9070
 8162SOL     OW35947   2.849   2.394   1.779 -0.0900 -0.1163 -0.2140
 8162SOL    HW135948   2.769   2.359   1.740 -0.5849 -1.4350  1.9774
 8162SOL    HW235949   2.842   2.367   1.870 -0.3891 -0.1425 -0.2449
 8163SOL     OW35950   4.119   2.243   6.100  0.3380  0.1980  0.0442
 8163SOL    HW135951   4.156   2.156   6.083 -1.3045 -0.4004 -0.5097
 8163SOL    HW235952   4.193   2.284   6.146  0.3427  0.0297  0.1885
 8164SOL     OW35953   2.785   2.576   3.362  0.2369 -0.7066 -0.2170
 8164SOL    HW135954   2.766   2.494   3.315 -1.1419  0.3386 -1.5021
 8164SOL    HW235955   2.716   2.635   3.333  1.0427  0.3552  0.0229
 8165SOL     OW35956   0.141   3.653  17.425  0.7098 -0.4346 -0.4776
 8165SOL    HW135957   0.184   3.688  17.347 -1.4875 -1.6975 -2.2412
 8165SOL    HW235958   0.216   3.661  17.484 -1.2771  0.9869  1.8903
 8166SOL     OW35959   0.290   2.113  13.408 -0.4925  0.3182  0.1363
 8166SOL    HW135960   0.286   2.070  13.322  1.5955  1.0186 -0.3303
 8166SOL    HW235961   0.368   2.071  13.445 -0.6754  1.0988  1.4203
 8167SOL     OW35962   3.227   1.894   7.030  0.4611 -0.1835 -0.1019
 8167SOL    HW135963   3.237   1.944   6.948 -0.1737 -1.3109 -0.8597
 8167SOL    HW235964   3.280   1.816   7.015 -0.4389 -0.7014 -0.5865
 8168SOL     OW35965   1.832   3.685   9.364 -0.4561 -0.0749 -0.0522
 8168SOL    HW135966   1.868   3.709   9.449  0.9634 -0.1497 -0.6183
 8168SOL    HW235967   1.896   3.633   9.314  0.6208 -1.3163  2.6306
 8169SOL     OW35968   1.287   0.403   8.696  0.0668 -0.7776  0.0506
 8169SOL    HW135969   1.369   0.422   8.741  0.7631  0.9333 -1.9673
 8169SOL    HW235970   1.277   0.449   8.613  0.8708 -2.6561 -1.0882
 8170SOL     OW35971   4.426   3.230   5.279 -0.0343 -0.3005 -0.3169
 8170SOL    HW135972   4.415   3.172   5.355  1.4812 -1.8484 -1.2825
 8170SOL    HW235973   4.460   3.165   5.218 -0.0640  0.2419 -0.8981
 8171SOL     OW35974   3.350   2.887   6.320  0.1029 -0.5010 -0.2224
 8171SOL    HW135975   3.360   2.881   6.415 -0.1168  0.6069 -0.1350
 8171SOL    HW235976   3.436   2.855   6.293 -0.5555 -0.7795 -1.9669
 8172SOL     OW35977   2.778   3.890  11.621 -0.7120  0.3372  0.1759
 8172SOL    HW135978   2.799   3.859  11.533  0.5506  2.8004 -0.3820
 8172SOL    HW235979   2.729   3.972  11.612 -0.9845  0.0516 -1.0243
 8173SOL     OW35980   1.336   3.219   7.485  0.9743 -0.0277  0.2349
 8173SOL    HW135981   1.431   3.210   7.495  1.6519  2.9879 -3.4888
 8173SOL    HW235982   1.298   3.240   7.570 -0.1806  0.0364 -0.2987
 8174SOL     OW35983   0.874   2.606  10.918  0.5126  0.3676  0.5452
 8174SOL    HW135984   0.883   2.520  10.878 -2.5641 -0.7886  2.2950
 8174SOL    HW235985   0.967   2.618  10.937  0.8929 -0.4944 -0.7851
 8175SOL     OW35986   4.342   4.485   3.140  0.7531  0.2648  0.0752
 8175SOL    HW135987   4.436   4.478   3.155  0.7453 -0.2799 -0.1415
 8175SOL    HW235988   4.314   4.394   3.129  2.4214 -0.2914  0.5346
 8176SOL     OW35989   4.339   1.739   2.935 -0.8341  0.4144 -0.2104
 8176SOL    HW135990   4.402   1.669   2.948 -0.1365  1.5064  2.2298
 8176SOL    HW235991   4.257   1.691   2.950 -0.3949 -0.1785  0.2682
 8177SOL     OW35992   1.277   3.353   6.862  0.0147  0.3464  0.6615
 8177SOL    HW135993   1.209   3.410   6.826 -1.4547 -1.1448  1.0683
 8177SOL    HW235994   1.337   3.406   6.914  0.3851  0.4319  0.1500
 8178SOL     OW35995   0.836   3.240   7.948  0.2316 -0.1012  0.3067
 8178SOL    HW135996   0.875   3.155   7.967  0.4649 -0.5285 -2.2009
 8178SOL    HW235997   0.822   3.265   8.040 -2.0231  2.8185 -0.8136
 8179SOL     OW35998   3.360   4.528   4.345 -0.0894 -0.0697 -0.1242
 8179SOL    HW135999   3.423   4.573   4.289  0.6587  0.0984  0.8433
 8179SOL    HW236000   3.310   4.607   4.367  0.6461  0.7120 -1.2640
 8180SOL     OW36001   3.092   4.021   7.922 -0.0830  0.0579 -0.3482
 8180SOL    HW136002   3.144   4.069   7.986 -0.4257  0.3801 -0.3109
 8180SOL    HW236003   3.018   4.080   7.903 -1.2242 -1.4689 -0.6195
 8181SOL     OW36004   2.994   4.429   4.100  0.1832  0.0206 -1.0339
 8181SOL    HW136005   2.956   4.514   4.078 -2.4634 -0.3611  2.0178
 8181SOL    HW236006   3.004   4.439   4.195  1.7292 -1.6541 -1.0189
 8182SOL     OW36007   4.133   1.283  16.569  0.3036 -0.0620  0.2093
 8182SOL    HW136008   4.096   1.295  16.481  1.5536  2.1326 -0.0163
 8182SOL    HW236009   4.084   1.203  16.589  0.1975 -0.1110 -0.2489
 8183SOL     OW36010   0.991   4.404   5.026 -0.1148 -0.4158  0.1831
 8183SOL    HW136011   0.914   4.442   4.983 -1.5360 -1.4319  1.8349
 8183SOL    HW236012   1.030   4.404   4.939  0.3246 -1.3084  0.3852
 8184SOL     OW36013   4.465   3.008  12.339  0.0840 -0.3632  0.2797
 8184SOL    HW136014   4.483   2.914  12.340 -1.4623 -0.6835 -1.3334
 8184SOL    HW236015   4.550   3.030  12.301 -0.0246 -0.7640 -0.2065
 8185SOL     OW36016   3.911   1.166   0.743 -0.3965  0.2271 -0.3125
 8185SOL    HW136017   4.003   1.166   0.767 -0.3352  0.6322 -0.5496
 8185SOL    HW236018   3.897   1.073   0.760  0.1465  0.3397  0.7025
 8186SOL     OW36019   0.068   3.192  17.297 -0.2685 -0.1401  0.1541
 8186SOL    HW136020   0.026   3.109  17.274 -2.0102  1.4426 -2.3856
 8186SOL    HW236021   0.046   3.241  17.218 -1.4079 -0.2263  0.4179
 8187SOL     OW36022   2.542   1.634   3.332  0.5892  0.3736  0.2666
 8187SOL    HW136023   2.510   1.692   3.263  0.8144  1.9689  1.4817
 8187SOL    HW236024   2.549   1.556   3.278  1.4110  0.8246 -0.2698
 8188SOL     OW36025   4.681   4.566  13.880 -0.3564  0.6268  0.0841
 8188SOL    HW136026   4.719   4.518  13.807 -0.8759  0.5825 -0.1576
 8188SOL    HW236027   0.038   4.608  13.907  0.8048 -1.0558 -0.8450
 8189SOL     OW36028   0.400   3.863  11.802  0.5017 -0.0421  0.0418
 8189SOL    HW136029   0.316   3.901  11.776 -0.5046 -1.9403  0.4429
 8189SOL    HW236030   0.423   3.804  11.731  2.4826 -0.2277  0.8342
 8190SOL     OW36031   3.753   1.115   0.288  0.6680  0.7095  0.1794
 8190SOL    HW136032   3.738   1.189   0.229 -2.3573 -0.0879 -0.0386
 8190SOL    HW236033   3.783   1.167   0.362 -0.8165  0.2671  1.0692
 8191SOL     OW36034   0.539   3.342   6.257 -0.4159 -0.2050  0.5996
 8191SOL    HW136035   0.445   3.353   6.241 -0.4741  2.3311  2.6451
 8191SOL    HW236036   0.552   3.248   6.273  3.2483  0.4429  1.3300
 8192SOL     OW36037   3.489   1.848   3.672  0.1175  0.0954 -0.2118
 8192SOL    HW136038   3.519   1.876   3.586  1.5293 -1.6403 -0.2859
 8192SOL    HW236039   3.526   1.919   3.725  0.1271 -1.7678  2.2801
 8193SOL     OW36040   1.535   4.399   7.268 -0.0819  0.1895 -0.1656
 8193SOL    HW136041   1.448   4.406   7.230 -0.0943 -2.6353 -0.6729
 8193SOL    HW236042   1.514   4.330   7.332 -0.0556  0.6340  0.3268
 8194SOL     OW36043   0.118   1.417   6.022 -0.0923  0.0810  0.0396
 8194SOL    HW136044   0.075   1.410   6.107 -1.7646  1.2509 -0.7051
 8194SOL    HW236045   0.171   1.339   6.005  0.1530 -0.1965  2.0932
 8195SOL     OW36046   3.196   1.070   0.795  0.6956  0.2288  0.7620
 8195SOL    HW136047   3.219   1.081   0.887  2.8028 -0.5716  0.3348
 8195SOL    HW236048   3.277   1.030   0.762  0.9837 -0.6611  2.5540
 8196SOL     OW36049   1.171   2.804  13.692  0.5286  0.5601  0.5935
 8196SOL    HW136050   1.083   2.836  13.712  0.7939  1.5391  0.1984
 8196SOL    HW236051   1.230   2.868  13.732 -0.3418  0.9162  1.3336
 8197SOL     OW36052   3.656   1.376   9.111 -0.5516  0.0611 -0.0547
 8197SOL    HW136053   3.564   1.367   9.134 -1.2184  3.3193 -1.4116
 8197SOL    HW236054   3.653   1.471   9.116  0.7348  0.1781 -1.6730
 8198SOL     OW36055   0.306   4.723   0.693  0.0155  0.1049 -0.5976
 8198SOL    HW136056   0.397   4.705   0.713  0.6494  1.8073 -1.9850
 8198SOL    HW236057   0.323   4.710   0.600  0.6311 -2.4462 -0.1328
 8199SOL     OW36058   0.612   4.004   0.785 -0.9277  0.3901  0.1080
 8199SOL    HW136059   0.606   4.066   0.712 -2.2501  1.6173  1.2622
 8199SOL    HW236060   0.564   4.050   0.854  1.0089 -0.0640  1.7546
 8200SOL     OW36061   2.455   3.250   1.850  0.1657  0.0550 -0.1974
 8200SOL    HW136062   2.360   3.242   1.850  0.2073 -0.4640 -0.2848
 8200SOL    HW236063   2.487   3.166   1.817 -2.1011 -0.3410 -1.3720
 8201SOL     OW36064   0.582   2.838   7.093  0.6321 -0.0610 -0.1085
 8201SOL    HW136065   0.673   2.823   7.120 -0.2139  0.1185  2.7909
 8201SOL    HW236066   0.590   2.780   7.017  0.9412 -2.6776  1.9276
 8202SOL     OW36067   1.806   0.441   4.902  0.3413 -0.2691 -0.1893
 8202SOL    HW136068   1.869   0.422   4.832  0.7203  0.0841  0.0555
 8202SOL    HW236069   1.859   0.435   4.981 -0.9816 -1.5874  0.6000
 8203SOL     OW36070   0.197   3.619  13.213  0.4380 -0.6193  0.9466
 8203SOL    HW136071   0.119   3.653  13.258  0.3957 -1.3537  1.4247
 8203SOL    HW236072   0.174   3.528  13.192 -1.5607  0.1621 -0.2119
 8204SOL     OW36073   2.436   3.062   8.505 -0.4099  0.2713  0.2366
 8204SOL    HW136074   2.456   3.053   8.598 -4.0862  1.0599  1.1306
 8204SOL    HW236075   2.514   3.112   8.480  0.4483 -0.5266  1.3519
 8205SOL     OW36076   2.116   0.878  10.550  0.0006  0.4870 -0.0638
 8205SOL    HW136077   2.042   0.818  10.556  0.1937  0.5082  2.3757
 8205SOL    HW236078   2.175   0.845  10.617 -0.8926  0.4709  0.7070
 8206SOL     OW36079   0.245   1.200   5.590  0.3718  0.0066  0.9882
 8206SOL    HW136080   0.159   1.201   5.632 -0.5002 -0.1145 -0.7869
 8206SOL    HW236081   0.271   1.109   5.596  0.7360  0.1158  1.0814
 8207SOL     OW36082   0.538   0.932   0.995 -0.0417  0.0496  0.4892
 8207SOL    HW136083   0.552   1.027   0.993  0.9142 -0.0760  1.2465
 8207SOL    HW236084   0.462   0.917   0.939  0.2254 -1.6469  0.5869
 8208SOL     OW36085   2.208   3.858  11.941  0.1865 -0.2278  0.2547
 8208SOL    HW136086   2.282   3.917  11.954  1.1343 -1.3443 -0.0913
 8208SOL    HW236087   2.159   3.907  11.875 -2.2030  0.4540  2.5022
 8209SOL     OW36088   1.225   4.337   5.710 -0.4191 -0.0030 -0.5115
 8209SOL    HW136089   1.232   4.380   5.796 -0.2538 -2.2488  0.6132
 8209SOL    HW236090   1.213   4.242   5.717  0.8754 -0.1187 -0.0181
 8210SOL     OW36091   0.264   1.613  13.124 -0.8983 -0.3640  0.2515
 8210SOL    HW136092   0.358   1.604  13.137 -0.7105  0.5118 -0.5612
 8210SOL    HW236093   0.243   1.546  13.059  0.9441  0.0733 -0.7772
 8211SOL     OW36094   2.428   4.021   7.959  0.4437  0.1791 -0.2992
 8211SOL    HW136095   2.399   4.037   8.049  0.5249  1.1501 -0.4377
 8211SOL    HW236096   2.344   4.028   7.914 -0.5936 -0.5989  1.5085
 8212SOL     OW36097   2.206   0.440   7.739 -0.4615  0.0306 -0.1544
 8212SOL    HW136098   2.242   0.528   7.743  1.2582 -0.6364 -0.8603
 8212SOL    HW236099   2.140   0.450   7.808  0.3116  0.1078  0.5778
 8213SOL     OW36100   1.186   0.681   9.130 -0.7406  0.0914  0.5033
 8213SOL    HW136101   1.210   0.696   9.039 -1.6666 -0.5557  0.1580
 8213SOL    HW236102   1.215   0.762   9.172 -0.4655 -0.7344  1.9048
 8214SOL     OW36103   0.878   3.339  13.480  0.3182  0.2740  0.1674
 8214SOL    HW136104   0.961   3.305  13.447  1.0892  1.6764  0.6536
 8214SOL    HW236105   0.907   3.428  13.502 -0.6642  0.0908  2.2116
 8215SOL     OW36106   4.681   2.734  17.641 -0.1673  0.7672 -0.0509
 8215SOL    HW136107   0.012   2.810  17.624  1.3353 -0.5894 -1.2869
 8215SOL    HW236108   4.633   2.770   0.017  0.2649 -1.4879  1.3446
 8216SOL     OW36109   1.591   3.149   8.882  0.5674  0.1975 -0.2511
 8216SOL    HW136110   1.502   3.180   8.868  1.0779  0.8659 -2.0901
 8216SOL    HW236111   1.594   3.134   8.976  1.3967  1.3240 -0.0857
 8217SOL     OW36112   2.843   4.185  11.616 -0.1985  0.3445 -0.2069
 8217SOL    HW136113   2.766   4.189  11.673 -1.3257  1.0950 -1.7793
 8217SOL    HW236114   2.904   4.250  11.651 -0.2320  0.9063 -1.1875
 8218SOL     OW36115   4.162   0.946  11.986 -0.4048  0.1830 -0.3560
 8218SOL    HW136116   4.125   0.940  12.074  0.9127 -2.8485 -0.0115
 8218SOL    HW236117   4.133   0.866  11.942 -3.9801  1.8594 -1.0396
 8219SOL     OW36118   3.469   4.450   3.581 -0.3366 -0.2885 -0.1436
 8219SOL    HW136119   3.496   4.520   3.522 -1.8424 -0.7720 -1.3994
 8219SOL    HW236120   3.375   4.447   3.566 -0.2915  1.0589 -0.6736
 8220SOL     OW36121   2.650   3.666   2.848  0.3343  0.5508  0.5581
 8220SOL    HW136122   2.572   3.665   2.904  0.2907 -1.7407  0.4613
 8220SOL    HW236123   2.634   3.738   2.788  0.2448  0.9806  1.0911
 8221SOL     OW36124   1.570   4.469   5.321 -0.1443  0.0846  0.4112
 8221SOL    HW136125   1.611   4.388   5.289 -0.2632 -0.5931  1.9419
 8221SOL    HW236126   1.569   4.518   5.239  0.3030  0.4805  0.6389
 8222SOL     OW36127   1.078   2.985   8.534  0.7062 -0.9555  0.5856
 8222SOL    HW136128   1.155   3.024   8.575  0.3443  0.0554  0.2830
 8222SOL    HW236129   1.017   3.002   8.606  1.8413 -2.2129  1.8439
 8223SOL     OW36130   0.678   3.677   3.922  0.0199 -0.2282  0.1216
 8223SOL    HW136131   0.589   3.655   3.947 -0.6516 -1.6592 -3.4681
 8223SOL    HW236132   0.669   3.772   3.909  0.9046 -0.2159 -0.4145
 8224SOL     OW36133   4.099   3.533   0.612 -0.0756 -0.4871 -0.1688
 8224SOL    HW136134   4.108   3.504   0.703  1.2726 -1.6509 -0.6784
 8224SOL    HW236135   4.187   3.564   0.591 -0.4771 -1.3850 -3.0411
 8225SOL     OW36136   0.513   1.685   9.836  0.7909 -0.0344 -0.2937
 8225SOL    HW136137   0.457   1.615   9.869 -1.3657  0.7770 -2.1803
 8225SOL    HW236138   0.541   1.738   9.910 -1.2945 -0.6009  0.9013
 8226SOL     OW36139   2.582   3.864   0.298 -0.6086  0.1435 -0.6354
 8226SOL    HW136140   2.648   3.800   0.271  0.6661  2.3673 -2.7743
 8226SOL    HW236141   2.617   3.907   0.376 -0.7278  0.0985 -0.5563
 8227SOL     OW36142   1.529   4.058   2.086  0.2062 -0.3138  0.2765
 8227SOL    HW136143   1.587   4.128   2.058  0.1393 -0.7009 -0.8313
 8227SOL    HW236144   1.543   3.983   2.027  0.6785 -2.0332  2.5709
 8228SOL     OW36145   4.667   1.199   6.414  0.4006  0.3457 -0.3108
 8228SOL    HW136146   4.723   1.276   6.418 -3.6221  3.2360  0.7866
 8228SOL    HW236147   4.703   1.151   6.340  1.3317  1.0613 -0.3128
 8229SOL     OW36148   1.019   0.283   8.348  0.2562 -0.4764 -0.6511
 8229SOL    HW136149   1.103   0.301   8.306  1.5900 -0.5342  1.9469
 8229SOL    HW236150   0.965   0.248   8.277 -2.7042  1.1498  0.8110
 8230SOL     OW36151   2.680   0.003  15.976 -0.4827 -0.2002  0.2699
 8230SOL    HW136152   2.749   4.709  15.911 -1.9906  0.3678 -1.4799
 8230SOL    HW236153   2.599   4.717  15.926  0.2365  1.7554 -1.3144
 8231SOL     OW36154   2.835   4.110   3.143  0.5769 -0.2400  0.2856
 8231SOL    HW136155   2.915   4.099   3.091 -0.2213 -0.7480 -0.8408
 8231SOL    HW236156   2.833   4.201   3.170 -0.4408 -0.6285  1.5445
 8232SOL     OW36157   1.199   4.290   6.231 -0.0217 -0.4218 -0.2037
 8232SOL    HW136158   1.285   4.332   6.237 -0.2418 -0.0751  0.6141
 8232SOL    HW236159   1.228   4.200   6.242 -0.1465 -1.0251 -5.0105
 8233SOL     OW36160   4.563   4.304   2.826 -0.5238 -0.3258  0.9184
 8233SOL    HW136161   4.625   4.343   2.887  0.2151 -0.6700  0.3871
 8233SOL    HW236162   4.496   4.372   2.821 -0.2498  0.0253  1.9903
 8234SOL     OW36163   3.514   2.282  11.540 -0.3616 -0.1008 -0.8034
 8234SOL    HW136164   3.518   2.269  11.446 -1.6245 -0.4377 -0.8235
 8234SOL    HW236165   3.582   2.344  11.563 -0.0376 -0.0369 -1.9473
 8235SOL     OW36166   3.561   4.179   5.809 -0.4337  0.1905  0.6910
 8235SOL    HW136167   3.534   4.242   5.876 -1.9177 -0.8029  1.0309
 8235SOL    HW236168   3.491   4.190   5.745  0.5801 -0.3154 -0.5003
 8236SOL     OW36169   0.208   2.685   2.335  0.2898  0.1560 -0.2312
 8236SOL    HW136170   0.259   2.747   2.282  0.2660  0.3033 -0.0822
 8236SOL    HW236171   0.289   2.643   2.365 -0.2428 -1.1275 -0.5878
 8237SOL     OW36172   1.647   0.688   4.311  0.4703 -0.6537 -0.1262
 8237SOL    HW136173   1.607   0.772   4.329  1.4382 -0.4789  1.1742
 8237SOL    HW236174   1.649   0.691   4.215 -0.3498  4.0668  0.0094
 8238SOL     OW36175   0.447   4.455   0.515  0.3046 -0.1319 -0.3832
 8238SOL    HW136176   0.479   4.527   0.570 -1.3182  0.1086  0.2741
 8238SOL    HW236177   0.419   4.495   0.433 -0.0130  0.9940  0.2740
 8239SOL     OW36178   1.485   3.125   2.132 -0.5488  0.1571 -0.1617
 8239SOL    HW136179   1.556   3.086   2.082 -0.5035 -0.6498  0.5478
 8239SOL    HW236180   1.409   3.083   2.092 -0.9831  0.0525  0.7919
 8240SOL     OW36181   1.740   4.455  14.628 -0.7615  0.0933  0.6049
 8240SOL    HW136182   1.819   4.509  14.636 -0.0065 -1.2568  2.2186
 8240SOL    HW236183   1.683   4.496  14.695 -2.4141 -0.4086 -0.4961
 8241SOL     OW36184   1.346   2.537   6.657 -0.3819 -0.3373 -0.2753
 8241SOL    HW136185   1.294   2.614   6.680  0.3168 -0.0040  0.1994
 8241SOL    HW236186   1.345   2.545   6.561 -3.3189 -0.5201 -0.2459
 8242SOL     OW36187   4.724   4.124   7.404  0.1534 -0.3838 -0.3872
 8242SOL    HW136188   0.012   4.033   7.379 -0.5781 -0.4950 -0.3497
 8242SOL    HW236189   4.713   4.127   7.499 -0.6598  1.0410 -0.5205
 8243SOL     OW36190   4.372   1.340   5.122  1.0280  0.1590  0.4293
 8243SOL    HW136191   4.403   1.326   5.033 -1.0932  0.8206 -0.4089
 8243SOL    HW236192   4.355   1.434   5.120 -0.3805 -0.1057  0.2429
 8244SOL     OW36193   2.180   4.029   0.229 -0.7296 -0.6738  0.4713
 8244SOL    HW136194   2.156   3.966   0.297  1.3569 -1.4852  0.4431
 8244SOL    HW236195   2.109   4.092   0.244 -0.0702  0.3919 -0.8766
 8245SOL     OW36196   0.453   1.981  12.905  0.6993 -0.1982 -0.0244
 8245SOL    HW136197   0.485   1.901  12.866  0.7440 -0.3663  0.3549
 8245SOL    HW236198   0.385   2.004  12.841  0.3248  0.1289  0.4875
 8246SOL     OW36199   1.527   3.063   0.467 -0.2761 -0.8493 -0.4120
 8246SOL    HW136200   1.485   3.142   0.435  0.1735 -1.1993 -1.8839
 8246SOL    HW236201   1.547   3.088   0.557  2.6501  1.2786 -1.6663
 8247SOL     OW36202   3.894   4.128   3.352 -0.2508  0.2205 -0.1125
 8247SOL    HW136203   3.913   4.064   3.421 -2.1112 -0.0333  0.1537
 8247SOL    HW236204   3.824   4.077   3.310  0.3817  0.2206 -1.1710
 8248SOL     OW36205   3.618   2.022  15.138 -0.1547  0.0302 -0.3993
 8248SOL    HW136206   3.629   2.115  15.119  1.0621  0.0642  0.4461
 8248SOL    HW236207   3.697   1.993  15.093 -0.7151  0.3358 -1.5706
 8249SOL     OW36208   3.194   2.383   6.439 -0.4508  0.8830  0.1257
 8249SOL    HW136209   3.192   2.424   6.352  0.1905 -0.7754 -0.6738
 8249SOL    HW236210   3.225   2.454   6.495 -0.5673  0.1221  1.1422
 8250SOL     OW36211   2.468   0.044  15.755  0.6067 -0.2046  0.2009
 8250SOL    HW136212   2.466   4.674  15.739 -0.1386 -0.6838  3.1537
 8250SOL    HW236213   2.442   0.087  15.673 -0.0757 -1.4471 -0.2405
 8251SOL     OW36214   0.256   3.704  10.570  0.1391  0.3171 -0.1718
 8251SOL    HW136215   0.334   3.710  10.515  0.7441  0.6839  0.7316
 8251SOL    HW236216   0.293   3.748  10.647  0.1975 -3.9615  2.2539
 8252SOL     OW36217   3.790   1.971  11.151 -0.2921 -0.0416  0.0573
 8252SOL    HW136218   3.874   1.942  11.187 -0.7478  1.0612  1.9837
 8252SOL    HW236219   3.814   1.960  11.059 -0.4591  0.2486 -0.0213
 8253SOL     OW36220   2.194   0.022   7.819  0.1896 -0.5691 -0.4162
 8253SOL    HW136221   2.138   4.690   7.766  0.0137  1.2448 -2.1893
 8253SOL    HW236222   2.222   4.689   7.890  0.6856 -0.7838 -0.7840
 8254SOL     OW36223   2.168   3.259   0.809  0.4984 -0.7923  0.0888
 8254SOL    HW136224   2.230   3.319   0.851 -0.7684  0.4657  0.1407
 8254SOL    HW236225   2.166   3.304   0.724 -0.4106 -0.1086  0.4801
 8255SOL     OW36226   0.668   0.703   3.606 -0.5848  0.2884 -0.9248
 8255SOL    HW136227   0.711   0.666   3.529 -0.7100 -3.6616  0.9251
 8255SOL    HW236228   0.603   0.763   3.567  1.7310  1.6582 -2.6699
 8256SOL     OW36229   2.975   1.631   8.809 -0.2601  0.4151 -0.4804
 8256SOL    HW136230   2.966   1.601   8.900  1.4026 -1.2352 -0.8609
 8256SOL    HW236231   2.885   1.652   8.784 -0.1455  0.9373 -0.4639
 8257SOL     OW36232   0.855   0.382   4.403 -0.2085  0.2978 -0.0896
 8257SOL    HW136233   0.759   0.377   4.407 -0.2813  1.6686 -0.0815
 8257SOL    HW236234   0.867   0.443   4.476 -0.6031  2.6015 -1.9396
 8258SOL     OW36235   2.766   3.081   0.570 -0.5152 -0.9790  0.4825
 8258SOL    HW136236   2.771   3.163   0.617  0.2780 -0.8040  0.0979
 8258SOL    HW236237   2.702   3.093   0.500 -0.3073 -0.8151  0.3194
 8259SOL     OW36238   0.610   1.735  16.859 -0.3427  0.1158 -0.2427
 8259SOL    HW136239   0.680   1.778  16.908  1.3867 -0.0309 -2.6039
 8259SOL    HW236240   0.547   1.807  16.868 -0.3252 -0.2006  2.4985
 8260SOL     OW36241   3.017   1.257  16.327 -0.0722  0.3697 -0.3792
 8260SOL    HW136242   3.063   1.180  16.296 -1.4853 -1.5971  2.3505
 8260SOL    HW236243   3.051   1.269  16.416  0.8316  2.7810 -1.0661
 8261SOL     OW36244   2.113   4.361  17.634 -0.3757 -0.5254  0.6861
 8261SOL    HW136245   2.124   4.378  17.540 -0.7033 -0.6090  0.6324
 8261SOL    HW236246   2.118   4.265  17.629 -1.1596 -0.7309  4.4395
 8262SOL     OW36247   4.500   3.694   5.914  0.3909  0.7096  0.7221
 8262SOL    HW136248   4.481   3.741   5.833  2.6142  2.2839  1.1006
 8262SOL    HW236249   4.417   3.704   5.961  1.5977  0.5162  2.9300
 8263SOL     OW36250   1.993   3.827   5.955  0.1122 -0.4534  0.6863
 8263SOL    HW136251   2.001   3.773   6.033  1.3696 -0.4123  0.5833
 8263SOL    HW236252   2.011   3.915   5.988 -1.3859  0.2109 -0.2316
 8264SOL     OW36253   0.842   4.007   8.979  0.3767 -0.0639  0.4318
 8264SOL    HW136254   0.769   4.064   8.952 -0.4687  0.5985  4.0836
 8264SOL    HW236255   0.836   4.012   9.075 -0.1757  3.4433  0.2441
 8265SOL     OW36256   0.493   1.426   6.078 -0.3421 -0.3255 -0.3601
 8265SOL    HW136257   0.543   1.345   6.073 -1.1529 -0.9700  1.9180
 8265SOL    HW236258   0.549   1.455   6.150  1.4207 -1.4623 -1.2826
 8266SOL     OW36259   4.497   2.195   1.167  0.6939  0.0418  0.5219
 8266SOL    HW136260   4.501   2.127   1.235  0.0235 -1.5410 -1.0015
 8266SOL    HW236261   4.589   2.183   1.143  1.6006  1.6538  3.3155
 8267SOL     OW36262   2.682   4.512   0.782  0.0260 -0.3158  0.5164
 8267SOL    HW136263   2.674   4.423   0.816  0.9346 -1.9496 -3.6010
 8267SOL    HW236264   2.589   4.524   0.760  0.2982 -0.0225 -0.4441
 8268SOL     OW36265   2.871   4.606  11.475 -0.6670  0.1455  0.0423
 8268SOL    HW136266   2.855   4.639  11.387 -0.9050 -2.2476 -0.8172
 8268SOL    HW236267   2.794   4.549  11.474  1.0142 -2.1504 -0.0939
 8269SOL     OW36268   2.679   0.446   6.047 -0.1904  0.0407  0.0535
 8269SOL    HW136269   2.714   0.532   6.023 -3.2675  0.9233 -1.2289
 8269SOL    HW236270   2.588   0.469   6.028 -0.8823 -2.9824 -0.3292
 8270SOL     OW36271   3.243   1.322   1.919  0.4381  0.1664  0.2111
 8270SOL    HW136272   3.263   1.245   1.866 -3.1538  1.0653 -2.4462
 8270SOL    HW236273   3.272   1.290   2.005 -0.9062  0.4581  0.7692
 8271SOL     OW36274   3.962   4.166   1.241 -0.3186 -0.2443  0.3404
 8271SOL    HW136275   3.925   4.112   1.171  2.2109 -0.7824 -0.5750
 8271SOL    HW236276   3.882   4.194   1.285  0.5342  0.2993  1.5563
 8272SOL     OW36277   4.446   2.875   5.218 -0.3279  0.1550 -0.0268
 8272SOL    HW136278   4.495   2.876   5.135 -1.6337 -0.8980 -0.8182
 8272SOL    HW236279   4.358   2.898   5.188  0.1883  1.1918 -0.7531
 8273SOL     OW36280   0.954   3.616   1.221 -0.4130  0.0034 -0.1949
 8273SOL    HW136281   0.895   3.555   1.178 -2.7008  1.1679  1.2914
 8273SOL    HW236282   1.034   3.564   1.218 -0.9984 -0.6748 -3.2258
 8274SOL     OW36283   1.255   2.963   7.380  0.1143  0.5271  0.3389
 8274SOL    HW136284   1.345   2.988   7.359  0.0623  0.5576  0.1522
 8274SOL    HW236285   1.280   2.904   7.451  2.5569 -0.2836 -1.1805
 8275SOL     OW36286   2.484   4.203  12.681  0.2873  0.0383  0.0146
 8275SOL    HW136287   2.537   4.140  12.633  0.8213  0.7348 -0.3046
 8275SOL    HW236288   2.401   4.189  12.636 -0.1080 -1.7227  1.2993
 8276SOL     OW36289   0.953   0.901   8.116 -0.0882  0.0739  0.0061
 8276SOL    HW136290   0.996   0.956   8.051 -2.6960  0.1952 -1.6384
 8276SOL    HW236291   0.940   0.823   8.061  0.2167 -0.3386  0.5228
 8277SOL     OW36292   2.000   1.552   6.735  0.2121 -0.4114  0.2235
 8277SOL    HW136293   1.924   1.498   6.714  1.1064 -1.1801 -0.9799
 8277SOL    HW236294   2.000   1.609   6.658 -1.3914 -0.8705 -0.1113
 8278SOL     OW36295   4.248   2.287  10.111 -0.4335  0.1541 -0.1061
 8278SOL    HW136296   4.245   2.287  10.015  1.3125 -0.9213 -0.1644
 8278SOL    HW236297   4.155   2.282  10.132 -0.4374  0.3426 -0.0763
 8279SOL     OW36298   0.945   1.501  12.029  0.4607  0.4675 -0.1922
 8279SOL    HW136299   1.011   1.458  11.974 -0.1431  2.5190 -2.5558
 8279SOL    HW236300   0.964   1.456  12.111  0.1368  0.0522 -0.3453
 8280SOL     OW36301   0.420   3.894   5.094 -0.3100 -0.0185  0.1345
 8280SOL    HW136302   0.493   3.952   5.117  1.8451 -2.1967 -1.2563
 8280SOL    HW236303   0.349   3.959   5.098 -0.4614 -0.2156  0.6218
 8281SOL     OW36304   0.676   3.514  14.612  0.0682  0.0451  0.0295
 8281SOL    HW136305   0.756   3.469  14.583 -0.5252 -0.4874 -0.7611
 8281SOL    HW236306   0.711   3.584  14.667  2.9761  0.2821 -2.1583
 8282SOL     OW36307   3.244   3.955  12.031  0.0946  0.2632  0.1548
 8282SOL    HW136308   3.243   3.862  12.007 -2.1385  0.1066  0.9341
 8282SOL    HW236309   3.335   3.981  12.012 -0.3149  2.0986  0.6978
 8283SOL     OW36310   0.045   3.556   6.982 -0.3988 -0.3190 -0.6633
 8283SOL    HW136311   0.038   3.469   6.945 -1.1373 -0.4193 -0.2909
 8283SOL    HW236312   0.095   3.539   7.062 -1.2166 -1.1131 -0.3298
 8284SOL     OW36313   1.990   1.655  11.972 -0.1227  0.1756 -0.1934
 8284SOL    HW136314   1.968   1.712  11.898  0.0096  0.1796 -0.2299
 8284SOL    HW236315   1.920   1.681  12.033 -0.1387  0.5524 -0.3684
 8285SOL     OW36316   1.854   2.632   7.344 -0.0866  0.0190 -0.1544
 8285SOL    HW136317   1.814   2.669   7.266  1.9362  1.5007 -0.4823
 8285SOL    HW236318   1.834   2.540   7.329  0.4019  0.2387 -2.0898
 8286SOL     OW36319   4.185   4.385   4.459 -0.7846  0.5348  0.2893
 8286SOL    HW136320   4.107   4.331   4.451  0.4907 -1.2728  0.0119
 8286SOL    HW236321   4.140   4.453   4.509 -1.7893 -0.1467  0.3009
 8287SOL     OW36322   3.149   2.142  14.333  0.3396 -0.8372 -0.3622
 8287SOL    HW136323   3.210   2.173  14.400 -1.7788 -1.5432  1.8709
 8287SOL    HW236324   3.203   2.072  14.297 -0.0984  0.1238 -2.9681
 8288SOL     OW36325   2.978   4.367   3.159  0.1551  0.6139  0.0086
 8288SOL    HW136326   3.066   4.342   3.129 -0.2707 -1.1682  0.2273
 8288SOL    HW236327   2.956   4.430   3.091  0.1452 -0.9129 -1.3897
 8289SOL     OW36328   0.860   3.010   2.644  0.3131  0.1988  0.6930
 8289SOL    HW136329   0.882   3.011   2.550  1.5589  2.6135  0.9939
 8289SOL    HW236330   0.778   3.059   2.636  1.7422  2.8269  2.2253
 8290SOL     OW36331   3.747   2.190   1.991  0.1852 -0.4739  0.2103
 8290SOL    HW136332   3.790   2.265   2.032 -2.7827  0.2123  2.1002
 8290SOL    HW236333   3.745   2.210   1.898 -0.6433 -2.1076 -0.1232
 8291SOL     OW36334   1.302   2.177   6.877  0.8077  0.0232  0.4761
 8291SOL    HW136335   1.376   2.118   6.895  1.4599  0.6560 -0.1170
 8291SOL    HW236336   1.328   2.248   6.935 -2.8164  0.3586  1.6736
 8292SOL     OW36337   2.998   4.503   4.362 -0.4118  0.9464  0.0611
 8292SOL    HW136338   2.985   4.419   4.406  0.7964  0.0159 -1.3529
 8292SOL    HW236339   2.925   4.549   4.403 -0.0687 -1.0433  2.9143
 8293SOL     OW36340   0.609   3.010   8.571  0.2713  0.2483 -0.0687
 8293SOL    HW136341   0.546   3.074   8.538 -0.5311 -0.9537 -0.8576
 8293SOL    HW236342   0.564   2.927   8.555  0.2381 -0.1488  2.0024
 8294SOL     OW36343   0.839   0.070   7.006 -0.3682 -0.1229 -0.2387
 8294SOL    HW136344   0.850   0.048   7.098  0.4278  0.7153 -0.1376
 8294SOL    HW236345   0.849   4.708   6.965  3.3194  0.8574 -1.3750
 8295SOL     OW36346   2.137   2.263  11.868  0.2580 -0.1520 -0.0406
 8295SOL    HW136347   2.125   2.247  11.961 -1.9058  0.0577 -0.2757
 8295SOL    HW236348   2.097   2.184  11.831  0.9406  0.5819 -2.3639
 8296SOL     OW36349   2.995   4.032   4.742  0.3001 -0.0375 -0.3862
 8296SOL    HW136350   2.991   4.066   4.832  1.0798  1.1004 -0.7809
 8296SOL    HW236351   2.904   4.012   4.721  0.9633 -2.5112 -0.9202
 8297SOL     OW36352   4.149   4.643   2.498 -0.4132 -0.3664  0.3507
 8297SOL    HW136353   4.161   4.595   2.417  2.2978  0.5401  0.2195
 8297SOL    HW236354   4.057   4.666   2.491 -0.2359 -0.4315 -2.0908
 8298SOL     OW36355   4.713   3.263   7.749 -0.4094  0.1238  0.1054
 8298SOL    HW136356   0.068   3.236   7.795 -1.4093 -2.7418  0.0970
 8298SOL    HW236357   4.708   3.340   7.807  0.4275  0.0177  0.3261
 8299SOL     OW36358   1.282   0.694   1.451  0.0320 -0.6843 -0.6298
 8299SOL    HW136359   1.348   0.635   1.416  0.8716 -0.9425  1.3913
 8299SOL    HW236360   1.238   0.702   1.367 -1.9889 -0.9248  0.4006
 8300SOL     OW36361   1.143   3.170   3.893  0.3069  0.4062 -0.0910
 8300SOL    HW136362   1.072   3.110   3.871  1.1123 -1.2490  1.9371
 8300SOL    HW236363   1.119   3.189   3.984  1.3462  1.7953 -0.1018
 8301SOL     OW36364   3.672   4.044   6.400 -0.1986 -0.1911 -0.2110
 8301SOL    HW136365   3.661   4.066   6.307 -0.3032  1.1118  0.1063
 8301SOL    HW236366   3.730   4.110   6.439 -1.4755 -0.4025  2.0582
 8302SOL     OW36367   3.674   1.002   1.315  0.0308  0.0896  0.3683
 8302SOL    HW136368   3.666   0.980   1.222 -0.3526 -1.0175  0.6555
 8302SOL    HW236369   3.722   0.928   1.352  0.7902 -0.6067 -2.0388
 8303SOL     OW36370   3.048   0.886   5.401 -0.0425 -0.3540 -0.0142
 8303SOL    HW136371   2.961   0.923   5.385  0.2768  0.4510  0.1089
 8303SOL    HW236372   3.072   0.934   5.480 -3.5217  1.4535 -0.0235
 8304SOL     OW36373   1.954   3.580   5.801  0.2394 -0.0901  0.2497
 8304SOL    HW136374   1.877   3.562   5.747  0.2847  0.5354 -0.0223
 8304SOL    HW236375   1.928   3.663   5.841 -0.6239  0.4847 -1.5200
 8305SOL     OW36376   3.766   2.692   9.164  0.1832  0.0052 -0.1984
 8305SOL    HW136377   3.680   2.734   9.150 -1.1411 -2.3449  0.9645
 8305SOL    HW236378   3.805   2.720   9.081  3.4384 -0.7657  1.0831
 8306SOL     OW36379   4.180   4.567   3.684 -0.5554 -0.2115 -0.3011
 8306SOL    HW136380   4.098   4.609   3.707 -0.1611  0.7272 -0.6420
 8306SOL    HW236381   4.176   4.556   3.589  1.4409  2.7882 -0.7332
 8307SOL     OW36382   3.283   2.832   0.926  0.4210 -0.1486  0.0376
 8307SOL    HW136383   3.276   2.861   1.017 -0.8931 -0.1007 -0.0685
 8307SOL    HW236384   3.378   2.833   0.917  0.5361  0.4439  1.3557
 8308SOL     OW36385   2.340   3.710  11.023 -0.1631  0.4876 -0.5209
 8308SOL    HW136386   2.436   3.705  11.029 -0.3048 -0.9355  0.8324
 8308SOL    HW236387   2.320   3.621  10.994  1.5861  0.4425 -1.5811
 8309SOL     OW36388   3.209   1.774   9.140 -0.2822  0.9651  0.1097
 8309SOL    HW136389   3.202   1.712   9.068 -1.4791  2.2959 -0.9357
 8309SOL    HW236390   3.137   1.737   9.190 -1.1003  2.1024 -0.2233
 8310SOL     OW36391   2.641   2.091   2.234  0.2718  0.2934  0.0930
 8310SOL    HW136392   2.577   2.027   2.265  0.7715 -0.0762  0.3631
 8310SOL    HW236393   2.716   2.037   2.207  1.0115  2.5287 -2.3771
 8311SOL     OW36394   2.775   3.907   8.193 -0.9312  0.2656 -0.2951
 8311SOL    HW136395   2.808   3.892   8.281 -1.3380  0.8623 -0.0446
 8311SOL    HW236396   2.838   3.854   8.143  2.8664  3.6377  0.9098
 8312SOL     OW36397   3.836   3.049  13.350 -0.5289  0.2940 -0.3984
 8312SOL    HW136398   3.875   3.011  13.272  0.9233  2.0448 -0.5337
 8312SOL    HW236399   3.765   2.986  13.362 -0.3399 -0.0803 -1.2608
 8313SOL     OW36400   3.944   3.171  12.586 -0.1518  0.0207  0.1794
 8313SOL    HW136401   3.885   3.247  12.587  0.8127  0.7635  0.2462
 8313SOL    HW236402   3.882   3.106  12.620 -1.0954  1.8836  2.0357
 8314SOL     OW36403   1.651   1.657   9.177 -0.4158 -0.7221  0.1613
 8314SOL    HW136404   1.697   1.630   9.097 -0.4186  1.1133 -0.4454
 8314SOL    HW236405   1.691   1.596   9.239  0.6049 -1.0444 -0.8273
 8315SOL     OW36406   2.178   3.416   5.751  0.2521 -0.5363  0.4650
 8315SOL    HW136407   2.110   3.480   5.733 -0.0233 -1.0937 -0.5137
 8315SOL    HW236408   2.127   3.350   5.798 -0.6706 -0.1155  0.0481
 8316SOL     OW36409   2.173   0.469  16.214 -0.0419 -0.1153  0.1739
 8316SOL    HW136410   2.143   0.504  16.298 -0.5992 -0.2910  0.0474
 8316SOL    HW236411   2.265   0.491  16.229 -0.0801  1.4363 -1.8113
 8317SOL     OW36412   1.978   0.655   9.943  0.0135  0.8183 -0.6492
 8317SOL    HW136413   1.927   0.643  10.024  0.3819 -1.6340 -0.7858
 8317SOL    HW236414   2.031   0.733   9.959 -0.1882  1.7865 -4.6587
 8318SOL     OW36415   2.547   1.636   0.042 -0.0260  0.5777  0.2439
 8318SOL    HW136416   2.563   1.691  17.664 -1.8312  0.7525 -0.0186
 8318SOL    HW236417   2.478   1.584   0.002 -0.2323  1.1323 -0.1220
 8319SOL     OW36418   1.852   2.343  12.262  0.0693 -0.0242 -0.1116
 8319SOL    HW136419   1.839   2.436  12.244 -2.2284 -0.0576  1.4617
 8319SOL    HW236420   1.948   2.340  12.260  0.0121 -0.6266 -1.9382
 8320SOL     OW36421   1.114   3.338   8.208  0.2065 -0.3490 -0.0348
 8320SOL    HW136422   1.106   3.365   8.117  2.1452  0.8605  0.1692
 8320SOL    HW236423   1.197   3.380   8.232 -0.1579  0.6969 -0.5852
 8321SOL     OW36424   1.945   4.609  16.767  0.6043 -0.1082 -0.3013
 8321SOL    HW136425   2.030   4.626  16.727  0.8498  0.1627  0.3345
 8321SOL    HW236426   1.906   4.696  16.779 -0.2993 -0.2184 -2.4889
 8322SOL     OW36427   2.079   2.034  10.552  0.7643 -0.6619 -0.3159
 8322SOL    HW136428   2.089   2.059  10.460  1.7206 -0.2383 -0.0956
 8322SOL    HW236429   2.146   1.967  10.560  1.5050  0.2127  0.8474
 8323SOL     OW36430   4.289   4.051   1.004 -0.5493  0.1580 -0.4797
 8323SOL    HW136431   4.213   4.067   0.949 -0.0364 -1.4597 -1.6414
 8323SOL    HW236432   4.357   4.079   0.944  0.7617  1.3046  1.5604
 8324SOL     OW36433   0.920   0.718   1.532  0.3645  0.5165  0.4764
 8324SOL    HW136434   0.858   0.676   1.473 -1.4296  1.4377  1.6601
 8324SOL    HW236435   0.938   0.797   1.481  0.2859 -0.4279 -0.9863
 8325SOL     OW36436   3.340   0.526   8.575  0.0227 -0.5437 -0.5850
 8325SOL    HW136437   3.358   0.448   8.627  4.4614  0.3608 -0.7987
 8325SOL    HW236438   3.277   0.497   8.510 -1.0497  0.3920  0.0396
 8326SOL     OW36439   3.247   2.277   0.294 -0.2454 -0.2319 -0.0988
 8326SOL    HW136440   3.284   2.252   0.379 -2.5314 -3.1345  0.0444
 8326SOL    HW236441   3.215   2.189   0.273  0.6735 -0.5080 -0.3245
 8327SOL     OW36442   3.420   3.586   6.392  0.5025 -0.0075 -0.3082
 8327SOL    HW136443   3.352   3.653   6.391  0.8799  0.3695 -0.9349
 8327SOL    HW236444   3.493   3.645   6.407 -0.2940  0.4398  1.7036
 8328SOL     OW36445   0.197   0.926   9.234 -0.0168  0.3934  0.3338
 8328SOL    HW136446   0.187   0.895   9.144  0.4154  0.8206  0.1411
 8328SOL    HW236447   0.212   0.844   9.280 -2.4886  0.1299  0.6675
 8329SOL     OW36448   1.737   3.886   3.984 -0.2994  0.1747 -0.3232
 8329SOL    HW136449   1.716   3.965   4.034  0.1239  0.2987 -0.3414
 8329SOL    HW236450   1.655   3.838   3.977 -1.1162  1.2712  1.8937
 8330SOL     OW36451   4.388   4.136   1.571 -0.1586  0.2300  0.4674
 8330SOL    HW136452   4.293   4.140   1.586  0.1053  2.7973  1.4208
 8330SOL    HW236453   4.383   4.157   1.478 -1.9195  1.0315  0.7311
 8331SOL     OW36454   2.011   0.264   7.266  0.2120  0.3032 -0.3803
 8331SOL    HW136455   1.993   0.348   7.226 -1.7744 -0.9654 -2.1541
 8331SOL    HW236456   1.987   0.205   7.195 -0.6448 -0.7128  0.7429
 8332SOL     OW36457   3.330   1.698  13.772  0.3182 -0.1471 -0.2923
 8332SOL    HW136458   3.415   1.679  13.733  1.1859  0.9711  1.0523
 8332SOL    HW236459   3.313   1.609  13.802  0.8290 -0.7523 -1.7879
 8333SOL     OW36460   2.387   0.755   6.811  0.4910 -0.2281 -0.1320
 8333SOL    HW136461   2.397   0.849   6.795 -3.2741  0.5165  2.0441
 8333SOL    HW236462   2.384   0.748   6.906 -0.4822 -1.6488 -0.2806
 8334SOL     OW36463   2.022   2.354   5.054  0.1947 -0.1812 -0.0294
 8334SOL    HW136464   1.936   2.316   5.070 -0.4587  1.3935  0.2414
 8334SOL    HW236465   2.077   2.286   5.093  0.0530 -0.3285 -0.0869
 8335SOL     OW36466   4.562   2.839   4.665  0.3165 -0.2466  0.4044
 8335SOL    HW136467   4.530   2.749   4.658  0.2266 -0.1699 -0.1849
 8335SOL    HW236468   4.493   2.893   4.625 -0.7503 -2.0859 -0.2159
 8336SOL     OW36469   3.483   1.802   3.173 -0.9139 -0.1999 -0.5774
 8336SOL    HW136470   3.479   1.876   3.112  1.5830 -0.8562 -1.5264
 8336SOL    HW236471   3.448   1.728   3.124  1.3377 -2.6726  1.5445
 8337SOL     OW36472   0.693   2.205   5.473 -0.3024 -0.0819 -0.7669
 8337SOL    HW136473   0.662   2.182   5.561 -1.0575 -2.9658 -1.7800
 8337SOL    HW236474   0.787   2.190   5.472  0.0049  1.9435 -0.8035
 8338SOL     OW36475   1.868   3.043  10.813  0.1829 -0.3407  0.4728
 8338SOL    HW136476   1.829   2.965  10.852  2.2883 -2.0564 -0.8937
 8338SOL    HW236477   1.805   3.112  10.835  1.5722  0.9316  0.4860
 8339SOL     OW36478   0.668   2.780   8.779  1.0352 -0.4593  0.6135
 8339SOL    HW136479   0.612   2.789   8.702 -1.1032  1.2484  2.3500
 8339SOL    HW236480   0.626   2.839   8.842 -0.5206 -0.4179 -0.4758
 8340SOL     OW36481   3.881   2.978   1.750  0.2797  0.7464 -0.2424
 8340SOL    HW136482   3.825   3.023   1.813 -1.5782  0.1902 -1.4791
 8340SOL    HW236483   3.914   3.051   1.698 -1.7215  3.2220  2.0048
 8341SOL     OW36484   0.432   2.206  15.937  0.3455  0.6046  0.4815
 8341SOL    HW136485   0.474   2.159  15.865  0.6375  0.7114  0.5824
 8341SOL    HW236486   0.366   2.142  15.966 -0.9946  1.0797 -1.5941
 8342SOL     OW36487   3.849   3.195  17.658 -0.0359  0.4798  0.2113
 8342SOL    HW136488   3.887   3.201  17.570 -1.1037 -1.2196 -0.3731
 8342SOL    HW236489   3.917   3.231   0.017  0.9251 -0.3368 -0.4149
 8343SOL     OW36490   1.893   2.177   3.764 -0.0929 -0.0927  0.1210
 8343SOL    HW136491   1.855   2.190   3.678 -2.5231 -2.9190  0.7722
 8343SOL    HW236492   1.820   2.198   3.822  0.0873  2.6182 -0.6613
 8344SOL     OW36493   1.267   3.111   8.647  0.4295 -0.1751 -0.0562
 8344SOL    HW136494   1.306   3.132   8.732  0.2308 -1.5505  0.3880
 8344SOL    HW236495   1.352   3.094   8.607  0.6945  1.2252 -0.0875
 8345SOL     OW36496   4.148   0.693   7.719  0.1472  0.1929  0.3650
 8345SOL    HW136497   4.215   0.729   7.777  2.3050  2.6105 -3.6100
 8345SOL    HW236498   4.140   0.756   7.647 -0.0898 -0.9997 -0.6540
 8346SOL     OW36499   3.566   4.199   3.495 -0.9393  0.3216 -0.2222
 8346SOL    HW136500   3.552   4.293   3.495  0.2897  0.5145  0.3829
 8346SOL    HW236501   3.477   4.164   3.490 -0.3525 -1.0405 -1.3027
 8347SOL     OW36502   0.401   1.065   4.680  0.0978  0.2685  0.1041
 8347SOL    HW136503   0.392   1.069   4.775 -0.6498  2.4333 -0.0594
 8347SOL    HW236504   0.485   1.110   4.670  0.8127 -0.7243  1.5300
 8348SOL     OW36505   2.943   2.031   4.054  0.1822  0.0403  0.0331
 8348SOL    HW136506   2.922   1.939   4.071 -0.0075  0.0991  0.1138
 8348SOL    HW236507   2.898   2.047   3.972  0.3371  1.8499  0.2929
 8349SOL     OW36508   1.522   1.503   5.275  0.5123 -0.4225  0.0099
 8349SOL    HW136509   1.521   1.415   5.236  1.0066  0.8482 -2.8707
 8349SOL    HW236510   1.604   1.539   5.240  0.4026  0.2741  0.4659
 8350SOL     OW36511   3.086   1.621   6.441 -0.4725 -0.5838 -0.1294
 8350SOL    HW136512   3.088   1.533   6.478  1.4080 -0.9903 -1.2410
 8350SOL    HW236513   3.127   1.669   6.514 -0.8943  0.1774 -0.3906
 8351SOL     OW36514   3.221   2.006   0.295 -0.0739 -0.5099 -0.5866
 8351SOL    HW136515   3.302   2.000   0.346  0.6974 -1.4957 -1.9115
 8351SOL    HW236516   3.246   1.955   0.217  0.6022  0.1185 -0.7853
 8352SOL     OW36517   1.962   4.466   6.840  0.5753 -0.2096  0.5929
 8352SOL    HW136518   1.870   4.479   6.815  0.6130 -1.3051 -0.0837
 8352SOL    HW236519   1.952   4.395   6.904  0.5397 -0.9134 -0.1998
 8353SOL     OW36520   0.738   1.304   8.416 -0.7452  0.2240 -0.2061
 8353SOL    HW136521   0.748   1.263   8.502  1.1997  0.0144 -0.5337
 8353SOL    HW236522   0.819   1.279   8.371 -1.5832  1.0228 -2.1468
 8354SOL     OW36523   2.559   0.763   8.533  0.2070  0.2715 -0.4468
 8354SOL    HW136524   2.540   0.784   8.624 -1.0006 -1.3639 -0.3188
 8354SOL    HW236525   2.486   0.702   8.518  0.2031  0.3609 -0.7985
 8355SOL     OW36526   4.688   3.471   7.918  0.0426 -0.7177  0.2985
 8355SOL    HW136527   0.009   3.541   7.966 -2.6209 -0.3848  2.3492
 8355SOL    HW236528   4.625   3.451   7.987  0.6934  1.7467  1.6165
 8356SOL     OW36529   0.400   1.183  13.805 -0.1237 -0.2058  0.0568
 8356SOL    HW136530   0.336   1.146  13.866 -0.0184 -1.7438 -0.7697
 8356SOL    HW236531   0.472   1.216  13.859  1.1883 -1.8900 -0.6783
 8357SOL     OW36532   2.887   2.205  14.461  0.3166  0.3965  0.2762
 8357SOL    HW136533   2.900   2.111  14.468 -2.6212 -0.0170  0.1410
 8357SOL    HW236534   2.963   2.221  14.406  0.1027  0.3908 -0.0208
 8358SOL     OW36535   1.903   2.033   1.547 -0.2310  0.2983 -0.4331
 8358SOL    HW136536   1.875   2.089   1.620  0.2509 -1.3775  1.0070
 8358SOL    HW236537   1.818   1.991   1.534 -0.6744  1.5958 -1.7369
 8359SOL     OW36538   3.173   1.739   8.255 -0.0313 -0.5036 -0.4359
 8359SOL    HW136539   3.231   1.811   8.280  1.3080 -0.3754 -3.9102
 8359SOL    HW236540   3.134   1.776   8.176 -1.2805 -1.3106 -0.1977
 8360SOL     OW36541   1.306   1.053  16.552 -0.2650  0.0004  0.2608
 8360SOL    HW136542   1.257   0.996  16.492 -2.4048  1.0933  0.9732
 8360SOL    HW236543   1.397   1.038  16.524 -0.2746  0.5180 -0.0514
 8361SOL     OW36544   1.553   0.261   2.383 -0.0525  0.0891  0.1688
 8361SOL    HW136545   1.547   0.357   2.381 -2.8182 -0.0767  1.4508
 8361SOL    HW236546   1.501   0.236   2.306  0.0589  1.4237 -0.3473
 8362SOL     OW36547   1.483   3.144   2.419 -0.6444 -0.5050  0.3820
 8362SOL    HW136548   1.540   3.067   2.421 -0.9002 -0.7395 -1.1622
 8362SOL    HW236549   1.494   3.167   2.326 -4.3072  0.7780  0.2788
 8363SOL     OW36550   2.806   0.865   4.150  0.9652 -0.3869 -0.1279
 8363SOL    HW136551   2.853   0.858   4.234 -0.0528 -1.4738  0.3593
 8363SOL    HW236552   2.756   0.944   4.167 -1.1708 -1.4364 -1.6333
 8364SOL     OW36553   2.918   0.195   5.466 -0.1921 -0.8433 -0.4000
 8364SOL    HW136554   2.868   0.263   5.422 -0.5319 -1.0522 -0.3315
 8364SOL    HW236555   2.995   0.247   5.491 -0.6528  0.6580 -2.1766
 8365SOL     OW36556   4.720   2.920  17.278  0.0012 -0.0257 -0.0264
 8365SOL    HW136557   0.019   2.869  17.201  2.4170  0.7517  0.1893
 8365SOL    HW236558   4.649   2.865  17.311 -0.2933  0.7319  0.6141
 8366SOL     OW36559   3.926   4.129  17.237 -0.3511  0.6529 -0.1599
 8366SOL    HW136560   3.959   4.107  17.150  2.5292  2.7620  0.3980
 8366SOL    HW236561   3.985   4.080  17.294 -0.0056  2.2982  0.8826
 8367SOL     OW36562   3.913   3.823   0.884  0.0799  0.1302  0.0407
 8367SOL    HW136563   4.002   3.847   0.861 -0.1491 -1.0816 -2.1913
 8367SOL    HW236564   3.895   3.773   0.803  1.1166 -0.5514  0.2330
 8368SOL     OW36565   2.220   3.249   5.053 -0.2739  0.0352  0.0431
 8368SOL    HW136566   2.212   3.332   5.006  1.4880 -0.7649 -1.6599
 8368SOL    HW236567   2.149   3.195   5.020  0.8249 -1.9259  0.8720
 8369SOL     OW36568   2.829   2.535   6.647 -0.9134  0.8798 -0.9059
 8369SOL    HW136569   2.917   2.557   6.677 -1.3849 -0.1607  1.2886
 8369SOL    HW236570   2.851   2.524   6.555  0.2998  1.1970 -0.6517
 8370SOL     OW36571   0.007   3.476   1.664  0.3461  0.5420  0.0912
 8370SOL    HW136572   0.075   3.466   1.730  0.9629 -3.2723 -1.1325
 8370SOL    HW236573   0.013   3.570   1.646 -3.1416  0.5659 -0.9851
 8371SOL     OW36574   3.504   2.163  11.139  0.3401 -0.0312 -0.9646
 8371SOL    HW136575   3.456   2.095  11.092  0.1299  1.4628 -2.9468
 8371SOL    HW236576   3.444   2.184  11.210  3.8915  2.8637  1.2111
 8372SOL     OW36577   4.120   1.583   2.995  0.0388  0.0378  0.3839
 8372SOL    HW136578   4.067   1.511   2.960 -1.3431  2.1526 -1.8505
 8372SOL    HW236579   4.100   1.577   3.088  0.9887  0.5374  0.6182
 8373SOL     OW36580   1.042   1.044   7.851  0.0067  0.4053 -0.1508
 8373SOL    HW136581   0.950   1.066   7.839 -0.0165 -0.3965 -1.4849
 8373SOL    HW236582   1.078   1.014   7.767 -2.8627  0.3125 -1.3464
 8374SOL     OW36583   1.838   0.472   9.415  0.6416  0.3535 -0.1065
 8374SOL    HW136584   1.858   0.551   9.366  0.2919  0.1343 -0.6022
 8374SOL    HW236585   1.891   0.494   9.491 -3.6358 -0.0565  3.0142
 8375SOL     OW36586   0.629   3.400   8.125  0.3432 -0.7964 -0.2810
 8375SOL    HW136587   0.674   3.376   8.206  0.2506 -1.7060 -0.4967
 8375SOL    HW236588   0.640   3.494   8.110 -2.3513 -0.2755  0.8896
 8376SOL     OW36589   1.787   0.723   7.391  0.2442 -0.3860 -0.0480
 8376SOL    HW136590   1.778   0.726   7.295  0.6074  0.6316 -0.0509
 8376SOL    HW236591   1.725   0.791   7.417 -1.0778 -0.6164 -2.5430
 8377SOL     OW36592   2.495   1.025   6.309  0.1651 -0.3362  0.2056
 8377SOL    HW136593   2.515   0.967   6.235 -0.6721 -0.6517  0.2247
 8377SOL    HW236594   2.540   0.977   6.378  2.1034  1.7362  0.4116
 8378SOL     OW36595   0.899   3.009   6.627 -0.4592 -0.2197  0.6088
 8378SOL    HW136596   0.909   3.102   6.607  0.6378 -0.4138  0.2446
 8378SOL    HW236597   0.903   2.971   6.539 -0.0929  2.6414 -0.6084
 8379SOL     OW36598   3.244   2.655   6.503 -0.5742 -0.4530  0.2431
 8379SOL    HW136599   3.203   2.679   6.420  0.9326  0.1481 -0.3230
 8379SOL    HW236600   3.309   2.718   6.535 -0.5161  0.6456 -2.0906
 8380SOL     OW36601   0.474   1.705   8.515 -0.1880  0.4942 -0.4292
 8380SOL    HW136602   0.498   1.620   8.479  0.7955 -0.4709  2.4907
 8380SOL    HW236603   0.418   1.693   8.591  0.3326  1.4931  0.1121
 8381SOL     OW36604   1.797   3.883   2.253 -0.1883  0.4432 -0.1005
 8381SOL    HW136605   1.874   3.913   2.205  2.7762 -1.7600  3.2086
 8381SOL    HW236606   1.727   3.889   2.189  1.4875 -3.3470 -2.2942
 8382SOL     OW36607   0.849   0.052   0.425 -0.3542 -0.7590  0.2418
 8382SOL    HW136608   0.852   0.093   0.512 -1.2391 -1.8225  0.7680
 8382SOL    HW236609   0.816   0.126   0.373  0.1339 -0.6261  0.1164
 8383SOL     OW36610   1.347   1.915   2.720 -0.4504  0.2145  0.1927
 8383SOL    HW136611   1.328   1.830   2.680  0.3186  0.9162 -1.6277
 8383SOL    HW236612   1.381   1.896   2.808 -0.5372 -3.0124 -0.4633
 8384SOL     OW36613   2.713   0.038   2.773 -0.1051 -0.6832  0.4216
 8384SOL    HW136614   2.772   4.691   2.751 -0.4505 -0.4684 -1.1893
 8384SOL    HW236615   2.661   4.708   2.833  0.4242 -0.8463  0.7336
 8385SOL     OW36616   2.255   3.690   5.879  0.1613  0.3270  0.0457
 8385SOL    HW136617   2.166   3.655   5.886  0.2390  0.2271  0.5786
 8385SOL    HW236618   2.246   3.785   5.866 -0.1099  0.0566 -1.7475
 8386SOL     OW36619   4.664   4.126   8.482 -0.1992  0.6197  0.5989
 8386SOL    HW136620   4.683   4.122   8.575 -2.5305  0.1773  1.0612
 8386SOL    HW236621   4.631   4.039   8.458  0.1652  0.5936  0.1904
 8387SOL     OW36622   0.371   2.438   7.450  0.8660  0.3301 -0.6195
 8387SOL    HW136623   0.453   2.392   7.466  0.4223 -0.5437 -0.8646
 8387SOL    HW236624   0.384   2.506   7.517  0.0290 -0.2660  0.1433
 8388SOL     OW36625   0.477   0.628   8.234  0.0934 -0.0897  0.8332
 8388SOL    HW136626   0.519   0.710   8.259 -0.5858  1.3684 -2.6680
 8388SOL    HW236627   0.413   0.662   8.171  0.3472  0.6735  0.9894
 8389SOL     OW36628   3.387   4.489   8.089  0.2572 -0.8590  0.0730
 8389SOL    HW136629   3.324   4.479   8.161  0.1806  1.0904  0.3011
 8389SOL    HW236630   3.413   4.580   8.106 -0.0482 -1.0396  1.5618
 8390SOL     OW36631   1.107   0.652   7.661  0.4319  0.3426 -0.1674
 8390SOL    HW136632   1.153   0.570   7.676  1.0048  0.3801 -1.7613
 8390SOL    HW236633   1.040   0.640   7.593  0.1717  0.9286 -0.0156
 8391SOL     OW36634   2.501   0.448   6.908  0.2344  0.0203  0.0988
 8391SOL    HW136635   2.527   0.421   6.996 -1.4948  0.9569  0.9030
 8391SOL    HW236636   2.569   0.515   6.896 -0.0390  0.1518 -0.7357
 8392SOL     OW36637   0.193   0.772  14.736  0.5281 -0.0156 -0.4420
 8392SOL    HW136638   0.287   0.777  14.751  0.4354 -0.6229  0.3564
 8392SOL    HW236639   0.178   0.724  14.655  0.7106 -0.2836 -0.3174
 8393SOL     OW36640   2.983   1.951   6.529 -0.0511 -0.3758 -0.0007
 8393SOL    HW136641   2.931   2.013   6.581  1.1279  0.6071  0.0096
 8393SOL    HW236642   2.913   1.886   6.529  0.9289 -1.4115 -1.9586
 8394SOL     OW36643   1.654   3.917   6.088  0.5925  0.6527 -0.3404
 8394SOL    HW136644   1.667   4.008   6.061  2.3794  0.7737  0.9374
 8394SOL    HW236645   1.620   3.929   6.177  0.3826 -1.0593 -0.1928
 8395SOL     OW36646   3.719   1.645   4.801 -0.2579 -0.4538 -0.4613
 8395SOL    HW136647   3.637   1.645   4.752  1.0559  0.3490 -2.6584
 8395SOL    HW236648   3.694   1.691   4.881  0.5810  0.0974 -0.5257
 8396SOL     OW36649   1.605   0.775  12.151  0.2157 -0.2262  0.4268
 8396SOL    HW136650   1.577   0.847  12.095 -1.9938 -2.4895 -1.3578
 8396SOL    HW236651   1.539   0.783  12.220 -2.0854 -0.8078 -1.7080
 8397SOL     OW36652   0.448   0.215   7.201 -0.4664  0.1380 -0.1280
 8397SOL    HW136653   0.364   0.216   7.157 -0.0361  1.2191 -0.9090
 8397SOL    HW236654   0.431   0.296   7.249 -2.0773 -1.4122  1.9037
 8398SOL     OW36655   1.658   3.913   5.784 -0.4008 -0.0330 -0.0565
 8398SOL    HW136656   1.663   3.840   5.846 -1.3770  0.5548  0.7069
 8398SOL    HW236657   1.655   3.853   5.709 -1.1315 -0.9036  0.6750
 8399SOL     OW36658   2.663   1.012   1.954 -0.2423 -0.2731  0.1085
 8399SOL    HW136659   2.649   1.105   1.936  2.5002  0.1372  0.0722
 8399SOL    HW236660   2.604   1.005   2.030 -1.7318  0.6818 -0.9604
 8400SOL     OW36661   0.734   1.613   7.432  0.2254  0.3730 -0.3430
 8400SOL    HW136662   0.713   1.626   7.524  1.2774 -0.5865  0.0222
 8400SOL    HW236663   0.775   1.527   7.437  1.9113  1.2403  0.4871
 8401SOL     OW36664   3.954   0.428   6.388  0.3785  0.0916  0.9115
 8401SOL    HW136665   3.870   0.441   6.343  1.4021 -0.0001 -1.0614
 8401SOL    HW236666   4.011   0.428   6.310  1.0853 -2.7707  1.4205
 8402SOL     OW36667   2.478   1.547   5.459 -0.1679  0.1245  0.0169
 8402SOL    HW136668   2.405   1.490   5.433  0.6926 -2.0345  2.2738
 8402SOL    HW236669   2.553   1.490   5.444  1.0302  1.5201  0.8059
 8403SOL     OW36670   3.478   2.307   3.794 -0.4528 -0.5014 -0.1269
 8403SOL    HW136671   3.474   2.213   3.777  1.1269 -0.3754 -1.1764
 8403SOL    HW236672   3.570   2.316   3.768 -0.4161  0.5915  0.3817
 8404SOL     OW36673   2.042   4.633   9.949 -0.1442 -0.4363  0.1178
 8404SOL    HW136674   2.006   4.625   9.861  0.3691  0.0352 -0.1344
 8404SOL    HW236675   2.133   4.652   9.928  0.0033 -1.3505 -0.0810
 8405SOL     OW36676   4.441   3.753   8.080  0.1610 -0.1655 -0.7251
 8405SOL    HW136677   4.454   3.665   8.046 -0.5441  0.3013 -2.1878
 8405SOL    HW236678   4.534   3.776   8.082  0.2124 -0.3717 -0.7810
 8406SOL     OW36679   2.475   1.800   8.503  0.5057 -0.0470  0.1603
 8406SOL    HW136680   2.473   1.866   8.572 -1.5521 -2.9742  2.9676
 8406SOL    HW236681   2.489   1.721   8.557  0.7411 -0.4513 -0.4956
 8407SOL     OW36682   3.590   3.962   8.547 -0.8779  0.4902 -0.3957
 8407SOL    HW136683   3.674   4.004   8.566  0.7110 -3.3872  1.1612
 8407SOL    HW236684   3.530   4.033   8.568 -2.0289  0.3620 -3.3622
 8408SOL     OW36685   3.051   0.200   6.006 -0.4127 -0.2044  0.2763
 8408SOL    HW136686   2.966   0.225   5.970 -0.1992 -0.9803 -0.7892
 8408SOL    HW236687   3.022   0.132   6.067  2.4495 -1.5231  0.1569
 8409SOL     OW36688   3.614   4.170   2.994  0.2352  0.0619  0.1402
 8409SOL    HW136689   3.686   4.232   2.981  0.5332  0.3034  3.0253
 8409SOL    HW236690   3.554   4.186   2.922 -0.0878 -0.3593  0.3176
 8410SOL     OW36691   2.821   2.328   2.726  0.1806  0.0123  0.0099
 8410SOL    HW136692   2.863   2.285   2.800  1.6712  0.1285 -0.7750
 8410SOL    HW236693   2.729   2.299   2.728 -0.2227  1.2447 -0.7872
 8411SOL     OW36694   1.799   2.664   8.156  0.7462  0.1855  0.7154
 8411SOL    HW136695   1.864   2.616   8.206 -0.8141 -0.4172  2.1414
 8411SOL    HW236696   1.852   2.701   8.085 -0.4322 -1.5187 -1.0431
 8412SOL     OW36697   0.107   0.503   7.239  0.3745  0.4533  0.0517
 8412SOL    HW136698   0.097   0.596   7.216  1.5006 -0.2389 -3.2525
 8412SOL    HW236699   0.027   0.479   7.285  0.9134  0.2110  0.8563
 8413SOL     OW36700   4.667   1.165   0.548  0.2646  0.0413  0.0517
 8413SOL    HW136701   4.677   1.236   0.486  1.2965 -0.5762 -0.4844
 8413SOL    HW236702   4.631   1.206   0.627  0.4198 -0.4960  0.4006
 8414SOL     OW36703   0.535   2.175   6.957 -0.8938  0.1486  0.4969
 8414SOL    HW136704   0.571   2.185   6.869  0.4697  0.6677  1.1173
 8414SOL    HW236705   0.615   2.176   7.011  1.0234 -1.0973 -2.3115
 8415SOL     OW36706   1.866   3.179   3.534  0.5032  0.0287 -0.4601
 8415SOL    HW136707   1.952   3.221   3.528 -0.0640  1.4671  1.2737
 8415SOL    HW236708   1.836   3.158   3.446 -0.1327 -0.3330 -0.1588
 8416SOL     OW36709   0.333   0.007   2.957 -0.3799  0.4560  0.6911
 8416SOL    HW136710   0.389   4.657   2.933 -0.1899  0.2840  1.6630
 8416SOL    HW236711   0.285   0.026   2.877  0.4961 -1.5765 -0.3065
 8417SOL     OW36712   1.688   1.377  15.060  0.2413 -0.7846 -0.3582
 8417SOL    HW136713   1.697   1.467  15.031 -0.7510 -1.1538 -1.8451
 8417SOL    HW236714   1.773   1.373  15.104  0.1060  0.9947  0.0611
 8418SOL     OW36715   1.993   0.213   0.418  0.1282 -0.1490 -0.3926
 8418SOL    HW136716   2.053   0.145   0.388  2.5667  2.2058 -0.8052
 8418SOL    HW236717   1.910   0.184   0.380 -0.5823  0.2381  0.8398
 8419SOL     OW36718   2.176   1.844  11.572 -0.2589 -0.1602  0.2368
 8419SOL    HW136719   2.194   1.754  11.600  0.3559 -0.5906 -1.5468
 8419SOL    HW236720   2.257   1.878  11.535 -1.6009  0.8231 -1.8318
 8420SOL     OW36721   1.642   3.700   6.515  0.3280 -0.7648  0.2320
 8420SOL    HW136722   1.555   3.663   6.503 -0.0221  0.5921 -1.3862
 8420SOL    HW236723   1.693   3.628   6.551  0.2671 -0.8448  0.1569
 8421SOL     OW36724   4.598   4.261   7.624 -0.5247  0.0824 -0.9388
 8421SOL    HW136725   4.531   4.319   7.662 -0.4638  1.8673 -3.5985
 8421SOL    HW236726   4.552   4.178   7.639 -1.0535  0.4661 -0.4231
 8422SOL     OW36727   0.996   3.968   2.903 -0.2044 -0.2180  0.2438
 8422SOL    HW136728   1.087   3.949   2.881 -0.2135  0.2630 -0.2119
 8422SOL    HW236729   0.980   4.054   2.863  0.5540 -0.0081  0.3907
 8423SOL     OW36730   2.607   2.928  11.779 -0.1567  0.2137 -0.0201
 8423SOL    HW136731   2.658   2.976  11.845 -0.7015  0.3918  0.2682
 8423SOL    HW236732   2.586   2.855  11.838  0.7894 -0.5706 -0.6569
 8424SOL     OW36733   1.513   0.599   8.161 -0.4209  0.1604  0.4382
 8424SOL    HW136734   1.593   0.646   8.185 -0.2808  0.4048 -0.5227
 8424SOL    HW236735   1.505   0.611   8.066 -0.8059 -1.7067  0.2413
 8425SOL     OW36736   3.406   2.583   2.036  0.1858 -0.2760 -0.0136
 8425SOL    HW136737   3.367   2.529   1.968  0.4970  0.8886 -1.1256
 8425SOL    HW236738   3.422   2.517   2.102 -0.2756  0.5307  0.9072
 8426SOL     OW36739   0.904   3.545   9.244 -0.0293  0.4177  0.1127
 8426SOL    HW136740   0.842   3.575   9.309 -0.7664  0.0922 -0.4405
 8426SOL    HW236741   0.994   3.560   9.274 -0.4072 -0.2355  1.5614
 8427SOL     OW36742   4.595   0.683   6.297  0.5733 -0.4221  0.1209
 8427SOL    HW136743   4.682   0.722   6.299  0.1080  0.5924  0.6554
 8427SOL    HW236744   4.627   0.597   6.268 -0.2713 -0.1503 -1.6495
 8428SOL     OW36745   4.000   1.608   6.305  0.0506  0.3169  0.2736
 8428SOL    HW136746   3.978   1.548   6.234  0.7103  0.8166 -0.3650
 8428SOL    HW236747   4.084   1.643   6.273  0.5767  1.2079  2.6121
 8429SOL     OW36748   0.635   2.906  12.846 -0.2004 -0.0359  0.1515
 8429SOL    HW136749   0.585   2.839  12.799 -0.7159 -0.5837  1.4959
 8429SOL    HW236750   0.713   2.860  12.879 -1.0540  0.7949  3.3049
 8430SOL     OW36751   3.522   1.355   3.647 -0.1782 -0.4529  0.3093
 8430SOL    HW136752   3.468   1.390   3.576 -1.1203 -0.3768  1.0602
 8430SOL    HW236753   3.517   1.429   3.707 -2.2486 -0.3061 -0.0395
 8431SOL     OW36754   3.708   2.907  17.661  0.3451 -0.0293 -0.2904
 8431SOL    HW136755   3.665   2.873   0.042  0.8735 -1.5706 -0.6571
 8431SOL    HW236756   3.686   2.999  17.654  1.7732  0.4058  0.8526
 8432SOL     OW36757   3.655   4.553   7.426 -0.0107  0.0014 -0.0138
 8432SOL    HW136758   3.732   4.556   7.369 -1.0122 -0.3644 -1.3761
 8432SOL    HW236759   3.682   4.484   7.487  0.2137  0.4337  0.3768
 8433SOL     OW36760   4.562   2.521   3.924  0.0897 -0.3086 -0.3261
 8433SOL    HW136761   4.533   2.454   3.862  1.9916 -1.6453  0.2285
 8433SOL    HW236762   4.602   2.469   3.993 -1.4143  0.8193  1.3969
 8434SOL     OW36763   4.168   0.407  14.978  0.2884 -0.6507 -0.0684
 8434SOL    HW136764   4.097   0.462  14.946 -1.1890 -1.5010  1.7970
 8434SOL    HW236765   4.196   0.356  14.901  2.3278 -3.0892  2.2830
 8435SOL     OW36766   3.604   2.827   7.639 -0.5297  0.2137  0.8760
 8435SOL    HW136767   3.692   2.859   7.662 -1.3071  1.9460  1.4305
 8435SOL    HW236768   3.590   2.868   7.553  1.1756  1.4776  1.1938
 8436SOL     OW36769   4.140   4.054   6.376 -0.3281  0.1374  0.4425
 8436SOL    HW136770   4.114   4.143   6.350  1.2585  0.4978  0.0893
 8436SOL    HW236771   4.104   4.046   6.465 -1.1593  1.5038  0.2357
 8437SOL     OW36772   1.265   3.234   5.612  0.9159 -0.3691 -0.0258
 8437SOL    HW136773   1.328   3.306   5.614 -0.9898  1.2766  0.4768
 8437SOL    HW236774   1.274   3.190   5.696  1.8130 -0.8203 -0.3538
 8438SOL     OW36775   2.635   3.011   7.492  0.5852 -0.0802  0.2092
 8438SOL    HW136776   2.641   2.963   7.410 -2.3215 -0.5611  0.2827
 8438SOL    HW236777   2.712   3.067   7.486  0.9610 -0.6341 -0.1779
 8439SOL     OW36778   3.861   1.234  11.476 -0.0984 -0.4326 -0.2571
 8439SOL    HW136779   3.767   1.247  11.486  0.1819  1.8721 -0.7381
 8439SOL    HW236780   3.881   1.212  11.567  0.6530  1.0069 -0.0866
 8440SOL     OW36781   1.589   4.564   0.794  0.3514 -0.2822 -0.2452
 8440SOL    HW136782   1.510   4.568   0.740 -0.1668  1.1158  0.6093
 8440SOL    HW236783   1.656   4.595   0.735  0.2803  0.2591 -0.0415
 8441SOL     OW36784   1.126   1.918   7.925 -0.0350 -0.2740 -0.3428
 8441SOL    HW136785   1.151   1.992   7.980 -0.0691 -0.4270 -0.1215
 8441SOL    HW236786   1.031   1.927   7.917  0.1221  0.8373 -0.9759
 8442SOL     OW36787   1.118   3.226   3.164 -0.1359  0.5750 -0.6310
 8442SOL    HW136788   1.205   3.221   3.203  0.1806  1.3159 -1.2529
 8442SOL    HW236789   1.098   3.315   3.194  2.5578  1.2507 -0.8665
 8443SOL     OW36790   2.137   0.875  10.000 -0.1578 -0.4585  0.0481
 8443SOL    HW136791   2.199   0.802   9.998 -1.6790 -1.7760  0.6659
 8443SOL    HW236792   2.132   0.889  10.095  1.3279 -2.0667  0.3759
 8444SOL     OW36793   1.795   2.896   2.758 -0.1623 -0.1688  0.3690
 8444SOL    HW136794   1.732   2.840   2.713  0.9821 -1.6600  0.5975
 8444SOL    HW236795   1.846   2.832   2.807 -0.2506  0.7800  1.6896
 8445SOL     OW36796   4.037   2.604  15.805  0.2251  0.0330  0.3779
 8445SOL    HW136797   4.009   2.687  15.768  0.6088 -0.0392 -0.0644
 8445SOL    HW236798   3.964   2.578  15.862  0.7337 -0.3730  0.8486
 8446SOL     OW36799   2.049   2.282   7.739 -0.0283 -0.4263 -0.1989
 8446SOL    HW136800   2.017   2.294   7.829 -2.0606  0.2262 -1.0247
 8446SOL    HW236801   2.059   2.376   7.725 -0.5109 -0.1121  1.5906
 8447SOL     OW36802   3.487   2.042   3.037 -0.3580  0.0719 -0.4749
 8447SOL    HW136803   3.522   2.125   3.005  1.6799 -0.2992  0.7669
 8447SOL    HW236804   3.408   2.059   3.089  1.3470  3.2326  1.1121
 8448SOL     OW36805   0.846   3.568   2.441 -0.4493  0.6349  0.2472
 8448SOL    HW136806   0.937   3.595   2.453  0.2396 -1.1202 -1.1341
 8448SOL    HW236807   0.815   3.553   2.530  2.1264 -1.2277  0.8057
 8449SOL     OW36808   1.010   2.194  11.438  0.3455 -0.0805 -0.3567
 8449SOL    HW136809   1.091   2.234  11.470 -0.8872  1.4209  0.8766
 8449SOL    HW236810   0.953   2.207  11.513  1.2699 -4.1828  1.1007
 8450SOL     OW36811   0.426   2.561   9.405 -0.1041 -0.1577 -0.5778
 8450SOL    HW136812   0.460   2.639   9.361  0.6356 -0.0741  0.1455
 8450SOL    HW236813   0.368   2.593   9.475  0.0681 -1.1864  0.0360
 8451SOL     OW36814   2.954   4.631   7.454 -0.6366  0.0648  0.1515
 8451SOL    HW136815   2.900   4.640   7.375  1.2823 -0.7769 -1.2530
 8451SOL    HW236816   2.998   4.548   7.434 -3.0115 -1.6006  1.7427
 8452SOL     OW36817   0.722   3.629   6.062  0.3656 -0.1226 -0.4809
 8452SOL    HW136818   0.628   3.611   6.058  0.3285 -0.0829  0.1303
 8452SOL    HW236819   0.732   3.724   6.053 -0.2305  0.0574  0.7447
 8453SOL     OW36820   3.190   0.414   3.182  0.4221  0.1698 -0.2214
 8453SOL    HW136821   3.097   0.420   3.157 -0.0136  1.0661  1.6005
 8453SOL    HW236822   3.202   0.504   3.211  0.9283  0.4025 -1.1667
 8454SOL     OW36823   3.649   2.852   6.217  0.2518 -0.0196  0.3287
 8454SOL    HW136824   3.603   2.932   6.189 -1.0535 -1.2815 -1.1602
 8454SOL    HW236825   3.725   2.897   6.254 -1.1947  3.2728 -0.6671
 8455SOL     OW36826   1.615   2.673   3.625  0.2453  0.3869 -1.1167
 8455SOL    HW136827   1.693   2.710   3.583  0.1899 -0.0829 -1.6321
 8455SOL    HW236828   1.643   2.589   3.663 -2.4381  0.2289  0.5104
 8456SOL     OW36829   1.238   3.885   2.858  0.5938 -0.5377  0.0060
 8456SOL    HW136830   1.278   3.959   2.905  2.1761 -1.0555 -0.5141
 8456SOL    HW236831   1.277   3.811   2.904  0.1662 -2.9815 -3.5430
 8457SOL     OW36832   4.043   3.836   1.246  0.5464  0.4032 -0.3671
 8457SOL    HW136833   4.049   3.778   1.322  2.7000  1.3600  0.1884
 8457SOL    HW236834   3.960   3.883   1.253 -0.8917 -2.1629 -0.2944
 8458SOL     OW36835   4.453   0.741  13.654 -0.3210 -0.1599 -0.1141
 8458SOL    HW136836   4.510   0.714  13.581 -0.4737  1.2273 -0.7417
 8458SOL    HW236837   4.376   0.755  13.599 -0.4069 -0.0627  0.0320
 8459SOL     OW36838   1.479   3.538  10.910  0.2270  0.1080 -0.4168
 8459SOL    HW136839   1.466   3.530  10.816 -0.9061 -1.5034 -0.1152
 8459SOL    HW236840   1.452   3.451  10.941  1.3219  0.0439  0.3444
 8460SOL     OW36841   3.460   1.779  17.061  0.0146  0.0597 -0.1712
 8460SOL    HW136842   3.435   1.850  17.120 -1.2295  0.5681 -1.3079
 8460SOL    HW236843   3.462   1.700  17.115 -0.1189  1.0958  1.3320
 8461SOL     OW36844   4.236   1.353   0.552  0.5866  0.0789  0.1119
 8461SOL    HW136845   4.222   1.329   0.644 -2.7937  2.2856  0.1585
 8461SOL    HW236846   4.154   1.401   0.541  1.7960  1.7971 -1.2851
 8462SOL     OW36847   2.636   0.076  10.247 -0.3750 -0.3186 -0.4117
 8462SOL    HW136848   2.658   0.145  10.185 -0.9274  0.2184 -0.0127
 8462SOL    HW236849   2.540   0.076  10.244 -0.4091 -0.7865  0.7088
 8463SOL     OW36850   2.195   0.570  16.483  0.4488 -0.0578  0.4394
 8463SOL    HW136851   2.262   0.507  16.509  1.5775  0.1261 -2.0973
 8463SOL    HW236852   2.238   0.654  16.502 -1.1097  0.1573  3.1494
 8464SOL     OW36853   1.865   2.368  16.071 -0.0818 -0.3554  0.3789
 8464SOL    HW136854   1.846   2.296  16.130  0.5386 -1.7257 -1.0946
 8464SOL    HW236855   1.947   2.399  16.110 -1.3600  1.8526  1.3562
 8465SOL     OW36856   3.054   2.522   3.680  0.3728 -0.2686  0.0393
 8465SOL    HW136857   3.003   2.601   3.665 -0.9770 -1.1076  0.2236
 8465SOL    HW236858   3.143   2.550   3.703  0.2463  1.0374 -1.1151
 8466SOL     OW36859   1.366   0.157  13.276  0.9103  0.4423  0.2367
 8466SOL    HW136860   1.363   0.065  13.301 -0.0948  0.2501 -0.5915
 8466SOL    HW236861   1.434   0.185  13.338  2.3852 -0.4771 -0.9635
 8467SOL     OW36862   0.880   1.380   4.864  0.2202  0.5178 -0.1409
 8467SOL    HW136863   0.933   1.396   4.941  0.9666  0.7718 -0.7015
 8467SOL    HW236864   0.881   1.469   4.828  2.8464  0.5898  0.0886
 8468SOL     OW36865   3.430   0.871  15.967  0.1691  0.4387 -0.0280
 8468SOL    HW136866   3.488   0.889  15.893  1.2856  1.8562  1.2063
 8468SOL    HW236867   3.344   0.902  15.937 -0.4872  0.0279  1.4144
 8469SOL     OW36868   4.490   1.065   5.884  0.3574  0.4355  0.2240
 8469SOL    HW136869   4.416   1.010   5.858  0.5470  1.1134 -1.7423
 8469SOL    HW236870   4.458   1.153   5.905  0.4213  0.7777 -1.1659
 8470SOL     OW36871   4.501   3.378   7.597 -0.6938  0.1206 -0.1522
 8470SOL    HW136872   4.472   3.314   7.532 -0.0029  1.1882 -1.5097
 8470SOL    HW236873   4.578   3.331   7.629 -0.1162 -0.7256 -2.7804
 8471SOL     OW36874   4.366   4.076  16.048  0.2521 -0.0254 -0.7853
 8471SOL    HW136875   4.385   4.044  16.137 -0.9983 -1.3419 -0.9850
 8471SOL    HW236876   4.337   4.165  16.069  0.5227 -0.4571  1.4704
 8472SOL     OW36877   2.814   4.346  17.068 -0.5918  0.4560  0.0019
 8472SOL    HW136878   2.782   4.256  17.056  0.8713  0.2806 -2.6161
 8472SOL    HW236879   2.859   4.354  16.984  0.0006 -1.6487  0.0932
 8473SOL     OW36880   1.891   0.963   0.064  0.1179 -0.1091  0.2460
 8473SOL    HW136881   1.864   0.953   0.155  0.5612  0.1718  0.4084
 8473SOL    HW236882   1.974   1.011   0.069 -0.8785  1.5927  0.3981
 8474SOL     OW36883   0.467   2.827   9.315 -0.1027  0.1332 -0.1127
 8474SOL    HW136884   0.535   2.867   9.261  1.1019 -0.5095  0.9154
 8474SOL    HW236885   0.425   2.905   9.350  1.0664 -0.0963  1.7764
 8475SOL     OW36886   0.235   2.424   4.014  0.0264  0.3879 -0.2133
 8475SOL    HW136887   0.233   2.330   3.997  1.4311  0.1075  1.1678
 8475SOL    HW236888   0.309   2.441   3.955 -1.0361 -0.0553 -1.6921
 8476SOL     OW36889   3.652   1.994   9.136 -0.3238  0.7008 -0.5003
 8476SOL    HW136890   3.579   1.973   9.078 -0.7709 -1.5133  0.8883
 8476SOL    HW236891   3.727   1.952   9.094  0.1807  1.3986 -0.2983
 8477SOL     OW36892   0.616   4.279  14.856  0.4094 -0.1999  0.9578
 8477SOL    HW136893   0.571   4.197  14.838  0.6196  0.0303 -0.6198
 8477SOL    HW236894   0.536   4.329  14.840  0.5278 -0.8984 -1.7696
 8478SOL     OW36895   3.241   1.554  16.539  0.3298  0.4620  0.5464
 8478SOL    HW136896   3.329   1.540  16.573  0.1294 -1.0624  0.4476
 8478SOL    HW236897   3.219   1.644  16.564  1.0052  0.7764 -0.0013
 8479SOL     OW36898   2.209   1.878  16.582 -0.2896 -0.2467 -0.0651
 8479SOL    HW136899   2.214   1.861  16.488  1.5372  0.4740 -0.0863
 8479SOL    HW236900   2.127   1.927  16.595 -0.0474  0.5291 -1.5251
 8480SOL     OW36901   0.886   2.120   0.593 -0.3128  0.4150  0.4173
 8480SOL    HW136902   0.861   2.182   0.662  1.6773  1.6461  0.0312
 8480SOL    HW236903   0.816   2.139   0.531 -0.3947 -1.6414 -0.1154
 8481SOL     OW36904   0.416   1.076   7.283 -0.1924  0.0184 -0.3613
 8481SOL    HW136905   0.490   1.026   7.247 -1.7992 -0.8750 -2.4398
 8481SOL    HW236906   0.460   1.104   7.363 -0.8705  0.7336 -0.2401
 8482SOL     OW36907   2.310   2.940  11.692  0.1356 -0.3876  0.4520
 8482SOL    HW136908   2.339   2.954  11.782 -0.6130  0.3169  0.5783
 8482SOL    HW236909   2.366   2.863  11.686  0.0565 -0.2973 -1.5800
 8483SOL     OW36910   2.041   3.623   3.721 -0.7451 -0.0348 -0.3452
 8483SOL    HW136911   2.006   3.711   3.735  0.8360  0.7613 -1.3857
 8483SOL    HW236912   1.960   3.581   3.692 -0.8810 -1.0199  1.5244
 8484SOL     OW36913   1.550   3.640   4.785  0.5282  0.2233  0.3608
 8484SOL    HW136914   1.572   3.733   4.792 -0.8604  0.5520  0.3602
 8484SOL    HW236915   1.546   3.608   4.875 -0.6614 -0.4175  0.0772
 8485SOL     OW36916   1.727   1.752  11.140  0.0155  0.0250  0.1954
 8485SOL    HW136917   1.741   1.843  11.164  1.5379 -0.5954  1.6198
 8485SOL    HW236918   1.661   1.760  11.070  0.9962  2.1816 -0.4665
 8486SOL     OW36919   0.748   0.465   6.419  0.2402  0.8229  0.1897
 8486SOL    HW136920   0.798   0.490   6.341  1.5851  1.1467  1.1749
 8486SOL    HW236921   0.658   0.457   6.387  0.6853 -1.1966 -0.5311
 8487SOL     OW36922   2.373   3.091  10.825  0.0958 -0.1481 -0.1120
 8487SOL    HW136923   2.418   3.007  10.816  0.3948 -0.1052  1.0486
 8487SOL    HW236924   2.292   3.071  10.777  0.1435  0.0019 -0.2575
 8488SOL     OW36925   4.394   4.098  14.729  0.7029  0.0735  0.3211
 8488SOL    HW136926   4.440   4.021  14.762  1.7106  0.1946 -0.8168
 8488SOL    HW236927   4.357   4.136  14.809  3.3869 -0.7083  1.9144
 8489SOL     OW36928   1.212   3.506  10.150 -0.0369  0.0558 -0.0364
 8489SOL    HW136929   1.296   3.544  10.123 -0.0385  0.8636  1.0980
 8489SOL    HW236930   1.154   3.508  10.074  2.7372  0.5240 -2.1428
 8490SOL     OW36931   3.201   2.603   6.217 -0.1204  0.4279 -0.3496
 8490SOL    HW136932   3.172   2.694   6.206 -1.8162 -0.0579  0.1499
 8490SOL    HW236933   3.282   2.604   6.167  0.6756 -1.3522  0.9101
 8491SOL     OW36934   0.742   2.255  17.612 -0.1269 -0.0014 -0.4896
 8491SOL    HW136935   0.786   2.318  17.668  1.5701 -1.1121 -0.5807
 8491SOL    HW236936   0.811   2.214  17.560  0.5456 -0.3537  0.6924
 8492SOL     OW36937   0.736   2.559   3.807  0.7502 -0.0570  0.5488
 8492SOL    HW136938   0.710   2.649   3.828  0.0075 -0.3935  1.0826
 8492SOL    HW236939   0.715   2.547   3.715  0.9337  0.2463  0.4679
 8493SOL     OW36940   0.346   0.338   3.388  0.4642  0.3392  0.0504
 8493SOL    HW136941   0.259   0.364   3.358  0.4235  2.9768  2.3856
 8493SOL    HW236942   0.345   0.254   3.344 -4.5581  0.4602 -0.0109
 8494SOL     OW36943   1.651   4.548   6.165 -0.4157  0.1776  0.3588
 8494SOL    HW136944   1.609   4.618   6.214  0.6288  0.8243  0.3456
 8494SOL    HW236945   1.745   4.569   6.163 -0.2952 -0.5755 -1.7147
 8495SOL     OW36946   1.743   3.275  17.002 -0.0903  0.1615 -0.0958
 8495SOL    HW136947   1.751   3.356  17.053 -0.0352 -0.8107  1.4361
 8495SOL    HW236948   1.716   3.227  17.081  1.0636 -0.0965  0.1465
 8496SOL     OW36949   1.426   0.756   7.633 -0.1287 -0.0181  0.2263
 8496SOL    HW136950   1.397   0.847   7.642  0.9249  0.4538 -1.2759
 8496SOL    HW236951   1.485   0.763   7.558 -1.5906 -2.3492 -1.1408
 8497SOL     OW36952   0.511   3.751   0.804  0.7041 -0.2575  0.3078
 8497SOL    HW136953   0.565   3.826   0.829  0.1912  0.4816 -0.7949
 8497SOL    HW236954   0.459   3.782   0.730  0.0035 -1.4889  0.2951
 8498SOL     OW36955   4.177   1.294   4.091 -0.3887 -0.7306  0.5517
 8498SOL    HW136956   4.178   1.343   4.173 -1.1080 -1.4989  1.0205
 8498SOL    HW236957   4.142   1.210   4.121  0.5083 -0.4768  2.3431
 8499SOL     OW36958   3.995   3.961   4.383  0.0992 -0.1674 -0.1770
 8499SOL    HW136959   4.059   3.995   4.320  2.0617 -2.2306  0.7194
 8499SOL    HW236960   4.048   3.923   4.453  0.7578  1.5519  0.2590
 8500SOL     OW36961   1.676   1.745   6.928  0.0167 -0.1512  0.5168
 8500SOL    HW136962   1.685   1.650   6.934  2.3310  0.0185  0.0087
 8500SOL    HW236963   1.717   1.760   7.013 -0.9331 -0.5252  1.0447
 8501SOL     OW36964   1.138   2.972  14.627 -0.3927 -0.1068 -0.1330
 8501SOL    HW136965   1.148   3.060  14.589  1.2910 -0.2638 -0.0486
 8501SOL    HW236966   1.045   2.953  14.615 -0.7752  1.4699  0.2718
 8502SOL     OW36967   3.628   0.548   6.016  0.8819 -0.2555 -0.4494
 8502SOL    HW136968   3.651   0.587   5.932  0.0240  0.7563 -0.2242
 8502SOL    HW236969   3.578   0.469   5.996 -2.4584  1.7126  0.0567
 8503SOL     OW36970   3.147   2.998   2.887  0.3297  0.0487  0.1646
 8503SOL    HW136971   3.139   2.962   2.976 -1.7358  1.3819  0.5265
 8503SOL    HW236972   3.083   2.950   2.835 -0.3850 -0.2843  1.3280
 8504SOL     OW36973   3.502   1.483   6.292  0.3237  0.3961  0.1126
 8504SOL    HW136974   3.499   1.557   6.231  2.5941 -0.1877 -0.7214
 8504SOL    HW236975   3.439   1.427   6.247  2.0281 -0.9380 -0.6404
 8505SOL     OW36976   2.761   0.389   6.300  0.0150 -0.7064 -0.0569
 8505SOL    HW136977   2.763   0.397   6.205  1.8843  1.0172  0.1153
 8505SOL    HW236978   2.686   0.445   6.323 -0.0311 -0.2152 -1.4260
 8506SOL     OW36979   2.300   2.260   2.739 -0.8614 -0.3825 -0.3063
 8506SOL    HW136980   2.302   2.352   2.765 -0.1150 -0.7310  0.9137
 8506SOL    HW236981   2.370   2.267   2.673  0.1898 -0.2850  0.8098
 8507SOL     OW36982   4.356   2.425   6.152 -0.0074  0.1991  0.5490
 8507SOL    HW136983   4.311   2.481   6.089 -0.9400  0.0097  1.0536
 8507SOL    HW236984   4.325   2.468   6.231  0.2722 -1.9547  1.8314
 8508SOL     OW36985   2.958   2.416   7.989 -0.0320  0.8494 -0.3773
 8508SOL    HW136986   2.870   2.410   7.952 -0.2028  0.1980  0.1433
 8508SOL    HW236987   2.960   2.356   8.063  3.4530  0.1791 -0.9919
 8509SOL     OW36988   2.396   3.724  17.368  0.4518  0.1280  0.6153
 8509SOL    HW136989   2.489   3.744  17.381  0.0275  1.4753  1.5308
 8509SOL    HW236990   2.377   3.670  17.445 -0.1188  1.3714  1.3417
 8510SOL     OW36991   2.744   3.491   3.209  0.2759 -0.3454  0.4573
 8510SOL    HW136992   2.782   3.566   3.254  2.1647 -1.7646  1.2557
 8510SOL    HW236993   2.660   3.533   3.190  0.9234  0.5611 -0.3963
 8511SOL     OW36994   0.983   3.736   7.603 -0.4573 -0.0478 -0.1432
 8511SOL    HW136995   1.040   3.807   7.634  0.6807 -1.4431  0.9594
 8511SOL    HW236996   0.912   3.800   7.595 -0.2758  0.3333  1.3140
 8512SOL     OW36997   3.197   1.900   1.263  0.3713  0.6734  0.4324
 8512SOL    HW136998   3.197   1.936   1.351  1.7407  0.5778  0.4613
 8512SOL    HW236999   3.250   1.965   1.218  0.7785  0.9405  1.3049
 8513SOL     OW37000   0.635   3.456  17.410  0.5624 -0.2485  0.1026
 8513SOL    HW137001   0.703   3.470  17.343  0.3919 -2.3229 -0.4923
 8513SOL    HW237002   0.669   3.487  17.494  3.3157  1.3059 -1.5676
 8514SOL     OW37003   4.130   2.862   1.923 -0.4484  0.4479  0.2408
 8514SOL    HW137004   4.120   2.768   1.909  0.7355  0.5109 -1.0096
 8514SOL    HW237005   4.183   2.879   1.845  1.3808  0.7626  1.5576
 8515SOL     OW37006   1.843   2.990  14.951 -0.0425  0.1787  0.4925
 8515SOL    HW137007   1.869   2.973  14.861  1.3206  2.3732  0.4732
 8515SOL    HW237008   1.877   2.915  15.000 -0.7119  0.5862  1.6028
 8516SOL     OW37009   2.482   3.736   4.869  0.4374  1.1322  0.3416
 8516SOL    HW137010   2.441   3.669   4.814 -0.4900  1.2773  0.8605
 8516SOL    HW237011   2.575   3.722   4.854  0.3778 -1.8832  2.7754
 8517SOL     OW37012   2.752   2.346   7.825 -0.2693  0.7474 -0.2793
 8517SOL    HW137013   2.706   2.386   7.751  0.3593  1.2723 -0.3881
 8517SOL    HW237014   2.677   2.307   7.870  0.8794 -1.6451 -0.4664
 8518SOL     OW37015   1.707   0.332  10.530  0.5362 -0.2188 -0.1022
 8518SOL    HW137016   1.651   0.290  10.465  1.0219 -0.5671 -0.2933
 8518SOL    HW237017   1.784   0.353  10.477 -0.3908  1.0674 -0.9443
 8519SOL     OW37018   0.935   2.431   6.950  0.0174  0.1511 -0.5926
 8519SOL    HW137019   0.966   2.360   7.006  2.0641  0.1545 -1.7022
 8519SOL    HW237020   0.935   2.501   7.016  1.0745 -1.3031  0.9453
 8520SOL     OW37021   1.488   1.081  10.376 -0.0259  0.5728  0.3843
 8520SOL    HW137022   1.555   1.144  10.351  0.5627  0.6049  2.0248
 8520SOL    HW237023   1.533   0.999  10.393  0.4308  0.6148 -0.6768
 8521SOL     OW37024   3.409   2.479  10.046  0.4202  0.2516  0.0534
 8521SOL    HW137025   3.444   2.440   9.966 -0.2319 -0.8946  0.3269
 8521SOL    HW237026   3.447   2.566  10.043 -2.9328  1.6827 -0.9853
 8522SOL     OW37027   0.745   3.037  16.339 -0.1740  0.3629  0.2331
 8522SOL    HW137028   0.785   2.950  16.340  4.0399  2.2896  1.4753
 8522SOL    HW237029   0.680   3.030  16.270  1.1920 -1.3358 -0.9072
 8523SOL     OW37030   3.042   2.209   7.264  0.2245 -0.2371  0.0202
 8523SOL    HW137031   3.110   2.260   7.219  2.4928 -3.4928 -0.1963
 8523SOL    HW237032   2.967   2.265   7.242  0.0641 -0.7061 -0.6025
 8524SOL     OW37033   3.257   4.003  16.313 -0.2592  0.2293 -0.1366
 8524SOL    HW137034   3.205   4.005  16.393 -0.8610  0.2790 -0.5323
 8524SOL    HW237035   3.307   3.926  16.340  0.2452  1.4710  2.5230
 8525SOL     OW37036   2.984   0.859   7.635 -0.0472  0.5180  0.5180
 8525SOL    HW137037   3.028   0.859   7.721  1.8255 -2.2776 -0.4401
 8525SOL    HW237038   3.037   0.936   7.612  0.7957  0.1136  1.1090
 8526SOL     OW37039   2.662   2.471  11.903  0.1844  0.0789  0.6881
 8526SOL    HW137040   2.576   2.428  11.893  1.1295 -2.0318  1.5796
 8526SOL    HW237041   2.646   2.563  11.883  1.9894  0.6013  1.6983
 8527SOL     OW37042   1.108   0.132   1.888  0.0939  0.1453 -0.9516
 8527SOL    HW137043   1.087   0.040   1.871 -0.1060 -0.2215  1.2929
 8527SOL    HW237044   1.049   0.145   1.963  2.2527  1.0089  0.6039
 8528SOL     OW37045   3.465   3.434  16.261  0.0077  0.2022  0.2623
 8528SOL    HW137046   3.553   3.449  16.226 -0.5986  1.3250 -0.7796
 8528SOL    HW237047   3.473   3.477  16.346  0.3971  1.0560 -0.2047
 8529SOL     OW37048   1.055   4.069   8.397  0.3741  0.0667 -0.0907
 8529SOL    HW137049   1.043   4.011   8.473 -1.2381  1.0251  0.4031
 8529SOL    HW237050   0.972   4.068   8.349  0.0245 -4.1314  0.6267
 8530SOL     OW37051   2.664   3.610   9.019  0.3493  0.2687 -0.1313
 8530SOL    HW137052   2.692   3.587   8.930 -2.2229 -3.7023  0.0458
 8530SOL    HW237053   2.649   3.704   9.016  0.4856  0.3124  0.7416
 8531SOL     OW37054   1.482   0.439   3.934  0.4439  0.5585 -0.2214
 8531SOL    HW137055   1.544   0.398   3.874 -0.0756  0.7560 -0.8809
 8531SOL    HW237056   1.410   0.440   3.871  0.2549 -0.9934 -0.0328
 8532SOL     OW37057   2.318   0.040  12.059  0.1781 -0.1917 -0.5017
 8532SOL    HW137058   2.291   0.132  12.067 -1.8765 -1.0586  2.5862
 8532SOL    HW237059   2.239   0.003  12.021  0.8377  0.5169 -2.5467
 8533SOL     OW37060   2.226   1.318   5.934 -0.5899  0.7632 -0.0742
 8533SOL    HW137061   2.261   1.403   5.908  0.9414 -0.0057 -0.5515
 8533SOL    HW237062   2.231   1.327   6.029 -0.8583  0.9488 -0.0765
 8534SOL     OW37063   4.343   0.112  15.385  0.8340  0.2705  0.2631
 8534SOL    HW137064   4.290   0.162  15.322 -0.6967 -3.4713 -1.4185
 8534SOL    HW237065   4.431   0.148  15.374  0.8799  0.4350  1.2179
 8535SOL     OW37066   2.351   3.612  17.610 -0.6673  0.3878  0.2261
 8535SOL    HW137067   2.386   3.688  17.657  0.8012 -0.0923 -0.1021
 8535SOL    HW237068   2.427   3.554  17.617 -0.2477  1.1313  1.8530
 8536SOL     OW37069   4.060   0.885   4.387  0.0305  0.5265  0.0395
 8536SOL    HW137070   4.091   0.801   4.352  0.5399 -0.1932  2.2444
 8536SOL    HW237071   3.966   0.869   4.399  0.2213 -1.1191 -0.6203
 8537SOL     OW37072   2.417   0.540   9.800  0.2131  0.6065  0.7778
 8537SOL    HW137073   2.508   0.513   9.800 -0.2925 -1.1130 -1.2218
 8537SOL    HW237074   2.380   0.468   9.749  0.4352  1.1500 -0.1574
 8538SOL     OW37075   2.847   2.123   3.811  0.6068 -0.4811 -0.7803
 8538SOL    HW137076   2.859   2.094   3.720 -2.8530  2.2661 -2.1597
 8538SOL    HW237077   2.751   2.114   3.812  0.7994 -2.6032 -2.1248
 8539SOL     OW37078   3.276   3.754   6.885  0.0431  0.9134 -0.5610
 8539SOL    HW137079   3.255   3.661   6.887 -1.9533  1.3533 -0.4414
 8539SOL    HW237080   3.240   3.785   6.969 -1.1278  1.9316 -1.4404
 8540SOL     OW37081   0.863   1.507  11.301 -0.1403 -0.8632  0.8246
 8540SOL    HW137082   0.907   1.555  11.371  0.2612  0.5630 -0.4049
 8540SOL    HW237083   0.833   1.576  11.241  2.1121  0.4052  1.1442
 8541SOL     OW37084   2.057   0.481   5.804  0.1960 -0.2088 -0.1956
 8541SOL    HW137085   2.010   0.427   5.740  0.4863 -0.1359 -0.4739
 8541SOL    HW237086   2.027   0.452   5.890 -1.3110 -1.8190 -1.2708
 8542SOL     OW37087   1.821   4.243   2.222 -0.3341  0.1139 -0.4538
 8542SOL    HW137088   1.868   4.323   2.245  2.8309 -1.3484 -1.9541
 8542SOL    HW237089   1.781   4.268   2.139  0.3295  1.5230 -0.3455
 8543SOL     OW37090   1.228   3.174   1.936  0.2071  0.2204 -0.1713
 8543SOL    HW137091   1.226   3.092   1.887  1.2363  0.9735 -1.4528
 8543SOL    HW237092   1.134   3.182   1.955  0.2321  3.3391 -1.3898
 8544SOL     OW37093   2.096   1.627   2.374  0.4326 -0.4663  0.7494
 8544SOL    HW137094   2.029   1.677   2.421 -1.1643 -1.9450  0.0631
 8544SOL    HW237095   2.051   1.543   2.375 -0.3133 -0.0734  0.5978
 8545SOL     OW37096   3.485   1.906  12.451  0.0575  0.5347 -0.1402
 8545SOL    HW137097   3.410   1.950  12.412 -0.0060  1.2154  0.7676
 8545SOL    HW237098   3.533   1.900  12.368  0.6811 -2.0344  0.3893
 8546SOL     OW37099   2.364   2.234   3.363  0.3188  0.3802  0.0883
 8546SOL    HW137100   2.438   2.282   3.326  0.4132 -0.5699 -0.9758
 8546SOL    HW237101   2.405   2.178   3.429  1.9651  0.3481 -0.9488
 8547SOL     OW37102   3.413   1.818   9.810  0.5866  0.8251 -0.2910
 8547SOL    HW137103   3.481   1.803   9.875 -0.3110 -0.5969  0.3188
 8547SOL    HW237104   3.445   1.901   9.774  1.8071  0.1264 -0.8301
 8548SOL     OW37105   0.821   1.985  11.007  0.2328  0.0281  0.0205
 8548SOL    HW137106   0.852   1.911  11.058  1.2505  0.2983 -0.1979
 8548SOL    HW237107   0.866   2.058  11.049 -0.8976  0.8794 -0.2440
 8549SOL     OW37108   4.686   0.721  14.879 -0.6012  0.0539  0.3787
 8549SOL    HW137109   4.657   0.656  14.815 -0.0721 -0.1557  0.3481
 8549SOL    HW237110   0.040   0.754  14.833 -0.4522 -0.9924 -0.1391
 8550SOL     OW37111   0.712   2.323   4.048 -0.0536 -0.5360 -0.4556
 8550SOL    HW137112   0.795   2.370   4.041  1.0456 -2.8376 -2.4741
 8550SOL    HW237113   0.704   2.296   3.957 -1.8273 -2.0302  0.1560
 8551SOL     OW37114   0.603   0.951   0.481  0.1651  0.1772  0.3960
 8551SOL    HW137115   0.630   0.974   0.570 -0.7250 -0.8091  0.9257
 8551SOL    HW237116   0.682   0.902   0.459 -0.4940 -0.2193 -1.0532
 8552SOL     OW37117   4.354   4.551   8.673  0.4650 -0.1670 -0.1044
 8552SOL    HW137118   4.349   4.477   8.613  1.7032  0.6090 -1.1608
 8552SOL    HW237119   4.419   4.545   8.743 -1.0910  1.1180  1.4855
 8553SOL     OW37120   0.515   4.599   5.886  0.1625  0.1959 -0.6409
 8553SOL    HW137121   0.501   4.575   5.795  0.9784  0.5099 -0.8469
 8553SOL    HW237122   0.524   4.695   5.889  2.0490 -0.0067  0.3633
 8554SOL     OW37123   4.190   2.707  11.859  0.1165  0.9612 -0.0870
 8554SOL    HW137124   4.198   2.672  11.770 -1.8428 -0.0284  0.1187
 8554SOL    HW237125   4.114   2.658  11.891  0.7079  2.2986  3.3832
 8555SOL     OW37126   4.258   0.129  17.532  0.4130  0.4798  0.2161
 8555SOL    HW137127   4.245   0.035  17.516 -2.3682  1.1475 -1.3990
 8555SOL    HW237128   4.275   0.161  17.444  2.0169 -1.6540 -0.2593
 8556SOL     OW37129   0.569   2.029   6.544 -0.0843  0.4871  0.3334
 8556SOL    HW137130   0.623   1.997   6.617  0.3167 -0.9564 -0.5866
 8556SOL    HW237131   0.614   2.108   6.517  0.5095 -0.0508 -0.2514
 8557SOL     OW37132   3.201   0.390   5.085 -0.3657 -0.0381  0.4523
 8557SOL    HW137133   3.214   0.354   5.173  2.2928  4.6887  1.9994
 8557SOL    HW237134   3.139   0.327   5.048 -1.6018  0.2210  2.0922
 8558SOL     OW37135   2.705   3.717   3.997  0.3968  0.0736 -0.1606
 8558SOL    HW137136   2.739   3.806   3.988 -2.5230  1.0199 -1.7796
 8558SOL    HW237137   2.636   3.710   3.932 -0.0412  1.2343  0.1734
 8559SOL     OW37138   2.468   4.438   5.636 -0.1747 -0.1731  0.8523
 8559SOL    HW137139   2.385   4.458   5.680  0.2459 -0.6386  1.8575
 8559SOL    HW237140   2.442   4.362   5.584 -2.0776  0.7675  0.4069
 8560SOL     OW37141   3.030   3.860   5.002  0.4542 -0.2101  0.2267
 8560SOL    HW137142   3.043   3.954   5.001  0.4020 -0.1974  0.8194
 8560SOL    HW237143   3.094   3.828   5.065 -1.1045 -1.7276  1.0363
 8561SOL     OW37144   0.118   4.491   0.745  0.1685 -0.8828  0.2180
 8561SOL    HW137145   0.114   4.538   0.829 -2.6642  0.1005 -0.4614
 8561SOL    HW237146   0.147   4.565   0.692 -0.6394 -1.7513 -1.4137
 8562SOL     OW37147   0.979   1.172   4.083  0.4305 -0.3735  0.1800
 8562SOL    HW137148   1.032   1.096   4.057 -0.4763 -1.0142  0.1839
 8562SOL    HW237149   0.912   1.178   4.015 -1.3008  0.6758  1.9904
 8563SOL     OW37150   4.234   3.183  12.359 -0.0646  0.1071 -0.4308
 8563SOL    HW137151   4.319   3.145  12.337  0.6127 -1.1347  4.4259
 8563SOL    HW237152   4.188   3.149  12.282 -0.3797  0.9414 -0.6127
 8564SOL     OW37153   0.258   3.963   4.759 -0.2686  0.6905  0.4586
 8564SOL    HW137154   0.350   3.958   4.788 -0.6127 -3.1398  0.9531
 8564SOL    HW237155   0.246   3.877   4.719  1.1312 -0.6644  2.8756
 8565SOL     OW37156   1.318   4.042   9.528 -0.3915  0.5555  0.4016
 8565SOL    HW137157   1.360   4.124   9.503 -1.3769  0.5151 -1.3552
 8565SOL    HW237158   1.386   3.993   9.574  0.2571  1.9029  0.8508
 8566SOL     OW37159   4.463   4.070   9.791 -0.9354  0.1983 -0.4453
 8566SOL    HW137160   4.471   4.166   9.796 -1.1702  0.1178  1.3167
 8566SOL    HW237161   4.479   4.053   9.698  1.0830  0.0039 -0.0605
 8567SOL     OW37162   4.275   1.067  12.350  0.3952 -0.5353 -0.0020
 8567SOL    HW137163   4.209   1.015  12.396 -0.3624 -0.4178 -0.9625
 8567SOL    HW237164   4.275   1.154  12.390 -0.2380 -0.6378  0.2210
 8568SOL     OW37165   1.296   2.043   7.765  0.2601 -0.5728 -0.4367
 8568SOL    HW137166   1.354   2.000   7.703 -1.0714  0.3752 -2.3224
 8568SOL    HW237167   1.253   1.970   7.810  0.8271  0.2045  1.3795
 8569SOL     OW37168   1.924   0.105   6.620  0.1936 -0.6266 -0.8245
 8569SOL    HW137169   1.874   0.186   6.614  0.6363 -0.1770  1.6043
 8569SOL    HW237170   1.867   0.034   6.592 -2.4563  1.3129 -0.3668
 8570SOL     OW37171   1.611   0.725   2.946 -0.4205 -0.0387 -0.1551
 8570SOL    HW137172   1.626   0.719   3.040  1.4824  0.6909 -0.4163
 8570SOL    HW237173   1.519   0.698   2.937 -0.4410  0.3262 -1.0625
 8571SOL     OW37174   4.032   1.914   8.067 -0.0932 -0.1023  0.0277
 8571SOL    HW137175   3.974   1.943   7.997  0.3796 -1.3198 -0.8566
 8571SOL    HW237176   4.015   1.820   8.071  1.0784 -0.2889  0.8061
 8572SOL     OW37177   3.446   0.191   2.797  0.6381  0.0410  0.2458
 8572SOL    HW137178   3.399   0.265   2.835 -0.3491 -1.2628  1.5486
 8572SOL    HW237179   3.539   0.213   2.809 -0.0132  1.4597  2.6663
 8573SOL     OW37180   4.194   3.475   0.847 -0.4518 -0.3754  0.3381
 8573SOL    HW137181   4.170   3.430   0.927  0.8363 -0.9941  0.3770
 8573SOL    HW237182   4.285   3.500   0.861 -1.2959  2.3588  0.8734
 8574SOL     OW37183   1.503   3.707   7.584  0.2886 -0.0307 -0.2816
 8574SOL    HW137184   1.552   3.655   7.648  1.2091 -1.2933 -1.9896
 8574SOL    HW237185   1.425   3.651   7.591  1.6561 -1.7405  1.0216
 8575SOL     OW37186   3.477   1.604   4.260 -0.6992 -0.4720 -0.1680
 8575SOL    HW137187   3.565   1.593   4.296  0.0059  4.4079 -0.3903
 8575SOL    HW237188   3.426   1.564   4.330  1.1246 -0.5036  1.1432
 8576SOL     OW37189   1.059   2.550   5.985 -0.3118 -0.2316  0.2742
 8576SOL    HW137190   0.991   2.522   5.924  0.2561  3.0444 -1.8618
 8576SOL    HW237191   1.087   2.464   6.016  2.1993 -0.3280 -2.2799
 8577SOL     OW37192   2.179   2.850   5.834 -0.3348  0.1416 -0.1742
 8577SOL    HW137193   2.128   2.823   5.758 -0.9022  0.3465  0.1388
 8577SOL    HW237194   2.138   2.794   5.900  1.9664 -0.0738  1.0615
 8578SOL     OW37195   0.839   3.149  13.666  0.1253 -0.6074  0.2276
 8578SOL    HW137196   0.799   3.214  13.722 -1.5289 -0.8111 -0.7134
 8578SOL    HW237197   0.816   3.188  13.581  2.5809 -1.8131 -1.0004
 8579SOL     OW37198   4.291   2.795   0.708 -0.2268 -0.4419  0.0574
 8579SOL    HW137199   4.324   2.883   0.725 -1.3052  0.1114 -0.6729
 8579SOL    HW237200   4.373   2.746   0.715  0.9016  1.5994  0.9620
 8580SOL     OW37201   2.916   3.470   5.397 -0.4974  0.3532 -0.7894
 8580SOL    HW137202   2.915   3.390   5.344 -0.1798 -0.8570  0.9838
 8580SOL    HW237203   2.823   3.493   5.399 -0.6768 -0.4555  0.2804
 8581SOL     OW37204   4.331   0.979   0.693  0.0841  0.0399  0.2436
 8581SOL    HW137205   4.264   0.910   0.692  0.7342 -0.5903  0.5540
 8581SOL    HW237206   4.279   1.047   0.735  0.3493  0.2607  0.2087
 8582SOL     OW37207   1.905   1.099  12.631  0.5878 -0.4439  0.3545
 8582SOL    HW137208   1.877   1.170  12.573  1.0692  0.0839  0.7684
 8582SOL    HW237209   1.898   1.151  12.711 -1.3012 -0.1101 -0.0311
 8583SOL     OW37210   0.089   3.296   7.496  0.0452  0.0661  0.0581
 8583SOL    HW137211   0.098   3.200   7.492 -1.2138  0.0237 -1.6154
 8583SOL    HW237212   0.023   3.302   7.565 -0.4024 -0.1530 -0.3504
 8584SOL     OW37213   3.006   1.897   3.371 -0.0914  0.3523  0.3468
 8584SOL    HW137214   2.971   1.817   3.331  1.7007  0.8197 -2.1812
 8584SOL    HW237215   3.099   1.875   3.363  0.2281  1.8115  0.1735
 8585SOL     OW37216   0.527   1.718   1.853 -0.3760  0.1215 -0.3608
 8585SOL    HW137217   0.451   1.660   1.840 -0.2667  0.2506 -1.5652
 8585SOL    HW237218   0.557   1.676   1.934  0.2520 -0.0331 -0.6690
 8586SOL     OW37219   2.023   1.922   7.527  0.2159  0.2326 -0.1068
 8586SOL    HW137220   2.046   2.001   7.480 -1.2345 -0.4453 -1.9540
 8586SOL    HW237221   1.944   1.946   7.576  0.5148  1.6512 -0.3318
 8587SOL     OW37222   2.399   1.313  14.181  0.4366 -0.6724 -0.0478
 8587SOL    HW137223   2.352   1.394  14.161  0.0991 -1.0742 -0.9108
 8587SOL    HW237224   2.469   1.309  14.115  3.6551 -2.1131  3.4739
 8588SOL     OW37225   1.278   4.606   6.315 -0.0799  0.2573  0.1561
 8588SOL    HW137226   1.229   4.575   6.390  1.4248  0.4415  1.2022
 8588SOL    HW237227   1.322   4.526   6.288 -0.0563  0.5123 -0.5830
 8589SOL     OW37228   2.851   2.422   9.009 -0.2809 -0.1885 -0.1741
 8589SOL    HW137229   2.867   2.449   8.919  1.4350 -2.0241 -0.3976
 8589SOL    HW237230   2.875   2.505   9.051 -0.3244  0.0735 -0.6718
 8590SOL     OW37231   0.969   0.051   7.757 -0.0683 -0.1656 -0.0457
 8590SOL    HW137232   0.974   0.141   7.723  1.0116  0.2264  1.1348
 8590SOL    HW237233   1.018   0.005   7.689  0.4797  0.8598 -0.3606
 8591SOL     OW37234   2.954   2.878   2.712  0.1838 -0.2195  0.1026
 8591SOL    HW137235   2.990   2.796   2.746 -1.7308 -1.0501  0.0748
 8591SOL    HW237236   2.923   2.840   2.630  1.6478 -0.3827 -0.3848
 8592SOL     OW37237   3.516   3.552   0.182  0.8555  0.2751  0.2424
 8592SOL    HW137238   3.493   3.465   0.151 -0.3479  1.2066 -1.4833
 8592SOL    HW237239   3.441   3.560   0.242 -1.1563 -0.1701 -2.2072
 8593SOL     OW37240   3.970   3.164   1.241  0.1479  0.0369  0.4675
 8593SOL    HW137241   3.958   3.069   1.236  1.3794 -0.2326  2.6091
 8593SOL    HW237242   3.911   3.189   1.312  0.0781 -1.1702  0.8489
 8594SOL     OW37243   2.475   1.892  15.757  0.0859 -0.2755  0.4349
 8594SOL    HW137244   2.469   1.959  15.825 -1.6555 -0.1651  0.1890
 8594SOL    HW237245   2.424   1.932  15.686  2.1280  0.1080 -0.7911
 8595SOL     OW37246   4.624   3.046   8.926  0.0178  0.3589  0.1249
 8595SOL    HW137247   4.643   2.959   8.891  1.8279  1.2744 -1.1730
 8595SOL    HW237248   4.584   3.091   8.852 -1.0861  0.7862  0.9765
 8596SOL     OW37249   2.600   2.600   6.463 -0.4946  0.0391 -1.1027
 8596SOL    HW137250   2.685   2.609   6.421  0.0572  1.7079  0.3408
 8596SOL    HW237251   2.600   2.690   6.496  2.0718 -0.1557 -0.5553
 8597SOL     OW37252   1.237   1.716   4.151  0.2359  0.3785 -0.6977
 8597SOL    HW137253   1.254   1.721   4.245  1.2553 -1.9903 -0.7674
 8597SOL    HW237254   1.252   1.623   4.135 -0.2899  0.1878 -0.0674
 8598SOL     OW37255   1.836   2.119   7.046 -0.8131 -0.1471 -0.1942
 8598SOL    HW137256   1.853   2.036   7.091 -0.7603  0.3160  0.6370
 8598SOL    HW237257   1.908   2.176   7.070 -0.5869 -0.1962 -0.7494
 8599SOL     OW37258   0.923   1.150  14.424 -0.7543  0.3737  0.3845
 8599SOL    HW137259   0.842   1.132  14.473  0.3699  1.0638  2.5039
 8599SOL    HW237260   0.925   1.245  14.423  1.3288  0.3385  0.8570
 8600SOL     OW37261   0.540   4.216   0.608  0.0532  1.0663  0.8915
 8600SOL    HW137262   0.495   4.293   0.572 -0.6547  0.8836  1.3817
 8600SOL    HW237263   0.596   4.185   0.538 -3.6442 -0.4558 -1.3969
 8601SOL     OW37264   3.731   1.963   6.616 -0.6385  0.6547 -0.2317
 8601SOL    HW137265   3.636   1.971   6.626 -0.9795 -1.5051 -1.6946
 8601SOL    HW237266   3.752   2.029   6.682  0.4435 -1.8067  1.9060
 8602SOL     OW37267   0.004   0.134   4.442 -0.4874  0.1856 -0.2259
 8602SOL    HW137268   4.677   0.062   4.407  0.5370  0.4752 -2.2818
 8602SOL    HW237269   4.696   0.201   4.381  2.2926  0.5897 -1.2335
 8603SOL     OW37270   3.594   2.641   8.624  0.4365 -0.1773  0.0531
 8603SOL    HW137271   3.569   2.685   8.542  1.7688 -1.6167 -1.1335
 8603SOL    HW237272   3.520   2.582   8.640  0.0031 -0.5190 -3.1891
 8604SOL     OW37273   3.990   4.573  10.145  0.5271  0.2181 -0.6971
 8604SOL    HW137274   4.009   4.652  10.196 -0.1446  1.0151 -1.6992
 8604SOL    HW237275   4.000   4.506  10.212 -2.0944  0.8223  0.2834
 8605SOL     OW37276   0.779   3.111  13.143 -0.4117 -0.5681 -0.4279
 8605SOL    HW137277   0.687   3.110  13.115 -0.7655  1.5015  0.6925
 8605SOL    HW237278   0.774   3.060  13.224 -0.1567 -1.0819 -0.7356
 8606SOL     OW37279   2.783   1.789   0.741 -0.0967  0.9434  0.2903
 8606SOL    HW137280   2.755   1.815   0.653 -2.0706 -1.5114  0.1732
 8606SOL    HW237281   2.699   1.750   0.765  0.7851  0.8344  3.1253
 8607SOL     OW37282   1.189   2.326   3.229 -0.1171  0.3958 -0.2844
 8607SOL    HW137283   1.239   2.407   3.222  2.4157 -1.0017  1.4317
 8607SOL    HW237284   1.242   2.264   3.280 -2.7840 -1.9601 -0.3746
 8608SOL     OW37285   3.254   1.382   2.225 -0.5624 -0.0824  0.7385
 8608SOL    HW137286   3.187   1.320   2.255 -1.2649 -0.4315 -1.5366
 8608SOL    HW237287   3.204   1.449   2.179  1.1822  1.1844  0.6832
 8609SOL     OW37288   2.752   1.185   1.690  0.0229 -0.6909  0.2487
 8609SOL    HW137289   2.713   1.263   1.727  0.9430  0.0590 -0.3551
 8609SOL    HW237290   2.667   1.142   1.676  0.2113 -0.4235 -1.7398
 8610SOL     OW37291   3.992   4.624   0.412 -0.1501 -0.2348 -0.1254
 8610SOL    HW137292   3.996   4.534   0.380 -0.9135 -0.5317  0.6095
 8610SOL    HW237293   4.018   4.618   0.504  2.5278  3.4996 -0.6675
 8611SOL     OW37294   2.961   2.150   2.546 -0.2686  0.5564  0.1834
 8611SOL    HW137295   2.903   2.179   2.618 -1.0606 -1.0676  0.2113
 8611SOL    HW237296   2.995   2.225   2.498  0.0245  0.1348 -0.2538
 8612SOL     OW37297   0.742   0.880  12.705 -0.2437  0.0010  0.0590
 8612SOL    HW137298   0.796   0.958  12.696  0.8707 -0.5780  1.6206
 8612SOL    HW237299   0.757   0.832  12.624  1.5042  0.7977 -0.0685
 8613SOL     OW37300   3.324   0.439   2.838 -0.6489 -0.4320 -0.2510
 8613SOL    HW137301   3.345   0.496   2.764  1.7694 -2.7902 -1.3717
 8613SOL    HW237302   3.242   0.472   2.872  0.5376 -1.6285  3.7354
 8614SOL     OW37303   0.922   4.434  16.924 -0.6134  0.0946 -0.2699
 8614SOL    HW137304   0.925   4.495  16.850  2.0460 -2.6906 -2.4774
 8614SOL    HW237305   1.012   4.402  16.925 -0.8925 -0.7053 -0.6520
 8615SOL     OW37306   2.378   0.633  14.319 -0.3335  0.0107  0.0073
 8615SOL    HW137307   2.317   0.678  14.377  1.2022 -1.1111  2.5214
 8615SOL    HW237308   2.388   0.693  14.246  1.1398  1.4111  1.3562
 8616SOL     OW37309   2.332   1.130   2.913 -0.1628  0.1924 -0.0395
 8616SOL    HW137310   2.392   1.100   2.981  0.1947 -0.5400 -0.6846
 8616SOL    HW237311   2.379   1.112   2.832 -3.1434  0.7275 -1.8721
 8617SOL     OW37312   2.601   4.520   5.845  0.3681  0.1407  0.2039
 8617SOL    HW137313   2.585   4.441   5.896  2.5236  1.4791  2.9056
 8617SOL    HW237314   2.568   4.481   5.763  0.0570  0.7769  0.0270
 8618SOL     OW37315   1.087   4.511   7.011 -0.4592  0.3078  0.4258
 8618SOL    HW137316   1.176   4.522   6.978 -0.3894 -0.5366  0.3392
 8618SOL    HW237317   1.032   4.519   6.933 -0.4519 -0.7238  0.3142
 8619SOL     OW37318   1.895   0.714  10.230  0.6268  0.0813 -0.3758
 8619SOL    HW137319   1.942   0.676  10.305 -0.1683 -1.6255 -0.7576
 8619SOL    HW237320   1.908   0.809  10.238  0.6928  0.1076 -0.8372
 8620SOL     OW37321   2.817   1.150   7.651 -0.8257 -0.1540  0.3062
 8620SOL    HW137322   2.730   1.164   7.688 -0.4934  1.1672  0.5976
 8620SOL    HW237323   2.866   1.101   7.716  1.3531  2.7537  0.8356
 8621SOL     OW37324   2.155   4.698  12.288  0.2615 -0.0411  0.1642
 8621SOL    HW137325   2.115   4.681  12.203  0.0343  0.9088  0.0819
 8621SOL    HW237326   2.242   4.664  12.266 -0.1794 -0.3345 -1.0873
 8622SOL     OW37327   3.222   2.050   4.023  0.4265  0.0332 -0.0636
 8622SOL    HW137328   3.131   2.032   4.045  1.0084 -0.0894  2.2021
 8622SOL    HW237329   3.225   2.138   4.060  1.1070 -0.7939  1.8274
 8623SOL     OW37330   0.274   2.188   5.585  0.4814 -0.2305 -0.2775
 8623SOL    HW137331   0.296   2.230   5.502  0.3650 -1.6914 -1.0445
 8623SOL    HW237332   0.238   2.109   5.545 -0.5588  1.5176 -2.8286
 8624SOL     OW37333   2.967   4.298   4.528 -0.1833  0.2301  0.1715
 8624SOL    HW137334   2.950   4.281   4.621  0.0555 -0.7356  0.0360
 8624SOL    HW237335   3.053   4.256   4.525 -0.5113 -0.2997 -1.6971
 8625SOL     OW37336   0.124   0.488   3.227 -0.6155  0.2699 -0.1577
 8625SOL    HW137337   0.070   0.561   3.258 -2.0276 -0.9744  0.2760
 8625SOL    HW237338   0.079   0.410   3.260  2.0841 -1.3693 -0.3903
 8626SOL     OW37339   3.997   0.390   6.661 -0.1874  0.5003 -0.0986
 8626SOL    HW137340   3.963   0.393   6.571 -0.5497  1.8754  0.0751
 8626SOL    HW237341   3.920   0.414   6.714 -0.2309 -1.1301  0.5552
 8627SOL     OW37342   1.596   4.578   4.014  0.8604 -0.3795 -0.4022
 8627SOL    HW137343   1.668   4.535   4.060  0.1431 -1.8605 -0.6661
 8627SOL    HW237344   1.584   4.518   3.941 -0.9544 -0.6102  0.0807
 8628SOL     OW37345   1.638   0.230   8.118  0.4316  0.0235 -0.5245
 8628SOL    HW137346   1.551   0.194   8.134  1.6736 -2.7524 -0.1372
 8628SOL    HW237347   1.613   0.271   8.035  0.0709  2.9537  1.0059
 8629SOL     OW37348   3.291   4.069   3.659  0.5797 -0.5463  0.2695
 8629SOL    HW137349   3.364   4.006   3.658  1.2882  0.2744  0.8841
 8629SOL    HW237350   3.243   4.029   3.731 -0.0466  0.8607  0.6209
 8630SOL     OW37351   0.002   2.391   2.965  0.2989 -0.0943 -0.4693
 8630SOL    HW137352   0.076   2.336   2.937 -0.7991 -1.9893  0.3306
 8630SOL    HW237353   4.687   2.330   3.028  1.1357  0.0802  0.2228
 8631SOL     OW37354   3.729   0.398   8.137 -0.4208 -0.1230  0.3553
 8631SOL    HW137355   3.681   0.481   8.131  2.7215  1.8158  1.9551
 8631SOL    HW237356   3.793   0.431   8.200 -2.0596  0.4860  1.7055
 8632SOL     OW37357   4.370   0.708   5.286 -0.1786 -0.5450  0.3934
 8632SOL    HW137358   4.465   0.712   5.302  0.1739 -0.8709 -1.5320
 8632SOL    HW237359   4.341   0.785   5.335  2.1326  0.6821 -0.1336
 8633SOL     OW37360   4.061   1.451   3.243 -0.1821 -0.2324 -0.3789
 8633SOL    HW137361   4.118   1.380   3.212 -0.0081 -0.1513 -0.2448
 8633SOL    HW237362   3.982   1.399   3.254  0.4515 -1.1303 -0.0491
 8634SOL     OW37363   2.944   3.288  12.920  0.3498  0.1323  0.0700
 8634SOL    HW137364   2.975   3.357  12.978  1.0992  0.7453 -1.0546
 8634SOL    HW237365   2.901   3.339  12.851 -0.2434 -2.0144 -1.1683
 8635SOL     OW37366   1.591   4.018  14.537  0.1659 -0.7553 -0.1766
 8635SOL    HW137367   1.587   4.059  14.451  0.5866 -1.6707 -0.6354
 8635SOL    HW237368   1.654   4.080  14.574  1.6852 -1.9656 -0.7147
 8636SOL     OW37369   3.623   3.927   8.831  0.2119  0.1505  0.1839
 8636SOL    HW137370   3.708   3.956   8.863 -0.2954  1.5057  0.2958
 8636SOL    HW237371   3.644   3.845   8.787 -2.2871 -0.4522  0.0698
 8637SOL     OW37372   1.758   4.145   4.998  0.0459 -0.5070 -0.4416
 8637SOL    HW137373   1.699   4.091   4.945  0.0032  0.9468 -1.8796
 8637SOL    HW237374   1.699   4.160   5.072 -0.7639 -0.0748 -1.1703
 8638SOL     OW37375   0.969   1.113  10.359  0.2461 -0.5739  0.2434
 8638SOL    HW137376   0.887   1.074  10.388  0.0471  0.2298  0.7549
 8638SOL    HW237377   1.015   1.108  10.443  0.6536 -0.1869  0.0425
 8639SOL     OW37378   2.298   2.160  11.012 -0.2660  0.5473  0.4364
 8639SOL    HW137379   2.264   2.082  10.968 -1.8224  1.2351  0.4304
 8639SOL    HW237380   2.255   2.149  11.096 -2.3433 -1.0971 -0.8418
 8640SOL     OW37381   0.886   3.676  10.626 -0.0160 -0.4039  0.3076
 8640SOL    HW137382   0.952   3.714  10.568  2.5063 -3.0082  1.5076
 8640SOL    HW237383   0.846   3.760  10.652  0.8683  0.2637 -0.4745
 8641SOL     OW37384   2.760   3.862   5.734 -0.0244 -0.1563 -0.2044
 8641SOL    HW137385   2.751   3.783   5.682 -2.0214 -0.5727  0.7495
 8641SOL    HW237386   2.782   3.929   5.669  0.0402 -1.1173 -1.1618
 8642SOL     OW37387   1.815   1.219   1.950  0.2926  0.5848 -0.0286
 8642SOL    HW137388   1.785   1.167   1.875  0.2638  0.5792 -0.0132
 8642SOL    HW237389   1.858   1.295   1.910  1.1560  0.0435 -0.1185
 8643SOL     OW37390   1.235   3.316   7.709  0.1504 -0.0194 -0.8832
 8643SOL    HW137391   1.156   3.369   7.710 -1.3149 -2.1823 -0.7985
 8643SOL    HW237392   1.233   3.286   7.801  0.9713 -1.7897 -1.4284
 8644SOL     OW37393   3.078   0.649   0.338  0.1819  0.0429  0.0046
 8644SOL    HW137394   3.173   0.646   0.334  0.0820 -1.9029 -1.1254
 8644SOL    HW237395   3.067   0.594   0.415  0.4856 -2.4036 -1.6824
 8645SOL     OW37396   0.457   4.055  14.819 -0.0636 -0.3352 -0.0026
 8645SOL    HW137397   0.424   3.973  14.855 -0.6757 -0.5056 -0.9402
 8645SOL    HW237398   0.405   4.063  14.739  0.9068 -2.4193 -0.8523
 8646SOL     OW37399   0.804   4.408   8.962 -0.3661  0.0520  0.4674
 8646SOL    HW137400   0.850   4.403   9.046 -0.6434 -0.7931  0.5627
 8646SOL    HW237401   0.766   4.320   8.966  0.1500 -0.1238  1.4851
 8647SOL     OW37402   1.173   2.319   6.703 -0.1637 -0.0757 -0.2630
 8647SOL    HW137403   1.219   2.401   6.689 -2.9581  1.2620 -1.5813
 8647SOL    HW237404   1.225   2.282   6.775 -0.1050 -1.3352 -0.9565
 8648SOL     OW37405   3.343   1.192  13.184  0.4273 -0.8402  0.0451
 8648SOL    HW137406   3.403   1.119  13.203 -0.5062 -1.6120  0.0403
 8648SOL    HW237407   3.304   1.216  13.268  2.1167  0.7712  0.3558
 8649SOL     OW37408   0.579   3.133   8.244 -0.2241  0.3512 -0.3671
 8649SOL    HW137409   0.573   3.170   8.156 -0.8355 -0.3443 -0.6248
 8649SOL    HW237410   0.675   3.132   8.249 -0.2198  0.6214 -0.4151
 8650SOL     OW37411   0.449   0.451   5.377 -0.3859 -0.0628  0.5365
 8650SOL    HW137412   0.507   0.444   5.301  2.1764 -2.3274  2.6961
 8650SOL    HW237413   0.369   0.409   5.345 -1.0862  1.0121  0.8750
 8651SOL     OW37414   1.695   0.615   0.032 -0.2227  0.4895  0.3091
 8651SOL    HW137415   1.605   0.601   0.003  0.0638 -1.8653  0.5595
 8651SOL    HW237416   1.686   0.692   0.088 -0.6120  0.6608  0.0014
 8652SOL     OW37417   1.675   3.771   3.497  0.1432 -0.0549  0.2903
 8652SOL    HW137418   1.713   3.855   3.468  0.1134 -0.7518 -1.7697
 8652SOL    HW237419   1.583   3.783   3.471 -0.3226  1.3054  2.5386
 8653SOL     OW37420   3.247   2.055   5.274  0.2380 -0.4038 -0.1260
 8653SOL    HW137421   3.220   2.142   5.243 -1.1018 -1.2151 -1.2100
 8653SOL    HW237422   3.161   2.015   5.288  0.8332 -2.0790 -1.3190
 8654SOL     OW37423   1.167   1.347   3.890 -0.3768 -0.4411  0.0695
 8654SOL    HW137424   1.182   1.390   3.806  0.4732 -0.4427  0.2215
 8654SOL    HW237425   1.212   1.263   3.886  0.5763  0.1228 -1.4021
 8655SOL     OW37426   3.174   1.189  16.931  0.1140  0.1318 -0.3878
 8655SOL    HW137427   3.243   1.125  16.915 -0.0246 -0.1301  0.0614
 8655SOL    HW237428   3.223   1.269  16.915 -0.7859  1.1004  1.6475
 8656SOL     OW37429   2.539   2.729  11.938 -0.3392  0.3875  0.5753
 8656SOL    HW137430   2.536   2.713  12.033  0.7144  0.8385  0.6816
 8656SOL    HW237431   2.451   2.698  11.916  0.2074 -0.4186 -0.4311
 8657SOL     OW37432   0.017   2.442   0.989 -0.0514  0.5788  0.2371
 8657SOL    HW137433   0.101   2.458   0.946  0.3679 -1.4826  0.2553
 8657SOL    HW237434   0.002   2.348   0.974  1.3755 -0.3139  4.3581
 8658SOL     OW37435   0.466   0.969   4.437  0.2314 -0.2096 -0.6888
 8658SOL    HW137436   0.552   0.928   4.428 -0.1396 -1.1399  0.0293
 8658SOL    HW237437   0.452   0.984   4.531  0.7001  0.6119 -0.7529
 8659SOL     OW37438   2.677   2.708   3.073 -0.0595 -0.2195  0.5223
 8659SOL    HW137439   2.765   2.711   3.111 -0.0627 -0.3255  0.5369
 8659SOL    HW237440   2.687   2.750   2.987  1.0004  0.7252  1.1084
 8660SOL     OW37441   0.822   0.082   1.224 -0.9999 -0.5630 -0.3546
 8660SOL    HW137442   0.867   0.075   1.139 -1.4636  0.2437 -0.6626
 8660SOL    HW237443   0.762   0.157   1.218 -1.1055 -0.4911  1.6353
 8661SOL     OW37444   2.635   0.746   4.944 -0.0818  0.1414  0.0202
 8661SOL    HW137445   2.723   0.735   4.907 -0.7979 -2.0738 -1.0204
 8661SOL    HW237446   2.617   0.836   4.918 -0.9662  0.0509  0.3180
 8662SOL     OW37447   0.280   4.670   9.669 -0.2799  0.0040  0.0048
 8662SOL    HW137448   0.351   4.610   9.647  1.0918  0.8861  2.0661
 8662SOL    HW237449   0.218   4.647   9.600  0.2323  1.3138 -0.8970
 8663SOL     OW37450   1.557   4.553   5.910 -0.1034  0.1993  0.0817
 8663SOL    HW137451   1.578   4.523   5.998 -0.0659 -0.5331 -0.1791
 8663SOL    HW237452   1.628   4.511   5.862  0.2340 -0.6782  1.3524
 8664SOL     OW37453   1.980   1.863   4.666 -0.4181  0.1916  0.2562
 8664SOL    HW137454   2.068   1.834   4.687  0.1807  0.6400 -1.6042
 8664SOL    HW237455   1.994   1.958   4.664  2.4735 -0.2299  0.5843
 8665SOL     OW37456   4.308   0.693   6.345 -0.3747 -0.1249 -0.4867
 8665SOL    HW137457   4.400   0.701   6.318  0.3721 -1.4670  1.6731
 8665SOL    HW237458   4.264   0.762   6.296  0.4896  0.4816 -0.4073
 8666SOL     OW37459   3.665   2.249  17.266  0.2797  0.1616 -0.6267
 8666SOL    HW137460   3.726   2.268  17.338  1.6870 -0.4353 -1.6551
 8666SOL    HW237461   3.591   2.214  17.316  0.2359 -1.6829 -1.9743
 8667SOL     OW37462   1.984   1.780   1.613 -0.1207 -0.3526 -0.3548
 8667SOL    HW137463   1.903   1.728   1.610 -0.0817 -0.4631  0.7710
 8667SOL    HW237464   1.955   1.870   1.598 -0.7805 -0.5607 -0.3548
 8668SOL     OW37465   1.830   4.434   7.881  0.0185 -0.1727  0.6779
 8668SOL    HW137466   1.765   4.472   7.821  0.6171  0.3765  0.3673
 8668SOL    HW237467   1.807   4.343   7.895 -1.0104  0.2576  1.7502
 8669SOL     OW37468   0.663   0.408  16.279 -0.2440  0.3361 -0.5152
 8669SOL    HW137469   0.719   0.357  16.221 -0.7359  1.5674 -2.0571
 8669SOL    HW237470   0.706   0.493  16.290 -0.5372  0.3521  0.5586
 8670SOL     OW37471   2.652   1.820  13.684 -0.4532  0.1005 -0.2430
 8670SOL    HW137472   2.575   1.800  13.630 -0.0619  0.6702 -1.0148
 8670SOL    HW237473   2.711   1.860  13.620 -1.9067 -0.3847 -1.8780
 8671SOL     OW37474   1.953   1.815  12.608  0.1377  0.0263 -0.1334
 8671SOL    HW137475   1.879   1.858  12.566  0.4936 -0.5233 -1.3239
 8671SOL    HW237476   1.962   1.877  12.680 -1.5986 -0.4321  0.4849
 8672SOL     OW37477   0.953   3.705   3.411 -0.3681  0.1845  0.0496
 8672SOL    HW137478   1.010   3.692   3.486  1.8739 -0.3629 -1.7415
 8672SOL    HW237479   0.996   3.775   3.362  1.2403 -0.6122  0.3335
 8673SOL     OW37480   4.716   1.634   7.615  0.1695  0.2145 -0.1802
 8673SOL    HW137481   4.696   1.711   7.669  1.2090  1.8121 -2.0977
 8673SOL    HW237482   0.009   1.565   7.679  0.3175  1.1297  0.7856
 8674SOL     OW37483   4.341   4.376  14.045  0.3304  0.0729 -0.5064
 8674SOL    HW137484   4.334   4.471  14.030 -0.6105  0.0545 -0.1954
 8674SOL    HW237485   4.389   4.337  13.972  0.0707  2.4761 -1.9766
 8675SOL     OW37486   1.192   1.427   7.712  0.4257  0.2428  0.3540
 8675SOL    HW137487   1.251   1.352   7.698  1.3504  0.9307  0.5679
 8675SOL    HW237488   1.215   1.454   7.801 -0.2433 -0.7743  0.8429
 8676SOL     OW37489   3.975   0.595   1.022  0.0661 -0.2069  0.1998
 8676SOL    HW137490   3.893   0.632   1.057 -0.3981 -1.5972  0.5584
 8676SOL    HW237491   3.940   0.526   0.967  1.1510 -0.2487 -0.4245
 8677SOL     OW37492   1.016   4.207   3.393 -0.5326 -0.5758 -0.9683
 8677SOL    HW137493   0.944   4.248   3.345  0.3177  0.4422 -1.3803
 8677SOL    HW237494   1.039   4.277   3.454 -1.5570 -0.9890 -0.1177
 8678SOL     OW37495   1.549   1.376   9.280  1.5548  0.1901 -0.1759
 8678SOL    HW137496   1.498   1.303   9.316  0.3989  1.0058 -0.1621
 8678SOL    HW237497   1.607   1.321   9.227  1.9566 -0.1725  0.6394
 8679SOL     OW37498   3.708   2.961  10.571 -0.4328 -0.0553  0.1358
 8679SOL    HW137499   3.652   2.944  10.495 -0.3390  0.6513 -0.0926
 8679SOL    HW237500   3.719   2.872  10.605  1.6032 -0.4066 -1.4317
 8680SOL     OW37501   3.507   1.487   7.135 -0.7058  0.1247  0.3906
 8680SOL    HW137502   3.591   1.503   7.176 -0.9443  1.5170  0.3227
 8680SOL    HW237503   3.513   1.404   7.087  0.2976 -0.3215  1.3074
 8681SOL     OW37504   0.782   4.222   5.165  0.7520  0.2917  0.1821
 8681SOL    HW137505   0.757   4.251   5.253  0.6215  1.0286 -0.1003
 8681SOL    HW237506   0.850   4.286   5.142  0.0351  0.6060 -1.0368
 8682SOL     OW37507   3.657   3.456  13.197 -0.2544  0.2536 -0.1250
 8682SOL    HW137508   3.678   3.394  13.126  0.6046  0.6235 -0.1996
 8682SOL    HW237509   3.562   3.450  13.200 -0.1404 -1.1859  0.7523
 8683SOL     OW37510   1.108   4.142   6.578  0.8681 -0.2101 -0.3336
 8683SOL    HW137511   1.035   4.174   6.524  1.0232  2.7105  1.2178
 8683SOL    HW237512   1.123   4.054   6.543  0.4568 -1.0781  1.6119
 8684SOL     OW37513   1.851   3.904  16.086 -0.4524  0.2803  0.3608
 8684SOL    HW137514   1.902   3.938  16.159  0.2777  2.6278 -1.2420
 8684SOL    HW237515   1.820   3.980  16.038 -1.2938 -0.7822 -0.7834
 8685SOL     OW37516   4.105   0.789   9.364  0.0580 -0.1293  0.3262
 8685SOL    HW137517   4.089   0.790   9.458 -1.4680  2.0696  0.0360
 8685SOL    HW237518   4.074   0.702   9.339 -1.2945  0.0002  1.5393
 8686SOL     OW37519   1.733   0.042   9.917 -0.2488 -0.3352  0.5898
 8686SOL    HW137520   1.798   0.079   9.977 -0.2178  0.4201  0.0935
 8686SOL    HW237521   1.664   0.017   9.977 -0.6390  0.0286  0.2904
 8687SOL     OW37522   2.776   0.814   1.380 -0.2354  0.5622  0.0888
 8687SOL    HW137523   2.730   0.759   1.444  0.3788  1.9354  1.7146
 8687SOL    HW237524   2.708   0.818   1.313  1.6136 -1.3965 -1.8554
 8688SOL     OW37525   4.220   2.275   0.689  0.1423 -0.0662 -0.2367
 8688SOL    HW137526   4.233   2.351   0.745 -0.9794  0.3041 -0.4847
 8688SOL    HW237527   4.274   2.291   0.611 -0.9155 -0.3494 -1.0176
 8689SOL     OW37528   4.409   1.089  15.083 -0.3091  0.1148  0.2633
 8689SOL    HW137529   4.428   1.125  14.996  1.2655 -4.1507 -1.1507
 8689SOL    HW237530   4.479   1.024  15.080 -0.2652  0.2113 -0.9368
 8690SOL     OW37531   2.090   1.368  13.430 -0.5227  0.2368  0.2467
 8690SOL    HW137532   2.052   1.456  13.439 -0.2624  0.1128  2.4503
 8690SOL    HW237533   2.100   1.350  13.523 -1.1024  2.4825  0.7384
 8691SOL     OW37534   1.981   3.439  16.060  0.1044  0.6480 -0.0485
 8691SOL    HW137535   1.907   3.429  16.120  0.4821  0.3876  0.3759
 8691SOL    HW237536   2.041   3.369  16.084 -0.4846 -0.2113 -1.0443
 8692SOL     OW37537   2.861   0.974   6.244  0.3403  0.1368  0.4760
 8692SOL    HW137538   2.806   0.992   6.320 -1.4768 -0.0705 -0.7857
 8692SOL    HW237539   2.865   0.879   6.254  0.9370  0.1993  0.7872
 8693SOL     OW37540   2.983   1.252   4.306 -0.0248  0.1748 -0.0529
 8693SOL    HW137541   2.983   1.244   4.401 -0.9782 -0.0259 -0.0744
 8693SOL    HW237542   2.991   1.347   4.297 -1.5749  0.2901 -0.2038
 8694SOL     OW37543   0.394   3.640   9.280  0.2938 -0.4039 -0.0493
 8694SOL    HW137544   0.312   3.591   9.271 -0.1107  0.3997 -0.6487
 8694SOL    HW237545   0.364   3.730   9.268 -1.5931 -1.0627 -0.2382
 8695SOL     OW37546   1.830   3.124   9.802  0.1662 -0.2071  0.0712
 8695SOL    HW137547   1.809   3.204   9.849 -0.5459 -0.9841  1.0608
 8695SOL    HW237548   1.921   3.144   9.777 -0.0547 -0.9164 -1.3511
 8696SOL     OW37549   4.691   0.714  15.272  0.5577 -0.0796 -0.0369
 8696SOL    HW137550   0.046   0.765  15.251  1.9635 -2.8178 -1.3180
 8696SOL    HW237551   4.710   0.634  15.224  1.5421  1.0897 -1.5725
 8697SOL     OW37552   0.155   0.943   5.240 -0.3391  0.6106 -0.7967
 8697SOL    HW137553   0.228   1.001   5.262  0.0213  0.0591 -0.5530
 8697SOL    HW237554   0.088   1.002   5.205  0.5219  0.4968 -2.6276
 8698SOL     OW37555   3.535   2.748  12.091 -0.5738  0.2598 -0.0691
 8698SOL    HW137556   3.484   2.825  12.064 -1.4120 -0.9170 -1.8016
 8698SOL    HW237557   3.487   2.674  12.056  1.0062 -0.2784 -1.1063
 8699SOL     OW37558   0.148   3.368   5.734  0.4213 -0.1879  0.1201
 8699SOL    HW137559   0.144   3.282   5.775 -2.8339  0.5085  1.2770
 8699SOL    HW237560   0.242   3.379   5.717  0.2916  1.7921  0.6667
 8700SOL     OW37561   2.022   2.853   6.332 -0.1178 -0.2015  0.2320
 8700SOL    HW137562   2.104   2.868   6.379  0.5131  1.5066 -1.4124
 8700SOL    HW237563   1.971   2.818   6.404 -0.7081 -1.8751 -0.9981
 8701SOL     OW37564   1.078   1.610  17.330  1.0527  0.2987 -0.8079
 8701SOL    HW137565   1.128   1.682  17.368  2.6775  0.4624 -3.2626
 8701SOL    HW237566   1.102   1.621  17.238 -0.7485  2.0036 -1.0458
 8702SOL     OW37567   1.945   0.972   0.637 -0.2216  0.1831 -0.3743
 8702SOL    HW137568   1.852   0.952   0.651 -0.0056 -1.2422 -0.9956
 8702SOL    HW237569   1.977   0.892   0.679 -1.1737  0.3609  0.6956
 8703SOL     OW37570   1.746   4.361   8.548  0.0039 -0.0451 -0.0547
 8703SOL    HW137571   1.817   4.382   8.487  0.4110 -0.6318  0.2132
 8703SOL    HW237572   1.772   4.288   8.605 -3.3422 -1.8929 -0.8455
 8704SOL     OW37573   1.700   2.472   2.784 -0.6421 -0.1299 -0.6774
 8704SOL    HW137574   1.655   2.429   2.711  1.7007 -1.7935 -1.1509
 8704SOL    HW237575   1.787   2.487   2.746 -2.0951 -0.5812 -4.1839
 8705SOL     OW37576   2.850   4.675   4.581  0.1405  0.2839  0.2588
 8705SOL    HW137577   2.871   4.638   4.667  2.3691 -2.2666 -1.3869
 8705SOL    HW237578   2.764   4.714   4.593  0.5051  0.5317  2.0273
 8706SOL     OW37579   0.479   4.490   5.633 -0.3699  0.8178 -0.3886
 8706SOL    HW137580   0.526   4.506   5.552  1.2133  1.2175  0.6076
 8706SOL    HW237581   0.468   4.396   5.620 -0.2446  0.6366  0.7950
 8707SOL     OW37582   4.199   3.947   2.967 -0.2364  0.4921 -0.0576
 8707SOL    HW137583   4.170   4.029   2.927  0.8332  1.6041  1.4640
 8707SOL    HW237584   4.147   3.882   2.920  1.5935 -2.0153  1.3946
 8708SOL     OW37585   1.758   0.545  17.122  0.0818  0.0423  0.1436
 8708SOL    HW137586   1.826   0.611  17.113  0.8017 -0.7600 -0.2753
 8708SOL    HW237587   1.721   0.562  17.208  2.6863 -1.1729  1.4928
 8709SOL     OW37588   3.351   3.120   9.717  0.1904  0.1615 -0.4747
 8709SOL    HW137589   3.408   3.109   9.641  1.3885  1.4660  0.2433
 8709SOL    HW237590   3.406   3.186   9.759  1.2772 -1.1261  0.1197
 8710SOL     OW37591   2.392   4.542   0.854 -0.1261  0.3197 -0.3750
 8710SOL    HW137592   2.444   4.476   0.898  0.2584 -0.1991 -1.6066
 8710SOL    HW237593   2.322   4.489   0.815 -0.0030  0.3077 -0.5784
 8711SOL     OW37594   3.287   4.571  11.454 -0.1022 -0.3857 -0.3869
 8711SOL    HW137595   3.249   4.523  11.380 -2.4725  1.6806 -0.5038
 8711SOL    HW237596   3.244   4.656  11.457  0.2235 -0.2049 -0.9099
 8712SOL     OW37597   4.096   0.653   3.896 -0.5354  0.3681 -0.4944
 8712SOL    HW137598   4.145   0.607   3.964 -0.8215  1.7742  0.6909
 8712SOL    HW237599   4.015   0.602   3.889 -0.6063  0.2735  1.0198
 8713SOL     OW37600   1.593   1.629   4.933 -0.2116 -0.7508  0.0180
 8713SOL    HW137601   1.654   1.607   4.863  2.2551  0.7233  1.7508
 8713SOL    HW237602   1.642   1.692   4.984  0.2755  0.6087 -2.1335
 8714SOL     OW37603   2.833   3.701   3.442 -0.1307 -0.1907  0.4827
 8714SOL    HW137604   2.768   3.761   3.479 -1.0871 -1.3854  0.7302
 8714SOL    HW237605   2.915   3.749   3.447 -0.4087  0.3408  0.0046
 8715SOL     OW37606   0.723   0.930   3.940  0.3067 -0.0402 -0.4286
 8715SOL    HW137607   0.683   0.844   3.940  0.4168 -0.0927 -0.1954
 8715SOL    HW237608   0.811   0.893   3.943  0.5278  0.2514 -3.1972
 8716SOL     OW37609   1.908   0.553   9.678 -0.0273 -0.0815  0.0101
 8716SOL    HW137610   1.815   0.568   9.697 -0.2469 -0.2701 -0.8971
 8716SOL    HW237611   1.947   0.615   9.739 -0.0340  0.3144 -0.3889
 8717SOL     OW37612   0.030   1.057   5.788  0.2476  0.0945 -0.1334
 8717SOL    HW137613   4.670   1.084   5.826  0.6196  1.1385 -0.0547
 8717SOL    HW237614   0.086   1.044   5.865 -0.5959  0.4212  0.5443
 8718SOL     OW37615   3.962   4.021   8.003 -0.2401 -0.1967  0.1997
 8718SOL    HW137616   3.976   3.953   7.938 -1.9375 -1.0110  0.6969
 8718SOL    HW237617   4.050   4.028   8.041 -0.4535 -1.1411  0.8663
 8719SOL     OW37618   3.600   1.480  10.102 -0.2679  0.8853  0.0782
 8719SOL    HW137619   3.662   1.548  10.129  1.3352 -1.3731  2.1643
 8719SOL    HW237620   3.606   1.487  10.007 -1.5146  0.9964  0.0151
 8720SOL     OW37621   0.950   4.054  10.871 -0.1379 -0.2582  0.3568
 8720SOL    HW137622   0.989   4.075  10.787 -0.8810 -1.1317 -0.2137
 8720SOL    HW237623   1.017   4.015  10.927 -1.8815  0.3653  2.8876
 8721SOL     OW37624   1.943   0.775  11.588  0.1940  0.4559  0.0401
 8721SOL    HW137625   1.988   0.691  11.578  0.9075  0.8420 -0.0326
 8721SOL    HW237626   1.995   0.805  11.663 -0.0878 -1.6533  1.0592
 8722SOL     OW37627   4.705   4.150   9.323 -0.1313 -0.3397 -0.3408
 8722SOL    HW137628   0.057   4.094   9.336 -1.5867 -1.8654  1.7506
 8722SOL    HW237629   4.710   4.207   9.400  2.3487 -0.8475 -0.1195
 8723SOL     OW37630   0.491   2.936   1.938  0.0255 -0.0089 -0.4714
 8723SOL    HW137631   0.507   2.941   1.844  1.2278 -0.6726 -0.3025
 8723SOL    HW237632   0.402   2.902   1.948  0.7637 -1.3060  1.7196
 8724SOL     OW37633   0.407   3.582   8.715  0.2263 -0.0596 -0.0519
 8724SOL    HW137634   0.458   3.658   8.741 -1.9895  1.9509 -1.5213
 8724SOL    HW237635   0.475   3.538   8.664  1.5365  2.5346 -0.5356
 8725SOL     OW37636   4.219   1.889   5.745  0.0340  0.1449 -0.2011
 8725SOL    HW137637   4.191   1.961   5.689  1.9706  0.6553 -0.5007
 8725SOL    HW237638   4.140   1.857   5.789 -1.9751  0.4909 -3.4930
 8726SOL     OW37639   0.017   0.005   5.048  0.4735  0.4937 -0.7333
 8726SOL    HW137640   0.089   4.689   4.999  0.8621  0.8431 -0.4572
 8726SOL    HW237641   4.680   4.656   5.057  0.0120  1.1574  1.4313
 8727SOL     OW37642   3.750   3.368  10.476  0.4523 -0.0790 -0.3912
 8727SOL    HW137643   3.741   3.428  10.403  1.9410 -0.2035 -0.6700
 8727SOL    HW237644   3.807   3.300  10.442  1.4381  1.4571 -1.7696
 8728SOL     OW37645   0.637   1.798   5.852  0.1262 -0.3045 -0.2664
 8728SOL    HW137646   0.686   1.796   5.770 -0.4583 -0.8692 -0.6075
 8728SOL    HW237647   0.660   1.717   5.896 -0.5354 -0.2887  0.1190
 8729SOL     OW37648   2.127   0.496   5.457 -0.3844  0.4964  0.5771
 8729SOL    HW137649   2.100   0.583   5.426 -0.7399  0.2708  0.2472
 8729SOL    HW237650   2.220   0.495   5.433 -0.3886  2.1203  0.4628
 8730SOL     OW37651   3.318   4.445   6.257  0.0635  0.2910  0.0129
 8730SOL    HW137652   3.346   4.505   6.326 -2.5228 -0.1663  1.4403
 8730SOL    HW237653   3.245   4.495   6.222 -0.4103 -0.8732 -0.6730
 8731SOL     OW37654   1.532   0.938   4.258 -0.2810 -0.0792 -0.1945
 8731SOL    HW137655   1.577   1.002   4.203 -0.3716  1.6402  1.7360
 8731SOL    HW237656   1.484   0.992   4.321 -0.5716  0.3462 -0.7769
 8732SOL     OW37657   1.501   1.853   6.336  0.6332 -0.3597  0.0705
 8732SOL    HW137658   1.526   1.885   6.423 -0.4471 -2.0311  1.0044
 8732SOL    HW237659   1.470   1.939   6.308 -0.9671 -0.9470  0.0850
 8733SOL     OW37660   4.180   2.638   8.529 -0.5053  0.1479 -0.5024
 8733SOL    HW137661   4.090   2.608   8.543 -1.2067  2.9422  0.9765
 8733SOL    HW237662   4.222   2.614   8.611 -0.3974  1.6267 -0.1300
 8734SOL     OW37663   2.487   1.182   9.956  0.7430  0.1828 -0.3072
 8734SOL    HW137664   2.486   1.205   9.863 -2.1551 -2.6689 -0.9600
 8734SOL    HW237665   2.405   1.133   9.952  0.3597  1.0106 -2.6074
 8735SOL     OW37666   2.114   1.643   4.430 -0.3376 -0.4832 -0.0123
 8735SOL    HW137667   2.206   1.649   4.458 -0.4067  0.7660 -0.0760
 8735SOL    HW237668   2.106   1.725   4.383 -0.2146  0.0679  0.9286
 8736SOL     OW37669   1.605   4.183   6.888  0.7166 -0.5922 -0.3888
 8736SOL    HW137670   1.638   4.210   6.974  1.3229 -0.9526 -0.5022
 8736SOL    HW237671   1.547   4.109   6.907  0.0315 -0.1462 -0.7671
 8737SOL     OW37672   0.200   0.372   5.016  0.2728 -0.8839  0.4028
 8737SOL    HW137673   0.252   0.372   4.936 -0.2187 -1.8256  0.0813
 8737SOL    HW237674   0.110   0.373   4.981  1.3995 -0.3181 -2.4702
 8738SOL     OW37675   2.977   4.030  10.380 -0.0485  0.5346 -0.1158
 8738SOL    HW137676   2.990   4.078  10.461  0.4729  1.9774 -1.0417
 8738SOL    HW237677   2.961   4.102  10.319  0.6937  0.7239 -0.0915
 8739SOL     OW37678   0.632   4.155   4.481  0.6501  0.9081  0.1480
 8739SOL    HW137679   0.709   4.178   4.429  0.7825  1.1873  0.4648
 8739SOL    HW237680   0.567   4.139   4.413  1.7558 -3.5403  0.1359
 8740SOL     OW37681   2.017   1.744  11.143 -0.3410  0.4263 -1.0843
 8740SOL    HW137682   1.985   1.798  11.215 -1.5620 -1.0360 -0.5382
 8740SOL    HW237683   1.931   1.715  11.114  0.0691 -1.9481  0.1003
 8741SOL     OW37684   3.316   0.089   1.060  0.9247  0.2711 -0.5696
 8741SOL    HW137685   3.390   0.068   1.003  1.2270  0.3690 -0.2069
 8741SOL    HW237686   3.352   0.105   1.147  0.6907  0.5683 -0.5282
 8742SOL     OW37687   0.622   4.003   5.236  0.2440 -0.5999 -0.2553
 8742SOL    HW137688   0.673   3.930   5.270 -1.4281 -0.7075  1.9810
 8742SOL    HW237689   0.679   4.077   5.217 -1.0663  1.1596  2.7135
 8743SOL     OW37690   1.427   0.673  14.701  0.7593 -0.1666 -0.0350
 8743SOL    HW137691   1.436   0.682  14.606 -0.7844 -0.7281 -0.2245
 8743SOL    HW237692   1.362   0.742  14.716  1.5480  0.9791 -1.7755
 8744SOL     OW37693   4.109   0.888   1.900 -0.4423 -0.0213 -0.3338
 8744SOL    HW137694   4.057   0.890   1.820 -0.1698  2.7696 -0.4375
 8744SOL    HW237695   4.188   0.845   1.870 -1.4728 -4.0207  2.6091
 8745SOL     OW37696   2.667   2.047   7.457  0.3484 -0.4730  0.2684
 8745SOL    HW137697   2.706   1.966   7.488  1.1293  0.6786  2.3624
 8745SOL    HW237698   2.747   2.093   7.483  1.1400 -1.2731 -0.7539
 8746SOL     OW37699   0.409   2.370   4.624 -0.0724  0.0329  0.3447
 8746SOL    HW137700   0.342   2.425   4.663 -0.4368  0.7001 -1.2060
 8746SOL    HW237701   0.493   2.414   4.633 -1.5560  3.2008 -1.3090
 8747SOL     OW37702   4.377   2.426  11.432  0.0245 -0.4249 -0.2923
 8747SOL    HW137703   4.342   2.438  11.520 -1.2697  0.4718 -0.9440
 8747SOL    HW237704   4.470   2.406  11.448 -0.2031 -1.2972 -0.0424
 8748SOL     OW37705   4.717   3.637  10.609  0.3973 -0.2817  0.4090
 8748SOL    HW137706   4.701   3.726  10.640 -0.0874 -0.6735  1.3048
 8748SOL    HW237707   0.088   3.644  10.610  0.2405  2.1633 -1.3837
 8749SOL     OW37708   1.239   0.692   8.217 -0.0201 -0.8151 -0.5037
 8749SOL    HW137709   1.321   0.642   8.217  0.0548 -0.6980 -0.0226
 8749SOL    HW237710   1.256   0.750   8.144  1.2769 -1.0315 -0.3861
 8750SOL     OW37711   0.364   2.937   2.505  0.4241  0.0390 -0.4085
 8750SOL    HW137712   0.281   2.981   2.523  0.4056  0.5494 -1.7527
 8750SOL    HW237713   0.360   2.928   2.410  0.8168  0.9907 -0.5061
 8751SOL     OW37714   1.140   2.007  11.722 -0.2988  0.0031  0.2743
 8751SOL    HW137715   1.187   2.080  11.682 -1.0225  0.8352  0.9634
 8751SOL    HW237716   1.176   1.935  11.671 -0.1452 -0.4831  1.0733
 8752SOL     OW37717   1.518   2.388  15.459 -0.0966  0.2147  0.1595
 8752SOL    HW137718   1.467   2.388  15.378  0.0327  2.7600  0.0912
 8752SOL    HW237719   1.603   2.404  15.419 -1.3659  1.5332 -1.9969
 8753SOL     OW37720   2.137   1.254   9.487 -0.4245 -0.6399  0.2409
 8753SOL    HW137721   2.171   1.183   9.542  0.4605 -1.0256 -0.7961
 8753SOL    HW237722   2.043   1.252   9.503 -0.0221 -1.3036  2.5156
 8754SOL     OW37723   3.279   2.127   4.457  0.2037  0.2458 -0.3539
 8754SOL    HW137724   3.322   2.156   4.377  2.0520  0.1637  0.6067
 8754SOL    HW237725   3.197   2.095   4.419 -0.3912 -1.2041  2.1349
 8755SOL     OW37726   1.917   0.768   1.352  0.0322 -0.2494  0.4626
 8755SOL    HW137727   1.886   0.793   1.264  1.0820 -1.0844 -0.1409
 8755SOL    HW237728   1.830   0.751   1.387 -0.1969  1.1065  0.5581
 8756SOL     OW37729   4.578   2.260   5.283  0.1142 -0.7679 -0.5013
 8756SOL    HW137730   4.483   2.267   5.270  0.1740  1.3520  0.2238
 8756SOL    HW237731   4.608   2.337   5.235  0.5390 -0.5406  0.1233
 8757SOL     OW37732   0.064   2.359   3.774 -0.3246  0.9016 -0.4596
 8757SOL    HW137733   0.098   2.432   3.824  1.9502  0.4936 -1.3955
 8757SOL    HW237734   0.044   2.415   3.699  0.1292  2.7240  0.7939
 8758SOL     OW37735   0.136   3.649   8.691 -0.4818 -0.5691  0.1673
 8758SOL    HW137736   0.161   3.736   8.660  0.4141 -1.0556 -0.4740
 8758SOL    HW237737   0.224   3.619   8.716  0.6429  0.6019 -2.3767
 8759SOL     OW37738   4.083   1.132  15.430 -0.1103  0.1234  0.4192
 8759SOL    HW137739   3.991   1.150  15.449  0.3008  0.6666  1.9319
 8759SOL    HW237740   4.071   1.060  15.368 -2.0065  1.0862 -0.3204
 8760SOL     OW37741   2.419   1.357   4.618 -0.2568 -0.1287  0.0784
 8760SOL    HW137742   2.504   1.399   4.626  0.5759 -2.0835  1.7523
 8760SOL    HW237743   2.437   1.304   4.541  0.4148 -2.4822  1.8464
 8761SOL     OW37744   2.660   3.580  15.057  0.0181  0.0263 -0.4883
 8761SOL    HW137745   2.716   3.577  15.135  1.6876 -0.0148 -1.6810
 8761SOL    HW237746   2.692   3.646  14.996  1.0256 -0.2226 -0.2415
 8762SOL     OW37747   1.747   3.206  13.813 -0.1162 -0.0967  0.1542
 8762SOL    HW137748   1.811   3.140  13.788  0.3746  0.1307  0.8120
 8762SOL    HW237749   1.772   3.276  13.752  1.7632  0.1554  1.2060
 8763SOL     OW37750   1.928   0.331   5.989  0.0179 -0.0194 -0.4599
 8763SOL    HW137751   1.865   0.344   5.918 -0.9470  0.0917  0.4213
 8763SOL    HW237752   1.938   0.236   5.995  1.2791  0.2235  1.2951
 8764SOL     OW37753   1.995   0.159   6.976 -0.5934  0.4608 -0.4145
 8764SOL    HW137754   2.075   0.142   6.926 -0.3518 -0.2770  0.2206
 8764SOL    HW237755   1.936   0.086   6.960  1.8589 -1.8330  0.8352
 8765SOL     OW37756   2.149   3.676   2.486 -0.4909  0.2828  0.4277
 8765SOL    HW137757   2.065   3.652   2.449 -0.2210  0.8616 -0.5580
 8765SOL    HW237758   2.209   3.620   2.436 -0.6610  0.5949 -0.1236
 8766SOL     OW37759   3.726   3.514   1.269 -0.0529 -0.0282  0.6988
 8766SOL    HW137760   3.665   3.493   1.198  0.8177  1.2047 -0.4349
 8766SOL    HW237761   3.803   3.530   1.214 -1.0373  0.1913 -0.6075
 8767SOL     OW37762   2.284   4.290   8.441  0.2603 -0.3033 -0.2205
 8767SOL    HW137763   2.243   4.376   8.430 -2.3776 -1.3727  1.2535
 8767SOL    HW237764   2.369   4.308   8.481  0.0556 -0.7757  0.4390
 8768SOL     OW37765   4.656   3.831  17.530  0.3957 -0.2909  0.2827
 8768SOL    HW137766   4.645   3.767  17.460  1.7721  0.5720 -0.7045
 8768SOL    HW237767   0.017   3.872  17.525  0.7575 -0.7205  2.7422
 8769SOL     OW37768   2.168   4.344  12.277 -0.4256  0.7023 -0.4593
 8769SOL    HW137769   2.108   4.399  12.328 -0.0766 -0.0184  0.7079
 8769SOL    HW237770   2.121   4.304  12.204  1.0954  0.8160 -1.5107
 8770SOL     OW37771   4.587   4.633   2.232 -0.0100  0.1496  0.0602
 8770SOL    HW137772   4.678   4.662   2.246  0.2090 -0.8643  0.7682
 8770SOL    HW237773   4.570   4.690   2.158  0.2160  2.1117  1.5316
 8771SOL     OW37774   4.051   0.731   8.236 -0.3092 -0.0137  0.3594
 8771SOL    HW137775   4.123   0.769   8.287  1.4182 -1.1173 -1.2552
 8771SOL    HW237776   4.018   0.671   8.302 -1.3556 -3.3943 -3.2445
 8772SOL     OW37777   1.500   0.140  16.806  0.1818  0.0026 -0.2518
 8772SOL    HW137778   1.547   0.196  16.744  1.1426  0.4080  0.8650
 8772SOL    HW237779   1.531   0.052  16.783  2.4676  1.2780 -2.0832
 8773SOL     OW37780   2.366   3.282   1.165  0.0474 -0.3575 -0.2071
 8773SOL    HW137781   2.342   3.190   1.153  1.6639 -0.7633 -0.3084
 8773SOL    HW237782   2.330   3.295   1.252  1.0333  1.3888 -0.0707
 8774SOL     OW37783   4.397   3.713   9.130 -0.3170 -0.1109 -0.1295
 8774SOL    HW137784   4.412   3.682   9.219 -1.3340 -0.5276 -0.1106
 8774SOL    HW237785   4.396   3.631   9.081 -1.0840  0.2917 -0.7823
 8775SOL     OW37786   1.129   0.757   1.212 -0.2153 -0.2117  0.1779
 8775SOL    HW137787   1.076   0.683   1.186 -0.2904  0.0325 -0.3648
 8775SOL    HW237788   1.060   0.800   1.263  0.7568  0.9918  0.4913
 8776SOL     OW37789   1.357   3.513   8.207  0.2367 -0.0079  0.5288
 8776SOL    HW137790   1.335   3.580   8.272  0.3143  0.6721 -0.1420
 8776SOL    HW237791   1.393   3.569   8.138 -2.7709  0.9139 -0.2736
 8777SOL     OW37792   3.536   3.283   2.825  0.0071  0.0994  0.0016
 8777SOL    HW137793   3.560   3.220   2.893 -0.5656 -1.2732 -1.0629
 8777SOL    HW237794   3.441   3.273   2.825  0.1578 -1.2515 -1.4521
 8778SOL     OW37795   2.900   2.465   5.072  0.4055 -0.0111  0.6217
 8778SOL    HW137796   2.995   2.480   5.078  0.3222  1.3528 -1.4127
 8778SOL    HW237797   2.858   2.508   5.146  1.6334 -0.5952  1.6494
 8779SOL     OW37798   2.632   1.062   7.847 -0.5938  0.6351  0.2645
 8779SOL    HW137799   2.602   1.016   7.926  1.1245 -2.1599 -0.7100
 8779SOL    HW237800   2.664   0.989   7.793 -1.8602 -0.0901  0.4984
 8780SOL     OW37801   2.096   1.629  14.339 -0.3133  0.0873 -0.5875
 8780SOL    HW137802   2.004   1.605  14.346 -0.3394  0.0811 -0.9844
 8780SOL    HW237803   2.088   1.716  14.302 -0.2455  0.4179  0.1707
 8781SOL     OW37804   1.994   1.554  12.656  0.0142 -0.2274 -0.2363
 8781SOL    HW137805   1.949   1.638  12.640  1.5443  0.4090 -1.1784
 8781SOL    HW237806   2.070   1.585  12.705 -1.3090 -1.8618  2.8923
 8782SOL     OW37807   2.225   1.068   0.706 -0.4976 -0.1402 -0.1297
 8782SOL    HW137808   2.224   1.045   0.799  1.0339 -1.8361 -0.5374
 8782SOL    HW237809   2.137   1.048   0.675 -0.8898  0.5647  0.5241
 8783SOL     OW37810   3.761   2.885   8.477  0.0173 -0.1565 -0.1808
 8783SOL    HW137811   3.775   2.908   8.385 -3.1061  2.3090 -0.0304
 8783SOL    HW237812   3.705   2.808   8.473 -1.8672  1.1574  1.1450
 8784SOL     OW37813   0.076   2.776   1.050  0.7941  0.4411  0.7467
 8784SOL    HW137814   0.054   2.685   1.029  0.6288  0.5696  0.3653
 8784SOL    HW237815   4.716   2.820   1.032  1.7962  1.6420 -0.9814
 8785SOL     OW37816   1.792   3.314   2.776  0.2731 -0.1068  0.0477
 8785SOL    HW137817   1.834   3.239   2.733 -0.7952 -1.3202  1.1313
 8785SOL    HW237818   1.791   3.376   2.702  0.2488 -1.8916 -1.4454
 8786SOL     OW37819   0.095   1.104  15.042 -0.5005  0.2690  0.2566
 8786SOL    HW137820   0.083   1.100  15.137 -0.8577  2.1102  0.2931
 8786SOL    HW237821   0.015   1.062  15.010 -0.8092 -1.6480  3.5510
 8787SOL     OW37822   4.198   3.209  15.188 -0.1606 -0.2768  0.3097
 8787SOL    HW137823   4.149   3.175  15.114 -0.7980 -0.6275  0.8934
 8787SOL    HW237824   4.135   3.248  15.249 -0.2137  0.7937 -0.4316
 8788SOL     OW37825   0.425   3.249   5.537 -0.1919  0.0311 -0.3779
 8788SOL    HW137826   0.506   3.280   5.497  0.3052  0.7646  1.1903
 8788SOL    HW237827   0.374   3.220   5.461 -0.6910  0.7209 -0.3002
 8789SOL     OW37828   4.252   2.943   1.691  0.3649  0.3106  0.1561
 8789SOL    HW137829   4.311   2.893   1.635 -1.6186 -0.6143 -1.1077
 8789SOL    HW237830   4.206   2.999   1.628 -0.2472  1.0340  1.2394
 8790SOL     OW37831   3.345   4.560  15.658  0.0087 -0.8773  0.0056
 8790SOL    HW137832   3.387   4.586  15.576 -1.3534  1.4201  0.0156
 8790SOL    HW237833   3.379   4.621  15.724 -0.4452 -0.5955 -0.0217
 8791SOL     OW37834   1.899   1.851   4.006  0.4182  0.5595  0.0694
 8791SOL    HW137835   1.815   1.805   3.997  0.3196  0.6694  0.4282
 8791SOL    HW237836   1.913   1.854   3.912 -0.6147 -1.9409 -0.1788
 8792SOL     OW37837   1.010   0.667   8.667  0.3697  0.5530 -0.1167
 8792SOL    HW137838   1.025   0.683   8.574  0.4803  0.8683 -0.0456
 8792SOL    HW237839   1.022   0.747   8.717  0.1420  0.3030  0.3412
 8793SOL     OW37840   0.241   1.394   2.890  0.0379  0.2771  0.1868
 8793SOL    HW137841   0.216   1.303   2.876 -1.3264  0.4599  1.4159
 8793SOL    HW237842   0.167   1.435   2.846 -0.9146  0.4375  1.9149
 8794SOL     OW37843   0.513   3.379   9.397  0.4604 -0.1952  0.2206
 8794SOL    HW137844   0.435   3.410   9.442 -0.1545  1.7151 -2.1601
 8794SOL    HW237845   0.574   3.361   9.468  0.9744 -4.1982 -1.2569
 8795SOL     OW37846   3.485   1.469   5.850 -0.3711 -0.5834 -0.0420
 8795SOL    HW137847   3.534   1.427   5.920 -1.2219 -1.0379  0.2801
 8795SOL    HW237848   3.524   1.432   5.771  1.6789  1.1432  0.1534
 8796SOL     OW37849   3.347   4.228   0.063 -0.1139 -0.5125  0.3313
 8796SOL    HW137850   3.334   4.153   0.005  1.5164  0.5074 -1.3515
 8796SOL    HW237851   3.337   4.292  17.690  1.4992  1.9862  2.3419
 8797SOL     OW37852   4.262   0.804  15.027  0.2770  0.0237  0.1781
 8797SOL    HW137853   4.266   0.892  14.988 -3.3340  0.6918  1.3135
 8797SOL    HW237854   4.168   0.784  15.020 -0.1124  1.1352  2.2998
 8798SOL     OW37855   2.372   0.397  17.091 -0.2871 -0.4870 -0.4556
 8798SOL    HW137856   2.433   0.348  17.147 -1.4398 -3.5102 -1.8273
 8798SOL    HW237857   2.294   0.410  17.144 -0.8552 -0.7261 -1.2381
 8799SOL     OW37858   3.089   3.786  13.392 -0.7358  0.2357  0.3304
 8799SOL    HW137859   3.005   3.754  13.359 -0.1185 -1.3920  0.3223
 8799SOL    HW237860   3.148   3.728  13.344 -0.9162 -1.3634  2.0409
 8800SOL     OW37861   0.864   1.463   0.850  0.2365 -0.1185  0.3524
 8800SOL    HW137862   0.779   1.497   0.875 -1.1205 -1.0577 -2.9852
 8800SOL    HW237863   0.922   1.539   0.855 -0.8129  0.6854  0.2101
 8801SOL     OW37864   1.186   1.007   4.423 -0.7213 -0.1873  0.0609
 8801SOL    HW137865   1.253   0.951   4.463 -0.1260 -1.1206 -2.2548
 8801SOL    HW237866   1.200   1.087   4.473  1.4299 -1.1410  1.0249
 8802SOL     OW37867   0.886   1.560   6.413 -0.1146  0.5899  0.1151
 8802SOL    HW137868   0.919   1.648   6.430  0.3258  0.8880 -2.4038
 8802SOL    HW237869   0.853   1.538   6.500 -1.6122  2.2672 -0.0343
 8803SOL     OW37870   2.816   3.604   8.754  0.1037 -0.4303  0.2123
 8803SOL    HW137871   2.854   3.692   8.751  0.2908 -0.5281 -0.2656
 8803SOL    HW237872   2.903   3.565   8.753 -0.3288 -1.3133 -2.6650
 8804SOL     OW37873   1.823   1.143   6.015 -0.1383  0.1525  0.0891
 8804SOL    HW137874   1.841   1.053   6.041 -2.4892  0.1707  1.8160
 8804SOL    HW237875   1.765   1.144   5.938  0.1045 -1.6905 -0.1159
 8805SOL     OW37876   2.255   4.332   8.055 -0.2590 -0.3847 -0.1715
 8805SOL    HW137877   2.349   4.324   8.036  0.0177 -2.8262  2.1249
 8805SOL    HW237878   2.236   4.261   8.116 -0.3496  0.6834  1.0362
 8806SOL     OW37879   0.600   0.320   8.897  0.2663 -0.0512 -0.2298
 8806SOL    HW137880   0.604   0.414   8.915 -2.1863 -0.0134  0.0617
 8806SOL    HW237881   0.673   0.305   8.837 -0.8403 -1.1472 -1.2954
 8807SOL     OW37882   3.249   3.814  12.294  0.0882  0.5543  0.1008
 8807SOL    HW137883   3.339   3.843  12.278  0.8832 -1.7698  0.4138
 8807SOL    HW237884   3.200   3.893  12.273 -1.6218 -0.6669 -0.5191
 8808SOL     OW37885   2.151   2.473   6.872  0.5209 -0.0327  0.3349
 8808SOL    HW137886   2.162   2.558   6.830 -1.3694 -0.4495 -0.9850
 8808SOL    HW237887   2.142   2.417   6.796 -0.1301 -1.1294  1.2296
 8809SOL     OW37888   4.687   1.101   9.335 -0.2381  0.0299  0.2980
 8809SOL    HW137889   4.699   1.046   9.412 -0.5999  1.0147  1.0526
 8809SOL    HW237890   0.041   1.071   9.289 -0.6766 -0.9533  0.2029
 8810SOL     OW37891   3.269   2.875   6.858 -0.4487 -0.1225  0.5463
 8810SOL    HW137892   3.316   2.949   6.820 -3.4446  0.8519 -1.3034
 8810SOL    HW237893   3.195   2.879   6.798 -0.2596 -0.0639  0.3186
 8811SOL     OW37894   0.271   4.128  15.803  0.4926 -0.0264 -0.6163
 8811SOL    HW137895   0.181   4.100  15.820 -0.6955  1.7389 -3.9129
 8811SOL    HW237896   0.263   4.183  15.725 -0.8181  1.2232  0.4069
 8812SOL     OW37897   0.148   3.005   2.189  0.6412  0.0606  0.0791
 8812SOL    HW137898   0.077   3.033   2.246  0.7618 -1.3241  0.8987
 8812SOL    HW237899   0.110   3.010   2.102  0.7784  0.8224  0.0643
 8813SOL     OW37900   2.761   3.346  17.484  0.1663 -0.0070 -0.4375
 8813SOL    HW137901   2.685   3.382  17.529  0.1795  0.5561 -0.8600
 8813SOL    HW237902   2.738   3.365  17.393 -1.1143  0.3514 -0.0454
 8814SOL     OW37903   3.779   3.440   8.502 -0.6973 -0.5764  0.2182
 8814SOL    HW137904   3.752   3.349   8.519 -1.9838 -0.7530 -2.8154
 8814SOL    HW237905   3.846   3.445   8.571  1.0156 -2.9684 -1.2534
 8815SOL     OW37906   2.963   4.178   2.653 -0.2525 -0.2560 -0.6481
 8815SOL    HW137907   2.993   4.264   2.683  1.8182 -1.2431  0.0962
 8815SOL    HW237908   3.034   4.129   2.611  0.0256  0.4398 -0.9830
 8816SOL     OW37909   3.053   0.710   8.383  0.2328  0.2595  0.7157
 8816SOL    HW137910   3.112   0.635   8.378 -0.0559  0.0274  0.7829
 8816SOL    HW237911   2.984   0.703   8.317  1.0044  2.3000 -0.3081
 8817SOL     OW37912   2.567   1.997  11.300  0.5490 -0.5156  0.4896
 8817SOL    HW137913   2.550   2.038  11.215  0.6650 -2.6814 -0.5715
 8817SOL    HW237914   2.516   1.917  11.293 -1.3869  0.6721  0.8958
 8818SOL     OW37915   0.184   0.365   2.806  0.0911 -0.0249  0.8632
 8818SOL    HW137916   0.203   0.447   2.850 -0.8951  0.6224  0.0990
 8818SOL    HW237917   0.088   0.369   2.799  0.0182  0.2001  2.0945
 8819SOL     OW37918   3.881   4.680   2.441 -0.4016  1.0031  0.1528
 8819SOL    HW137919   3.804   0.007   2.466 -1.6052  0.4319 -2.2935
 8819SOL    HW237920   3.834   4.596   2.440 -0.1065  0.8624 -2.7797
 8820SOL     OW37921   0.322   2.857  15.397 -0.1389 -0.5298  0.5176
 8820SOL    HW137922   0.284   2.929  15.347  0.7957  0.5032  1.2773
 8820SOL    HW237923   0.417   2.861  15.383  0.2784 -0.4542  3.4270
 8821SOL     OW37924   3.534   0.912   8.923  0.2315 -0.1629 -0.4416
 8821SOL    HW137925   3.565   0.936   9.011 -0.4941 -1.6252  0.2146
 8821SOL    HW237926   3.596   0.966   8.873  1.8262 -0.0648  1.6346
 8822SOL     OW37927   0.320   0.407  14.813  0.4018 -0.6415 -0.0013
 8822SOL    HW137928   0.373   0.327  14.814 -0.5124 -1.2390  1.2854
 8822SOL    HW237929   0.255   0.398  14.883  0.3942 -1.7905 -0.1543
 8823SOL     OW37930   3.618   3.705   3.524  0.5563  0.1409  0.1308
 8823SOL    HW137931   3.705   3.703   3.562  1.4374 -0.5205 -1.8985
 8823SOL    HW237932   3.620   3.643   3.451 -2.0495  0.3444 -0.1265
 8824SOL     OW37933   0.734   1.696   8.827  0.6898 -0.3744  0.0761
 8824SOL    HW137934   0.669   1.633   8.858 -0.1503  1.4804  2.1163
 8824SOL    HW237935   0.691   1.780   8.844 -0.0108 -0.6158 -0.5163
 8825SOL     OW37936   4.517   0.992   7.506  0.5177  0.5972  0.0844
 8825SOL    HW137937   4.547   1.080   7.482  2.7712  0.4509  2.3348
 8825SOL    HW237938   4.443   1.014   7.562 -0.1054 -0.8321 -0.1764
 8826SOL     OW37939   2.739   2.019  12.574 -0.4152  0.2368 -0.3179
 8826SOL    HW137940   2.668   2.002  12.513 -0.0432  2.2249 -1.3225
 8826SOL    HW237941   2.777   2.092  12.524 -0.5157  0.4499 -0.0852
 8827SOL     OW37942   3.778   1.970  17.230  0.3649 -0.1447  0.0281
 8827SOL    HW137943   3.741   2.041  17.177  1.9262  1.2636  0.8447
 8827SOL    HW237944   3.722   1.892  17.239  0.1480 -0.0234 -0.2737
 8828SOL     OW37945   4.365   3.858   4.963  0.2179  0.7333  0.5076
 8828SOL    HW137946   4.428   3.860   4.891 -0.0903 -1.0835  0.1950
 8828SOL    HW237947   4.392   3.921   5.030 -2.8514  0.9362  1.5761
 8829SOL     OW37948   2.045   1.486   3.096  0.4397 -0.4499 -0.1963
 8829SOL    HW137949   1.980   1.460   3.031 -0.2681  2.0092 -0.4834
 8829SOL    HW237950   2.121   1.497   3.039  0.8692 -0.8828  0.2901
 8830SOL     OW37951   0.810   3.923   8.704  0.0534  0.0064 -0.0560
 8830SOL    HW137952   0.819   3.961   8.792  0.1655  1.7668 -0.8209
 8830SOL    HW237953   0.904   3.912   8.689 -0.1689  0.3722 -1.6773
 8831SOL     OW37954   2.506   4.459   6.606  0.1452  0.4581  0.3583
 8831SOL    HW137955   2.456   4.482   6.684 -0.4665 -0.4075  0.2206
 8831SOL    HW237956   2.584   4.420   6.645 -1.1950 -3.8490 -1.2304
 8832SOL     OW37957   4.295   2.919  17.668  0.6323 -0.1781  0.0902
 8832SOL    HW137958   4.301   2.828  17.641 -1.2380 -0.1238 -0.5077
 8832SOL    HW237959   4.202   2.941  17.677  1.0873  1.4256  0.9416
 8833SOL     OW37960   2.212   4.469   5.092 -1.0018 -0.2931 -0.1664
 8833SOL    HW137961   2.140   4.480   5.154  0.6743 -0.5581  1.8531
 8833SOL    HW237962   2.173   4.406   5.032  2.7128 -2.2415 -0.5643
 8834SOL     OW37963   0.418   3.390   4.849 -0.5272  0.7724  0.1742
 8834SOL    HW137964   0.512   3.400   4.860 -0.3947 -0.0211 -0.2073
 8834SOL    HW237965   0.388   3.338   4.923 -0.2743  0.7504  0.2575
 8835SOL     OW37966   0.509   3.542  16.137 -0.3426 -0.5455  0.2444
 8835SOL    HW137967   0.546   3.454  16.146  0.4206 -0.2066  0.3434
 8835SOL    HW237968   0.435   3.539  16.198 -1.4597 -1.4255 -1.1444
 8836SOL     OW37969   3.731   3.520   7.824  0.2082 -0.5693  0.2531
 8836SOL    HW137970   3.725   3.427   7.802 -0.6954  0.1972 -2.8359
 8836SOL    HW237971   3.725   3.514   7.919  0.4666 -2.6940  0.1284
 8837SOL     OW37972   3.056   1.245   8.396 -0.0747 -0.4422  0.1035
 8837SOL    HW137973   3.112   1.315   8.363 -0.4421 -0.2043 -0.0151
 8837SOL    HW237974   3.060   1.182   8.324 -1.0285 -1.9960  1.4004
 8838SOL     OW37975   2.310   4.003   8.718  0.3076 -0.0133 -0.2066
 8838SOL    HW137976   2.280   3.947   8.790  0.3127  1.2274  0.7574
 8838SOL    HW237977   2.272   4.086   8.745  0.8970  0.6113 -1.3144
 8839SOL     OW37978   3.284   2.508   4.439  0.7344  0.2739 -0.0349
 8839SOL    HW137979   3.380   2.510   4.432  0.7625  1.1852  0.6129
 8839SOL    HW237980   3.256   2.564   4.366 -1.3187  1.1661  1.4444
 8840SOL     OW37981   4.141   3.728   1.711 -0.2959 -0.0014  0.2566
 8840SOL    HW137982   4.144   3.696   1.801  1.6885  3.3356  1.4032
 8840SOL    HW237983   4.073   3.794   1.722 -0.6284 -0.5225  1.3452
 8841SOL     OW37984   0.484   3.172   7.656 -0.0875  0.3892 -0.5295
 8841SOL    HW137985   0.490   3.083   7.690  0.2719  0.7789  0.4193
 8841SOL    HW237986   0.575   3.184   7.627 -0.0237  1.4182  0.0605
 8842SOL     OW37987   4.397   0.216   5.419  0.9101  0.3086  0.2845
 8842SOL    HW137988   4.310   0.255   5.426  0.7831 -0.0500  0.7323
 8842SOL    HW237989   4.376   0.136   5.468 -0.9518 -0.1433 -1.2159
 8843SOL     OW37990   3.257   0.800   7.366  0.1018 -0.0481  0.1455
 8843SOL    HW137991   3.320   0.868   7.390 -0.7419  1.1993 -1.2426
 8843SOL    HW237992   3.284   0.737   7.434  2.3847 -0.8384 -1.4751
 8844SOL     OW37993   0.834   4.369   1.579 -0.1021 -0.1846 -0.0744
 8844SOL    HW137994   0.786   4.388   1.499 -1.7453  0.1015  0.9744
 8844SOL    HW237995   0.899   4.308   1.544 -2.1546 -1.5263 -1.5182
 8845SOL     OW37996   1.789   0.376   4.084  0.6090  0.4893  0.2306
 8845SOL    HW137997   1.699   0.384   4.053  0.4409  0.1419  0.6350
 8845SOL    HW237998   1.783   0.384   4.179 -0.4571  2.2365  0.0060
 8846SOL     OW37999   2.868   1.486   9.784 -0.7128 -0.0983  0.6369
 8846SOL    HW138000   2.810   1.504   9.857 -2.3920 -2.3343 -0.1721
 8846SOL    HW238001   2.943   1.460   9.837  0.4470 -1.1555 -1.5202
 8847SOL     OW38002   2.619   3.404  13.875 -1.0515 -0.4691 -0.4075
 8847SOL    HW138003   2.693   3.464  13.871 -1.1784 -0.1200  2.5640
 8847SOL    HW238004   2.624   3.358  13.791  0.4180 -1.8718  0.4436
 8848SOL     OW38005   4.383   4.095  15.782 -0.4199  0.4827  0.5485
 8848SOL    HW138006   4.380   4.088  15.877  0.6963 -1.2639  0.4609
 8848SOL    HW238007   4.312   4.153  15.756  0.7353  1.8982  0.5848
 8849SOL     OW38008   1.536   3.957   0.081 -0.4596 -0.0604 -0.4477
 8849SOL    HW138009   1.589   4.016   0.026 -0.4922  1.0920  0.7805
 8849SOL    HW238010   1.532   3.991   0.170 -0.6217  0.1032 -0.5178
 8850SOL     OW38011   4.382   1.313   3.399 -0.1378  0.1247  0.8790
 8850SOL    HW138012   4.334   1.232   3.417  0.3801 -0.0965  1.2884
 8850SOL    HW238013   4.385   1.345   3.489 -2.7403 -1.5479  1.5492
 8851SOL     OW38014   3.860   0.417   5.620  0.5597 -0.1244 -0.3147
 8851SOL    HW138015   3.948   0.438   5.650 -0.7124  4.5487  0.2562
 8851SOL    HW238016   3.799   0.481   5.657  1.2841  1.8648 -2.4827
 8852SOL     OW38017   3.274   3.196  11.376  0.0141 -0.1772  0.1997
 8852SOL    HW138018   3.288   3.198  11.281 -1.5298  0.0252 -0.0253
 8852SOL    HW238019   3.182   3.223  11.379  0.7696  2.0544  3.0809
 8853SOL     OW38020   2.166   2.117   3.760 -0.8387  0.1653 -0.2217
 8853SOL    HW138021   2.072   2.133   3.758 -0.6545  1.1848 -0.7528
 8853SOL    HW238022   2.200   2.205   3.743  1.0614 -0.8767 -1.8364
 8854SOL     OW38023   1.542   4.600   7.473 -0.0950  0.3791  0.1700
 8854SOL    HW138024   1.542   4.560   7.386 -0.4638  0.4669  0.1282
 8854SOL    HW238025   1.483   4.671   7.448  0.8902  0.1967 -2.7461
 8855SOL     OW38026   0.286   0.211   6.760  0.1721 -0.0404  0.1011
 8855SOL    HW138027   0.349   0.269   6.718 -0.8972 -0.7184 -2.4594
 8855SOL    HW238028   0.345   0.136   6.771  0.1231 -0.1852 -0.6702
 8856SOL     OW38029   2.838   3.881  14.136  0.1639  0.2036  0.2425
 8856SOL    HW138030   2.857   3.972  14.161  2.6156  0.2407 -1.7506
 8856SOL    HW238031   2.755   3.863  14.181 -0.6038 -0.4658 -1.4484
 8857SOL     OW38032   2.103   0.915   2.322 -0.5723  0.2543  0.0065
 8857SOL    HW138033   2.032   0.972   2.352 -2.0673 -2.1494  0.9892
 8857SOL    HW238034   2.056   0.871   2.251 -0.4584 -0.4892  0.3957
 8858SOL     OW38035   2.396   0.693   5.049  0.1430 -0.3339 -0.3700
 8858SOL    HW138036   2.479   0.706   5.003 -0.2049  1.0959 -0.6099
 8858SOL    HW238037   2.331   0.670   4.983 -0.2489 -0.2142 -0.0286
 8859SOL     OW38038   4.516   1.242  11.679 -1.2288  0.0787  0.4500
 8859SOL    HW138039   4.593   1.299  11.687 -0.2205 -0.8936 -2.5795
 8859SOL    HW238040   4.504   1.232  11.585 -0.1989 -1.4636  0.4882
 8860SOL     OW38041   1.494   0.440   0.243 -0.2402  0.2336 -0.1632
 8860SOL    HW138042   1.583   0.470   0.227 -0.2996  1.3334  1.5318
 8860SOL    HW238043   1.486   0.363   0.187 -0.5694 -0.9514  1.5020
 8861SOL     OW38044   1.869   3.440   2.531 -0.3650 -0.3448  0.3214
 8861SOL    HW138045   1.868   3.535   2.532 -0.3948 -0.3189 -1.9148
 8861SOL    HW238046   1.941   3.432   2.468 -0.9779  1.2895 -0.5762
 8862SOL     OW38047   2.959   3.602   0.908 -0.2409 -0.2840  0.0822
 8862SOL    HW138048   2.882   3.551   0.884  1.3969 -2.5055 -0.5206
 8862SOL    HW238049   2.912   3.685   0.912  0.1489 -0.0764  0.4885
 8863SOL     OW38050   4.123   1.105  17.123  0.2270  0.1294 -0.4335
 8863SOL    HW138051   4.167   1.184  17.155 -1.1872  0.5510  0.4776
 8863SOL    HW238052   4.117   1.130  17.031 -0.7523 -1.7783 -0.8859
 8864SOL     OW38053   0.311   1.725   6.337  0.2447 -0.0856 -0.9050
 8864SOL    HW138054   0.322   1.811   6.296 -0.4005  1.6421  2.5183
 8864SOL    HW238055   0.286   1.670   6.262 -0.6012 -0.2883 -0.4814
 8865SOL     OW38056   3.028   4.145  12.727 -0.3650 -0.2668  0.4286
 8865SOL    HW138057   3.053   4.075  12.666 -0.8353 -0.3515  0.3322
 8865SOL    HW238058   3.075   4.220  12.690 -0.4140  0.4402  1.8389
 8866SOL     OW38059   2.875   1.810  12.622 -0.3561  1.1477  0.0796
 8866SOL    HW138060   2.948   1.817  12.560  0.1277  3.0703  0.8605
 8866SOL    HW238061   2.834   1.896  12.618  0.8573  1.7384  0.3608
 8867SOL     OW38062   3.048   0.006   6.946  0.1838  0.1248 -0.0007
 8867SOL    HW138063   3.070   4.638   6.938  0.7132  0.0814  2.0298
 8867SOL    HW238064   3.098   0.047   6.875  1.3078  0.3512  0.9117
 8868SOL     OW38065   0.200   3.720   2.223  0.1944 -0.1908  0.0709
 8868SOL    HW138066   0.291   3.701   2.249  0.2799  0.1449  0.0182
 8868SOL    HW238067   0.200   3.694   2.131 -2.0018 -0.6896  0.2311
 8869SOL     OW38068   0.170   0.509   4.343 -0.2638 -0.3070 -0.1933
 8869SOL    HW138069   0.127   0.542   4.423  0.5747  1.3172 -0.4191
 8869SOL    HW238070   0.100   0.525   4.280  0.0958 -2.7591 -1.2048
 8870SOL     OW38071   1.927   2.493   6.007 -0.0070 -0.5785  0.5134
 8870SOL    HW138072   1.870   2.559   5.967 -1.1291 -2.3189 -0.7931
 8870SOL    HW238073   2.009   2.542   6.001  0.6767 -1.3143  3.6891
 8871SOL     OW38074   1.830   1.925   1.070 -0.8899  0.1732  0.7438
 8871SOL    HW138075   1.802   1.854   1.013 -1.2148 -0.1492  1.3040
 8871SOL    HW238076   1.742   1.954   1.094 -1.2303 -0.0758 -0.1845
 8872SOL     OW38077   3.528   2.337   7.652 -0.4191 -0.0930  0.5221
 8872SOL    HW138078   3.472   2.352   7.575 -0.8258  0.0506  0.8490
 8872SOL    HW238079   3.612   2.376   7.628 -0.1059 -0.4686  1.0142
 8873SOL     OW38080   1.008   2.557   9.101  0.3189  0.4984  0.1251
 8873SOL    HW138081   1.028   2.467   9.077  0.1197 -0.2226  2.7141
 8873SOL    HW238082   1.099   2.584   9.116 -0.0644  0.4648  2.6082
 8874SOL     OW38083   3.502   2.857  11.600 -0.3368  0.1792  0.4747
 8874SOL    HW138084   3.472   2.905  11.677 -0.3499 -1.3380  1.3991
 8874SOL    HW238085   3.595   2.876  11.608 -0.5894  1.4768  0.4430
 8875SOL     OW38086   4.408   3.793   0.734  0.1374  0.0214  0.8972
 8875SOL    HW138087   4.427   3.844   0.813  1.7297  1.6507 -0.5432
 8875SOL    HW238088   4.457   3.712   0.752 -0.6362 -0.7848 -0.6070
 8876SOL     OW38089   3.801   1.664  10.131  0.0281  0.2626 -0.3840
 8876SOL    HW138090   3.814   1.727  10.202  2.4254 -0.5613 -0.0952
 8876SOL    HW238091   3.881   1.674  10.078  0.0966  1.5547 -0.0347
 8877SOL     OW38092   2.298   1.005   7.143  0.4326 -0.7278  0.0753
 8877SOL    HW138093   2.221   0.963   7.105  1.5233 -0.9989 -1.8700
 8877SOL    HW238094   2.311   0.947   7.218 -1.5166 -0.8359  0.3202
 8878SOL     OW38095   3.614   3.781   8.195 -0.5012  0.3242  0.4554
 8878SOL    HW138096   3.579   3.728   8.124 -0.7138 -1.2294  1.7140
 8878SOL    HW238097   3.702   3.744   8.194  0.0972  1.8893 -2.5764
 8879SOL     OW38098   2.710   2.851  12.705  0.0185  0.0274 -0.6204
 8879SOL    HW138099   2.789   2.808  12.738 -0.7759 -2.2005 -1.5859
 8879SOL    HW238100   2.729   2.941  12.731 -0.7404  0.3467 -1.1566
 8880SOL     OW38101   3.506   4.713   5.410  0.1548 -0.4161 -0.0127
 8880SOL    HW138102   3.532   0.037   5.489  1.6413  1.1170 -1.4381
 8880SOL    HW238103   3.594   4.706   5.374  0.2832 -1.1385  0.4583
 8881SOL     OW38104   2.329   2.408  11.106 -0.4955 -0.5625  0.5574
 8881SOL    HW138105   2.415   2.436  11.077 -0.1699  0.0512  2.0889
 8881SOL    HW238106   2.321   2.316  11.078 -0.8302 -1.2191  2.7852
 8882SOL     OW38107   2.397   1.169   7.480 -0.3900  0.6165  0.6061
 8882SOL    HW138108   2.356   1.254   7.465  2.3962  2.1139  1.3433
 8882SOL    HW238109   2.342   1.135   7.550 -0.3098  0.1872  0.4615
 8883SOL     OW38110   0.942   0.843  13.863  0.0909 -0.4386  0.4879
 8883SOL    HW138111   1.000   0.876  13.794  0.5137 -1.3458  0.4069
 8883SOL    HW238112   0.869   0.905  13.855 -0.9527 -1.7780 -0.3293
 8884SOL     OW38113   2.855   4.210   5.186 -0.4542  0.2433 -0.4744
 8884SOL    HW138114   2.797   4.178   5.255 -0.1685  2.2149  0.6836
 8884SOL    HW238115   2.811   4.282   5.140 -2.1166 -0.2184  0.3724
 8885SOL     OW38116   3.434   4.535   7.785 -0.3902 -0.3462  0.0438
 8885SOL    HW138117   3.446   4.490   7.869  0.1628  0.3386  0.3328
 8885SOL    HW238118   3.398   4.462   7.735 -1.0973  0.1572 -0.1771
 8886SOL     OW38119   4.717   4.683   9.488  0.2432 -0.1022 -0.0968
 8886SOL    HW138120   4.631   4.653   9.459  0.7410 -2.3856  0.8179
 8886SOL    HW238121   4.690   0.042   9.528 -2.4295 -1.6736  1.3216
 8887SOL     OW38122   2.406   3.750   1.191  0.6117 -0.2276 -0.2753
 8887SOL    HW138123   2.331   3.797   1.156  0.8803  1.1708  1.0319
 8887SOL    HW238124   2.418   3.778   1.281  0.2737 -0.4267 -0.1687
 8888SOL     OW38125   2.428   2.547  12.530  0.2780  0.1521  0.4527
 8888SOL    HW138126   2.401   2.548  12.622 -0.7271  4.2581  0.1212
 8888SOL    HW238127   2.516   2.511  12.529 -0.1041 -0.7810  0.0894
 8889SOL     OW38128   0.907   2.755   3.312 -0.1561  0.2072  0.4500
 8889SOL    HW138129   0.856   2.833   3.292 -0.6724 -0.2825 -0.1501
 8889SOL    HW238130   0.971   2.756   3.241 -1.2092  0.1271 -0.4987
 8890SOL     OW38131   1.932   2.122   4.666 -0.3655 -0.3737 -0.0848
 8890SOL    HW138132   1.959   2.213   4.660  0.6004 -0.7328 -1.2995
 8890SOL    HW238133   1.852   2.142   4.715  1.7152  0.2195  3.1250
 8891SOL     OW38134   0.293   2.450  11.855  0.4052  0.1640  0.3516
 8891SOL    HW138135   0.279   2.398  11.934 -1.5525  0.4973  0.2410
 8891SOL    HW238136   0.348   2.390  11.805 -0.1775 -1.5059  1.7145
 8892SOL     OW38137   0.313   3.609   7.805  0.3313 -0.2445 -0.8587
 8892SOL    HW138138   0.266   3.527   7.784 -0.8509 -0.4497  2.6119
 8892SOL    HW238139   0.274   3.650   7.882  0.9516 -0.2301 -0.5567
 8893SOL     OW38140   0.380   3.402   0.986 -0.2251  0.0826 -0.4298
 8893SOL    HW138141   0.392   3.375   0.895  0.6957 -1.9476  0.2735
 8893SOL    HW238142   0.417   3.323   1.026  2.1980  1.0398 -0.7398
 8894SOL     OW38143   2.023   0.694   0.414  0.0744 -0.5595  0.7288
 8894SOL    HW138144   2.074   0.614   0.407  0.5761 -0.0691 -1.1796
 8894SOL    HW238145   2.056   0.719   0.500 -1.2771  0.3609  0.9853
 8895SOL     OW38146   3.775   2.212   8.180 -0.2164  0.7984  0.0288
 8895SOL    HW138147   3.752   2.167   8.099 -0.2625  1.0733 -0.1096
 8895SOL    HW238148   3.686   2.238   8.203  0.0834  2.9985 -1.3296
 8896SOL     OW38149   1.251   0.217   7.079 -0.2682  0.1079  0.4680
 8896SOL    HW138150   1.330   0.271   7.073 -0.7951  0.6810 -1.2157
 8896SOL    HW238151   1.249   0.180   6.991 -0.4238 -1.7223  1.2426
 8897SOL     OW38152   3.521   2.545   9.105 -0.2386  0.5888  0.2825
 8897SOL    HW138153   3.475   2.518   9.184 -0.7659 -0.8583 -0.5071
 8897SOL    HW238154   3.612   2.536   9.133 -0.0170  1.9083 -0.0025
 8898SOL     OW38155   2.834   2.356   4.114  0.1720 -0.1889 -0.4221
 8898SOL    HW138156   2.770   2.286   4.108 -1.4279  1.3079 -0.9786
 8898SOL    HW238157   2.890   2.332   4.041 -0.7613 -3.6977  0.0201
 8899SOL     OW38158   1.696   3.478   4.497 -0.3510  0.0514 -0.5804
 8899SOL    HW138159   1.712   3.415   4.568  0.5145  1.4030  0.4173
 8899SOL    HW238160   1.626   3.435   4.448  0.1004 -1.7143  0.3203
 8900SOL     OW38161   0.771   2.075   1.175 -0.3081 -0.3941  0.0055
 8900SOL    HW138162   0.778   1.981   1.159 -1.2405 -0.5675  0.5836
 8900SOL    HW238163   0.814   2.111   1.098 -1.4480  1.6146  0.3027
 8901SOL     OW38164   2.247   2.912  16.736 -0.2836  0.1596 -0.4342
 8901SOL    HW138165   2.193   2.977  16.691 -0.8455  0.2236  0.3155
 8901SOL    HW238166   2.261   2.849  16.665 -3.8851 -1.4872  0.2833
 8902SOL     OW38167   1.674   1.644   6.498 -0.1240 -0.4735 -0.2890
 8902SOL    HW138168   1.645   1.703   6.428 -0.3429 -0.6454 -0.3410
 8902SOL    HW238169   1.760   1.683   6.517 -0.0084  0.1875 -2.1980
 8903SOL     OW38170   1.203   1.026   5.767  0.0226  0.5858  0.5026
 8903SOL    HW138171   1.150   1.050   5.843  0.4703  0.7340  0.7740
 8903SOL    HW238172   1.261   1.103   5.760 -2.7670  2.4906 -1.7210
 8904SOL     OW38173   2.850   0.082  10.585 -0.0059 -0.3775 -0.7633
 8904SOL    HW138174   2.773   0.088  10.641 -0.4381  0.8314 -1.4927
 8904SOL    HW238175   2.901   0.146  10.635  0.3875 -0.3033 -1.2579
 8905SOL     OW38176   3.269   2.963   2.134 -0.2262 -0.2546 -0.3775
 8905SOL    HW138177   3.196   2.988   2.191 -1.0932  0.7329 -1.8837
 8905SOL    HW238178   3.324   3.041   2.129 -1.8333  0.9657  1.1399
 8906SOL     OW38179   3.514   0.937   1.702  0.3181 -0.4925  0.2201
 8906SOL    HW138180   3.465   0.929   1.621  2.5173 -2.9110 -0.8434
 8906SOL    HW238181   3.587   0.994   1.677 -1.6910  1.4606 -1.1461
 8907SOL     OW38182   0.200   3.149   9.046 -0.4686 -0.0369  0.6817
 8907SOL    HW138183   0.271   3.208   9.070  2.4744 -4.0713  1.9861
 8907SOL    HW238184   0.168   3.199   8.971  2.7903  0.3062 -0.4440
 8908SOL     OW38185   3.352   2.170   6.391  0.0916 -0.3992  0.2808
 8908SOL    HW138186   3.284   2.232   6.417 -1.1016 -1.7607  0.3793
 8908SOL    HW238187   3.398   2.215   6.320  2.5208 -1.8262  0.9460
 8909SOL     OW38188   2.369   0.197   8.163 -0.1153 -0.8053  0.5714
 8909SOL    HW138189   2.282   0.158   8.157  0.3296 -1.6849 -0.3030
 8909SOL    HW238190   2.393   0.161   8.248 -1.8408 -3.8590 -0.2235
 8910SOL     OW38191   4.093   0.377   7.504 -0.4858 -0.3310 -0.0330
 8910SOL    HW138192   3.998   0.372   7.508 -0.5862  1.7732  0.2274
 8910SOL    HW238193   4.118   0.325   7.580 -0.2913  1.5284  1.1938
 8911SOL     OW38194   1.788   2.966   4.033 -0.3280  0.6179  0.2053
 8911SOL    HW138195   1.758   3.000   3.948  2.2038  0.4346 -0.7620
 8911SOL    HW238196   1.724   2.900   4.058  0.8449 -0.2592  0.8565
 8912SOL     OW38197   0.782   0.992  10.113  0.1348 -0.4133  0.0980
 8912SOL    HW138198   0.708   0.976  10.054  1.8682 -1.1213 -1.8902
 8912SOL    HW238199   0.742   1.020  10.195 -0.0386 -0.5126  0.0478
 8913SOL     OW38200   1.894   1.723  17.130 -0.2371 -0.0281 -0.0944
 8913SOL    HW138201   1.837   1.792  17.164 -0.3307 -0.5171  0.7328
 8913SOL    HW238202   1.830   1.681  17.072 -0.1403 -0.5124  0.1505
 8914SOL     OW38203   4.568   1.388   0.702 -0.2402 -0.0620 -0.1754
 8914SOL    HW138204   4.473   1.388   0.700 -0.2090  1.0048 -1.9554
 8914SOL    HW238205   4.585   1.478   0.729 -1.3528  0.3467 -0.8416
 8915SOL     OW38206   1.858   3.976   7.508 -0.3908  0.0298  0.5059
 8915SOL    HW138207   1.932   4.013   7.557  0.9013 -2.7852  0.7073
 8915SOL    HW238208   1.882   4.001   7.419 -0.7354 -0.2863  0.3241
 8916SOL     OW38209   0.609   2.743   5.265  0.1744 -0.4997  0.4569
 8916SOL    HW138210   0.624   2.706   5.178 -1.6605  1.4012 -0.6539
 8916SOL    HW238211   0.663   2.681   5.313 -0.1896  0.8033  2.5624
 8917SOL     OW38212   2.952   3.798   8.012  0.0052 -0.0558  0.5780
 8917SOL    HW138213   2.904   3.775   7.933  0.5746  1.4569 -0.2099
 8917SOL    HW238214   3.001   3.874   7.983 -1.3496  0.2644 -0.8771
 8918SOL     OW38215   0.705   2.834  13.527 -0.2495  0.1394 -0.1490
 8918SOL    HW138216   0.765   2.884  13.472 -0.1074 -2.5295 -2.4325
 8918SOL    HW238217   0.749   2.749  13.526 -0.0658  0.2363 -0.1860
 8919SOL     OW38218   0.706   0.510   4.026  0.5822  0.4680  0.4645
 8919SOL    HW138219   0.679   0.534   3.937 -0.9332  0.2837  0.8849
 8919SOL    HW238220   0.622   0.507   4.070  0.2838 -0.9168 -0.2041
 8920SOL     OW38221   4.284   3.889  13.868  0.1691 -0.3039 -0.0248
 8920SOL    HW138222   4.379   3.890  13.874  0.1607  2.4363 -0.5256
 8920SOL    HW238223   4.269   3.961  13.929  2.4681 -0.6339  0.9196
 8921SOL     OW38224   4.172   0.416   1.091  0.1750 -0.1395  0.2478
 8921SOL    HW138225   4.110   0.483   1.061  0.1821 -0.4474 -0.4403
 8921SOL    HW238226   4.141   0.396   1.180  0.7316  1.5706  0.8350
 8922SOL     OW38227   1.463   4.394   6.262  0.0553 -0.2939  0.1006
 8922SOL    HW138228   1.526   4.458   6.230  0.6245 -1.7567 -1.6881
 8922SOL    HW238229   1.520   4.331   6.306  2.8323  2.6862  0.7501
 8923SOL     OW38230   0.082   2.643   3.716 -0.4004  0.2429  0.0138
 8923SOL    HW138231   0.149   2.645   3.648 -1.5399 -0.9674 -1.1655
 8923SOL    HW238232   0.088   2.732   3.751  3.9044 -0.0414  0.0231
 8924SOL     OW38233   3.312   4.493   5.204 -0.4616 -0.3157  0.4218
 8924SOL    HW138234   3.252   4.424   5.232  0.2098 -0.5767  1.2099
 8924SOL    HW238235   3.309   4.485   5.109  0.5443  0.7808  0.2866
 8925SOL     OW38236   0.760   2.270   9.327 -0.1290  0.4863  0.3019
 8925SOL    HW138237   0.753   2.203   9.259  0.6568  0.6448  0.0690
 8925SOL    HW238238   0.747   2.343   9.266  1.8961  0.4418 -0.1649
 8926SOL     OW38239   1.681   3.729   4.372  0.4847 -0.3329  0.1623
 8926SOL    HW138240   1.678   3.661   4.438 -1.4201  0.9519  1.4013
 8926SOL    HW238241   1.775   3.735   4.352  0.2372 -3.0290 -1.7996
 8927SOL     OW38242   1.103   3.521   3.573 -0.5504  0.6004 -0.2236
 8927SOL    HW138243   1.106   3.535   3.668  1.1745 -1.4404  0.0318
 8927SOL    HW238244   1.194   3.540   3.550  0.1716 -0.4833  1.7649
 8928SOL     OW38245   3.966   2.596  14.261  0.1181  0.0652  0.0014
 8928SOL    HW138246   4.034   2.546  14.307  1.7101  1.7519 -0.4851
 8928SOL    HW238247   3.922   2.639  14.334 -1.8597  0.3021 -1.3543
 8929SOL     OW38248   4.163   1.356  12.903 -0.1704  0.8458 -0.2790
 8929SOL    HW138249   4.087   1.389  12.952 -0.0108 -1.2425  1.3719
 8929SOL    HW238250   4.237   1.413  12.924  0.4830 -1.2871  3.1851
 8930SOL     OW38251   1.792   0.987  10.175 -0.0750  0.7357 -0.3052
 8930SOL    HW138252   1.764   0.941  10.255 -1.6186 -1.3488 -2.0535
 8930SOL    HW238253   1.709   0.986  10.127  0.2556  0.4252 -0.8593
 8931SOL     OW38254   0.976   4.100   4.078  0.2857 -0.0614  0.2257
 8931SOL    HW138255   1.051   4.158   4.081  0.6081 -0.5823  2.4607
 8931SOL    HW238256   0.946   4.092   4.169 -0.1210 -1.1233  0.0024
 8932SOL     OW38257   0.442   4.245   1.522 -0.1596 -0.4039 -0.2477
 8932SOL    HW138258   0.498   4.242   1.600 -0.4793 -1.6766 -0.0752
 8932SOL    HW238259   0.510   4.255   1.455  1.8296  0.9422  1.9456
 8933SOL     OW38260   4.483   3.599  14.358  0.1255 -0.2590  0.3037
 8933SOL    HW138261   4.446   3.683  14.334 -1.2439 -1.6063 -2.2438
 8933SOL    HW238262   4.494   3.561  14.271 -0.2410  2.2065 -0.7966
 8934SOL     OW38263   1.772   1.843   5.710 -0.0578  0.0144  0.0997
 8934SOL    HW138264   1.801   1.752   5.705  2.8694  0.9599 -0.0771
 8934SOL    HW238265   1.827   1.868   5.784 -1.4716  0.3071  1.0559
 8935SOL     OW38266   3.916   3.163   2.812 -0.1182 -0.0188  0.5927
 8935SOL    HW138267   3.869   3.103   2.870  0.1701  1.5398  2.4338
 8935SOL    HW238268   3.928   3.121   2.727 -1.5147  0.0126  0.3716
 8936SOL     OW38269   4.017   0.781   2.521 -0.4268 -0.2736 -0.1700
 8936SOL    HW138270   4.074   0.745   2.589 -0.5304 -2.0391 -1.0198
 8936SOL    HW238271   3.932   0.738   2.531 -1.0390  1.2622  1.2052
 8937SOL     OW38272   1.874   3.913  10.955  0.7430 -0.0143  0.0497
 8937SOL    HW138273   1.946   3.865  10.914  0.2640 -0.2147 -0.5601
 8937SOL    HW238274   1.908   3.952  11.036  0.8727  0.2138 -0.1139
 8938SOL     OW38275   2.560   2.143  11.051 -0.7391  0.1946  0.0086
 8938SOL    HW138276   2.467   2.135  11.032 -0.8318 -1.6662  1.2520
 8938SOL    HW238277   2.575   2.237  11.062  1.0098  0.0807 -1.4050
 8939SOL     OW38278   2.512   4.388   5.259 -0.7459  0.7319  0.3432
 8939SOL    HW138279   2.598   4.430   5.271 -0.7844  1.1038 -0.6785
 8939SOL    HW238280   2.467   4.423   5.335  0.8475  1.9773  0.7029
 8940SOL     OW38281   3.739   0.134   5.100 -0.5361  0.5143 -0.0255
 8940SOL    HW138282   3.759   0.144   5.006  1.2070 -0.8319  0.1909
 8940SOL    HW238283   3.818   0.088   5.130  0.5687  1.5084 -1.3759
 8941SOL     OW38284   0.402   0.382   9.184 -0.0530 -0.1590  0.7131
 8941SOL    HW138285   0.382   0.462   9.135 -1.6035  0.3064  2.1369
 8941SOL    HW238286   0.421   0.414   9.271 -0.5670 -1.2738  1.2401
 8942SOL     OW38287   0.554   2.968   1.669  0.2610 -0.3638 -0.2213
 8942SOL    HW138288   0.502   2.977   1.589  0.0352  1.9420  0.1754
 8942SOL    HW238289   0.597   2.884   1.650  1.9928  0.2919  0.7672
 8943SOL     OW38290   2.894   2.113   4.320 -0.3925  0.8919 -0.6979
 8943SOL    HW138291   2.908   2.207   4.313  1.8963  0.6974  1.3296
 8943SOL    HW238292   2.903   2.092   4.227  0.6127 -2.5620  0.1617
 8944SOL     OW38293   4.518   2.318   1.546  0.9031 -0.1484  0.6918
 8944SOL    HW138294   4.558   2.277   1.623  2.4406 -1.3748 -0.7707
 8944SOL    HW238295   4.442   2.352   1.593 -0.0030  1.9605 -2.3406
 8945SOL     OW38296   1.205   4.546   5.503 -0.4675  0.1459  0.5629
 8945SOL    HW138297   1.216   4.459   5.540 -1.2685 -0.4576 -0.6393
 8945SOL    HW238298   1.293   4.583   5.515 -0.3131  0.3658 -1.1864
 8946SOL     OW38299   2.647   2.222   8.881  0.3280  0.1328  0.1442
 8946SOL    HW138300   2.659   2.227   8.786 -2.0189 -1.0895 -0.2205
 8946SOL    HW238301   2.699   2.298   8.907  1.3360 -1.1974  1.9842
 8947SOL     OW38302   0.448   2.901   7.688 -0.0718  0.2569 -0.3180
 8947SOL    HW138303   0.495   2.858   7.760  0.3404 -0.9642 -1.3157
 8947SOL    HW238304   0.368   2.849   7.690  2.0202 -2.9621 -1.0325
 8948SOL     OW38305   0.452   3.697  14.620 -0.0671 -0.4751 -0.1595
 8948SOL    HW138306   0.379   3.731  14.672  0.2281  1.3441 -0.9441
 8948SOL    HW238307   0.520   3.753  14.658 -2.5724  2.3170  0.1771
 8949SOL     OW38308   4.684   1.518  10.335 -0.1179 -0.0474  0.2403
 8949SOL    HW138309   4.592   1.492  10.347  0.2357 -1.5811 -0.4421
 8949SOL    HW238310   4.708   1.546  10.423  0.8799 -4.2303  1.2631
 8950SOL     OW38311   3.957   0.627   3.622 -0.1533  0.1405  0.1966
 8950SOL    HW138312   3.997   0.702   3.666  1.9373 -1.5883  1.2104
 8950SOL    HW238313   3.898   0.667   3.558  1.3156  0.2978 -1.0595
 8951SOL     OW38314   1.352   0.489   5.662 -0.0725 -0.5475  0.2414
 8951SOL    HW138315   1.318   0.576   5.683 -2.0119 -1.2986  0.1825
 8951SOL    HW238316   1.389   0.467   5.748  0.2035  2.4510  0.8793
 8952SOL     OW38317   1.721   3.382   8.171 -0.3935  0.1653  0.0802
 8952SOL    HW138318   1.654   3.374   8.103  0.1358 -0.1263 -0.4120
 8952SOL    HW238319   1.676   3.349   8.249  0.7896  0.0296  0.7193
 8953SOL     OW38320   4.159   0.327   5.427  0.0255  0.3959  0.5686
 8953SOL    HW138321   4.086   0.306   5.485  0.4212  0.4129  1.0742
 8953SOL    HW238322   4.105   0.341   5.350  0.9146 -2.8839 -0.6590
 8954SOL     OW38323   0.317   3.979   4.098 -0.1085  0.0152  0.0588
 8954SOL    HW138324   0.364   3.897   4.113  2.1021  0.9456 -1.9997
 8954SOL    HW238325   0.225   3.967   4.125 -0.2753  2.6294  0.6589
 8955SOL     OW38326   4.342   0.161   9.796  0.8473 -0.6749 -0.1927
 8955SOL    HW138327   4.275   0.225   9.772 -0.7847 -1.3424  2.6013
 8955SOL    HW238328   4.412   0.216   9.830  0.0936 -0.2620  0.6862
 8956SOL     OW38329   0.977   3.276   6.613 -1.0655  0.2626 -0.0087
 8956SOL    HW138330   0.926   3.348   6.576  0.1297  1.0956 -0.0235
 8956SOL    HW238331   0.952   3.283   6.705  0.3349 -2.6589  0.6084
 8957SOL     OW38332   3.646   2.057   4.073 -0.7424  0.2377  0.2442
 8957SOL    HW138333   3.730   2.011   4.076 -0.8659 -0.1687 -2.2705
 8957SOL    HW238334   3.630   2.065   4.167 -0.7392 -0.0146  0.2668
 8958SOL     OW38335   4.580   1.312   5.354  0.3150 -0.1913  0.5726
 8958SOL    HW138336   4.511   1.347   5.297  1.3168 -0.1684 -0.6246
 8958SOL    HW238337   4.651   1.367   5.323  0.8521  0.8862  3.7113
 8959SOL     OW38338   3.542   3.527   4.211 -0.0365 -0.3015  0.3320
 8959SOL    HW138339   3.469   3.465   4.210  0.2693 -0.6473 -1.5210
 8959SOL    HW238340   3.510   3.596   4.153 -0.2010 -1.6519 -1.2225
 8960SOL     OW38341   2.603   0.524   1.368 -0.5177 -0.5459 -0.0618
 8960SOL    HW138342   2.573   0.608   1.333  0.3992 -0.6259 -1.0254
 8960SOL    HW238343   2.676   0.501   1.311  0.3234  0.6423  0.5230
 8961SOL     OW38344   4.066   0.924  15.224 -0.1102 -0.2820 -0.4118
 8961SOL    HW138345   4.075   0.847  15.168 -1.1751  0.2302 -1.2651
 8961SOL    HW238346   4.006   0.975  15.171  1.1384  1.5212 -0.0909
 8962SOL     OW38347   1.869   0.775   2.485  0.0257 -0.2714 -0.1510
 8962SOL    HW138348   1.934   0.717   2.447  3.2156  3.2006  0.0477
 8962SOL    HW238349   1.879   0.849   2.426  1.6610  0.0062  0.4682
 8963SOL     OW38350   2.266   2.331  13.083  0.5082 -0.1469 -0.4239
 8963SOL    HW138351   2.294   2.393  13.150 -1.6578  0.5032 -0.1044
 8963SOL    HW238352   2.197   2.291  13.136  0.8198 -0.6831 -0.4247
 8964SOL     OW38353   3.987   4.606   8.426 -0.5282  0.5991  0.1121
 8964SOL    HW138354   4.047   4.658   8.479 -0.7444  0.3757  0.5788
 8964SOL    HW238355   3.951   4.548   8.493  2.0113 -2.9335 -1.5750
 8965SOL     OW38356   0.628   0.149  17.589 -0.1924 -0.2579  0.0267
 8965SOL    HW138357   0.667   0.237  17.590 -1.9015  0.4927  0.5199
 8965SOL    HW238358   0.705   0.096  17.568 -0.3803 -2.1347  3.9577
 8966SOL     OW38359   0.856   1.448   8.717  0.0628  0.1753 -0.3512
 8966SOL    HW138360   0.895   1.425   8.801  1.4281 -0.7648 -1.2444
 8966SOL    HW238361   0.811   1.531   8.734 -1.2362 -0.9992  2.0227
 8967SOL     OW38362   0.150   0.052   2.470  0.4755  0.3663 -0.2313
 8967SOL    HW138363   0.190   0.084   2.390 -0.0790  1.0339 -0.2350
 8967SOL    HW238364   0.151   4.683   2.447  0.9187  0.6359 -1.2802
 8968SOL     OW38365   0.921   0.607   4.866 -0.0009 -0.2084  0.0951
 8968SOL    HW138366   0.905   0.595   4.959 -0.9286 -2.5895 -0.3615
 8968SOL    HW238367   1.010   0.642   4.868  1.0991 -3.0813  1.2080
 8969SOL     OW38368   2.364   3.160   7.194 -0.1914 -0.1280 -0.1881
 8969SOL    HW138369   2.349   3.073   7.156 -0.2276 -0.5375  0.7711
 8969SOL    HW238370   2.341   3.213   7.118 -2.8025  1.0923  1.4280
 8970SOL     OW38371   0.369   3.476   8.195 -0.1698 -0.1358  0.0044
 8970SOL    HW138372   0.329   3.400   8.153 -3.3475  1.1243  0.7283
 8970SOL    HW238373   0.458   3.443   8.202 -0.3706 -0.9021 -0.9649
 8971SOL     OW38374   1.071   3.099  13.528  0.1140  0.1080 -0.3787
 8971SOL    HW138375   1.008   3.100  13.599 -0.3781  1.9656 -0.8538
 8971SOL    HW238376   1.140   3.158  13.561  0.1318 -1.3150  2.1562
 8972SOL     OW38377   2.767   4.012   6.914 -0.2369 -0.0139  0.3445
 8972SOL    HW138378   2.677   3.981   6.913 -0.8743  1.8289 -0.2252
 8972SOL    HW238379   2.808   3.937   6.956  1.6356  0.1844 -1.1259
 8973SOL     OW38380   2.178   4.541   8.409 -0.2000  0.3218  0.3651
 8973SOL    HW138381   2.252   4.562   8.352  0.6213 -1.2615  0.8425
 8973SOL    HW238382   2.105   4.545   8.348 -1.1607 -0.8422  1.4498
 8974SOL     OW38383   1.983   1.671  13.702 -0.0741  0.5807 -0.7624
 8974SOL    HW138384   1.898   1.626  13.705  1.1713 -1.6662  1.5864
 8974SOL    HW238385   1.966   1.727  13.778  0.8757 -1.3727  0.9101
 8975SOL     OW38386   3.228   2.086   2.244 -0.4197 -0.0733 -0.1029
 8975SOL    HW138387   3.222   2.181   2.230 -1.5200 -0.2643 -0.9429
 8975SOL    HW238388   3.305   2.066   2.191 -0.2040  0.5599 -0.0360
 8976SOL     OW38389   1.717   2.055   4.456 -0.4207 -0.1810 -0.1366
 8976SOL    HW138390   1.728   2.002   4.535  1.9216 -0.5883 -0.7516
 8976SOL    HW238391   1.751   2.004   4.382  0.0344 -2.6345  1.7638
 8977SOL     OW38392   0.141   4.122   3.919  0.0617 -0.3086  0.5602
 8977SOL    HW138393   0.227   4.089   3.945  0.4945 -1.3448 -2.1566
 8977SOL    HW238394   0.135   4.066   3.841 -0.4930 -2.8728  2.4804
 8978SOL     OW38395   0.234   1.897   7.028 -0.1223  0.5124 -0.6934
 8978SOL    HW138396   0.156   1.864   6.984 -0.4925 -0.1685  0.4801
 8978SOL    HW238397   0.229   1.993   7.020  1.1758  0.7077  0.6950
 8979SOL     OW38398   4.375   0.779   9.357  0.0827 -0.1490  0.4169
 8979SOL    HW138399   4.377   0.872   9.381 -1.0322 -0.6448  2.4432
 8979SOL    HW238400   4.280   0.777   9.349  0.1323  0.6515 -0.3933
 8980SOL     OW38401   2.037   0.659   2.945 -0.8695 -0.0876 -0.5199
 8980SOL    HW138402   2.046   0.754   2.948  2.8579 -0.4530 -0.6065
 8980SOL    HW238403   2.070   0.639   2.858  0.3705 -1.9394  0.3844
 8981SOL     OW38404   3.820   3.982   1.083 -0.0369 -0.1594  0.4671
 8981SOL    HW138405   3.856   3.915   1.024  1.4287  0.3350  0.7925
 8981SOL    HW238406   3.740   3.938   1.112 -0.7216  0.1324 -0.9930
 8982SOL     OW38407   3.405   0.536   4.823 -0.3052  0.3318 -0.1174
 8982SOL    HW138408   3.357   0.461   4.788  1.0490  0.0785 -1.4366
 8982SOL    HW238409   3.393   0.524   4.917 -1.4702  1.7670 -0.0763
 8983SOL     OW38410   2.152   4.588   9.068  0.0400 -0.0656 -1.0267
 8983SOL    HW138411   2.074   4.596   9.013 -0.0830  0.6102 -0.7499
 8983SOL    HW238412   2.123   4.515   9.124  2.1578 -0.3896 -0.3604
 8984SOL     OW38413   3.057   0.621   6.456  0.6564 -0.6443  0.1956
 8984SOL    HW138414   3.031   0.578   6.537  2.1864 -0.3338  0.8666
 8984SOL    HW238415   3.142   0.652   6.488  1.3083 -3.1886  0.9368
 8985SOL     OW38416   0.572   0.439   8.463 -0.0722 -0.2336 -0.4264
 8985SOL    HW138417   0.614   0.505   8.517  1.7014  1.6969 -4.1746
 8985SOL    HW238418   0.529   0.499   8.401  0.5670  1.6547  0.9795
 8986SOL     OW38419   1.522   2.887  16.794  0.1163  0.1120 -0.6780
 8986SOL    HW138420   1.476   2.939  16.859 -1.4510 -0.5490 -1.2536
 8986SOL    HW238421   1.449   2.833  16.762  0.1541 -1.0955  1.3320
 8987SOL     OW38422   3.270   2.059   3.239  0.2497 -0.0011  0.2590
 8987SOL    HW138423   3.299   2.008   3.315  1.0615  1.0623  0.6589
 8987SOL    HW238424   3.262   2.151   3.267 -2.5871 -0.5408  1.2996
 8988SOL     OW38425   3.991   1.229   6.513 -0.1680  0.3783  0.1512
 8988SOL    HW138426   3.974   1.139   6.541 -3.4742  1.2344  0.9144
 8988SOL    HW238427   3.964   1.268   6.596 -0.9415  1.4517 -0.5981
 8989SOL     OW38428   4.198   2.235   7.517  0.1052 -0.1063 -0.3233
 8989SOL    HW138429   4.245   2.281   7.586 -0.3353 -0.0240 -0.0806
 8989SOL    HW238430   4.113   2.227   7.559  0.1739  2.3655  0.2888
 8990SOL     OW38431   3.998   2.514   3.917 -0.4138 -0.1971  0.1374
 8990SOL    HW138432   3.930   2.469   3.968  0.6161 -3.3227 -1.2625
 8990SOL    HW238433   4.057   2.442   3.896  1.3246  0.9219  1.1946
 8991SOL     OW38434   1.700   1.720   2.872 -0.1371  0.1771  0.6939
 8991SOL    HW138435   1.780   1.771   2.879  1.3265 -1.8403 -1.1192
 8991SOL    HW238436   1.631   1.786   2.882 -1.3896 -1.4225  2.6300
 8992SOL     OW38437   2.650   0.896   9.354  0.4593  0.2247 -0.0780
 8992SOL    HW138438   2.724   0.866   9.408 -0.7922  1.0399  2.0698
 8992SOL    HW238439   2.581   0.859   9.408 -0.4896  0.3756 -1.1983
 8993SOL     OW38440   1.411   0.948   4.880 -0.1693  0.1884  0.1280
 8993SOL    HW138441   1.355   0.971   4.806 -0.8425 -1.2092  0.2102
 8993SOL    HW238442   1.342   0.930   4.944  0.2667 -2.4109 -0.1135
 8994SOL     OW38443   2.750   4.662   8.504  0.0672 -0.4763 -0.6531
 8994SOL    HW138444   2.838   4.701   8.506  0.0363 -0.3215 -1.9671
 8994SOL    HW238445   2.763   4.567   8.509  1.5674 -0.2004  0.6085
 8995SOL     OW38446   0.307   4.140   8.229 -0.0898 -0.6131 -0.3097
 8995SOL    HW138447   0.231   4.082   8.236  1.1213 -1.7970  2.7262
 8995SOL    HW238448   0.365   4.093   8.289  1.7468  0.3714 -1.3009
 8996SOL     OW38449   4.293   2.022  13.995  0.8061  0.4235 -0.4412
 8996SOL    HW138450   4.331   2.099  13.952  0.4023 -0.0167 -1.5935
 8996SOL    HW238451   4.241   2.070  14.059 -1.0091 -2.6194  0.3888
 8997SOL     OW38452   4.073   1.457  14.837  0.0569 -0.1619 -0.0080
 8997SOL    HW138453   4.067   1.548  14.867 -2.7776 -0.6355  0.8075
 8997SOL    HW238454   4.164   1.442  14.863 -0.1438  2.9619  2.5296
 8998SOL     OW38455   0.223   2.179   4.157 -0.7422  0.6946  0.3899
 8998SOL    HW138456   0.230   2.201   4.250  1.9391 -2.0261  0.8250
 8998SOL    HW238457   0.311   2.171   4.122 -1.2530  0.9371 -0.9333
 8999SOL     OW38458   4.042   2.985  16.282 -0.0001 -0.2516 -0.2185
 8999SOL    HW138459   4.004   2.916  16.336 -1.4039 -0.3028 -1.2524
 8999SOL    HW238460   4.036   2.943  16.196 -2.2121 -0.9280  0.2660
 9000SOL     OW38461   0.591   3.823  17.424 -0.8606 -0.3955 -0.0590
 9000SOL    HW138462   0.526   3.887  17.396 -0.5902  0.4341  1.1719
 9000SOL    HW238463   0.645   3.833  17.346  0.6267  0.8934  1.1363
 9001SOL     OW38464   4.416   4.659   2.576 -0.2515  0.3896  0.2310
 9001SOL    HW138465   4.418   4.668   2.672 -0.3587  1.9114  0.0819
 9001SOL    HW238466   4.323   4.668   2.558 -0.4587  0.0023  1.0730
 9002SOL     OW38467   1.909   4.067   7.253  0.2641 -0.4897 -0.3811
 9002SOL    HW138468   1.847   4.130   7.216  1.5928  0.3868 -1.0847
 9002SOL    HW238469   1.869   3.984   7.226  2.4002 -1.1457 -1.5109
 9003SOL     OW38470   0.162   1.675   5.508  0.0448 -0.3038  0.2613
 9003SOL    HW138471   0.251   1.642   5.498 -0.0896 -0.3078 -0.9023
 9003SOL    HW238472   0.118   1.618   5.572  3.3491 -1.8128  1.1653
 9004SOL     OW38473   1.125   2.989   5.625 -0.3696 -0.6128  0.3885
 9004SOL    HW138474   1.175   2.920   5.581  1.1035  1.9582 -1.9377
 9004SOL    HW238475   1.135   3.054   5.556  4.1995 -2.4789 -0.6595
 9005SOL     OW38476   4.483   2.591   9.965  0.2884 -0.2455  0.0450
 9005SOL    HW138477   4.389   2.581   9.981  0.0205  1.1981 -0.5618
 9005SOL    HW238478   4.516   2.502   9.972  0.7908 -0.0256  0.4982
 9006SOL     OW38479   0.875   4.126   9.537 -0.1859  0.1060 -0.1702
 9006SOL    HW138480   0.843   4.196   9.594  0.7153  1.7199 -1.6247
 9006SOL    HW238481   0.969   4.143   9.525  0.0370  0.2286  1.6701
 9007SOL     OW38482   0.921   4.679   8.171 -0.1264 -0.0473 -0.1485
 9007SOL    HW138483   0.907   0.036   8.122  0.5404 -0.8602 -1.7009
 9007SOL    HW238484   0.857   4.701   8.238  1.4767  0.7776  1.1229
 9008SOL     OW38485   4.638   0.409   1.207  0.3529 -0.6673 -0.1527
 9008SOL    HW138486   4.708   0.354   1.243  1.8814  2.8579  2.2397
 9008SOL    HW238487   4.640   0.482   1.268  1.6007  0.3616 -1.4383
 9009SOL     OW38488   0.735   3.889   4.987  0.3750  0.1689  1.3033
 9009SOL    HW138489   0.674   3.927   5.050 -1.0105  4.1761 -2.4621
 9009SOL    HW238490   0.821   3.907   5.023  0.9952 -1.9453  0.9170
 9010SOL     OW38491   2.027   4.139  16.270  0.0438 -0.2320  0.5478
 9010SOL    HW138492   2.122   4.130  16.260  0.0977 -0.1545  0.9618
 9010SOL    HW238493   2.016   4.045  16.284 -0.6517 -0.0079  1.5600
 9011SOL     OW38494   4.104   2.832   8.185 -0.3105  0.6974  0.2549
 9011SOL    HW138495   4.096   2.767   8.255 -0.5500 -0.1355 -0.5454
 9011SOL    HW238496   4.171   2.796   8.127 -0.4346 -0.9180  1.0974
 9012SOL     OW38497   1.110   3.508   4.614  0.0635 -0.1853  0.2621
 9012SOL    HW138498   1.205   3.515   4.609  0.0819  0.0310  0.8805
 9012SOL    HW238499   1.100   3.592   4.659  0.6271 -0.9631  1.8372
 9013SOL     OW38500   2.192   4.088   7.348 -0.3769 -0.2584 -0.0656
 9013SOL    HW138501   2.108   4.083   7.301  0.9722  1.1512 -2.5990
 9013SOL    HW238502   2.166   4.118   7.436 -1.1995  2.3092 -1.1809
 9014SOL     OW38503   1.666   2.844   6.181 -0.0919  0.1415 -0.1565
 9014SOL    HW138504   1.660   2.750   6.197  2.9972  0.0314  0.3058
 9014SOL    HW238505   1.729   2.842   6.109  0.7014  1.7931  0.4913
 9015SOL     OW38506   1.625   1.606   8.171  0.2203 -0.9509  0.7938
 9015SOL    HW138507   1.673   1.672   8.220  1.3090 -0.6370 -0.6934
 9015SOL    HW238508   1.590   1.548   8.238  2.2190 -0.9019  1.8679
 9016SOL     OW38509   2.181   4.042   4.611  0.3808 -0.1947  0.5692
 9016SOL    HW138510   2.236   4.110   4.650 -2.3959  2.0506  0.6125
 9016SOL    HW238511   2.097   4.064   4.651  0.2388  1.9605 -0.9148
 9017SOL     OW38512   1.091   2.241   0.209  0.1619  0.2834  0.2955
 9017SOL    HW138513   1.166   2.279   0.162 -0.3836  0.0429 -0.7793
 9017SOL    HW238514   1.022   2.305   0.190 -0.3307  0.1883  1.7875
 9018SOL     OW38515   3.978   3.758   7.082 -0.1544 -0.0655 -1.0156
 9018SOL    HW138516   3.925   3.688   7.119 -2.2618  1.7508 -0.5769
 9018SOL    HW238517   3.935   3.755   6.997 -0.3506  1.1269 -0.9641
 9019SOL     OW38518   1.482   4.569   6.619  0.2968 -0.0161  0.3580
 9019SOL    HW138519   1.459   4.658   6.643  3.0082  1.7963 -3.6600
 9019SOL    HW238520   1.475   4.574   6.523  0.7255 -0.2962  0.3090
 9020SOL     OW38521   0.218   0.889  12.730  0.9334 -0.7074 -0.3288
 9020SOL    HW138522   0.201   0.808  12.682  0.5335  0.2549 -1.7801
 9020SOL    HW238523   0.310   0.906  12.711  0.6785 -0.0058 -0.8926
 9021SOL     OW38524   4.454   0.475   8.290  0.2571 -0.8691  0.1050
 9021SOL    HW138525   4.550   0.476   8.288  0.2025  0.4397 -1.5138
 9021SOL    HW238526   4.426   0.543   8.229  1.4296 -0.3806  0.1140
 9022SOL     OW38527   2.045   4.467  12.488 -0.2627 -0.6748  0.3796
 9022SOL    HW138528   2.057   4.555  12.521  1.1634 -1.3771  1.7017
 9022SOL    HW238529   1.951   4.453  12.504 -0.3889  0.1283  0.3292
 9023SOL     OW38530   2.517   2.724   8.906  0.1125  0.1586  0.3405
 9023SOL    HW138531   2.486   2.750   8.992  1.3513 -1.7602  1.3627
 9023SOL    HW238532   2.606   2.761   8.907  0.7175 -1.2993  0.1641
 9024SOL     OW38533   1.370   0.846  15.439 -0.4974  0.1587  0.0175
 9024SOL    HW138534   1.437   0.820  15.375  1.5137  1.1839  1.7063
 9024SOL    HW238535   1.311   0.778  15.406  0.5331 -1.7554  2.1475
 9025SOL     OW38536   4.003   4.373  16.706 -0.2246 -0.3257 -0.5278
 9025SOL    HW138537   3.925   4.396  16.656 -0.9033  0.1591  0.7480
 9025SOL    HW238538   3.976   4.291  16.748 -2.0722  0.2888 -0.5110
 9026SOL     OW38539   0.434   0.685   5.534  0.0434 -0.3556 -0.0910
 9026SOL    HW138540   0.424   0.635   5.453 -1.2500  0.5184 -0.4646
 9026SOL    HW238541   0.529   0.683   5.547  0.2163  0.7552 -1.1427
 9027SOL     OW38542   2.480   3.172   3.201  0.0296  0.0274 -0.2650
 9027SOL    HW138543   2.536   3.161   3.278  0.5495  0.3675 -0.5946
 9027SOL    HW238544   2.552   3.149   3.143  0.0243  0.4205 -0.4327
 9028SOL     OW38545   2.012   0.376  10.477 -0.5554  0.6648 -0.4284
 9028SOL    HW138546   2.018   0.281  10.474 -0.4301  0.6697 -0.3615
 9028SOL    HW238547   2.067   0.389  10.555 -0.0382 -0.5292 -0.5927
 9029SOL     OW38548   3.217   1.477   6.890  0.1385 -0.2728 -0.7601
 9029SOL    HW138549   3.265   1.519   6.961  3.1750 -2.5829 -1.4116
 9029SOL    HW238550   3.235   1.527   6.810 -1.4524  1.0288 -0.3053
 9030SOL     OW38551   0.175   3.673   6.212 -0.5895 -0.5903  0.5814
 9030SOL    HW138552   0.205   3.605   6.272 -0.3193 -0.6456  0.3833
 9030SOL    HW238553   0.160   3.627   6.129 -1.3696  0.0917  0.3481
 9031SOL     OW38554   0.266   2.284   6.048 -0.4250 -0.6336  0.4003
 9031SOL    HW138555   0.219   2.288   5.965 -0.1985  2.1069  0.4042
 9031SOL    HW238556   0.355   2.278   6.014  0.0292  0.5404  1.3915
 9032SOL     OW38557   4.292   2.960  12.597  0.7064 -0.0531 -0.2428
 9032SOL    HW138558   4.332   2.886  12.551 -1.0053 -0.9799 -0.2448
 9032SOL    HW238559   4.306   3.018  12.522 -1.4087  1.2391  0.3911
 9033SOL     OW38560   3.759   1.470   8.269  0.0701 -0.4166 -0.3368
 9033SOL    HW138561   3.836   1.436   8.225  0.6860  1.0480 -0.3789
 9033SOL    HW238562   3.708   1.390   8.281 -0.2978 -0.0507  0.6240
 9034SOL     OW38563   4.064   4.235   5.035 -0.0672  0.0068 -0.5818
 9034SOL    HW138564   4.034   4.180   4.963  0.9194 -1.0204 -0.2113
 9034SOL    HW238565   4.044   4.192   5.118 -0.3533 -2.7691 -2.0722
 9035SOL     OW38566   1.643   0.874   0.887 -0.4023 -0.0387 -0.1053
 9035SOL    HW138567   1.590   0.954   0.880 -1.1708 -0.4793  0.6253
 9035SOL    HW238568   1.678   0.866   0.798  1.1692  2.0051  0.3543
 9036SOL     OW38569   0.009   1.792   5.789 -0.0080 -0.0544  0.8186
 9036SOL    HW138570   0.093   1.813   5.830  1.2846 -0.2403 -1.7204
 9036SOL    HW238571   4.684   1.769   5.868  0.5779  2.2425  1.8636
 9037SOL     OW38572   3.746   0.978   1.051  0.0107  0.2078  0.5579
 9037SOL    HW138573   3.839   0.960   1.042  0.4468  1.9247  1.4550
 9037SOL    HW238574   3.754   1.073   1.044 -0.8329  0.2473  0.0946
 9038SOL     OW38575   0.092   0.661   4.539  0.3966  0.3505  0.2670
 9038SOL    HW138576   0.036   0.738   4.532 -1.4345 -0.8731  1.6336
 9038SOL    HW238577   0.164   0.699   4.589 -0.4095 -1.6542  2.9602
 9039SOL     OW38578   2.301   0.116   6.129  0.3533  0.1866 -0.2353
 9039SOL    HW138579   2.303   0.025   6.159 -0.6557  0.3891  0.4463
 9039SOL    HW238580   2.250   0.167   6.193  1.5173  0.7778  0.2083
 9040SOL     OW38581   2.898   1.399   5.692  0.1050 -0.0249  0.6723
 9040SOL    HW138582   2.950   1.475   5.717 -1.5980  1.6593 -0.8613
 9040SOL    HW238583   2.902   1.354   5.776  0.2161  0.0339  0.6984
 9041SOL     OW38584   3.896   2.396   4.625  0.3046 -0.1647 -0.3449
 9041SOL    HW138585   3.829   2.336   4.590  1.6256 -0.6298 -2.0969
 9041SOL    HW238586   3.882   2.485   4.591 -1.6962 -0.0467  0.7477
 9042SOL     OW38587   0.839   1.096   5.386  0.5994  0.5214  0.0087
 9042SOL    HW138588   0.791   1.174   5.360  0.8646  0.6566 -0.0733
 9042SOL    HW238589   0.768   1.032   5.388  0.5659  0.6225  1.7583
 9043SOL     OW38590   3.355   1.095   7.935  0.5966 -0.0850 -0.0799
 9043SOL    HW138591   3.338   1.169   7.993 -0.7869 -0.7002  0.2938
 9043SOL    HW238592   3.417   1.036   7.978  0.7709 -2.5666 -3.7813
 9044SOL     OW38593   3.961   1.646   8.062 -0.5915 -0.2724 -0.1517
 9044SOL    HW138594   3.868   1.642   8.043 -0.2938  2.4901 -2.1649
 9044SOL    HW238595   3.982   1.586   7.990 -2.8296 -1.5878  0.2856
 9045SOL     OW38596   4.154   0.484   6.901 -0.1047 -0.3236  0.2359
 9045SOL    HW138597   4.243   0.516   6.885 -0.1919 -0.3855 -0.3461
 9045SOL    HW238598   4.132   0.446   6.816  0.5520 -1.0227  0.3732
 9046SOL     OW38599   0.797   1.459  16.057  0.2789  0.1532 -0.3418
 9046SOL    HW138600   0.881   1.427  16.089  0.8450  1.6623 -0.3442
 9046SOL    HW238601   0.812   1.419  15.971 -0.9033  0.0669 -0.5092
 9047SOL     OW38602   1.303   4.449  15.899 -0.1668 -0.0189  0.3125
 9047SOL    HW138603   1.308   4.517  15.832 -1.2863 -0.6543 -0.4185
 9047SOL    HW238604   1.252   4.381  15.854  1.7504 -1.6243  0.5760
 9048SOL     OW38605   0.642   1.439   9.697  0.3118 -0.1539 -0.3582
 9048SOL    HW138606   0.651   1.527   9.734  0.4812 -0.4036  0.1930
 9048SOL    HW238607   0.642   1.456   9.602  1.5434 -1.8242 -0.6581
 9049SOL     OW38608   4.190   4.658   4.988 -0.3732 -0.5246 -0.2187
 9049SOL    HW138609   4.200   4.578   4.936  2.4518 -1.9840  2.5884
 9049SOL    HW238610   4.278   4.670   5.024  0.0462  0.8159 -1.7067
 9050SOL     OW38611   0.843   1.177   0.127  0.2555 -0.2189 -0.4668
 9050SOL    HW138612   0.752   1.202   0.139  0.4553  0.7809 -1.0590
 9050SOL    HW238613   0.855   1.128   0.209 -1.3777 -0.2269 -0.2448
 9051SOL     OW38614   0.777   2.798   8.139  0.0344  0.2900  0.0521
 9051SOL    HW138615   0.847   2.739   8.110 -0.5444  0.4458 -1.7030
 9051SOL    HW238616   0.826   2.834   8.213 -0.7769  0.6483  0.4080
 9052SOL     OW38617   3.257   4.627   5.520 -0.3425 -0.3358  0.3022
 9052SOL    HW138618   3.340   4.617   5.473 -0.0030 -1.5417  1.1374
 9052SOL    HW238619   3.258   4.721   5.536 -2.5045  0.0147 -1.6526
 9053SOL     OW38620   0.365   3.405  14.670  0.0414  0.0227  0.0462
 9053SOL    HW138621   0.392   3.425  14.760  1.0734  0.5439 -0.3720
 9053SOL    HW238622   0.401   3.317  14.658 -0.0809 -0.1430  0.8927
 9054SOL     OW38623   3.358   1.073   6.968  0.4611 -0.3139 -0.7077
 9054SOL    HW138624   3.414   1.000   6.996 -1.2102 -1.2173  0.2213
 9054SOL    HW238625   3.405   1.152   6.995 -0.8144  0.0572  0.4130
 9055SOL     OW38626   4.134   1.402   3.593  0.4081 -0.1231  0.1207
 9055SOL    HW138627   4.124   1.339   3.664  0.1804  0.1301  0.3125
 9055SOL    HW238628   4.077   1.477   3.607 -1.3534 -1.5732  0.6538
 9056SOL     OW38629   0.661   2.378   2.888  0.6826  0.1410  0.6827
 9056SOL    HW138630   0.595   2.332   2.835  0.1228 -0.7210  2.1118
 9056SOL    HW238631   0.609   2.445   2.933 -3.7742 -2.5770 -0.3694
 9057SOL     OW38632   1.916   1.620  15.168 -0.3045  0.0752  0.0799
 9057SOL    HW138633   1.852   1.630  15.098 -1.1190 -2.8675  0.4079
 9057SOL    HW238634   1.935   1.527  15.159 -0.3979  0.2070 -1.5814
 9058SOL     OW38635   0.548   4.638   0.698  0.4483  0.4104  0.2690
 9058SOL    HW138636   0.596   4.623   0.779  0.8894  0.3184 -0.0075
 9058SOL    HW238637   0.593   4.716   0.665 -0.4070  0.6675 -0.2941
 9059SOL     OW38638   3.868   1.403   6.979  0.6477  0.4866 -0.0875
 9059SOL    HW138639   3.828   1.317   6.973 -0.5953  0.8789  2.6979
 9059SOL    HW238640   3.825   1.456   6.912  1.7930  1.0875 -0.3548
 9060SOL     OW38641   3.739   0.904   7.604  1.0464 -0.3845  0.1590
 9060SOL    HW138642   3.796   0.945   7.668  0.9288 -0.6045  0.4044
 9060SOL    HW238643   3.782   0.819   7.601 -0.2355 -1.0820  1.6464
 9061SOL     OW38644   2.404   2.403   8.541 -0.5128 -0.3484  0.2171
 9061SOL    HW138645   2.419   2.414   8.635  1.9527 -2.3366  0.0614
 9061SOL    HW238646   2.484   2.376   8.496 -0.2089 -1.5059  1.4349
 9062SOL     OW38647   1.529   1.252   3.025 -0.4718 -0.1437 -0.5834
 9062SOL    HW138648   1.550   1.302   2.946  0.4459  1.5634  0.7462
 9062SOL    HW238649   1.433   1.251   3.019 -0.8013 -0.8122  4.6203
 9063SOL     OW38650   1.074   2.027   5.653 -0.1973 -0.2460  0.8610
 9063SOL    HW138651   1.168   2.031   5.667 -0.2584  1.6925  0.6365
 9063SOL    HW238652   1.076   1.946   5.601  0.0704  0.2373  0.1256
 9064SOL     OW38653   4.142   4.452  17.046 -0.6341 -0.0660 -0.0563
 9064SOL    HW138654   4.128   4.446  17.140 -0.8469  0.2159 -0.0688
 9064SOL    HW238655   4.184   4.537  17.031  0.0562 -0.8990 -2.8588
 9065SOL     OW38656   1.109   4.251  13.979  0.0743 -0.1626 -0.2431
 9065SOL    HW138657   1.056   4.172  13.989 -0.9925  0.5237 -0.5236
 9065SOL    HW238658   1.158   4.234  14.060 -1.0755  1.3889  0.7730
 9066SOL     OW38659   2.669   2.569   9.531  0.1172 -0.4626 -0.5397
 9066SOL    HW138660   2.670   2.618   9.448  2.2199 -3.6636 -2.3900
 9066SOL    HW238661   2.576   2.551   9.537  0.2917 -1.1005  0.1859
 9067SOL     OW38662   0.140   3.163   6.233  0.0556 -0.2683 -0.1743
 9067SOL    HW138663   0.116   3.111   6.156  1.6311  0.0641 -0.8963
 9067SOL    HW238664   0.176   3.245   6.198 -1.2962  0.5420  0.3378
 9068SOL     OW38665   4.359   3.842   7.792 -0.2613 -0.0952 -0.9548
 9068SOL    HW138666   4.308   3.824   7.713  0.5705  0.3946 -1.5975
 9068SOL    HW238667   4.424   3.772   7.787 -2.2684 -2.0352  0.3164
 9069SOL     OW38668   2.623   0.218   6.833 -0.3629 -0.4010  0.4468
 9069SOL    HW138669   2.582   0.283   6.890 -1.6231  0.2913 -1.2871
 9069SOL    HW238670   2.692   0.183   6.890  0.4325  1.0375  0.3588
 9070SOL     OW38671   4.065   2.389  11.529 -0.3349  0.3297 -0.1270
 9070SOL    HW138672   4.101   2.383  11.617  0.7745  0.7980 -0.5529
 9070SOL    HW238673   4.113   2.329  11.473 -0.4123  0.4994 -0.3787
 9071SOL     OW38674   0.074   4.626   3.092 -0.2822 -0.5200  0.0025
 9071SOL    HW138675   0.066   4.698   3.153 -1.9921 -0.6930 -0.0200
 9071SOL    HW238676   0.161   4.642   3.053  0.1317 -0.6365  0.8935
 9072SOL     OW38677   0.514   4.454   2.232  0.3866  0.0807  0.0704
 9072SOL    HW138678   0.500   4.544   2.259  0.9818  0.3791 -0.6239
 9072SOL    HW238679   0.495   4.449   2.138 -0.9865  0.7898  0.3204
 9073SOL     OW38680   1.419   1.932  12.421 -0.0864  0.3659 -0.0761
 9073SOL    HW138681   1.412   2.022  12.451  0.7901  0.1491  0.7642
 9073SOL    HW238682   1.335   1.893  12.443  0.2714  0.1883  0.9647
 9074SOL     OW38683   0.201   1.463  12.900  0.1136  0.1213  0.0253
 9074SOL    HW138684   0.204   1.372  12.930  1.2043  0.1625  0.0695
 9074SOL    HW238685   0.219   1.463  12.806 -2.1857  0.0999 -0.4082
 9075SOL     OW38686   1.063   1.752  16.573  0.2529  0.5399  0.8703
 9075SOL    HW138687   1.118   1.787  16.503  0.4255 -2.4493 -0.4874
 9075SOL    HW238688   1.052   1.664  16.535 -0.9752  1.2562 -0.4628
 9076SOL     OW38689   1.628   2.511   7.679  0.1523  0.5056 -0.7618
 9076SOL    HW138690   1.579   2.503   7.597 -0.3489 -0.2376 -0.3781
 9076SOL    HW238691   1.668   2.424   7.680  0.8603  0.8333 -0.4829
 9077SOL     OW38692   2.555   0.744   5.238  0.2848  0.0154 -0.0900
 9077SOL    HW138693   2.608   0.813   5.198 -0.7927  1.8101  1.6156
 9077SOL    HW238694   2.485   0.724   5.176  1.2913 -0.5232 -1.0690
 9078SOL     OW38695   3.906   1.878   2.575  1.0554 -0.2728  0.2637
 9078SOL    HW138696   3.920   1.788   2.543  0.7999  0.4555 -1.9458
 9078SOL    HW238697   3.831   1.855   2.629  0.6088  1.8379  0.5287
 9079SOL     OW38698   0.372   2.362   3.145 -0.3274 -0.3086 -0.7106
 9079SOL    HW138699   0.465   2.355   3.170 -0.4960 -1.4070 -0.3862
 9079SOL    HW238700   0.367   2.455   3.127 -0.2864 -0.3870 -1.1361
 9080SOL     OW38701   4.037   0.956   5.971  0.2188  0.2410 -0.3005
 9080SOL    HW138702   4.028   0.863   5.990  2.8267  0.1902  0.6259
 9080SOL    HW238703   4.118   0.960   5.920 -0.7163  2.3121 -1.6483
 9081SOL     OW38704   1.288   4.107  13.140 -0.0318 -0.5010 -0.1521
 9081SOL    HW138705   1.209   4.092  13.089  0.0453 -1.6552  0.0686
 9081SOL    HW238706   1.353   4.113  13.070  1.8443  2.1598  1.8072
 9082SOL     OW38707   1.949   4.459  15.316 -0.0528  0.1804 -0.1685
 9082SOL    HW138708   1.901   4.539  15.337  1.5372  0.5842  1.9700
 9082SOL    HW238709   1.910   4.400  15.380 -1.5400  0.0470 -1.2025
 9083SOL     OW38710   1.496   1.268   2.515  0.2377  0.1228 -0.2429
 9083SOL    HW138711   1.525   1.255   2.424  2.8364 -0.7040  0.7218
 9083SOL    HW238712   1.406   1.296   2.497  0.6846  1.5227 -0.3455
 9084SOL     OW38713   2.894   1.655   3.301 -0.1618 -0.2396  0.0818
 9084SOL    HW138714   2.811   1.613   3.322  1.7307 -2.3679  3.3270
 9084SOL    HW238715   2.942   1.579   3.269 -0.0800 -0.2047  0.1205
 9085SOL     OW38716   0.771   2.481  14.970  0.0229  0.2661  0.4065
 9085SOL    HW138717   0.765   2.394  15.009  1.2176  0.1453  0.3243
 9085SOL    HW238718   0.676   2.497  14.969 -0.3317 -1.6673  2.0521
 9086SOL     OW38719   0.505   0.325   6.275 -0.0156 -0.0233 -0.0489
 9086SOL    HW138720   0.592   0.287   6.263  0.4225  0.6824  0.9329
 9086SOL    HW238721   0.459   0.289   6.199  1.0392  0.6180 -0.9959
 9087SOL     OW38722   0.467   2.072   3.589  0.3205 -0.3471 -0.2687
 9087SOL    HW138723   0.504   2.113   3.667  0.3717  1.5107 -1.2675
 9087SOL    HW238724   0.382   2.116   3.583 -0.1650 -0.8591  2.5582
 9088SOL     OW38725   3.817   0.820   4.646  0.2269  0.0027  0.7410
 9088SOL    HW138726   3.824   0.784   4.557 -0.3586  0.0499  0.6776
 9088SOL    HW238727   3.747   0.772   4.689 -0.4504 -0.0464 -0.4193
 9089SOL     OW38728   0.238   3.844   3.459 -0.2717 -0.2285 -0.9792
 9089SOL    HW138729   0.331   3.840   3.437 -0.3380  1.8661 -1.7170
 9089SOL    HW238730   0.198   3.827   3.373 -0.6672  1.5083 -1.1461
 9090SOL     OW38731   3.426   4.426  11.054 -0.0756  0.9738  0.0745
 9090SOL    HW138732   3.421   4.387  10.966 -1.3856 -0.2168  0.6794
 9090SOL    HW238733   3.440   4.516  11.023  0.9769 -0.3862 -3.4835
 9091SOL     OW38734   4.670   2.486  17.106 -0.0297 -0.3881 -0.1175
 9091SOL    HW138735   4.609   2.431  17.057 -0.9921 -1.2829  2.0856
 9091SOL    HW238736   4.631   2.495  17.193  0.6664  0.8217  0.0598
 9092SOL     OW38737   3.981   0.049   3.100 -0.4278  0.1077 -0.5171
 9092SOL    HW138738   3.928   0.050   3.179 -0.4210  0.9891 -0.5269
 9092SOL    HW238739   4.016   0.138   3.099 -0.5065  0.1298 -1.1393
 9093SOL     OW38740   2.979   2.631   5.259  0.1715  0.0356 -0.3403
 9093SOL    HW138741   2.998   2.695   5.328  1.4709  1.2898 -1.8690
 9093SOL    HW238742   3.040   2.656   5.190  0.7183 -0.1797  0.0656
 9094SOL     OW38743   4.375   3.784   6.387  0.6306  0.1136  0.4481
 9094SOL    HW138744   4.459   3.755   6.351  0.7695 -0.6551  1.3710
 9094SOL    HW238745   4.386   3.773   6.482 -0.2230  0.4926  0.5853
 9095SOL     OW38746   0.150   4.379  13.157 -1.2445 -0.0796  0.7445
 9095SOL    HW138747   0.198   4.311  13.205  1.4663  0.3769 -1.3041
 9095SOL    HW238748   0.106   4.323  13.094 -0.8791  0.8962 -0.3710
 9096SOL     OW38749   0.958   4.128   2.671  0.6081 -0.1892 -0.1783
 9096SOL    HW138750   0.972   4.071   2.595  1.5980 -1.4590  0.9604
 9096SOL    HW238751   0.866   4.156   2.673  0.9617  1.1667 -3.0108
 9097SOL     OW38752   2.417   1.050   3.983  0.4947  0.3512  0.2153
 9097SOL    HW138753   2.493   1.108   3.979  2.6307 -2.5572 -2.2678
 9097SOL    HW238754   2.359   1.084   3.916 -0.3864 -0.5529  0.5121
 9098SOL     OW38755   3.774   0.146   6.429  0.3460 -0.5090  0.5747
 9098SOL    HW138756   3.681   0.165   6.414  0.3804  0.1159  1.1184
 9098SOL    HW238757   3.759   0.129   6.522 -2.3538 -0.2535  0.2136
 9099SOL     OW38758   4.309   1.407   6.891  0.4981  0.4487 -0.0139
 9099SOL    HW138759   4.391   1.401   6.842 -0.3663  0.3494 -1.4475
 9099SOL    HW238760   4.325   1.333   6.950  3.4356  0.3518 -0.9687
 9100SOL     OW38761   1.591   1.388   2.751  0.0313  0.2903 -0.3177
 9100SOL    HW138762   1.507   1.428   2.774  0.3224  2.2758 -2.7602
 9100SOL    HW238763   1.557   1.343   2.675 -1.2113  1.6802 -0.5944
 9101SOL     OW38764   2.477   3.005   8.761  0.3401  0.1509  0.7345
 9101SOL    HW138765   2.484   2.912   8.785 -0.3686  0.7327  3.2300
 9101SOL    HW238766   2.537   3.050   8.821  0.8088 -0.2793  0.5871
 9102SOL     OW38767   2.356   2.716   1.760  0.4210  0.2345  0.7056
 9102SOL    HW138768   2.267   2.693   1.786  0.4863  0.0491  0.7627
 9102SOL    HW238769   2.402   2.633   1.768  0.4801  0.4641  2.7208
 9103SOL     OW38770   3.951   0.112  15.421  0.1514 -0.3136  0.0334
 9103SOL    HW138771   3.877   0.172  15.425  0.6305  0.3525 -1.0151
 9103SOL    HW238772   3.999   0.152  15.348 -1.3067  2.9306  0.8718
 9104SOL     OW38773   1.863   2.748   6.540  0.2556  0.3198 -0.6906
 9104SOL    HW138774   1.786   2.722   6.591 -0.0302  0.4602 -1.0461
 9104SOL    HW238775   1.914   2.668   6.532 -1.3988 -0.7738 -0.3498
 9105SOL     OW38776   4.185   4.053  14.318  0.0065 -0.3652  0.1941
 9105SOL    HW138777   4.261   4.025  14.266  0.8832 -0.6226  1.6068
 9105SOL    HW238778   4.163   4.133  14.271  2.8879  0.0415 -0.5035
 9106SOL     OW38779   3.956   0.056   3.708  0.2266 -0.1691 -0.5346
 9106SOL    HW138780   3.867   0.024   3.692  0.6570 -1.0463 -1.2253
 9106SOL    HW238781   3.945   0.131   3.766  0.0762 -0.6942  0.1166
 9107SOL     OW38782   4.534   1.779   7.040 -0.1064  0.1756  0.2121
 9107SOL    HW138783   4.584   1.738   7.111  0.1743 -1.1368 -0.7408
 9107SOL    HW238784   4.455   1.726   7.032 -0.2893  1.2554 -5.0422
 9108SOL     OW38785   0.163   4.566   6.297 -0.0899  0.5248 -0.1759
 9108SOL    HW138786   0.165   4.471   6.306 -0.3649  0.5851  0.5578
 9108SOL    HW238787   0.210   4.571   6.214 -0.4634  1.8326 -0.3123
 9109SOL     OW38788   1.127   2.878   3.756 -0.6190 -0.1249 -0.3877
 9109SOL    HW138789   1.210   2.896   3.711 -0.6365  2.1722  0.5040
 9109SOL    HW238790   1.060   2.891   3.688  1.3545 -0.4240 -2.3768
 9110SOL     OW38791   4.245   2.265   9.173 -0.1110 -0.0710 -0.0246
 9110SOL    HW138792   4.309   2.219   9.120 -0.2521 -0.8643  0.4963
 9110SOL    HW238793   4.270   2.357   9.165  0.8069 -0.3097  0.1255
 9111SOL     OW38794   1.716   0.927   2.777  0.5595  0.3848  0.1208
 9111SOL    HW138795   1.690   0.835   2.782 -1.1649  0.8228 -0.7567
 9111SOL    HW238796   1.728   0.950   2.869  0.8093  3.8866 -0.7891
 9112SOL     OW38797   1.771   2.632   3.117  0.1287 -0.2778 -0.1248
 9112SOL    HW138798   1.775   2.684   3.198 -0.5162  0.0674 -0.3080
 9112SOL    HW238799   1.680   2.633   3.086 -0.7861  0.2964  2.5159
 9113SOL     OW38800   3.188   3.085   3.553 -0.0953  0.1865  0.3608
 9113SOL    HW138801   3.283   3.073   3.553  0.1477  2.2688 -0.0283
 9113SOL    HW238802   3.172   3.178   3.538 -0.1389 -0.2334 -2.2014
 9114SOL     OW38803   1.245   1.364  10.366 -0.3019  0.1360 -0.3096
 9114SOL    HW138804   1.245   1.282  10.317 -2.9991 -0.0536 -0.0010
 9114SOL    HW238805   1.151   1.378  10.361 -0.3430 -0.1182 -0.2231
 9115SOL     OW38806   2.553   0.133   8.833 -0.4562  0.1657 -0.2814
 9115SOL    HW138807   2.580   0.181   8.911  0.8985 -0.1959 -0.5216
 9115SOL    HW238808   2.638   0.144   8.789  0.2247 -0.7259  0.8144
 9116SOL     OW38809   3.681   3.977   3.182 -0.2587 -0.3876 -0.4501
 9116SOL    HW138810   3.658   4.027   3.104  0.3148 -1.9949 -1.6503
 9116SOL    HW238811   3.592   3.961   3.212 -0.3037 -0.6722 -0.7337
 9117SOL     OW38812   2.946   1.951   2.326 -0.3110 -0.3528 -0.0478
 9117SOL    HW138813   2.901   1.879   2.370 -1.2058  0.5664  0.5346
 9117SOL    HW238814   2.933   2.027   2.383 -0.7517 -1.0505  0.7680
 9118SOL     OW38815   1.144   2.603   3.580 -0.3521 -0.0299 -0.3450
 9118SOL    HW138816   1.231   2.585   3.545 -1.1859  0.2893 -2.5322
 9118SOL    HW238817   1.091   2.550   3.520  1.8855 -0.8183 -1.6199
 9119SOL     OW38818   0.821   0.713  17.496  0.4273 -0.1820 -0.3688
 9119SOL    HW138819   0.853   0.697  17.407  1.3269 -0.3755 -0.0143
 9119SOL    HW238820   0.734   0.750  17.484  1.0222  0.7064 -2.0200
 9120SOL     OW38821   0.650   4.320   1.364 -0.5611  0.2902 -0.0884
 9120SOL    HW138822   0.664   4.414   1.359  1.4989 -0.0040  0.1275
 9120SOL    HW238823   0.648   4.290   1.273 -0.8650  1.2582 -0.3932
 9121SOL     OW38824   0.914   0.599   5.368  0.0174  0.0012  0.3532
 9121SOL    HW138825   1.006   0.574   5.378  0.2485  0.6763 -0.0653
 9121SOL    HW238826   0.891   0.528   5.308 -4.0890  1.4532  0.2219
 9122SOL     OW38827   3.516   0.582  11.507 -0.6990 -0.0453  0.5781
 9122SOL    HW138828   3.449   0.593  11.439 -0.7007  0.5638  0.6874
 9122SOL    HW238829   3.510   0.486  11.503 -5.5924  0.3436 -1.8487
 9123SOL     OW38830   2.335   1.841   0.466  0.4376  0.4460 -0.1107
 9123SOL    HW138831   2.259   1.875   0.419  0.0880 -0.4307 -0.1822
 9123SOL    HW238832   2.387   1.802   0.396 -0.6683  0.8418 -1.1453
 9124SOL     OW38833   4.119   1.177   1.785  0.8254 -0.2881  0.2906
 9124SOL    HW138834   4.074   1.097   1.760  0.3454  0.1519 -0.2465
 9124SOL    HW238835   4.095   1.184   1.878 -0.3490 -2.4426  0.1355
 9125SOL     OW38836   3.608   3.872   1.185  0.0640 -0.0961 -0.4632
 9125SOL    HW138837   3.552   3.875   1.263  1.5559 -0.7700  0.6415
 9125SOL    HW238838   3.567   3.792   1.151 -0.1551 -0.5476  0.8587
 9126SOL     OW38839   0.822   3.381   4.209  0.1650 -0.2060  0.0316
 9126SOL    HW138840   0.903   3.329   4.211 -0.8628 -1.7493  1.5507
 9126SOL    HW238841   0.864   3.462   4.178  0.4663 -0.7295 -0.9303
 9127SOL     OW38842   4.298   0.528   3.333  0.0127 -0.8441 -0.0898
 9127SOL    HW138843   4.247   0.472   3.390  0.5445  0.2850  1.4917
 9127SOL    HW238844   4.300   0.483   3.248 -0.5034 -0.0576 -0.5259
 9128SOL     OW38845   3.094   1.508   3.115  0.0444 -0.2152  0.1165
 9128SOL    HW138846   3.096   1.502   3.020  1.1651 -2.2740  0.2820
 9128SOL    HW238847   3.188   1.520   3.124  0.0135  0.9885 -1.1628
 9129SOL     OW38848   1.077   0.083   6.279 -0.0091 -0.7735 -0.2794
 9129SOL    HW138849   1.157   0.033   6.293  0.4086 -0.4181 -1.3681
 9129SOL    HW238850   1.016   0.027   6.231 -0.4918  0.8119 -1.5050
 9130SOL     OW38851   2.952   2.877   7.240  0.3420 -0.1792 -0.0255
 9130SOL    HW138852   2.858   2.892   7.232  0.3028 -0.2042  0.4428
 9130SOL    HW238853   2.983   2.937   7.171 -0.3622 -2.6907 -2.4955
 9131SOL     OW38854   0.152   4.119   6.846  0.1387 -0.1267 -0.1900
 9131SOL    HW138855   0.131   4.036   6.804  1.6224 -2.0731  2.8834
 9131SOL    HW238856   0.173   4.184   6.779 -2.6954  1.7792  0.7765
 9132SOL     OW38857   0.666   3.577   1.441 -0.6853  0.0284 -0.0313
 9132SOL    HW138858   0.751   3.605   1.477 -0.6603  1.3838 -1.1345
 9132SOL    HW238859   0.619   3.658   1.421 -0.4053 -0.5640 -3.1021
 9133SOL     OW38860   1.426   3.615   5.928 -0.3195  0.3720 -0.4974
 9133SOL    HW138861   1.394   3.541   5.980  1.4459  0.0320  0.1024
 9133SOL    HW238862   1.375   3.606   5.848 -0.3866  1.7053 -0.6120
 9134SOL     OW38863   1.845   0.495   0.688  0.7325  0.4754  0.0856
 9134SOL    HW138864   1.834   0.558   0.760  1.5548 -0.1468  0.7647
 9134SOL    HW238865   1.905   0.428   0.721  0.9257  0.4178 -0.3900
 9135SOL     OW38866   4.405   2.719   3.740 -0.3175  0.3195  0.0266
 9135SOL    HW138867   4.460   2.798   3.744  0.4721 -0.1894 -0.6840
 9135SOL    HW238868   4.476   2.655   3.738  0.2793  0.9467  0.8558
 9136SOL     OW38869   2.788   4.544  10.685 -0.3074  0.6918 -0.7003
 9136SOL    HW138870   2.848   4.600  10.635  1.3677 -1.7914 -1.4531
 9136SOL    HW238871   2.747   4.495  10.613 -0.6447 -0.2035  0.1111
 9137SOL     OW38872   2.620   3.247   5.887  0.2510  0.2395 -0.3905
 9137SOL    HW138873   2.558   3.231   5.816 -1.1394  0.2425  0.8118
 9137SOL    HW238874   2.669   3.319   5.849  2.0860 -0.1769  1.1488
 9138SOL     OW38875   2.701   1.693   8.820 -0.1903  0.4964 -0.0171
 9138SOL    HW138876   2.651   1.762   8.776 -1.8680 -1.2617 -0.8694
 9138SOL    HW238877   2.663   1.686   8.907  0.2799 -2.2825 -0.0363
 9139SOL     OW38878   4.117   4.666   1.404  0.2828  0.4867 -0.1201
 9139SOL    HW138879   4.034   4.630   1.372 -0.8539  1.5893  1.6128
 9139SOL    HW238880   4.084   4.683   1.492 -0.4490 -2.7160  0.2287
 9140SOL     OW38881   4.019   1.211   2.333  0.3961 -0.5771 -0.1004
 9140SOL    HW138882   3.932   1.250   2.329  1.6348  2.0869 -1.5685
 9140SOL    HW238883   4.004   1.151   2.406 -1.0964  1.2014  1.0357
 9141SOL     OW38884   2.355   4.568   6.267 -0.3284 -0.2313  0.1629
 9141SOL    HW138885   2.442   4.545   6.298 -0.8873 -0.6136  1.4611
 9141SOL    HW238886   2.301   4.566   6.346 -1.9277  0.5374 -0.9249
 9142SOL     OW38887   0.471   3.326  15.508  0.2152  0.1242 -0.4404
 9142SOL    HW138888   0.515   3.246  15.535  0.1989  0.0762 -0.5564
 9142SOL    HW238889   0.385   3.292  15.484 -1.1365  1.4993  2.5384
 9143SOL     OW38890   4.586   0.013   3.422  0.1443 -0.2238 -0.1941
 9143SOL    HW138891   4.593   4.664   3.484  1.9387  0.5963  0.5747
 9143SOL    HW238892   4.499   0.002   3.384 -0.4180  1.5079  0.5974
 9144SOL     OW38893   0.371   0.396   3.658 -0.0989  0.1418 -0.4837
 9144SOL    HW138894   0.338   0.360   3.575 -1.2384 -3.6004  1.5973
 9144SOL    HW238895   0.316   0.357   3.726  0.6290 -3.4420 -1.9704
 9145SOL     OW38896   2.885   3.443   6.226  0.2098 -0.2459 -0.2959
 9145SOL    HW138897   2.971   3.436   6.269  0.2315 -0.9495 -0.4517
 9145SOL    HW238898   2.867   3.354   6.198  0.2201 -0.5999  0.8085
 9146SOL     OW38899   2.304   3.672   3.628 -0.3350  0.7156 -0.2038
 9146SOL    HW138900   2.314   3.585   3.589 -1.1574  0.0573  1.0611
 9146SOL    HW238901   2.220   3.663   3.671  1.5442 -1.2838  3.0567
 9147SOL     OW38902   2.399   4.595  12.630 -0.0978 -0.3244  0.2870
 9147SOL    HW138903   2.437   4.516  12.669  1.5699 -0.4730 -1.6396
 9147SOL    HW238904   2.460   4.617  12.560  0.6943 -0.3604  0.9728
 9148SOL     OW38905   0.658   1.348   0.481  0.3801 -0.0901  0.4418
 9148SOL    HW138906   0.711   1.269   0.488  0.5335 -0.1308 -1.1933
 9148SOL    HW238907   0.701   1.405   0.418 -0.7943  0.5810  0.2358
 9149SOL     OW38908   4.478   2.303   1.911  0.5067  0.7710 -0.4337
 9149SOL    HW138909   4.423   2.230   1.939  0.9659  0.9410  0.8948
 9149SOL    HW238910   4.532   2.265   1.842 -0.4204  1.8311 -1.7483
 9150SOL     OW38911   3.369   3.668  11.661 -0.5199 -0.5457 -0.0843
 9150SOL    HW138912   3.284   3.646  11.699 -1.2017 -0.2451 -1.4192
 9150SOL    HW238913   3.370   3.605  11.589  0.6590 -0.1008 -0.4630
 9151SOL     OW38914   4.572   1.581   4.917  0.0169  0.3726 -0.0505
 9151SOL    HW138915   4.584   1.539   4.832 -1.4343 -0.6278  0.2483
 9151SOL    HW238916   4.595   1.670   4.887 -1.0882  0.2418 -1.3081
 9152SOL     OW38917   4.259   1.501   7.284 -0.4277  0.9596 -0.9332
 9152SOL    HW138918   4.313   1.580   7.286  1.7563 -0.5389 -0.5619
 9152SOL    HW238919   4.334   1.442   7.276  0.0904  1.5932 -0.6998
 9153SOL     OW38920   1.564   0.354   0.554  0.5589  0.0047  0.1488
 9153SOL    HW138921   1.578   0.266   0.520 -0.6540 -0.2307  0.2449
 9153SOL    HW238922   1.620   0.398   0.490  2.5209 -1.5384  0.8077
 9154SOL     OW38923   3.304   1.545   7.305 -0.0126 -0.1822  0.2845
 9154SOL    HW138924   3.358   1.586   7.373  1.2397 -0.8744 -0.2966
 9154SOL    HW238925   3.371   1.532   7.237 -1.1836  0.9509 -1.0944
 9155SOL     OW38926   1.302   1.850   2.372  0.2083  0.2314 -0.2847
 9155SOL    HW138927   1.239   1.891   2.312  1.6578 -1.6721 -3.0856
 9155SOL    HW238928   1.275   1.899   2.450  0.4341  2.4348 -1.5646
 9156SOL     OW38929   1.520   2.025   6.904 -0.4198 -0.5626 -0.2255
 9156SOL    HW138930   1.611   2.039   6.878 -0.6686 -0.2917 -0.9430
 9156SOL    HW238931   1.517   2.008   6.998 -3.4111  0.7071 -0.0940
 9157SOL     OW38932   0.884   2.197  11.176 -0.5204  0.4285  0.0435
 9157SOL    HW138933   0.919   2.213  11.264 -0.3289 -1.5127  0.3085
 9157SOL    HW238934   0.792   2.179  11.195 -0.1886 -1.6596 -0.3189
 9158SOL     OW38935   1.162   0.698  17.651 -0.0700  0.6560  0.3478
 9158SOL    HW138936   1.224   0.674  17.582  0.1975 -0.6109  1.0263
 9158SOL    HW238937   1.212   0.698   0.034  1.1868 -0.2482 -0.4161
 9159SOL     OW38938   4.334   4.723   7.034  0.2246 -0.0789  0.3871
 9159SOL    HW138939   4.277   4.665   6.984  0.5674 -0.6725  0.6879
 9159SOL    HW238940   4.290   0.004   7.119  0.6917  1.9808  0.5065
 9160SOL     OW38941   2.132   2.677   8.745  0.4757  0.2721  0.4670
 9160SOL    HW138942   2.169   2.762   8.768  0.2443  0.7228 -0.7976
 9160SOL    HW238943   2.209   2.621   8.749  0.6812  0.4307 -1.2886
 9161SOL     OW38944   4.525   0.363   0.421 -0.2489  0.1544 -0.2355
 9161SOL    HW138945   4.526   0.357   0.516 -0.9937 -2.4748 -0.3905
 9161SOL    HW238946   4.481   0.283   0.392 -0.2844 -0.0406  0.3748
 9162SOL     OW38947   3.863   1.746  13.741  0.3336 -0.6212  0.1425
 9162SOL    HW138948   3.928   1.676  13.729  2.0277  0.7745  1.2139
 9162SOL    HW238949   3.911   1.811  13.793 -0.6663 -0.2295  0.5745
 9163SOL     OW38950   1.133   4.618   4.573 -0.9088 -0.1436  0.7528
 9163SOL    HW138951   1.216   4.635   4.618 -0.6874 -0.1091  0.3335
 9163SOL    HW238952   1.137   4.673   4.495 -2.7518 -0.5340  0.3720
 9164SOL     OW38953   4.408   4.472   3.453  0.6131 -0.3392  0.6105
 9164SOL    HW138954   4.385   4.379   3.458  0.6615 -0.2983  1.5113
 9164SOL    HW238955   4.352   4.496   3.379  0.5298  1.4260  1.2402
 9165SOL     OW38956   1.818   4.650   7.006  0.1937 -0.3845  0.5837
 9165SOL    HW138957   1.897   4.608   6.972 -0.3204  0.2689 -1.3765
 9165SOL    HW238958   1.742   4.603   6.971 -0.0682  0.0298  0.5972
 9166SOL     OW38959   3.477   0.790  13.722 -0.0367 -0.0390 -0.4372
 9166SOL    HW138960   3.413   0.720  13.707 -1.1407  1.0304 -0.7557
 9166SOL    HW238961   3.551   0.747  13.765  1.9253  1.1304 -2.7045
 9167SOL     OW38962   4.072   1.880   3.295  0.0362 -0.1850 -0.0988
 9167SOL    HW138963   4.135   1.809   3.308  1.3972  1.1668  0.6821
 9167SOL    HW238964   4.074   1.898   3.201 -0.9896 -1.6087 -0.3934
 9168SOL     OW38965   4.234   2.415   4.523  0.3139 -0.1822  0.3834
 9168SOL    HW138966   4.210   2.325   4.546 -1.1554 -0.0838 -0.7155
 9168SOL    HW238967   4.218   2.409   4.429 -0.3618  0.6642  0.4464
 9169SOL     OW38968   1.631   2.206  11.422 -0.4076  0.4140  0.2078
 9169SOL    HW138969   1.643   2.226  11.329 -1.4287 -0.7428 -0.1739
 9169SOL    HW238970   1.602   2.291  11.455  2.0552  2.5062 -2.9935
 9170SOL     OW38971   4.686   1.977  15.234 -1.0046 -0.7770 -0.6245
 9170SOL    HW138972   0.042   1.925  15.240  0.3156  1.0161 -2.3665
 9170SOL    HW238973   4.666   1.971  15.141 -1.3979 -0.9318 -0.5314
 9171SOL     OW38974   3.432   1.288  10.214 -0.8800  0.5527 -0.1476
 9171SOL    HW138975   3.502   1.347  10.185  0.6415 -1.0617  0.2232
 9171SOL    HW238976   3.470   1.204  10.191 -0.8129  0.3656  0.6568
 9172SOL     OW38977   3.850   0.473   3.849 -0.2036 -0.3825 -0.2845
 9172SOL    HW138978   3.918   0.483   3.782  0.3801  1.1690  0.5448
 9172SOL    HW238979   3.779   0.444   3.791 -0.8239 -0.9104  0.7406
 9173SOL     OW38980   0.198   2.786  10.749 -0.2877  0.3204 -0.5012
 9173SOL    HW138981   0.156   2.862  10.710  0.1566  0.3816 -0.8646
 9173SOL    HW238982   0.288   2.815  10.763  0.0548 -0.2354 -1.5654
 9174SOL     OW38983   1.439   1.698   9.493 -0.2709 -0.8932 -0.3149
 9174SOL    HW138984   1.411   1.788   9.475  3.2303 -0.1433 -1.8886
 9174SOL    HW238985   1.495   1.713   9.569  0.4929  2.8317 -1.6338
 9175SOL     OW38986   3.515   3.130  17.675  0.0194 -0.0264 -0.4042
 9175SOL    HW138987   3.461   3.052  17.689 -0.7290  0.2426 -1.8028
 9175SOL    HW238988   3.486   3.163  17.590 -0.6199 -2.2676 -1.0463
 9176SOL     OW38989   0.231   3.110   0.224  0.2014 -0.0891 -0.2015
 9176SOL    HW138990   0.266   3.187   0.179 -1.3369 -0.9171 -2.7659
 9176SOL    HW238991   0.306   3.081   0.277 -0.0784  0.7331  0.6503
 9177SOL     OW38992   1.350   4.598   3.742  0.0695 -0.0575 -0.1570
 9177SOL    HW138993   1.433   4.554   3.762  0.7228  1.2219 -0.0210
 9177SOL    HW238994   1.353   4.607   3.647 -0.2381 -0.2797 -0.1862
 9178SOL     OW38995   3.711   0.908  11.572 -0.5012 -0.2415  0.2628
 9178SOL    HW138996   3.806   0.903  11.575 -0.4142  1.1432  0.0831
 9178SOL    HW238997   3.702   0.947  11.485 -2.6419  1.2258  1.1274
 9179SOL     OW38998   2.372   4.094  12.102  0.5669  0.2266 -0.5282
 9179SOL    HW138999   2.467   4.093  12.115  0.6857  3.0010 -1.3123
 9179SOL    HW239000   2.363   4.143  12.021 -1.1140 -1.0017 -1.0690
 9180SOL     OW39001   1.158   1.620   3.333  0.1473  0.0312 -0.0510
 9180SOL    HW139002   1.227   1.555   3.349 -1.1877 -1.4521 -0.3091
 9180SOL    HW239003   1.209   1.701   3.344 -1.9576  1.3792 -0.2219
 9181SOL     OW39004   1.521   2.377   2.133 -0.2593  0.1205 -0.5317
 9181SOL    HW139005   1.527   2.407   2.042  1.5935 -2.2360 -1.1708
 9181SOL    HW239006   1.593   2.315   2.137 -0.5192 -0.1711 -0.3923
 9182SOL     OW39007   3.807   3.002   5.393  0.5499  0.4382  0.2805
 9182SOL    HW139008   3.803   2.956   5.476  0.6821  1.4001  0.8233
 9182SOL    HW239009   3.795   3.096   5.408  1.1745  0.4372  0.8043
 9183SOL     OW39010   2.788   1.075   7.207 -0.0014  0.9559 -0.1504
 9183SOL    HW139011   2.853   1.014   7.241 -0.3777  0.7938  0.2805
 9183SOL    HW239012   2.711   1.056   7.262 -0.1297  3.5640  0.5881
 9184SOL     OW39013   3.494   2.348  10.264 -0.2555  0.1216  0.1635
 9184SOL    HW139014   3.585   2.361  10.239 -0.0749 -0.1773  0.6763
 9184SOL    HW239015   3.448   2.393  10.192  0.7015  0.0269 -0.5126
 9185SOL     OW39016   3.586   2.765   8.902 -0.0196  0.6438  0.5142
 9185SOL    HW139017   3.586   2.734   8.812  0.0791  3.6643 -0.5170
 9185SOL    HW239018   3.547   2.686   8.942 -2.0859  1.0967 -0.6078
 9186SOL     OW39019   2.769   0.952  10.016  0.6346 -0.0897  0.1673
 9186SOL    HW139020   2.725   0.920   9.938 -1.2691 -2.1297  2.0831
 9186SOL    HW239021   2.791   1.041   9.990 -2.8643 -0.1668 -3.0480
 9187SOL     OW39022   4.560   3.373   3.868  0.3426 -0.0515  0.6501
 9187SOL    HW139023   4.628   3.312   3.897 -1.4217 -2.1164  0.5331
 9187SOL    HW239024   4.533   3.332   3.785 -0.6560  1.5197  0.1990
 9188SOL     OW39025   0.195   4.647  14.049  0.3880 -0.3797 -0.8391
 9188SOL    HW139026   0.216   4.618  13.960  1.4981  1.5947 -1.2151
 9188SOL    HW239027   0.270   4.703  14.069  0.3420 -1.1313  1.3998
 9189SOL     OW39028   1.692   0.047   1.250  0.7074 -0.1091 -0.2137
 9189SOL    HW139029   1.756   0.117   1.263  2.3806 -1.5521 -0.7629
 9189SOL    HW239030   1.718   4.702   1.311  0.3049  0.4888  0.6387
 9190SOL     OW39031   2.659   3.214   2.521  0.1074 -0.1569 -0.1054
 9190SOL    HW139032   2.706   3.131   2.528 -0.6174 -0.5418  0.1714
 9190SOL    HW239033   2.644   3.210   2.427 -0.1839  1.6234 -0.1431
 9191SOL     OW39034   1.801   4.364   0.711 -0.4793 -0.1121 -0.3314
 9191SOL    HW139035   1.839   4.314   0.784 -2.1601  0.0510  0.6616
 9191SOL    HW239036   1.732   4.304   0.683  0.3630 -1.6782  0.9464
 9192SOL     OW39037   1.689   4.169   3.223  0.2826 -0.0358  0.1306
 9192SOL    HW139038   1.691   4.226   3.147  0.2834  1.5672  1.3246
 9192SOL    HW239039   1.661   4.092   3.174 -1.8472  0.9390 -0.1651
 9193SOL     OW39040   4.024   4.305   6.227  0.2009  0.3187 -0.0444
 9193SOL    HW139041   3.999   4.369   6.293  0.7469 -0.9786  1.4319
 9193SOL    HW239042   4.067   4.353   6.156 -1.8023 -0.0238 -1.5019
 9194SOL     OW39043   0.141   4.289   2.128 -0.6823  0.3250 -0.0993
 9194SOL    HW139044   0.203   4.260   2.062 -1.0599  0.1058 -0.3580
 9194SOL    HW239045   0.133   4.217   2.191 -1.1525  2.1024  1.9008
 9195SOL     OW39046   4.076   3.659   7.521 -0.2006  0.0221 -0.1897
 9195SOL    HW139047   4.140   3.730   7.526 -0.3759  0.3237 -2.1331
 9195SOL    HW239048   4.025   3.673   7.601  1.7728 -2.2181  1.4636
 9196SOL     OW39049   2.316   4.462  11.489  0.0719  0.7078  0.5489
 9196SOL    HW139050   2.394   4.409  11.472  0.4528  0.4368  3.1220
 9196SOL    HW239051   2.294   4.485  11.399 -0.7187 -1.0916  0.2870
 9197SOL     OW39052   0.716   0.402  16.916  0.1883 -0.0099  0.0740
 9197SOL    HW139053   0.640   0.348  16.896  0.7312 -0.9360  0.4979
 9197SOL    HW239054   0.676   0.463  16.978 -1.8850 -1.9902  0.7066
 9198SOL     OW39055   0.264   3.802  17.216 -0.0472  0.0054  0.2704
 9198SOL    HW139056   0.293   3.793  17.125  0.2547 -1.2078  0.4829
 9198SOL    HW239057   0.319   3.875  17.244  0.5613 -0.0453 -0.7670
 9199SOL     OW39058   1.977   3.864   4.402  0.3363  0.1950 -0.3331
 9199SOL    HW139059   1.907   3.929   4.395  0.1431  0.0049 -0.1867
 9199SOL    HW239060   1.969   3.817   4.318 -1.4378  1.1124 -0.6758
 9200SOL     OW39061   4.312   2.769   3.278  0.2683 -0.6057  0.0806
 9200SOL    HW139062   4.310   2.686   3.324  2.7803 -0.1839  0.9094
 9200SOL    HW239063   4.397   2.779   3.235  0.3579  1.0857  0.6383
 9201SOL     OW39064   2.897   1.348   5.959  0.0125 -0.0749  0.6158
 9201SOL    HW139065   2.868   1.262   5.991 -0.4206 -0.1795 -0.0646
 9201SOL    HW239066   2.992   1.333   5.960  0.2374  1.2200 -1.0780
 9202SOL     OW39067   3.140   4.507   0.127  0.3041 -0.1633  0.2956
 9202SOL    HW139068   3.150   4.575   0.060 -0.5875 -0.0488  0.2846
 9202SOL    HW239069   3.178   4.427   0.089 -2.0574 -0.7691 -0.7578
 9203SOL     OW39070   2.838   0.914   9.593 -0.0367  0.3835  0.3814
 9203SOL    HW139071   2.857   1.006   9.577  1.8542 -0.0989 -0.0938
 9203SOL    HW239072   2.911   0.882   9.540 -1.3472  0.1697 -1.2950
 9204SOL     OW39073   1.380   3.926  14.691 -0.2435  0.4164  0.2313
 9204SOL    HW139074   1.447   3.959  14.631  1.8404  0.4708  2.6289
 9204SOL    HW239075   1.321   4.001  14.683  1.1418  1.5415  0.6145
 9205SOL     OW39076   3.747   1.309   4.359 -0.1991 -0.2914 -0.1824
 9205SOL    HW139077   3.658   1.279   4.376 -0.2107 -0.5268 -0.6710
 9205SOL    HW239078   3.797   1.249   4.415 -0.8418 -2.0640 -1.5216
 9206SOL     OW39079   3.696   2.246  10.898 -0.0299  0.0069 -0.5812
 9206SOL    HW139080   3.645   2.270  10.821  0.2803  0.6778 -0.5770
 9206SOL    HW239081   3.632   2.247  10.970  0.6226 -0.7915 -0.0041
 9207SOL     OW39082   1.919   0.460   8.831 -0.4651  0.2071 -0.5282
 9207SOL    HW139083   1.939   0.503   8.748 -1.1719  0.5146 -0.5379
 9207SOL    HW239084   1.996   0.404   8.827  1.7010  3.3085 -1.1364
 9208SOL     OW39085   1.233   0.906  14.719 -0.0646 -0.0551  0.5460
 9208SOL    HW139086   1.316   0.937  14.756 -0.6878  2.9727 -0.6564
 9208SOL    HW239087   1.216   0.991  14.678 -0.4667 -1.4833 -2.2368
 9209SOL     OW39088   2.236   1.280  10.507  0.7311  0.2839 -0.1506
 9209SOL    HW139089   2.278   1.236  10.433 -1.6785 -0.6544 -0.9668
 9209SOL    HW239090   2.219   1.372  10.488  0.3086 -0.0540 -1.4158
 9210SOL     OW39091   2.306   4.191  12.467  0.4571 -0.6475  0.2253
 9210SOL    HW139092   2.381   4.211  12.411  0.0112  1.6330  0.4345
 9210SOL    HW239093   2.233   4.222  12.412 -0.5685  0.9035  2.4512
 9211SOL     OW39094   2.980   2.689   7.918 -0.1110 -0.7754 -0.0717
 9211SOL    HW139095   2.887   2.712   7.913  0.3845  1.2541  0.2122
 9211SOL    HW239096   2.984   2.597   7.946 -3.6668 -0.9104  0.0151
 9212SOL     OW39097   1.678   1.819   8.320  0.0342 -0.5385 -0.3796
 9212SOL    HW139098   1.693   1.780   8.406 -0.1121 -3.6002 -1.7407
 9212SOL    HW239099   1.752   1.880   8.321 -1.1944  0.8908  2.2434
 9213SOL     OW39100   2.109   2.259  12.137  0.2493  0.2028 -0.3707
 9213SOL    HW139101   2.148   2.347  12.136  2.3584 -0.7479 -1.1646
 9213SOL    HW239102   2.162   2.214  12.202  1.6979  1.5647 -0.6036
 9214SOL     OW39103   0.528   2.015  13.544 -0.3655 -0.0148  0.0157
 9214SOL    HW139104   0.509   1.982  13.632 -0.0460 -0.6576 -0.1534
 9214SOL    HW239105   0.536   1.928  13.504 -0.7418 -0.3486  0.6662
 9215SOL     OW39106   0.923   4.321   7.274  0.6060 -0.4916 -0.3065
 9215SOL    HW139107   0.919   4.349   7.182 -0.5996 -1.7670 -0.6446
 9215SOL    HW239108   0.993   4.256   7.277  1.0935 -0.0111 -0.9797
 9216SOL     OW39109   1.304   0.383   5.219  0.0210  0.1290  0.1052
 9216SOL    HW139110   1.233   0.393   5.156  0.3206  2.3789  0.1289
 9216SOL    HW239111   1.383   0.409   5.172  0.7095 -1.2373  0.5151
 9217SOL     OW39112   1.058   3.356   0.414  0.1309  0.2937 -0.1252
 9217SOL    HW139113   1.027   3.401   0.492  1.7742  0.7147  0.2884
 9217SOL    HW239114   1.149   3.330   0.430 -0.4411 -2.1470 -0.7439
 9218SOL     OW39115   0.593   4.441   7.588  0.3015 -0.1725  0.2339
 9218SOL    HW139116   0.574   4.419   7.497 -1.4848 -0.1496  0.6202
 9218SOL    HW239117   0.509   4.478   7.614  0.0645 -0.2024 -0.4831
 9219SOL     OW39118   4.300   4.313  16.145 -0.3078  0.6054 -0.0176
 9219SOL    HW139119   4.315   4.370  16.220  1.4888 -0.1707  0.2263
 9219SOL    HW239120   4.259   4.372  16.081 -0.4702 -0.2686 -0.7198
 9220SOL     OW39121   1.057   1.838   5.428  0.6850 -0.5488 -0.2708
 9220SOL    HW139122   0.989   1.899   5.399  2.3578  1.2629 -0.3916
 9220SOL    HW239123   1.095   1.801   5.349  0.1517 -0.6163 -0.4956
 9221SOL     OW39124   1.982   4.563   0.829  0.2949  0.5914  0.0561
 9221SOL    HW139125   2.061   4.512   0.812 -2.1075 -3.1730  0.3370
 9221SOL    HW239126   1.913   4.498   0.824  0.2363  0.8968 -3.1756
 9222SOL     OW39127   3.482   0.074   6.782 -0.5779  0.0360  0.8968
 9222SOL    HW139128   3.388   0.087   6.793 -0.6078 -0.7572  1.6214
 9222SOL    HW239129   3.511   0.165   6.774  0.2721 -0.2711  0.5081
 9223SOL     OW39130   3.817   0.499  17.682 -0.5846 -0.0249 -0.4429
 9223SOL    HW139131   3.790   0.410   0.007 -0.6702  0.5232  1.5393
 9223SOL    HW239132   3.763   0.561   0.032  1.0576 -0.4013  1.8803
 9224SOL     OW39133   1.586   3.811   5.516  0.4995  0.6548 -0.1486
 9224SOL    HW139134   1.540   3.740   5.471 -0.2557  0.2189  1.2943
 9224SOL    HW239135   1.514   3.827   5.578 -0.5794 -1.2459 -0.8854
 9225SOL     OW39136   2.914   3.794   2.079  0.0022  0.1642 -0.3023
 9225SOL    HW139137   2.851   3.836   2.138 -1.1733  0.4159 -1.7331
 9225SOL    HW239138   2.854   3.758   2.014 -1.7824  1.6405  0.5114
 9226SOL     OW39139   0.905   3.777   8.086 -0.6870 -0.0044 -0.4050
 9226SOL    HW139140   0.921   3.698   8.035  1.8772 -0.5590  1.2580
 9226SOL    HW239141   0.816   3.808   8.068  0.0535  1.7648 -1.0628
 9227SOL     OW39142   3.564   0.576   5.110 -0.6018 -0.1119  0.4612
 9227SOL    HW139143   3.631   0.583   5.178 -0.9623 -0.4376  0.8463
 9227SOL    HW239144   3.529   0.490   5.133 -0.9411 -0.0811  0.0637
 9228SOL     OW39145   4.088   2.590   1.888 -0.0424  0.6016 -0.0759
 9228SOL    HW139146   4.176   2.557   1.905 -0.0548  0.8329  0.4305
 9228SOL    HW239147   4.032   2.561   1.960  0.4161 -0.1841 -0.0331
 9229SOL     OW39148   2.788   0.722   7.456 -0.3605  0.0716  0.0341
 9229SOL    HW139149   2.809   0.800   7.508 -0.0807 -0.3049  0.4869
 9229SOL    HW239150   2.865   0.671   7.483 -0.6050  0.8020  2.0719
 9230SOL     OW39151   4.386   4.103  17.250 -0.0071  0.7204  0.2151
 9230SOL    HW139152   4.387   4.185  17.201 -1.4092 -0.2060 -1.3577
 9230SOL    HW239153   4.459   4.054  17.212  1.2851  2.0140  1.0161
 9231SOL     OW39154   2.093   0.417   6.581  0.3079 -0.0668 -0.0101
 9231SOL    HW139155   2.120   0.357   6.650  1.0819  0.7324  0.3827
 9231SOL    HW239156   2.000   0.421   6.602  0.4025 -1.2051  0.6297
 9232SOL     OW39157   2.564   0.756   4.614  0.5938  0.1771 -0.2726
 9232SOL    HW139158   2.545   0.834   4.666 -0.0610  0.2309 -0.5878
 9232SOL    HW239159   2.659   0.762   4.604  0.8330 -0.7715  1.4613
 9233SOL     OW39160   1.711   0.734   3.778 -0.5613  0.8431 -0.0222
 9233SOL    HW139161   1.671   0.807   3.731 -2.2094 -0.5414 -0.7687
 9233SOL    HW239162   1.749   0.683   3.707 -1.6094 -0.5139  0.4038
 9234SOL     OW39163   1.999   1.118  10.473 -0.2418  0.5990 -0.1527
 9234SOL    HW139164   2.079   1.167  10.494  1.2004 -1.5411 -0.7239
 9234SOL    HW239165   2.011   1.029  10.506 -1.3263 -0.1508 -1.7828
 9235SOL     OW39166   2.505   3.436   8.729  0.2528 -0.1089  0.2724
 9235SOL    HW139167   2.503   3.446   8.634 -1.1875  1.2359  0.4536
 9235SOL    HW239168   2.463   3.518   8.755  1.4390  0.2152  1.1837
 9236SOL     OW39169   2.926   3.710  17.616 -0.2986 -0.0031  0.3617
 9236SOL    HW139170   2.860   3.727  17.549  1.7405 -1.4897 -2.0170
 9236SOL    HW239171   3.009   3.748  17.587  0.6321 -2.1880  0.1645
 9237SOL     OW39172   2.187   0.172   6.394 -0.3463 -0.0934 -0.1424
 9237SOL    HW139173   2.108   0.199   6.440 -1.1103 -0.3601 -1.3096
 9237SOL    HW239174   2.255   0.222   6.440 -0.1018 -0.1902 -0.3957
 9238SOL     OW39175   3.369   2.850   4.649  0.3419 -0.1201  0.0247
 9238SOL    HW139176   3.463   2.837   4.632  0.9241  1.3381  2.0972
 9238SOL    HW239177   3.370   2.899   4.732 -2.4215 -2.2706  1.3129
 9239SOL     OW39178   0.309   4.219   2.943  0.1480 -0.3999 -0.8429
 9239SOL    HW139179   0.319   4.223   3.038 -2.8374  0.1069 -0.5537
 9239SOL    HW239180   0.394   4.180   2.923 -0.0106 -0.4638 -1.3873
 9240SOL     OW39181   3.782   1.264   0.514 -0.3564  0.0170  0.6559
 9240SOL    HW139182   3.842   1.238   0.585 -0.3408  1.4499  1.1616
 9240SOL    HW239183   3.699   1.246   0.558 -1.0233  0.3878 -0.4573
 9241SOL     OW39184   2.069   0.110   8.055 -0.1076  0.2712  0.2091
 9241SOL    HW139185   2.128   0.051   8.009  1.1428  0.4417  1.6133
 9241SOL    HW239186   2.008   0.118   7.982  0.1902 -0.2334 -0.0896
 9242SOL     OW39187   0.686   1.785   3.962  0.0664 -0.0453 -0.4304
 9242SOL    HW139188   0.714   1.800   3.872  2.2743 -2.2059 -0.0917
 9242SOL    HW239189   0.742   1.847   4.010  2.5501 -0.5187 -2.7605
 9243SOL     OW39190   1.981   1.029   3.526  0.2937  0.5212  0.0135
 9243SOL    HW139191   1.959   1.122   3.536 -0.3769  0.4103 -0.4038
 9243SOL    HW239192   2.021   1.005   3.610 -0.2647 -0.5189 -0.0123
 9244SOL     OW39193   3.982   0.934   0.952 -0.3686 -0.3094 -0.1542
 9244SOL    HW139194   4.051   0.988   0.914  1.2259 -2.1363  0.1140
 9244SOL    HW239195   3.968   0.867   0.885 -1.1942 -0.8040  0.5188
 9245SOL     OW39196   1.573   4.297   1.277  0.5758  0.1302  0.1686
 9245SOL    HW139197   1.574   4.301   1.182 -0.4513 -0.4928  0.1310
 9245SOL    HW239198   1.522   4.374   1.300 -0.9259 -1.4412  2.1135
 9246SOL     OW39199   2.796   0.589   3.328  0.3295 -0.0966 -0.2911
 9246SOL    HW139200   2.866   0.583   3.393  0.4170 -0.3290 -0.4092
 9246SOL    HW239201   2.740   0.522   3.367 -0.0054  0.0372 -0.5426
 9247SOL     OW39202   3.173   2.282   4.243  0.1329  0.7570  0.6232
 9247SOL    HW139203   3.105   2.310   4.305  0.0654  0.9764  0.4514
 9247SOL    HW239204   3.239   2.350   4.260  3.7242 -2.3236 -1.0178
 9248SOL     OW39205   3.845   2.324   7.199 -0.4214  0.0349 -0.2391
 9248SOL    HW139206   3.926   2.277   7.184 -0.3044 -0.8449  3.0075
 9248SOL    HW239207   3.848   2.371   7.116  0.9350  1.6859  0.7624
 9249SOL     OW39208   2.239   3.169   4.545 -0.0559 -0.0176  0.2389
 9249SOL    HW139209   2.297   3.207   4.479  1.6133 -1.9154  0.6070
 9249SOL    HW239210   2.185   3.247   4.554  2.6027  2.0942 -1.9614
 9250SOL     OW39211   4.207   1.253  10.066 -0.1169 -0.1744  0.0066
 9250SOL    HW139212   4.224   1.345  10.088  0.6329  0.1080 -1.6798
 9250SOL    HW239213   4.138   1.266  10.002 -1.6851  1.1852  1.9812
 9251SOL     OW39214   2.614   3.516   4.674  0.0344 -0.1778  0.6549
 9251SOL    HW139215   2.520   3.499   4.666 -0.1481  0.2563  1.9745
 9251SOL    HW239216   2.631   3.559   4.590 -2.2173  2.6657  1.6413
 9252SOL     OW39217   1.033   0.359   7.121  0.4020  0.5687  0.3097
 9252SOL    HW139218   1.053   0.382   7.030  1.2966  1.1826  0.6647
 9252SOL    HW239219   1.118   0.317   7.132  1.6167  3.1018  0.5521
 9253SOL     OW39220   0.179   0.880  11.476 -0.2897 -0.0225 -0.4790
 9253SOL    HW139221   0.254   0.850  11.425  0.4706 -1.1397  1.3033
 9253SOL    HW239222   0.216   0.938  11.542  1.8715  0.6860 -2.3134
 9254SOL     OW39223   0.507   3.868   3.292  0.4311 -0.1071 -0.1217
 9254SOL    HW139224   0.586   3.860   3.238  1.9911  0.2448  2.0812
 9254SOL    HW239225   0.551   3.849   3.375  1.6018  1.2597 -0.4122
 9255SOL     OW39226   4.053   2.174   7.140  0.1783 -0.5629 -0.5611
 9255SOL    HW139227   4.125   2.208   7.193  0.0154 -0.7473 -0.2225
 9255SOL    HW239228   4.078   2.158   7.049  0.8025 -1.0002 -0.3148
 9256SOL     OW39229   4.546   4.078   4.602  0.1415  0.2244  0.9500
 9256SOL    HW139230   4.590   4.021   4.666 -0.2767 -0.7439  0.3790
 9256SOL    HW239231   4.533   4.160   4.650  0.2169 -0.0071  1.3676
 9257SOL     OW39232   1.973   4.506   8.677 -0.2533 -0.0894 -0.4865
 9257SOL    HW139233   1.956   4.578   8.616 -0.9242  0.1578 -0.0180
 9257SOL    HW239234   2.006   4.432   8.627  1.4574  1.1099 -1.1231
 9258SOL     OW39235   3.687   0.531   7.775 -0.0047  0.4683 -0.1488
 9258SOL    HW139236   3.719   0.449   7.814  1.4969  1.9479  1.6906
 9258SOL    HW239237   3.755   0.561   7.715  1.7833 -1.4721  0.8805
 9259SOL     OW39238   0.828   3.581   9.628  0.4870 -0.2838 -0.7785
 9259SOL    HW139239   0.803   3.613   9.542  1.4840 -2.1442 -1.7568
 9259SOL    HW239240   0.806   3.488   9.621 -0.6375 -0.1485  0.9868
 9260SOL     OW39241   0.154   3.920  11.691  0.1257  0.2819 -0.2532
 9260SOL    HW139242   0.170   3.861  11.617 -0.5163  2.2437 -1.9448
 9260SOL    HW239243   0.059   3.923  11.690  0.0951 -0.5688 -0.4502
 9261SOL     OW39244   2.067   0.624   6.387 -0.0233 -0.4795 -0.2242
 9261SOL    HW139245   2.151   0.657   6.354  0.4736 -1.6051 -0.0628
 9261SOL    HW239246   2.093   0.541   6.425 -0.7009  0.2215  1.7517
 9262SOL     OW39247   3.423   2.640  11.395 -0.1235 -0.1165  0.1688
 9262SOL    HW139248   3.359   2.570  11.390 -0.1592  0.0436 -1.6420
 9262SOL    HW239249   3.438   2.623  11.488  0.9916 -1.0864 -0.1859
 9263SOL     OW39250   2.253   4.033   5.162 -0.5881 -0.3160 -0.0517
 9263SOL    HW139251   2.323   4.097   5.151 -0.6429 -0.2840 -0.2169
 9263SOL    HW239252   2.272   3.971   5.092 -0.4862  1.0845 -1.2571
 9264SOL     OW39253   1.698   2.389  16.734  0.0683 -0.1787 -0.4276
 9264SOL    HW139254   1.696   2.482  16.755  1.0884  0.4657 -3.1841
 9264SOL    HW239255   1.755   2.353  16.801  0.5576  1.2591 -0.0734
 9265SOL     OW39256   0.237   0.928   6.461  0.5365  0.0558  0.0798
 9265SOL    HW139257   0.152   0.925   6.417 -0.1498  2.5602  1.2508
 9265SOL    HW239258   0.290   0.997   6.421  2.4972  0.4213  3.2135
 9266SOL     OW39259   2.391   1.856   2.610  0.4369  0.0361  0.0009
 9266SOL    HW139260   2.330   1.921   2.575  0.7828 -0.1694 -0.9925
 9266SOL    HW239261   2.344   1.776   2.586 -2.2271  0.9471  2.1876
 9267SOL     OW39262   3.306   4.320  12.083 -0.6295 -0.5691  0.5927
 9267SOL    HW139263   3.225   4.334  12.133 -1.2222  0.4533 -0.6503
 9267SOL    HW239264   3.267   4.331  11.996  1.0833  0.1180 -0.0830
 9268SOL     OW39265   0.244   2.766   6.141  0.1449 -0.1120  0.1434
 9268SOL    HW139266   0.326   2.721   6.123 -0.0157 -0.8518  1.2103
 9268SOL    HW239267   0.269   2.806   6.224 -0.0563  0.3055  0.0005
 9269SOL     OW39268   2.764   4.128   5.633 -0.1997  0.4256 -0.2762
 9269SOL    HW139269   2.761   4.223   5.645  1.8009  0.7093 -2.0414
 9269SOL    HW239270   2.722   4.123   5.547 -0.2398 -1.6258 -0.1305
 9270SOL     OW39271   1.405   0.865   6.554  0.4964 -0.6812  0.0643
 9270SOL    HW139272   1.369   0.810   6.485  1.1130  0.3295 -1.0595
 9270SOL    HW239273   1.330   0.895   6.605 -1.9228 -1.1387 -3.2517
 9271SOL     OW39274   2.667   1.553   4.085  0.3808  0.1709  0.1478
 9271SOL    HW139275   2.591   1.521   4.035  3.0380 -2.0987 -2.4500
 9271SOL    HW239276   2.729   1.487   4.054 -1.1238  0.6151 -3.8118
 9272SOL     OW39277   0.641   3.445   2.324  0.4058  0.4781  0.2958
 9272SOL    HW139278   0.591   3.521   2.293  1.2679  1.3453  1.0274
 9272SOL    HW239279   0.713   3.487   2.371 -0.2597 -0.0288  1.7674
 9273SOL     OW39280   3.323   3.769  14.708  0.2245  0.1280  0.1813
 9273SOL    HW139281   3.284   3.781  14.621 -3.2283 -0.3599  1.6831
 9273SOL    HW239282   3.355   3.679  14.699  0.5865  0.5138 -2.5364
 9274SOL     OW39283   3.365   2.726   8.149 -0.3582  0.3514 -0.2204
 9274SOL    HW139284   3.430   2.750   8.083 -0.7323  1.7135 -0.1099
 9274SOL    HW239285   3.326   2.813   8.160  1.7378  1.3092 -0.5111
 9275SOL     OW39286   2.635   0.899   9.791 -0.7078  0.2695 -0.3096
 9275SOL    HW139287   2.547   0.909   9.756 -0.7972  1.3369  0.2119
 9275SOL    HW239288   2.686   0.912   9.711  1.7797  0.3145  1.3014
 9276SOL     OW39289   3.096   1.740   6.195 -0.4278 -0.1741  0.0363
 9276SOL    HW139290   3.095   1.832   6.222  1.6993  0.3688 -1.7245
 9276SOL    HW239291   3.112   1.710   6.284 -2.0079  2.9677  1.3531
 9277SOL     OW39292   2.213   4.260   4.779  0.5462  0.0351 -0.1239
 9277SOL    HW139293   2.307   4.274   4.790  0.4396  1.2602 -0.7455
 9277SOL    HW239294   2.198   4.320   4.706  1.7529 -0.8600 -1.1136
 9278SOL     OW39295   4.685   0.668   2.508 -0.3374 -0.3611 -0.0843
 9278SOL    HW139296   4.722   0.695   2.592 -2.8611  0.6944  0.7030
 9278SOL    HW239297   4.604   0.718   2.511  0.1714  0.6259 -2.5840
 9279SOL     OW39298   0.922   0.887   1.309 -0.0423  0.7488  0.1276
 9279SOL    HW139299   0.844   0.860   1.261  0.7921  0.8689 -1.3060
 9279SOL    HW239300   0.906   0.977   1.336 -0.7910  1.2062 -1.9121
 9280SOL     OW39301   0.849   1.435   5.183 -0.2403  0.0876  0.3079
 9280SOL    HW139302   0.800   1.442   5.265  0.9490  1.6988  0.8924
 9280SOL    HW239303   0.808   1.506   5.134  0.3448 -0.5839 -1.1482
 9281SOL     OW39304   4.705   0.936  10.295 -0.4126 -0.3040  0.4584
 9281SOL    HW139305   4.643   0.883  10.346 -0.1145  1.7068  2.9468
 9281SOL    HW239306   0.041   0.871  10.260 -0.4283  0.1517 -0.4039
 9282SOL     OW39307   0.965   2.811   6.799 -0.5645 -0.7025  0.0232
 9282SOL    HW139308   0.957   2.741   6.734 -2.8534 -0.6618  0.2725
 9282SOL    HW239309   0.959   2.889   6.745  1.7914 -0.8735 -0.5033
 9283SOL     OW39310   1.052   1.913   4.389  0.6375 -0.3820 -0.0254
 9283SOL    HW139311   0.994   1.838   4.397 -0.7837  0.6886 -0.3250
 9283SOL    HW239312   1.043   1.930   4.295  0.7994 -0.5771 -0.0766
 9284SOL     OW39313   4.535   2.061   1.414  0.4158 -0.5640 -0.3149
 9284SOL    HW139314   4.551   2.152   1.438 -1.6120 -0.7887  1.8716
 9284SOL    HW239315   4.543   2.030   1.504 -0.2620 -1.8927 -0.7106
 9285SOL     OW39316   3.043   0.748   4.123 -0.7850 -0.1875 -0.3675
 9285SOL    HW139317   3.008   0.668   4.084 -1.2585  0.5598 -1.4739
 9285SOL    HW239318   2.977   0.814   4.102 -0.5333  0.2837  0.3126
 9286SOL     OW39319   2.477   1.031   3.119  0.2365  0.5543 -0.0863
 9286SOL    HW139320   2.472   1.106   3.177  0.2740  0.4838  0.0080
 9286SOL    HW239321   2.519   0.970   3.179  0.2103 -1.0528 -1.6951
 9287SOL     OW39322   0.350   2.891   7.266 -0.0829  0.6064  0.2902
 9287SOL    HW139323   0.332   2.797   7.256 -0.4225  0.7532 -0.4678
 9287SOL    HW239324   0.427   2.886   7.209  1.8819  2.3075  2.7706
 9288SOL     OW39325   0.536   1.135  17.102  0.8030 -0.4460 -0.0692
 9288SOL    HW139326   0.599   1.118  17.032 -0.9161  0.4059 -1.8031
 9288SOL    HW239327   0.568   1.215  17.143  0.7204  0.0429 -0.9689
 9289SOL     OW39328   2.458   0.095  16.658 -0.4274 -0.0097  0.7601
 9289SOL    HW139329   2.435   0.188  16.666 -0.0671  0.1172  0.3142
 9289SOL    HW239330   2.534   0.110  16.602 -0.0860  0.8919  1.4610
 9290SOL     OW39331   3.056   0.816  13.808 -0.0590  0.1892  0.0675
 9290SOL    HW139332   3.062   0.756  13.733 -0.2191 -2.7732  2.4116
 9290SOL    HW239333   2.974   0.787  13.848 -0.3650 -0.1546 -0.8049
 9291SOL     OW39334   4.282   4.696  10.429 -0.7061  0.3165 -0.8412
 9291SOL    HW139335   4.258   4.710  10.520  1.3292  0.5385 -0.3385
 9291SOL    HW239336   4.266   4.602  10.423  0.1248  0.0672  1.1089
 9292SOL     OW39337   1.185   2.071   5.188 -0.0864 -0.7844 -0.0391
 9292SOL    HW139338   1.210   2.036   5.103 -1.1518  0.4197 -0.8492
 9292SOL    HW239339   1.091   2.069   5.170 -0.3340  2.2007  0.9504
 9293SOL     OW39340   0.063   2.049   5.370 -0.3905 -0.3497  0.4456
 9293SOL    HW139341   0.013   2.124   5.338 -0.2908 -0.2866  0.4377
 9293SOL    HW239342   4.721   1.997   5.416  0.3835 -2.3090 -0.6313
 9294SOL     OW39343   4.623   0.495   8.945  0.1787  0.0993  0.7014
 9294SOL    HW139344   4.630   0.497   8.849  0.4604 -2.2249  0.6611
 9294SOL    HW239345   4.570   0.571   8.968  1.8184 -0.1309  5.2073
 9295SOL     OW39346   4.611   3.773  11.649  0.0488 -0.0500  0.3577
 9295SOL    HW139347   4.530   3.818  11.673  1.1670  0.9278  2.3604
 9295SOL    HW239348   4.624   3.783  11.555 -0.6076 -1.6655  0.1037
 9296SOL     OW39349   0.054   4.522   9.759  0.4719  0.2236 -0.3252
 9296SOL    HW139350   0.129   4.551   9.811  1.5412 -1.8004 -0.7465
 9296SOL    HW239351   4.722   4.600   9.765 -3.9076 -3.0093  0.4173
 9297SOL     OW39352   2.777   3.795  14.987 -0.2980  0.3381  0.8060
 9297SOL    HW139353   2.859   3.822  14.944 -0.1770  0.5836  1.1921
 9297SOL    HW239354   2.748   3.859  15.051 -0.7383  1.0390 -0.0923
 9298SOL     OW39355   1.180   0.754   4.794 -0.2569 -0.3224  0.2224
 9298SOL    HW139356   1.123   0.830   4.779 -0.5527 -0.2224  1.8329
 9298SOL    HW239357   1.180   0.707   4.711  0.0980 -0.0627  0.0740
 9299SOL     OW39358   1.558   0.344   5.044 -0.0650 -0.4097 -0.1298
 9299SOL    HW139359   1.653   0.343   5.032 -0.0364 -3.6560  0.6019
 9299SOL    HW239360   1.529   0.412   4.983  1.3447  1.6969  1.5382
 9300SOL     OW39361   3.677   3.016   6.610 -0.3466 -0.1055 -0.0815
 9300SOL    HW139362   3.732   2.954   6.659  0.2900 -0.1155 -0.7975
 9300SOL    HW239363   3.730   3.014   6.530 -2.6995  0.3266 -1.6423
 9301SOL     OW39364   3.733   2.533   3.101 -0.5127  0.0713 -0.1237
 9301SOL    HW139365   3.824   2.504   3.109 -0.7631 -0.2509  1.4688
 9301SOL    HW239366   3.727   2.592   3.176 -0.5463 -1.6014  1.1975
 9302SOL     OW39367   1.421   4.366   4.928  0.5168 -0.0386 -0.4242
 9302SOL    HW139368   1.405   4.280   4.968 -2.0185 -0.0351 -1.4087
 9302SOL    HW239369   1.373   4.360   4.845 -0.0693  0.5326 -0.1296
 9303SOL     OW39370   2.353   2.521   9.856  0.5004  0.6390  0.6754
 9303SOL    HW139371   2.356   2.439   9.905  2.3828 -0.2735 -0.9421
 9303SOL    HW239372   2.358   2.594   9.917 -2.8384  0.2238  1.4197
 9304SOL     OW39373   2.852   3.467   9.195  0.0451 -0.2761 -0.0515
 9304SOL    HW139374   2.799   3.489   9.272 -0.0192  2.0670 -0.7468
 9304SOL    HW239375   2.805   3.524   9.134  1.1792 -0.0664 -0.7282
 9305SOL     OW39376   1.029   0.109  14.369 -0.0792  0.9621 -0.4901
 9305SOL    HW139377   1.107   0.165  14.368 -0.2665  1.2462  0.6142
 9305SOL    HW239378   1.069   0.025  14.390  0.1805  0.6487 -2.3010
 9306SOL     OW39379   0.210   2.384   6.513 -0.0720  0.2789  0.5733
 9306SOL    HW139380   0.228   2.313   6.452 -4.6155  1.0276 -1.6143
 9306SOL    HW239381   0.208   2.451   6.445 -0.1297 -0.7557 -0.4390
 9307SOL     OW39382   1.218   1.911   8.368  0.6423  0.5911 -0.2213
 9307SOL    HW139383   1.293   1.852   8.369  0.5155  0.4568  1.5303
 9307SOL    HW239384   1.150   1.877   8.310  0.2843  1.0241 -0.0593
 9308SOL     OW39385   4.303   3.846   1.176  0.2244 -0.8029 -0.5311
 9308SOL    HW139386   4.213   3.823   1.198  0.5006 -0.9197  0.4986
 9308SOL    HW239387   4.283   3.936   1.151  3.2020 -0.1068 -0.4646
 9309SOL     OW39388   2.571   2.711   4.231 -0.0817  0.0446 -0.2190
 9309SOL    HW139389   2.531   2.661   4.159 -0.7379  1.5918 -0.9251
 9309SOL    HW239390   2.616   2.635   4.268  0.3312  0.7207  0.6420
 9310SOL     OW39391   1.301   3.895   3.709 -0.0423  0.3449  0.8057
 9310SOL    HW139392   1.215   3.906   3.668 -0.0282  0.1353  0.7196
 9310SOL    HW239393   1.346   3.947   3.643 -1.3826 -1.4681 -1.5423
 9311SOL     OW39394   2.070   1.227  15.389 -0.0897  0.1133 -0.0218
 9311SOL    HW139395   2.161   1.214  15.414 -0.0710  0.4695  0.0970
 9311SOL    HW239396   2.030   1.227  15.476  0.9568 -0.0711  0.4580
 9312SOL     OW39397   2.379   2.540   5.352  0.0866  0.2198 -0.6384
 9312SOL    HW139398   2.332   2.543   5.436  1.2688  0.8621  0.0108
 9312SOL    HW239399   2.351   2.624   5.317 -1.2836 -0.3303 -0.8776
 9313SOL     OW39400   3.105   3.872   9.171  0.1453 -0.4470 -0.3080
 9313SOL    HW139401   3.047   3.873   9.247  0.4782 -3.0248 -0.0048
 9313SOL    HW239402   3.166   3.942   9.196 -0.1999  0.2732 -1.4956
 9314SOL     OW39403   4.679   0.014   8.983  0.3781 -0.0310  0.0481
 9314SOL    HW139404   4.678   4.664   9.044 -0.3015 -1.2374 -1.4366
 9314SOL    HW239405   0.044   0.049   8.984  0.7218 -0.9234  1.1551
 9315SOL     OW39406   0.463   0.082   0.107  0.5935  0.3886 -0.0615
 9315SOL    HW139407   0.536   0.117   0.056  1.4149  1.7414  2.0219
 9315SOL    HW239408   0.445   4.721   0.068  1.7105  0.0179  0.2310
 9316SOL     OW39409   1.372   4.250   0.915  0.1801 -0.2313  0.0585
 9316SOL    HW139410   1.404   4.232   0.827  1.8521 -0.7268  0.7702
 9316SOL    HW239411   1.451   4.259   0.968 -1.0235  2.0844  1.4972
 9317SOL     OW39412   0.237   3.484   8.451  0.2697  0.4416 -0.2938
 9317SOL    HW139413   0.256   3.523   8.365 -0.6256 -0.7188 -1.0179
 9317SOL    HW239414   0.229   3.569   8.495  1.6843  0.6172 -0.3680
 9318SOL     OW39415   1.179   1.253   7.069 -0.4176 -0.5877 -0.7737
 9318SOL    HW139416   1.088   1.231   7.049 -0.7826 -0.0569  0.3523
 9318SOL    HW239417   1.186   1.343   7.036 -0.4150 -1.2973 -2.7210
 9319SOL     OW39418   1.094   0.837   4.232  0.1881  0.0804 -0.3085
 9319SOL    HW139419   1.153   0.890   4.285 -0.5241  0.9239 -0.3504
 9319SOL    HW239420   1.140   0.851   4.149 -1.1490 -4.4860 -1.8250
 9320SOL     OW39421   4.544   0.084   2.829  0.0085 -0.2865 -0.2486
 9320SOL    HW139422   4.587   4.723   2.830  0.9138  0.1508 -1.4195
 9320SOL    HW239423   4.588   0.127   2.755  0.7729 -1.4177 -0.4592
 9321SOL     OW39424   4.681   2.523  17.405  0.7468 -0.4156 -0.1797
 9321SOL    HW139425   4.678   2.566  17.491 -2.3820 -1.2462  0.1128
 9321SOL    HW239426   0.050   2.533  17.384  1.0107 -0.7608  0.8049
 9322SOL     OW39427   2.817   2.812   2.489  0.4516  0.0721 -0.2157
 9322SOL    HW139428   2.747   2.752   2.512 -0.9812  2.7059  2.2609
 9322SOL    HW239429   2.768   2.863   2.425  1.6893  0.2731 -1.0156
 9323SOL     OW39430   3.419   0.488   7.767  0.7312 -0.2591 -0.0329
 9323SOL    HW139431   3.511   0.514   7.768  0.4617  0.6930 -0.2638
 9323SOL    HW239432   3.441   0.422   7.701 -2.4777 -1.5318  0.1433
 9324SOL     OW39433   0.899   1.989   5.181  0.6588 -0.1356  0.3574
 9324SOL    HW139434   0.920   1.920   5.118 -1.6489  0.4319 -1.0231
 9324SOL    HW239435   0.849   1.934   5.241 -0.8008  0.7603 -0.0521
 9325SOL     OW39436   1.234   4.590   1.391  0.3672  0.1888 -0.2574
 9325SOL    HW139437   1.298   4.542   1.338  0.3098  1.3155 -1.3529
 9325SOL    HW239438   1.157   4.574   1.336  1.1510 -3.0382 -0.4085
 9326SOL     OW39439   4.002   1.266   4.884 -0.2634  0.0215 -0.4344
 9326SOL    HW139440   4.003   1.171   4.875 -0.4239  0.1478 -1.7634
 9326SOL    HW239441   4.031   1.290   4.796  0.9360  0.6259  0.1348
 9327SOL     OW39442   0.430   3.333  16.747 -0.2499 -0.2923 -0.0243
 9327SOL    HW139443   0.389   3.318  16.832 -2.9774 -0.4552 -1.3624
 9327SOL    HW239444   0.525   3.318  16.751 -0.0435  0.7974 -0.7052
 9328SOL     OW39445   1.226   2.058   3.833  0.0136  0.6198  0.1497
 9328SOL    HW139446   1.297   2.064   3.769  0.6848  2.8086  1.0903
 9328SOL    HW239447   1.160   2.018   3.777  0.0267 -0.7223  1.0902
 9329SOL     OW39448   3.151   1.585   2.859  0.2166  0.4252 -0.7015
 9329SOL    HW139449   3.102   1.515   2.815  2.5515 -1.7850  0.2178
 9329SOL    HW239450   3.181   1.628   2.779  1.4266  2.5066  0.8684
 9330SOL     OW39451   3.913   3.812   3.172  0.0743 -0.7675  0.5355
 9330SOL    HW139452   3.851   3.878   3.202 -1.0726  0.2419 -4.0382
 9330SOL    HW239453   3.846   3.750   3.142 -0.4528 -0.7663  1.7015
 9331SOL     OW39454   4.326   3.187  17.592  0.0905  0.5677 -0.2269
 9331SOL    HW139455   4.338   3.092  17.592  0.8091  0.6610 -0.1301
 9331SOL    HW239456   4.403   3.212  17.541 -0.7861  2.4571 -0.6040
 9332SOL     OW39457   0.069   1.804   8.281 -0.1496 -0.0813  0.2870
 9332SOL    HW139458   0.147   1.860   8.276  0.8431 -1.3884  0.9988
 9332SOL    HW239459   0.095   1.743   8.351 -2.6634 -0.5176  0.8214
 9333SOL     OW39460   0.315   0.159  13.222  0.2561  0.1585  0.2141
 9333SOL    HW139461   0.390   0.144  13.165  0.9122  1.3419  0.7602
 9333SOL    HW239462   0.273   0.073  13.218  1.6844 -0.4490 -1.7798
 9334SOL     OW39463   4.575   3.466   2.368  0.0104  0.2869 -0.1265
 9334SOL    HW139464   4.667   3.444   2.350 -0.2914 -0.1814 -1.1065
 9334SOL    HW239465   4.597   3.558   2.387  1.2651 -0.5490  2.4499
 9335SOL     OW39466   2.801   2.324   2.273  0.3881  0.3237  0.1978
 9335SOL    HW139467   2.765   2.375   2.200  1.4988 -0.8302 -1.1586
 9335SOL    HW239468   2.736   2.255   2.265  0.9772 -0.1744 -0.2928
 9336SOL     OW39469   3.844   0.481   4.982 -0.3800  0.0275 -0.1555
 9336SOL    HW139470   3.790   0.406   4.956 -0.8427  0.2530  0.1627
 9336SOL    HW239471   3.844   0.536   4.904 -1.0445 -0.8422 -0.7718
 9337SOL     OW39472   4.009   1.434   0.025 -0.4260 -0.1834 -0.2326
 9337SOL    HW139473   4.085   1.419   0.080 -1.2429 -2.0631  0.3514
 9337SOL    HW239474   3.990   1.524   0.052  2.8081  0.7794 -1.1292
 9338SOL     OW39475   0.998   2.863   2.195  0.1843 -0.0063  0.1106
 9338SOL    HW139476   1.006   2.817   2.111  1.2240 -3.9196  2.3931
 9338SOL    HW239477   0.951   2.794   2.241 -0.5918  0.7558  0.4697
 9339SOL     OW39478   4.355   0.009   3.251 -0.7464 -0.4811 -0.3254
 9339SOL    HW139479   4.364   4.643   3.221  0.6390  0.0249 -1.4350
 9339SOL    HW239480   4.346   0.051   3.166  1.6013  2.0998  0.7056
 9340SOL     OW39481   2.932   0.338  12.590  0.2366 -0.2564  0.2121
 9340SOL    HW139482   3.005   0.297  12.636  0.6794  0.6915  0.3654
 9340SOL    HW239483   2.946   0.290  12.508  2.3398  1.1955 -0.2910
 9341SOL     OW39484   3.848   3.155   5.729  0.0689  0.6029  0.0937
 9341SOL    HW139485   3.786   3.088   5.702 -0.4801  0.6670  1.2002
 9341SOL    HW239486   3.842   3.141   5.824  0.3215 -0.7075 -0.0896
 9342SOL     OW39487   3.706   2.871  11.889 -0.2870  0.8112 -0.2811
 9342SOL    HW139488   3.682   2.811  11.960  0.7599  1.0832  0.3047
 9342SOL    HW239489   3.642   2.846  11.823  0.2313 -2.4078  0.4166
 9343SOL     OW39490   4.430   4.641   1.368  0.0417  0.2091 -0.1990
 9343SOL    HW139491   4.376   4.567   1.395  1.8219 -1.5350 -1.4204
 9343SOL    HW239492   4.508   4.619   1.420  0.0620  1.2214  0.1879
 9344SOL     OW39493   2.584   3.997  11.055 -0.1504 -0.3992 -0.3793
 9344SOL    HW139494   2.583   4.014  11.149  0.8435  1.2214 -0.6738
 9344SOL    HW239495   2.505   4.038  11.021 -0.1220  2.1323  2.6378
 9345SOL     OW39496   1.515   2.481   7.976  0.1953 -0.4373 -0.1675
 9345SOL    HW139497   1.590   2.472   7.917  1.9478  1.3378  1.7651
 9345SOL    HW239498   1.486   2.390   7.981 -0.5155 -0.1932  0.1708
 9346SOL     OW39499   2.096   3.428   4.664  0.7190 -0.4257  0.3195
 9346SOL    HW139500   2.025   3.378   4.622 -0.1416  1.5225 -0.5365
 9346SOL    HW239501   2.092   3.511   4.616 -0.0044 -0.2591  0.6749
 9347SOL     OW39502   3.501   3.956  11.968  0.8994  0.2863  0.0167
 9347SOL    HW139503   3.520   3.974  11.876 -0.9437 -2.1116 -0.8396
 9347SOL    HW239504   3.588   3.931  11.998  1.9124  0.6572 -2.5781
 9348SOL     OW39505   4.019   1.839  11.855  0.0753 -0.0519 -0.4026
 9348SOL    HW139506   3.948   1.802  11.908  1.3559 -1.0119  0.6303
 9348SOL    HW239507   4.071   1.892  11.915  1.3566 -0.7672 -0.8818
 9349SOL     OW39508   0.125   3.078   2.550 -0.1811  0.1173 -0.5976
 9349SOL    HW139509   0.191   3.143   2.574 -0.1473 -0.7883  1.7086
 9349SOL    HW239510   0.074   3.088   2.630  2.0040  0.3903  0.7656
 9350SOL     OW39511   0.566   3.584   3.507  0.1917  0.2594  0.1283
 9350SOL    HW139512   0.494   3.539   3.552 -0.2330  0.3164 -0.4930
 9350SOL    HW239513   0.566   3.674   3.538  5.2954 -0.7500  2.9174
 9351SOL     OW39514   2.158   2.888  13.506 -0.4752 -0.5763 -0.2488
 9351SOL    HW139515   2.063   2.901  13.513 -0.5928 -1.4829 -0.0873
 9351SOL    HW239516   2.169   2.828  13.432 -5.5415  0.0749 -1.5428
 9352SOL     OW39517   3.148   1.345   7.442  0.0894  0.4175 -0.2009
 9352SOL    HW139518   3.207   1.418   7.422  3.0847 -2.1521 -0.6659
 9352SOL    HW239519   3.110   1.368   7.527 -0.4465 -3.1775  0.5029
 9353SOL     OW39520   4.686   3.943   7.969  0.2422  0.0346 -0.0366
 9353SOL    HW139521   4.692   4.025   8.018  2.3730  1.0938 -2.0623
 9353SOL    HW239522   4.620   3.959   7.901  1.1340  1.8558 -0.4678
 9354SOL     OW39523   0.492   4.214   9.494 -0.3964 -0.3495 -0.2038
 9354SOL    HW139524   0.422   4.212   9.429 -1.3917  0.4542  0.8615
 9354SOL    HW239525   0.563   4.252   9.441  0.5965  0.1803  1.4961
 9355SOL     OW39526   0.368   1.098   2.615  0.6795  0.4494  0.6488
 9355SOL    HW139527   0.302   1.167   2.615  0.5707  0.3455 -0.2552
 9355SOL    HW239528   0.425   1.136   2.548 -0.7665 -0.9700 -1.4039
 9356SOL     OW39529   2.977   2.170   5.505  0.2256  0.0648  0.2576
 9356SOL    HW139530   2.964   2.208   5.418 -1.4218 -0.3917  0.3119
 9356SOL    HW239531   2.895   2.128   5.530 -0.4227  0.7926 -0.6798
 9357SOL     OW39532   0.901   1.101   8.320  0.1518  0.1824 -0.3169
 9357SOL    HW139533   0.808   1.091   8.298  0.6299 -0.0116 -2.2535
 9357SOL    HW239534   0.938   1.053   8.246 -0.1753 -1.8508  0.8324
 9358SOL     OW39535   2.266   1.732   6.757  0.1556  0.0766  0.3624
 9358SOL    HW139536   2.328   1.754   6.826 -0.0627 -0.1990  0.6450
 9358SOL    HW239537   2.214   1.663   6.798  1.5095 -0.0509  1.8677
 9359SOL     OW39538   4.331   2.698  13.401 -1.1659  0.0735  0.2677
 9359SOL    HW139539   4.306   2.672  13.490 -0.6170 -1.1233  0.0650
 9359SOL    HW239540   4.259   2.678  13.341 -0.4191 -0.7702 -0.3416
 9360SOL     OW39541   0.305   1.216   7.732  0.2219  0.1445  0.2622
 9360SOL    HW139542   0.296   1.291   7.673  0.4158 -0.4177 -0.4835
 9360SOL    HW239543   0.220   1.180   7.706 -0.1053 -0.9217  2.7875
 9361SOL     OW39544   0.776   3.162   7.678  0.3051 -0.0177  0.4546
 9361SOL    HW139545   0.763   3.165   7.773 -1.0658 -0.4308  0.2729
 9361SOL    HW239546   0.835   3.087   7.669 -0.3160 -0.8311  3.2087
 9362SOL     OW39547   1.848   0.169   7.906  0.1598 -0.2897  0.0514
 9362SOL    HW139548   1.768   0.219   7.922  0.4286  0.3374 -0.5558
 9362SOL    HW239549   1.804   0.103   7.852  0.4855  0.6165 -1.3396
 9363SOL     OW39550   3.450   3.021   8.619 -0.0448  0.7680 -0.1798
 9363SOL    HW139551   3.476   3.020   8.527  0.7202  1.0114  0.0382
 9363SOL    HW239552   3.369   3.072   8.611 -1.0116 -0.8736 -0.9403
 9364SOL     OW39553   3.086   3.373   7.410 -0.0827  0.5099  0.1283
 9364SOL    HW139554   3.009   3.419   7.441 -0.8423 -0.5305 -0.2206
 9364SOL    HW239555   3.141   3.446   7.380  2.2749 -1.9279 -1.5013
 9365SOL     OW39556   2.829   0.169   3.720 -0.1811 -0.3610  0.0339
 9365SOL    HW139557   2.752   0.156   3.777  0.0254 -0.4874  0.2839
 9365SOL    HW239558   2.826   0.087   3.670 -0.6364 -0.7227  0.6386
 9366SOL     OW39559   3.637   2.736   4.800  0.4270  0.6705 -0.0314
 9366SOL    HW139560   3.729   2.730   4.825  1.1670 -0.5231 -2.9714
 9366SOL    HW239561   3.604   2.808   4.854  0.2752  0.8479 -0.3609
 9367SOL     OW39562   2.735   4.303   2.231 -0.1397  0.2015 -0.0112
 9367SOL    HW139563   2.755   4.261   2.147  0.6090  1.3341 -0.3829
 9367SOL    HW239564   2.749   4.228   2.289 -3.3146 -1.3767 -1.2607
 9368SOL     OW39565   1.602   0.026  10.413 -0.5490 -0.4416 -0.0474
 9368SOL    HW139566   1.552   0.098  10.375 -0.3614 -0.3965 -0.2097
 9368SOL    HW239567   1.562   0.006  10.498  0.7341 -2.0202  0.1997
 9369SOL     OW39568   3.756   0.283   4.570 -0.4260 -0.3765 -0.3557
 9369SOL    HW139569   3.679   0.240   4.606  0.0217  0.3722  1.5246
 9369SOL    HW239570   3.747   0.246   4.482  0.3709 -1.3591 -0.0215
 9370SOL     OW39571   2.016   2.019  11.773 -0.3407  0.1463  0.5582
 9370SOL    HW139572   1.951   1.950  11.786 -1.5223  0.7333 -2.2273
 9370SOL    HW239573   2.074   1.972  11.714  0.2871  1.1503  0.3848
 9371SOL     OW39574   2.866   4.434  11.213 -0.2871 -0.2253  0.1462
 9371SOL    HW139575   2.819   4.368  11.265 -0.2724  0.4124  0.9822
 9371SOL    HW239576   2.951   4.391  11.216  0.3525  0.9491 -1.7623
 9372SOL     OW39577   2.384   0.568   8.442  0.6123  0.1591 -0.2020
 9372SOL    HW139578   2.410   0.607   8.359 -2.3433  0.3224 -1.0561
 9372SOL    HW239579   2.304   0.532   8.405  0.5376  0.0685  0.0432
 9373SOL     OW39580   0.382   0.204   8.513  0.4579  0.3215  0.0386
 9373SOL    HW139581   0.418   0.284   8.549  0.3156  0.1210  0.6251
 9373SOL    HW239582   0.351   0.243   8.431  2.0687  1.0794 -0.2124
 9374SOL     OW39583   4.127   4.000  17.379  0.0027  0.0050 -0.4884
 9374SOL    HW139584   4.208   4.051  17.386  0.7600 -1.4820  1.8808
 9374SOL    HW239585   4.153   3.924  17.327  1.1177 -0.4409  0.6869
 9375SOL     OW39586   3.782   0.753   7.953 -0.1375  0.2211 -0.0234
 9375SOL    HW139587   3.717   0.722   7.890  0.5306 -1.5755  0.1844
 9375SOL    HW239588   3.861   0.700   7.943  0.3377  1.2107 -1.4855
 9376SOL     OW39589   3.672   0.342   2.577  0.2685 -0.2368  0.0039
 9376SOL    HW139590   3.739   0.341   2.509 -2.1707 -0.7166 -2.3951
 9376SOL    HW239591   3.672   0.250   2.602  2.9231 -0.3497 -0.3804
 9377SOL     OW39592   3.832   1.399   5.683 -0.5753  0.3404 -0.9409
 9377SOL    HW139593   3.837   1.488   5.648 -2.4692  1.2289  1.0489
 9377SOL    HW239594   3.911   1.391   5.736 -1.3130  1.0384  0.2777
 9378SOL     OW39595   3.317   4.271   6.953  0.0338 -0.4817 -0.2187
 9378SOL    HW139596   3.250   4.310   7.010  0.7705  0.2767  0.1288
 9378SOL    HW239597   3.338   4.198   7.012 -0.1097  0.0385  0.4817
 9379SOL     OW39598   1.125   2.895  13.230 -0.3434 -0.4756 -0.1893
 9379SOL    HW139599   1.139   2.830  13.161  0.8305  1.0574 -1.3789
 9379SOL    HW239600   1.181   2.965  13.196 -0.6586  0.5732  1.4269
 9380SOL     OW39601   1.231   0.277   4.439  0.1370  0.0029 -0.3729
 9380SOL    HW139602   1.168   0.209   4.418 -1.0004  0.7290  0.6841
 9380SOL    HW239603   1.275   0.283   4.354  1.2869  1.6102  0.3258
 9381SOL     OW39604   3.165   3.608  11.025 -0.0710  0.7158 -0.6608
 9381SOL    HW139605   3.242   3.594  11.080 -0.0830  1.7244 -0.3920
 9381SOL    HW239606   3.141   3.522  10.992 -2.4627  0.2534  2.3009
 9382SOL     OW39607   0.201   1.466   8.222  0.2340 -0.1133 -0.1544
 9382SOL    HW139608   0.228   1.410   8.149  3.2491 -1.1639  1.7976
 9382SOL    HW239609   0.106   1.477   8.214  0.1078 -2.3901 -1.9327
 9383SOL     OW39610   4.176   2.381   8.239 -0.3245 -0.0722  0.4115
 9383SOL    HW139611   4.105   2.428   8.282  1.1096  2.1081  0.3752
 9383SOL    HW239612   4.126   2.314   8.192 -0.7321 -0.8285  1.9061
 9384SOL     OW39613   2.708   3.278   7.112  0.0634  0.2156  0.0400
 9384SOL    HW139614   2.693   3.192   7.072  1.9535  0.4666 -1.2393
 9384SOL    HW239615   2.632   3.327   7.081  0.1684  0.1282 -0.3645
 9385SOL     OW39616   2.280   1.796  13.072 -0.2503 -0.6167 -0.6702
 9385SOL    HW139617   2.356   1.740  13.092  0.9001  1.1493 -0.0773
 9385SOL    HW239618   2.324   1.881  13.067 -2.1736  0.4345  0.6405
 9386SOL     OW39619   0.658   4.503   6.286  0.2556 -0.1687 -0.1164
 9386SOL    HW139620   0.700   4.574   6.238 -2.1624  1.1653 -0.2943
 9386SOL    HW239621   0.632   4.451   6.210  2.6192 -1.9590  0.3201
 9387SOL     OW39622   3.988   2.409   3.229  0.6027  0.1276  0.2492
 9387SOL    HW139623   4.078   2.379   3.215  0.2143 -1.6255  1.5149
 9387SOL    HW239624   3.954   2.347   3.294  0.4077 -0.4078 -0.3655
 9388SOL     OW39625   0.013   3.043  12.499  0.2658 -0.3862 -0.4104
 9388SOL    HW139626   4.677   3.105  12.540  0.8670  0.7599 -1.2477
 9388SOL    HW239627   0.064   3.027  12.578 -0.3415  0.4322  0.1434
 9389SOL     OW39628   1.772   4.567   0.528  0.1697  0.8288 -0.3185
 9389SOL    HW139629   1.860   4.568   0.491  0.4545  0.8177  0.3450
 9389SOL    HW239630   1.775   4.490   0.586 -1.8423 -0.0144 -1.3533
 9390SOL     OW39631   2.212   3.516   7.649 -0.3247  0.4984  0.2386
 9390SOL    HW139632   2.233   3.459   7.722  2.8186  1.4190  0.0492
 9390SOL    HW239633   2.283   3.579   7.644  1.5780 -1.6012  0.6922
 9391SOL     OW39634   0.909   0.778  12.459  0.1352  0.0427 -0.1397
 9391SOL    HW139635   0.951   0.823  12.532  2.0992 -1.2328 -0.4751
 9391SOL    HW239636   0.975   0.712  12.438 -0.6913  0.0384 -2.7648
 9392SOL     OW39637   3.724   1.919   5.404  0.2601 -0.2612  0.8879
 9392SOL    HW139638   3.667   1.919   5.480 -0.3133  0.1631  0.4608
 9392SOL    HW239639   3.651   1.897   5.347  0.2730  1.9832 -0.0125
 9393SOL     OW39640   4.378   1.878   1.287 -0.7811  0.5777 -0.1657
 9393SOL    HW139641   4.424   1.899   1.205 -0.9122  1.5080 -0.0056
 9393SOL    HW239642   4.433   1.918   1.354  1.5134 -3.9302  0.5877
 9394SOL     OW39643   4.197   0.204  15.875  0.2772  0.0825 -0.5615
 9394SOL    HW139644   4.102   0.197  15.862  0.2305 -2.2140  1.0698
 9394SOL    HW239645   4.199   0.244  15.962 -2.3748  1.0254 -0.9139
 9395SOL     OW39646   2.481   2.498   3.092  0.0203 -0.1392  0.0593
 9395SOL    HW139647   2.477   2.576   3.037  1.7607  0.0438  0.1850
 9395SOL    HW239648   2.550   2.449   3.047 -0.9149 -0.1766 -1.3318
 9396SOL     OW39649   0.603   0.194  11.220 -0.4276 -0.0879 -0.6498
 9396SOL    HW139650   0.670   0.259  11.242 -0.1787 -0.7528  0.6061
 9396SOL    HW239651   0.555   0.243  11.153 -0.6963 -0.0640 -0.4417
 9397SOL     OW39652   1.123   3.072   2.775 -0.3747  0.4336 -0.5288
 9397SOL    HW139653   1.070   3.122   2.714 -0.6061 -0.2612 -0.8953
 9397SOL    HW239654   1.124   2.986   2.733 -0.9789 -0.8520  2.0791
 9398SOL     OW39655   2.380   1.782   1.916 -0.2459 -0.4562  0.4848
 9398SOL    HW139656   2.407   1.714   1.979  0.1533 -1.4399 -0.7453
 9398SOL    HW239657   2.315   1.836   1.962  0.7394  0.1576  1.1649
 9399SOL     OW39658   3.520   2.337   2.759  0.5977 -0.4712 -0.0609
 9399SOL    HW139659   3.608   2.371   2.776 -0.2907  0.7402  2.0376
 9399SOL    HW239660   3.544   2.249   2.728 -0.7288 -0.5984 -0.7293
 9400SOL     OW39661   3.629   4.443   3.810 -0.5108  0.3467 -0.2948
 9400SOL    HW139662   3.627   4.349   3.826 -1.1787  0.3629 -0.2539
 9400SOL    HW239663   3.591   4.454   3.722  0.4178  0.7918 -0.6399
 9401SOL     OW39664   0.934   2.915  13.779  0.0465 -0.0403 -0.4049
 9401SOL    HW139665   0.880   2.842  13.749  0.1456 -0.0472 -0.5665
 9401SOL    HW239666   0.872   2.988  13.769  0.3298 -0.0014 -1.9596
 9402SOL     OW39667   3.830   2.921  17.412 -0.2075  0.0005 -0.6722
 9402SOL    HW139668   3.767   2.855  17.384  0.0333 -1.3520  1.9624
 9402SOL    HW239669   3.820   2.920  17.507  0.2553  1.0353 -0.6042
 9403SOL     OW39670   4.346   2.267  10.526 -0.2598  0.1854  0.4382
 9403SOL    HW139671   4.255   2.285  10.503  0.1189 -1.4730 -2.3547
 9403SOL    HW239672   4.395   2.289  10.447 -0.4060 -1.6607 -0.1592
 9404SOL     OW39673   3.534   1.443  15.650 -0.5328 -0.3445 -0.0550
 9404SOL    HW139674   3.590   1.494  15.707 -0.5457 -0.1347 -0.2282
 9404SOL    HW239675   3.566   1.355  15.670 -1.1431 -0.3903  0.7176
 9405SOL     OW39676   0.266   1.729  11.944  0.3713 -0.0980 -0.3374
 9405SOL    HW139677   0.262   1.668  12.018  4.8100 -3.0310 -2.5275
 9405SOL    HW239678   0.359   1.750  11.939  0.2443  1.1909  2.5196
 9406SOL     OW39679   3.760   2.541   9.687  0.4924 -0.0434  0.1614
 9406SOL    HW139680   3.759   2.628   9.726  1.4178 -0.4435  1.0670
 9406SOL    HW239681   3.854   2.525   9.683  0.6727  0.7711  1.2790
 9407SOL     OW39682   0.980   0.142   4.334  0.2174  0.5621  0.0890
 9407SOL    HW139683   0.905   0.090   4.307 -0.7584  0.8593  2.1576
 9407SOL    HW239684   0.944   0.227   4.359 -0.0038  0.7085 -0.7492
 9408SOL     OW39685   1.162   2.009   7.131  0.4983 -0.0513 -0.7923
 9408SOL    HW139686   1.228   1.994   7.198  0.5108 -0.0475 -0.8038
 9408SOL    HW239687   1.213   1.988   7.053  0.4008  0.0911 -0.8931
 9409SOL     OW39688   3.059   2.304  13.375 -0.4399 -0.3576 -0.1134
 9409SOL    HW139689   3.013   2.383  13.405 -1.3728 -1.4821  1.4236
 9409SOL    HW239690   3.110   2.281  13.453 -1.7649 -1.9332  0.2840
 9410SOL     OW39691   0.459   4.237   5.558  0.0872 -0.1838  0.6812
 9410SOL    HW139692   0.419   4.153   5.583 -0.3784 -0.4989 -1.0687
 9410SOL    HW239693   0.397   4.273   5.495 -0.6291 -0.2152  1.3636
 9411SOL     OW39694   3.500   1.620   4.638 -0.1810  0.0409 -0.0349
 9411SOL    HW139695   3.443   1.685   4.596 -2.3960 -0.4625  2.2046
 9411SOL    HW239696   3.561   1.602   4.567  0.5871  0.4374  0.5278
 9412SOL     OW39697   0.895   3.640   1.738  0.1137  0.1586 -0.1803
 9412SOL    HW139698   0.883   3.680   1.651 -1.7434 -0.6793 -0.3203
 9412SOL    HW239699   0.847   3.701   1.793  0.4314  0.1543  0.0974
 9413SOL     OW39700   0.449   1.379  13.047 -0.8924  0.1495  0.0369
 9413SOL    HW139701   0.480   1.467  13.028 -1.7313  0.8301  1.8523
 9413SOL    HW239702   0.425   1.383  13.139  1.1269  0.4160  0.5419
 9414SOL     OW39703   1.492   0.396   9.833  0.0034 -0.0545 -0.7668
 9414SOL    HW139704   1.545   0.317   9.823  0.2158 -0.0152  0.0817
 9414SOL    HW239705   1.403   0.363   9.818  0.7391 -1.2167 -2.5909
 9415SOL     OW39706   0.656   0.310   1.294 -0.0758  0.5226 -0.2651
 9415SOL    HW139707   0.602   0.388   1.281 -0.4226  0.6072  1.6735
 9415SOL    HW239708   0.694   0.323   1.381 -1.9757 -1.9981  0.9440
 9416SOL     OW39709   1.140   4.511   2.115 -0.2991  0.8588  0.0788
 9416SOL    HW139710   1.102   4.518   2.028 -1.2581  0.6565  0.4851
 9416SOL    HW239711   1.062   4.479   2.160 -0.7587  0.3795 -1.0674
 9417SOL     OW39712   3.974   1.607   3.953 -0.4083 -0.0391  0.1886
 9417SOL    HW139713   3.931   1.682   3.995  0.5619  2.2850 -2.9942
 9417SOL    HW239714   3.893   1.581   3.911 -1.5745  0.1280  2.3056
 9418SOL     OW39715   3.534   4.212  13.503 -0.4667  0.4313 -0.1659
 9418SOL    HW139716   3.493   4.184  13.421 -1.0800 -0.7984  0.5515
 9418SOL    HW239717   3.485   4.292  13.520 -2.2550 -1.3115  2.7237
 9419SOL     OW39718   3.462   3.267   5.950  0.1586  0.3749  0.3912
 9419SOL    HW139719   3.519   3.343   5.944  2.5733 -1.4023  0.6126
 9419SOL    HW239720   3.419   3.263   5.865 -0.5614  1.2895  0.7212
 9420SOL     OW39721   0.108   0.065  12.924 -0.1203 -0.8348 -0.5289
 9420SOL    HW139722   0.187   0.118  12.926 -0.5841 -0.0609 -2.6861
 9420SOL    HW239723   0.119   0.023  13.009 -2.3876 -0.4839 -0.0778
 9421SOL     OW39724   1.594   1.626   3.708 -0.7213  0.7869  0.2137
 9421SOL    HW139725   1.573   1.544   3.752  0.1354  0.5547  0.1824
 9421SOL    HW239726   1.677   1.607   3.665  0.2148 -0.1672  2.4800
 9422SOL     OW39727   4.651   3.776   6.264  0.1328 -0.1334  0.1606
 9422SOL    HW139728   0.019   3.749   6.276  0.1532 -0.0834  0.1147
 9422SOL    HW239729   4.652   3.831   6.186 -1.0000  1.0293  0.9864
 9423SOL     OW39730   2.493   2.977   6.801 -0.4684 -0.4318 -0.1636
 9423SOL    HW139731   2.436   3.054   6.798 -1.9936 -1.5490  0.1583
 9423SOL    HW239732   2.562   3.004   6.861 -0.9383 -0.3884  0.3543
 9424SOL     OW39733   1.791   4.508   5.773  0.3197 -0.6567 -0.1256
 9424SOL    HW139734   1.769   4.476   5.685 -1.3538  1.0436 -0.3303
 9424SOL    HW239735   1.880   4.541   5.760  0.6073 -0.3671  2.6566
 9425SOL     OW39736   3.893   3.269   6.097 -0.1391 -0.0964  0.6800
 9425SOL    HW139737   3.825   3.279   6.163 -0.8826 -2.2418  0.2499
 9425SOL    HW239738   3.902   3.359   6.067 -1.6130  0.0408  0.6847
 9426SOL     OW39739   0.581   4.712   3.939 -0.2390  0.3173 -0.2955
 9426SOL    HW139740   0.550   0.036   4.016  1.8368 -0.3517  0.9874
 9426SOL    HW239741   0.547   0.047   3.872  0.2017  0.7122 -0.1717
 9427SOL     OW39742   1.725   0.943   2.074  0.2520 -0.2661  0.2263
 9427SOL    HW139743   1.740   1.034   2.051  0.2523 -0.8469 -2.1336
 9427SOL    HW239744   1.695   0.907   1.991  0.4747  2.2582 -0.9250
 9428SOL     OW39745   3.591   2.307   3.071 -0.8716 -0.5625 -0.1501
 9428SOL    HW139746   3.602   2.265   3.157 -0.2035 -2.2427 -1.0577
 9428SOL    HW239747   3.657   2.375   3.079 -1.5299 -0.0260  0.8138
 9429SOL     OW39748   0.993   1.698   8.887  0.3813  0.1157  0.4422
 9429SOL    HW139749   0.901   1.673   8.878  0.9780 -1.3587 -1.6340
 9429SOL    HW239750   0.973   1.791   8.898  0.2174  0.2035 -0.5954
 9430SOL     OW39751   2.472   4.338   4.864 -0.1808  0.0598  0.0425
 9430SOL    HW139752   2.491   4.268   4.801  1.9039  1.5932 -1.0170
 9430SOL    HW239753   2.475   4.413   4.804  1.4883  1.5354  1.9807
 9431SOL     OW39754   0.137   4.021   9.522 -0.2550 -0.1384 -0.4182
 9431SOL    HW139755   0.230   4.006   9.506 -0.1122  0.4042 -0.1067
 9431SOL    HW239756   0.148   4.107   9.563 -2.7364 -0.1163  0.1771
 9432SOL     OW39757   3.316   1.521  10.034  0.0201 -0.3922  0.4482
 9432SOL    HW139758   3.348   1.473  10.110  2.1708 -0.5442 -0.5607
 9432SOL    HW239759   3.336   1.611  10.060 -1.0640 -0.3425  1.0880
 9433SOL     OW39760   0.595   4.026   7.860 -0.3068 -0.7316 -0.2505
 9433SOL    HW139761   0.603   4.120   7.873 -0.0574 -0.8579  0.4811
 9433SOL    HW239762   0.514   4.004   7.904 -0.5071  1.0649  0.2556
 9434SOL     OW39763   3.884   1.535   6.549 -0.3391  0.5790 -0.4193
 9434SOL    HW139764   3.922   1.572   6.469  0.3756  2.0674  0.5807
 9434SOL    HW239765   3.959   1.544   6.608  2.5354 -0.1873 -3.9715
 9435SOL     OW39766   1.195   0.547  15.487  0.4470 -0.4646 -0.2841
 9435SOL    HW139767   1.173   0.535  15.579 -1.6433  0.9282 -0.5924
 9435SOL    HW239768   1.256   0.477  15.468  0.8559 -0.4232  0.8846
 9436SOL     OW39769   3.098   1.791   3.044  0.1146  0.1682  0.5836
 9436SOL    HW139770   3.122   1.743   2.965 -3.9934  2.4497 -2.1174
 9436SOL    HW239771   3.059   1.722   3.098  1.5381  1.7556  3.6258
 9437SOL     OW39772   1.301   1.970   4.503  0.0410  0.6012 -0.2887
 9437SOL    HW139773   1.214   1.963   4.466  0.2555  0.1219 -0.6963
 9437SOL    HW239774   1.348   2.028   4.442  1.9323 -0.3418  0.2549
 9438SOL     OW39775   3.093   3.221   0.117 -0.0146  0.3891 -0.2784
 9438SOL    HW139776   3.085   3.196   0.209  0.8252  0.1842 -0.2634
 9438SOL    HW239777   3.005   3.193   0.090  0.3529 -3.2092  2.2131
 9439SOL     OW39778   4.371   3.173   3.783  0.4049 -0.1649  0.2608
 9439SOL    HW139779   4.334   3.152   3.869 -0.8503  0.2542 -0.1789
 9439SOL    HW239780   4.304   3.229   3.746 -0.3783 -0.4349  1.2704
 9440SOL     OW39781   0.742   1.889   5.363 -0.2334 -0.2395  0.3191
 9440SOL    HW139782   0.721   1.982   5.368  3.1922  0.5501  0.3867
 9440SOL    HW239783   0.687   1.865   5.438 -0.5227  1.2933  0.6049
 9441SOL     OW39784   4.392   3.584   3.592  0.6709  0.0757  0.3953
 9441SOL    HW139785   4.457   3.563   3.659 -0.0976  0.2079  1.1690
 9441SOL    HW239786   4.324   3.573   3.658  0.4237 -0.9569 -0.0206
 9442SOL     OW39787   4.370   1.918   2.142 -0.3205  0.2242 -0.3092
 9442SOL    HW139788   4.281   1.884   2.144  0.4048 -1.7737 -2.0206
 9442SOL    HW239789   4.429   1.854   2.183 -0.1384 -0.5357 -1.7368
 9443SOL     OW39790   0.410   1.677   9.528  0.4179 -0.6569  0.4510
 9443SOL    HW139791   0.478   1.688   9.594  1.2983  1.2271 -0.7615
 9443SOL    HW239792   0.386   1.588   9.554  1.1321 -0.8764  0.3615
 9444SOL     OW39793   2.267   1.575  13.721  0.3349 -0.1339 -0.1788
 9444SOL    HW139794   2.261   1.518  13.798  1.8647  0.7233  0.5788
 9444SOL    HW239795   2.177   1.608  13.722 -0.0498 -1.1614 -0.2381
 9445SOL     OW39796   0.268   4.173  15.406  0.1851 -0.1675 -0.5706
 9445SOL    HW139797   0.305   4.233  15.471  1.1534 -0.9357 -0.4121
 9445SOL    HW239798   0.344   4.116  15.397  0.9817  1.1702 -2.1831
 9446SOL     OW39799   3.115   2.024   8.600  0.1189  0.0563 -0.0243
 9446SOL    HW139800   3.196   1.982   8.630  1.7562  1.5490 -2.3321
 9446SOL    HW239801   3.143   2.071   8.521 -0.4498  2.8724  1.4725
 9447SOL     OW39802   4.478   2.436   1.021  0.7088 -0.5369  0.0160
 9447SOL    HW139803   4.573   2.444   1.007  0.7709  1.2512  1.4145
 9447SOL    HW239804   4.471   2.345   1.050 -0.8948 -0.9795 -1.8015
 9448SOL     OW39805   2.461   0.422   7.558 -0.4968 -0.2117  0.2368
 9448SOL    HW139806   2.407   0.389   7.487  0.7821 -1.3019 -0.2292
 9448SOL    HW239807   2.504   0.337   7.562 -0.2893 -0.1421 -0.4286
 9449SOL     OW39808   2.529   3.445   5.266 -0.1495  0.1058  0.1639
 9449SOL    HW139809   2.584   3.431   5.189 -1.3249 -0.6106 -0.5419
 9449SOL    HW239810   2.463   3.496   5.220  0.0257 -2.1367 -2.6195
 9450SOL     OW39811   4.300   4.373   1.396  0.2677 -0.0370  0.3047
 9450SOL    HW139812   4.265   4.299   1.348 -0.1265  0.0250  0.4921
 9450SOL    HW239813   4.219   4.399   1.441 -1.0524 -1.4818 -1.2650
 9451SOL     OW39814   2.741   2.921   8.932  0.2573 -0.5504  0.2223
 9451SOL    HW139815   2.713   3.012   8.942 -1.3189 -1.0557  0.3741
 9451SOL    HW239816   2.790   2.924   9.014 -3.1747  1.6315  2.1791
 9452SOL     OW39817   3.099   4.042   3.325  0.0876 -0.4120 -0.5389
 9452SOL    HW139818   3.083   4.024   3.417  0.9482  0.3765 -0.2340
 9452SOL    HW239819   3.071   3.967   3.272  0.3632 -0.3929 -0.7133
 9453SOL     OW39820   0.459   2.458   8.250 -0.1719 -0.1239  0.2669
 9453SOL    HW139821   0.479   2.387   8.189  1.3442  1.6268 -1.2513
 9453SOL    HW239822   0.367   2.441   8.273 -0.0923  1.7164  1.9171
 9454SOL     OW39823   0.132   4.529   8.692 -0.1603 -0.1567  0.3854
 9454SOL    HW139824   0.196   4.593   8.662 -0.9703 -0.2447 -1.5366
 9454SOL    HW239825   0.096   4.493   8.611  2.3464 -2.3271  0.2598
 9455SOL     OW39826   0.531   0.008   6.797  0.1010 -0.2933  0.1096
 9455SOL    HW139827   0.542   4.637   6.789 -2.3359 -0.6201  0.8058
 9455SOL    HW239828   0.535   0.016   6.893 -2.7639  1.3289  0.0782
 9456SOL     OW39829   4.499   3.617   7.737 -0.5551 -0.1120  0.2356
 9456SOL    HW139830   4.574   3.594   7.792  0.4642 -0.4032 -1.2751
 9456SOL    HW239831   4.501   3.539   7.682  2.5251  1.2253 -1.5722
 9457SOL     OW39832   4.018   0.881   4.008 -0.5100  0.3108 -0.3993
 9457SOL    HW139833   3.947   0.822   4.034 -1.1540  1.3980  0.2734
 9457SOL    HW239834   4.066   0.813   3.960  0.8026  1.4927 -0.7732
 9458SOL     OW39835   2.869   1.732  10.902 -0.0557 -0.3233  0.0503
 9458SOL    HW139836   2.846   1.823  10.922 -0.3379 -0.6501  1.2072
 9458SOL    HW239837   2.956   1.741  10.864  0.3892 -1.2397  0.8451
 9459SOL     OW39838   4.608   0.975   0.818 -0.1884 -0.6140 -0.5092
 9459SOL    HW139839   4.607   0.919   0.740  0.0577  1.0840 -1.7330
 9459SOL    HW239840   4.514   0.981   0.832  0.0033 -0.4153  0.7408
 9460SOL     OW39841   3.676   1.665   9.173  0.5464  0.4407  0.3336
 9460SOL    HW139842   3.650   1.684   9.263  2.5118  0.1716  0.9463
 9460SOL    HW239843   3.593   1.697   9.137  1.0965  0.5972 -0.7924
 9461SOL     OW39844   4.288   2.219   1.317  0.7319 -0.5531 -0.3692
 9461SOL    HW139845   4.367   2.218   1.262  0.0905 -2.1040 -1.2487
 9461SOL    HW239846   4.330   2.219   1.403  0.3435  1.0588 -0.1883
 9462SOL     OW39847   0.185   3.708  11.514 -0.0353 -0.4642  0.0200
 9462SOL    HW139848   0.190   3.615  11.538 -0.2280 -0.4447  0.1318
 9462SOL    HW239849   0.193   3.692  11.420  1.4598 -1.7564  0.3581
 9463SOL     OW39850   0.223   4.143   4.514 -0.1214  0.0422  0.0713
 9463SOL    HW139851   0.226   4.124   4.608 -0.6569 -2.9406 -0.5176
 9463SOL    HW239852   0.197   4.235   4.510  0.0247  0.0240 -1.3843
 9464SOL     OW39853   4.067   1.072   6.822  0.2190 -0.3211  0.7978
 9464SOL    HW139854   4.117   1.000   6.860  0.8197  0.6030  1.7562
 9464SOL    HW239855   4.128   1.102   6.754 -0.1419 -1.4423 -0.0288
 9465SOL     OW39856   2.129   2.979  16.317  0.3929  0.0487  0.2575
 9465SOL    HW139857   2.204   3.030  16.286  0.0812  0.0692 -0.4727
 9465SOL    HW239858   2.053   3.012  16.269  1.7466 -0.1035 -2.0076
 9466SOL     OW39859   0.065   3.827   1.034  0.0836 -0.0112 -0.2494
 9466SOL    HW139860   0.127   3.771   0.987  0.7076  1.5147 -1.2406
 9466SOL    HW239861   0.125   3.844   1.106 -0.4638 -0.1406  0.2426
 9467SOL     OW39862   1.873   4.399   4.930  0.7494 -0.2073 -0.0210
 9467SOL    HW139863   1.814   4.327   4.909  1.5961 -1.1951  0.9562
 9467SOL    HW239864   1.912   4.427   4.847  0.8829 -0.5804 -0.0847
 9468SOL     OW39865   4.116   4.208  16.337  1.0300 -0.6381 -0.3101
 9468SOL    HW139866   4.191   4.201  16.277  0.5856 -0.2178 -0.9254
 9468SOL    HW239867   4.161   4.237  16.416 -1.6884 -0.9612  1.3714
 9469SOL     OW39868   2.719   2.139   8.217  0.2952  0.7581 -0.0688
 9469SOL    HW139869   2.801   2.109   8.178  0.7958 -0.0265  1.5977
 9469SOL    HW239870   2.683   2.054   8.242  1.0707  0.3110 -0.4856
 9470SOL     OW39871   2.173   0.731  15.827 -0.3287 -0.5738  0.4482
 9470SOL    HW139872   2.223   0.785  15.887  0.3857 -0.0242 -0.6360
 9470SOL    HW239873   2.184   0.644  15.863 -0.0838 -1.4743 -1.7634
 9471SOL     OW39874   1.586   3.738   9.197  0.6338 -0.2082  0.6295
 9471SOL    HW139875   1.658   3.747   9.259  1.0459  1.6383 -0.1220
 9471SOL    HW239876   1.570   3.830   9.176  1.0558  0.4726  3.4111
 9472SOL     OW39877   0.835   1.860   6.424  0.1350  0.5935  0.1178
 9472SOL    HW139878   0.766   1.798   6.449  0.2473  0.1220 -0.7459
 9472SOL    HW239879   0.840   1.912   6.505  0.2163  1.0260 -0.1688
 9473SOL     OW39880   1.365   3.168   6.084  0.2151  0.3284 -0.0829
 9473SOL    HW139881   1.298   3.150   6.018 -2.1784 -0.1765  2.4881
 9473SOL    HW239882   1.356   3.262   6.096 -2.8099  0.4513 -3.1047
 9474SOL     OW39883   2.566   4.368  12.348  0.3996 -0.0083 -0.2642
 9474SOL    HW139884   2.645   4.316  12.364  1.0801  1.1751  0.2598
 9474SOL    HW239885   2.608   4.451  12.371  2.3534 -0.9990 -0.1978
 9475SOL     OW39886   0.954   1.352   8.948 -0.1248 -0.7824 -0.5604
 9475SOL    HW139887   1.040   1.366   8.987  0.5003 -0.9207 -1.9022
 9475SOL    HW239888   0.904   1.328   9.026  1.4053 -1.3029  0.2580
 9476SOL     OW39889   0.140   4.437   4.468 -0.0848 -0.8984 -0.5853
 9476SOL    HW139890   0.228   4.470   4.480 -1.3174  2.1154  0.0818
 9476SOL    HW239891   0.129   4.442   4.373 -0.3118 -2.2422 -0.6405
 9477SOL     OW39892   0.075   2.148   6.173  0.1935  0.3231  0.4029
 9477SOL    HW139893   0.161   2.166   6.137  0.9547  0.4533  2.2605
 9477SOL    HW239894   0.036   2.234   6.155  1.0946  0.1609 -2.2870
 9478SOL     OW39895   4.194   2.247   0.212  0.3606  0.1743  0.1028
 9478SOL    HW139896   4.232   2.270   0.127 -0.1455 -1.5481 -0.5873
 9478SOL    HW239897   4.102   2.261   0.194  0.2151 -2.1309 -0.9705
 9479SOL     OW39898   3.309   4.274   7.891 -0.2480 -0.1339  0.5002
 9479SOL    HW139899   3.252   4.351   7.886 -2.8604 -1.9776  2.0855
 9479SOL    HW239900   3.364   4.302   7.963  0.9970  2.2209 -1.3472
 9480SOL     OW39901   2.453   1.452   5.065 -0.3350  0.0021  0.5026
 9480SOL    HW139902   2.517   1.476   4.998 -1.1016  1.1628  0.2052
 9480SOL    HW239903   2.459   1.529   5.121 -0.6677 -0.0101  0.5545
 9481SOL     OW39904   4.428   1.908  17.269 -0.2025 -0.1441 -0.5522
 9481SOL    HW139905   4.506   1.857  17.291  0.2169  0.1640 -1.3376
 9481SOL    HW239906   4.419   1.969  17.343 -0.8042 -0.6830 -0.1831
 9482SOL     OW39907   4.406   2.348  16.920  0.2905 -0.2637 -0.4105
 9482SOL    HW139908   4.423   2.442  16.913  0.4143 -0.3643 -1.4261
 9482SOL    HW239909   4.391   2.338  17.014 -2.7778 -1.4522 -1.0210
 9483SOL     OW39910   2.941   2.518   7.527 -0.1445  0.7059  0.1881
 9483SOL    HW139911   3.019   2.554   7.571 -0.3889  1.3160  0.1136
 9483SOL    HW239912   2.893   2.600   7.518  0.8892  1.4417  1.3860
 9484SOL     OW39913   2.219   2.014   8.544 -0.1764  0.5352 -0.0955
 9484SOL    HW139914   2.309   2.045   8.538  0.0605 -0.2042 -0.3122
 9484SOL    HW239915   2.214   1.979   8.633 -2.3862 -1.9282 -1.1977
 9485SOL     OW39916   1.974   1.339   5.845 -0.3789 -0.4304 -0.0088
 9485SOL    HW139917   1.931   1.272   5.898  0.9602  0.0981  1.7336
 9485SOL    HW239918   2.061   1.333   5.884 -0.3453 -0.4992 -0.0934
 9486SOL     OW39919   3.902   2.005   3.499 -0.1499  0.5410  0.0826
 9486SOL    HW139920   3.849   1.927   3.480 -1.0363  1.3913 -0.9183
 9486SOL    HW239921   3.983   1.980   3.456  0.1425 -1.1239  1.5883
 9487SOL     OW39922   1.944   3.958  10.059 -0.4907  0.3575 -0.4270
 9487SOL    HW139923   2.002   3.981  10.132 -1.8178 -0.8822  1.0172
 9487SOL    HW239924   1.996   3.989   9.985 -1.9994  2.0090 -0.7936
 9488SOL     OW39925   4.721   2.907   5.712  0.0562  0.5556  0.1674
 9488SOL    HW139926   0.030   2.866   5.792  0.5149 -1.1153 -0.8818
 9488SOL    HW239927   4.690   2.831   5.664 -1.2605  2.3511 -1.7718
 9489SOL     OW39928   0.659   3.708   5.782  0.1352 -0.1146 -0.1179
 9489SOL    HW139929   0.639   3.770   5.712 -0.8733 -1.1666 -0.7704
 9489SOL    HW239930   0.655   3.621   5.741  0.9524 -1.2291  2.1976
 9490SOL     OW39931   2.711   0.376   5.299 -0.2112  0.3739 -0.1791
 9490SOL    HW139932   2.652   0.300   5.307 -1.3165  1.0541 -1.8491
 9490SOL    HW239933   2.711   0.396   5.206 -2.7321 -0.6133 -0.4028
 9491SOL     OW39934   2.849   4.508   2.965  0.3661  0.0303  0.4980
 9491SOL    HW139935   2.874   4.537   2.877  2.6351 -0.1680  1.0939
 9491SOL    HW239936   2.774   4.450   2.952  1.2945 -1.6816  2.8365
 9492SOL     OW39937   1.421   1.008  10.875  0.5291 -0.3266  0.5869
 9492SOL    HW139938   1.387   1.029  10.788 -0.9036  1.1361  1.4997
 9492SOL    HW239939   1.505   1.051  10.862 -1.4308  2.5237 -2.7745
 9493SOL     OW39940   3.962   1.465   5.061 -0.0376  0.0499  0.1156
 9493SOL    HW139941   3.878   1.444   5.101  1.3987  0.1300  3.1960
 9493SOL    HW239942   3.964   1.396   4.994  0.7507  0.5910 -0.4205
 9494SOL     OW39943   1.396   2.095   3.534  0.5967  0.0790 -0.1193
 9494SOL    HW139944   1.392   2.000   3.544 -0.1001  0.2483  1.1425
 9494SOL    HW239945   1.475   2.094   3.479  0.5268  0.1102 -0.2211
 9495SOL     OW39946   0.677   3.673   9.395  0.0280  0.1140  0.0944
 9495SOL    HW139947   0.649   3.752   9.349  3.3482  1.0831 -0.2492
 9495SOL    HW239948   0.601   3.618   9.380  0.5258 -0.5637  0.0587
 9496SOL     OW39949   1.107   0.770   6.179 -0.1090  0.3314  0.4434
 9496SOL    HW139950   1.077   0.847   6.131 -0.5846 -0.9356 -1.3178
 9496SOL    HW239951   1.050   0.778   6.256 -2.1212 -1.8815 -0.7933
 9497SOL     OW39952   4.191   2.841   1.316 -0.4856 -0.2084  0.2926
 9497SOL    HW139953   4.169   2.810   1.404 -1.4779 -0.4436 -0.0357
 9497SOL    HW239954   4.103   2.859   1.283 -0.0371  0.3114 -0.6390
 9498SOL     OW39955   1.785   2.281  16.330  0.0891  0.1671 -0.6148
 9498SOL    HW139956   1.764   2.198  16.372  0.0377  0.6122  0.2365
 9498SOL    HW239957   1.842   2.324  16.394  0.0822  1.0743 -1.2121
 9499SOL     OW39958   4.428   0.174  15.741  0.0103 -0.1894  0.0442
 9499SOL    HW139959   4.361   0.189  15.807  2.0124  1.1203  1.7670
 9499SOL    HW239960   4.384   0.151  15.659 -1.2772  2.5621 -0.0293
 9500SOL     OW39961   4.254   3.225  12.701 -0.0183  0.2755 -0.0903
 9500SOL    HW139962   4.251   3.132  12.683 -4.1846 -0.1322  2.6432
 9500SOL    HW239963   4.249   3.218  12.797  1.1634 -0.9896 -0.1252
 9501SOL     OW39964   2.834   3.444   7.919  0.3870  0.0191 -0.7090
 9501SOL    HW139965   2.929   3.453   7.911  0.6669 -2.3595 -0.2315
 9501SOL    HW239966   2.813   3.513   7.857  0.8087 -1.9834 -3.0780
 9502SOL     OW39967   4.332   2.612   2.841 -0.3547 -0.9432 -0.0533
 9502SOL    HW139968   4.406   2.620   2.780 -1.2337  2.1827 -0.7370
 9502SOL    HW239969   4.254   2.629   2.788 -0.8954 -2.2142  0.3459
 9503SOL     OW39970   4.593   0.257   5.228 -0.2911 -0.1969  0.3454
 9503SOL    HW139971   4.644   0.179   5.249  1.3668  0.7479 -0.1539
 9503SOL    HW239972   4.520   0.248   5.289 -0.9070 -0.5546 -0.4501
 9504SOL     OW39973   1.757   2.363  14.661 -0.1300 -0.0036 -0.7731
 9504SOL    HW139974   1.696   2.399  14.596 -0.7475  3.3720  1.6571
 9504SOL    HW239975   1.746   2.427  14.732 -2.6997  0.7228 -1.8000
 9505SOL     OW39976   2.092   3.052   5.592  0.7924 -0.0182 -0.3094
 9505SOL    HW139977   2.051   3.129   5.632  0.0978 -0.0348 -0.9908
 9505SOL    HW239978   2.024   2.987   5.606  0.5589  0.2051 -0.4059
 9506SOL     OW39979   3.195   0.308  10.918  0.2826  0.0647 -0.3668
 9506SOL    HW139980   3.283   0.274  10.902  0.4510  0.6219 -0.6198
 9506SOL    HW239981   3.212   0.401  10.936 -1.1960  0.1383  0.6315
 9507SOL     OW39982   3.424   3.175   2.084 -0.1282  0.1581 -0.0457
 9507SOL    HW139983   3.408   3.267   2.105 -0.3229 -0.0889  0.9069
 9507SOL    HW239984   3.510   3.160   2.124  0.2153 -0.8384 -1.1684
 9508SOL     OW39985   2.384   2.966   8.143  0.1919  0.5947  0.1210
 9508SOL    HW139986   2.419   2.880   8.118 -0.2767 -0.8397  4.4869
 9508SOL    HW239987   2.383   2.947   8.237  1.1595  2.4511  0.5100
 9509SOL     OW39988   2.781   1.957   5.494  0.7277 -0.4986 -0.0361
 9509SOL    HW139989   2.831   1.909   5.427  1.3074  0.9673 -0.6543
 9509SOL    HW239990   2.779   1.881   5.552 -0.8554  0.1322  0.7223
 9510SOL     OW39991   1.912   4.584  10.558  0.1939 -0.1510  0.1768
 9510SOL    HW139992   1.920   4.656  10.621  2.0518  0.4589 -0.7561
 9510SOL    HW239993   1.951   4.508  10.602 -1.1539 -0.8263  0.1985
 9511SOL     OW39994   0.180   2.470  15.637  0.1351  0.3269  0.0847
 9511SOL    HW139995   0.129   2.492  15.559  1.4559  0.7851 -0.6474
 9511SOL    HW239996   0.268   2.469  15.598 -0.6106 -0.5470 -1.6057
 9512SOL     OW39997   1.863   1.270   9.532 -0.4091 -0.0617  0.1168
 9512SOL    HW139998   1.823   1.198   9.581 -1.2569 -0.0657 -0.5794
 9512SOL    HW239999   1.805   1.270   9.456  1.8157  1.0260 -1.5855
 9513SOL     OW40000   2.218   4.014   2.785 -0.3545 -0.1563 -0.1340
 9513SOL    HW140001   2.285   3.945   2.781  0.1920  0.4029 -0.7894
 9513SOL    HW240002   2.147   3.961   2.819 -0.8368  0.5849  0.0161
 9514SOL     OW40003   2.882   2.022   9.393 -0.7683 -0.1241 -0.3254
 9514SOL    HW140004   2.916   2.098   9.346  0.5317 -1.1236 -1.0163
 9514SOL    HW240005   2.938   2.022   9.471 -0.2683 -0.4202 -0.6826
 9515SOL     OW40006   3.532   0.152   4.666  0.0323 -0.0266 -0.6647
 9515SOL    HW140007   3.496   0.177   4.751  1.3850 -2.3875  0.6153
 9515SOL    HW240008   3.489   0.211   4.605 -2.2015 -0.6571  0.3104
 9516SOL     OW40009   2.275   3.501  10.820 -0.2684 -0.2189 -0.1064
 9516SOL    HW140010   2.235   3.468  10.740 -3.4039 -0.0525  1.4027
 9516SOL    HW240011   2.246   3.432  10.879  0.2563 -2.1452 -2.0927
 9517SOL     OW40012   2.920   4.129   6.687  0.1512 -0.4342  0.1898
 9517SOL    HW140013   2.881   4.067   6.749  0.0223  2.0620  2.5970
 9517SOL    HW240014   2.968   4.066   6.633 -1.3483 -2.2868  1.0419
 9518SOL     OW40015   2.543   3.928   4.253 -0.0864 -0.1422  0.3532
 9518SOL    HW140016   2.613   3.910   4.191  0.3200  1.1749  0.4262
 9518SOL    HW240017   2.464   3.890   4.215  0.3220 -0.6346  0.0110
 9519SOL     OW40018   0.763   1.008   0.703 -0.0692  0.0046 -0.4663
 9519SOL    HW140019   0.815   1.078   0.744  1.8913 -0.8254 -1.5466
 9519SOL    HW240020   0.806   0.938   0.752 -3.1858 -0.3075  1.8119
 9520SOL     OW40021   2.476   4.320   3.690  0.1576 -0.8029  0.2487
 9520SOL    HW140022   2.489   4.383   3.619  0.2246  0.6651  1.5641
 9520SOL    HW240023   2.442   4.378   3.758 -0.3929  0.7567 -1.3449
 9521SOL     OW40024   3.131   1.451   8.196 -0.1890  0.2477  0.8541
 9521SOL    HW140025   3.161   1.540   8.213 -0.0288  0.6478 -1.5329
 9521SOL    HW240026   3.082   1.450   8.114  0.7480  1.5707  0.2818
 9522SOL     OW40027   3.498   0.533   3.402  0.3117  0.6014  0.1710
 9522SOL    HW140028   3.565   0.466   3.417 -0.6093 -0.4180 -0.3655
 9522SOL    HW240029   3.539   0.574   3.325  1.6825  0.8766  1.0455
 9523SOL     OW40030   1.793   2.262   8.149 -0.1759  0.7768  0.1738
 9523SOL    HW140031   1.885   2.287   8.137 -0.6625  0.3708 -4.1474
 9523SOL    HW240032   1.762   2.340   8.194  1.9779  1.9520 -0.3854
 9524SOL     OW40033   0.044   2.069  16.982  0.3958  0.0286  0.7785
 9524SOL    HW140034   4.673   2.071  16.995  0.6608  2.8565  2.3468
 9524SOL    HW240035   0.076   2.128  17.050  1.8705 -0.1060  0.1937
 9525SOL     OW40036   3.101   4.174  11.789 -0.4752  0.4662 -0.0220
 9525SOL    HW140037   3.172   4.238  11.786 -0.4793  0.3571 -2.1620
 9525SOL    HW240038   3.147   4.091  11.784 -0.2351  0.7717 -2.5205
 9526SOL     OW40039   3.707   4.514  13.417 -0.1868  0.0153  0.0585
 9526SOL    HW140040   3.770   4.556  13.359 -0.2345 -0.6756 -0.4838
 9526SOL    HW240041   3.756   4.432  13.424 -2.8156 -1.4943  0.8624
 9527SOL     OW40042   1.264   4.413   7.572  0.3471  0.1616  0.6595
 9527SOL    HW140043   1.334   4.356   7.603  0.9491  0.8239  0.5177
 9527SOL    HW240044   1.286   4.426   7.480 -1.8441  2.6015  0.4732
 9528SOL     OW40045   0.126   0.119   3.566 -0.1800 -0.3383  0.6188
 9528SOL    HW140046   0.114   0.032   3.528  0.8450 -1.1579  2.1603
 9528SOL    HW240047   0.184   0.102   3.640 -0.3881 -0.1940  0.8130
 9529SOL     OW40048   1.340   1.436  10.602 -0.1108  0.7650  0.6152
 9529SOL    HW140049   1.328   1.530  10.619 -0.8337  0.4441  1.8798
 9529SOL    HW240050   1.304   1.418  10.516  0.1600  0.5635  0.5431
 9530SOL     OW40051   2.784   2.626   3.861  0.2577  0.5085 -0.3431
 9530SOL    HW140052   2.720   2.597   3.796  2.0232  0.6510 -2.1195
 9530SOL    HW240053   2.862   2.590   3.818 -1.3915  0.3349 -3.2079
 9531SOL     OW40054   4.718   2.621   1.483 -0.1101 -0.8987 -0.5039
 9531SOL    HW140055   4.662   2.544   1.475  1.4567 -2.0057 -0.7800
 9531SOL    HW240056   0.079   2.582   1.466  1.0806  0.8463  1.3881
 9532SOL     OW40057   3.644   3.531   4.625 -0.1335  0.4618  0.2141
 9532SOL    HW140058   3.645   3.495   4.714  0.8908  0.9264  0.3952
 9532SOL    HW240059   3.630   3.625   4.638 -1.0276  0.2955  0.4394
 9533SOL     OW40060   0.151   0.204   7.146 -0.1636  0.4031  0.3394
 9533SOL    HW140061   0.104   0.268   7.201 -2.0891 -0.1335 -0.6808
 9533SOL    HW240062   0.099   0.213   7.066  3.0821  3.0828 -1.4805
 9534SOL     OW40063   0.416   4.372   4.717  0.3921 -0.0763 -0.0628
 9534SOL    HW140064   0.471   4.297   4.696 -3.1415 -2.4974 -0.5912
 9534SOL    HW240065   0.466   4.445   4.681 -0.4270 -0.4099 -1.8465
 9535SOL     OW40066   3.012   1.047   8.561 -0.5204  0.2203  0.0857
 9535SOL    HW140067   3.032   1.126   8.510 -2.1382 -0.0007 -0.8858
 9535SOL    HW240068   3.090   0.994   8.546 -0.9450 -0.7479  1.3121
 9536SOL     OW40069   3.424   0.519   1.287 -0.2021 -0.2385  0.2234
 9536SOL    HW140070   3.404   0.527   1.380  1.4710  1.7059  0.4111
 9536SOL    HW240071   3.413   0.426   1.266  1.5489 -0.8368  2.0354
 9537SOL     OW40072   0.097   4.190   6.089 -0.2805 -0.4924  0.4083
 9537SOL    HW140073   0.064   4.102   6.107  0.9244 -0.8950  0.6316
 9537SOL    HW240074   0.014   4.236   6.103 -0.0171 -0.5729  2.2747
 9538SOL     OW40075   4.657   2.647   2.932  0.1037 -0.9381  0.3529
 9538SOL    HW140076   4.711   2.686   2.864 -0.6692  1.2107  0.9718
 9538SOL    HW240077   4.678   2.554   2.928 -0.3295 -0.9765 -1.1135
 9539SOL     OW40078   3.218   4.387   3.965  0.6743 -0.0199  0.4478
 9539SOL    HW140079   3.241   4.479   3.957  0.9107 -0.0106  1.1796
 9539SOL    HW240080   3.139   4.397   4.018 -1.1017  2.8395 -2.7447
 9540SOL     OW40081   3.888   2.567   8.563 -0.2303 -0.0533 -0.4444
 9540SOL    HW140082   3.810   2.610   8.599  0.2927 -0.9065  1.7078
 9540SOL    HW240083   3.844   2.511   8.499  0.2011 -0.3716 -0.4617
 9541SOL     OW40084   3.096   0.268   3.439 -0.0142 -0.2131  0.4889
 9541SOL    HW140085   3.045   0.188   3.426 -0.6345 -0.1895  2.7311
 9541SOL    HW240086   3.136   0.268   3.352 -1.3947 -1.0817 -0.1544
 9542SOL     OW40087   4.446   3.061   2.665  0.2566  0.1859 -0.1102
 9542SOL    HW140088   4.435   3.010   2.585 -2.7434 -0.8853  0.9806
 9542SOL    HW240089   4.471   3.141   2.619  0.1560  1.7891  2.5830
 9543SOL     OW40090   1.231   0.893   8.614 -0.3807 -0.0151 -1.0106
 9543SOL    HW140091   1.308   0.949   8.629  0.6666 -1.9554  0.7565
 9543SOL    HW240092   1.174   0.964   8.585  1.3808  1.1520 -1.6907
 9544SOL     OW40093   0.698   1.531   9.209  0.5304 -0.0288 -0.8474
 9544SOL    HW140094   0.720   1.439   9.193 -1.2489 -1.0804  2.7308
 9544SOL    HW240095   0.788   1.560   9.221 -0.0322  0.2729  2.6180
 9545SOL     OW40096   3.124   4.432  12.772 -0.2152  0.5010  0.9037
 9545SOL    HW140097   3.109   4.519  12.809  1.9158  1.0244  0.5461
 9545SOL    HW240098   3.098   4.383  12.850  1.2712  1.8459  2.2568
 9546SOL     OW40099   3.023   1.519   4.262  0.1676  0.1258  0.3852
 9546SOL    HW140100   3.095   1.550   4.318 -0.6862  1.6054  0.6640
 9546SOL    HW240101   2.942   1.559   4.295  0.0934 -1.1387  1.7358
 9547SOL     OW40102   1.853   3.933   6.924 -1.2018  0.3998  0.2368
 9547SOL    HW140103   1.785   3.905   6.862 -2.6650 -0.8846  2.4366
 9547SOL    HW240104   1.815   3.906   7.007  0.2707  1.5443  1.2827
 9548SOL     OW40105   2.744   1.137   4.241 -0.2072  0.5084 -0.3673
 9548SOL    HW140106   2.820   1.195   4.240  0.4192 -0.3354 -1.2776
 9548SOL    HW240107   2.755   1.084   4.321  1.9997  1.1761 -0.2382
 9549SOL     OW40108   0.648   4.093   1.976 -0.1015  0.2254  0.0383
 9549SOL    HW140109   0.625   4.000   1.974 -0.7807  0.4135 -0.9929
 9549SOL    HW240110   0.697   4.077   2.057 -1.2669  0.4083  0.7655
 9550SOL     OW40111   3.177   0.746   8.017  0.1095 -0.3188 -0.2590
 9550SOL    HW140112   3.176   0.655   7.989 -1.1646 -0.9589  1.8110
 9550SOL    HW240113   3.249   0.750   8.081  0.9483  0.9290 -1.2785
 9551SOL     OW40114   2.892   2.223   7.485 -0.5116  0.2216 -0.1360
 9551SOL    HW140115   2.898   2.317   7.500 -1.9636  0.5757 -1.8192
 9551SOL    HW240116   2.955   2.212   7.413 -1.4480  0.9873 -1.0826
 9552SOL     OW40117   2.939   2.617  14.586 -0.1299 -0.1008  0.3482
 9552SOL    HW140118   2.940   2.586  14.496 -2.6312  1.4071 -0.2041
 9552SOL    HW240119   2.970   2.543  14.639 -1.7187 -2.0181 -1.4308
 9553SOL     OW40120   2.847   2.213  11.101 -0.3056  0.4446  0.0546
 9553SOL    HW140121   2.796   2.294  11.096 -1.5479 -0.4263 -1.3537
 9553SOL    HW240122   2.862   2.193  11.008 -2.2421 -2.2154  0.3013
 9554SOL     OW40123   4.331   3.410  14.477 -0.3531 -0.3381 -0.0938
 9554SOL    HW140124   4.389   3.485  14.464  0.3328 -0.2917  3.2414
 9554SOL    HW240125   4.250   3.457  14.495 -0.0623  1.4848 -3.5160
 9555SOL     OW40126   4.634   0.077   7.896  0.0536  0.0547 -0.0157
 9555SOL    HW140127   4.572   0.121   7.837  1.0115 -1.4130 -2.0951
 9555SOL    HW240128   4.583   0.069   7.977 -2.4199  2.0922 -1.3698
 9556SOL     OW40129   4.059   3.845   8.871 -0.1935  0.0242 -0.6867
 9556SOL    HW140130   4.098   3.763   8.841  2.3632  1.3288 -0.9277
 9556SOL    HW240131   4.124   3.888   8.926  0.9479 -1.4805 -0.8626
 9557SOL     OW40132   3.113   2.683  15.597  0.2820 -0.4122 -0.1447
 9557SOL    HW140133   3.170   2.635  15.538 -0.2132 -2.1620  0.7879
 9557SOL    HW240134   3.157   2.675  15.682  1.8291 -2.3554 -1.1461
 9558SOL     OW40135   0.350   0.394   6.522 -0.5793  0.1748  0.4235
 9558SOL    HW140136   0.270   0.385   6.471 -1.1219  3.0449  0.7948
 9558SOL    HW240137   0.416   0.371   6.457 -1.2913 -1.4600  0.2749
 9559SOL     OW40138   2.335   1.497   2.562  0.7572 -0.2212 -0.3073
 9559SOL    HW140139   2.279   1.425   2.590 -0.3577  0.4574 -0.7981
 9559SOL    HW240140   2.269   1.561   2.536 -0.4220 -1.9537 -1.5385
 9560SOL     OW40141   2.030   2.412   6.275 -0.1275 -0.2585  0.2490
 9560SOL    HW140142   2.010   2.461   6.195 -0.5752  1.2934  1.2921
 9560SOL    HW240143   2.061   2.328   6.241  1.7719  0.9794 -1.0848
 9561SOL     OW40144   3.679   0.435   6.302  0.0639 -0.4931 -0.1395
 9561SOL    HW140145   3.652   0.471   6.218  2.0371 -0.9689 -0.9814
 9561SOL    HW240146   3.655   0.343   6.291  1.2703 -0.8416  0.1017
 9562SOL     OW40147   0.159   1.395  10.190  0.5486  0.2141 -0.4221
 9562SOL    HW140148   0.103   1.462  10.228  0.0827  0.1884 -1.0754
 9562SOL    HW240149   0.100   1.323  10.214  2.1964 -0.5541  1.3755
 9563SOL     OW40150   1.117   0.961   7.298 -0.4292 -0.3406  0.3983
 9563SOL    HW140151   1.048   1.024   7.280  0.2706  0.2904 -0.1025
 9563SOL    HW240152   1.062   0.888   7.269 -0.4730 -0.5086  0.9077
 9564SOL     OW40153   0.252   1.384   3.778 -0.2249  0.1504 -0.1293
 9564SOL    HW140154   0.303   1.314   3.821 -0.1073  0.1830 -0.2177
 9564SOL    HW240155   0.225   1.431   3.857 -2.6787 -0.1417 -0.7926
 9565SOL     OW40156   0.447   4.305   7.343  0.4591 -0.1597 -0.8859
 9565SOL    HW140157   0.395   4.296   7.264 -1.3328  3.1085 -0.0727
 9565SOL    HW240158   0.528   4.260   7.319  0.1124 -1.9283  1.2667
 9566SOL     OW40159   0.588   3.201   3.578  0.6674 -0.1312 -0.2529
 9566SOL    HW140160   0.668   3.184   3.528  0.2812  1.0579 -1.2741
 9566SOL    HW240161   0.617   3.267   3.640 -1.7396  0.8914 -0.2377
 9567SOL     OW40162   0.241   4.696   8.264 -0.1462 -0.0810  0.3868
 9567SOL    HW140163   0.297   0.012   8.198  0.3402  0.2449  0.9978
 9567SOL    HW240164   0.303   4.682   8.336  1.2044  0.5654 -0.6433
 9568SOL     OW40165   3.990   3.963   5.668 -0.2568 -0.3977  0.2464
 9568SOL    HW140166   3.944   3.999   5.592 -1.9800 -1.3120  0.8636
 9568SOL    HW240167   3.938   3.983   5.746 -1.0904 -0.7479 -0.2215
   4.72418   4.72418  17.69837
