Membrane in water
40167
    1TCq1    O1    1   0.483   1.152  11.337 -0.5599  0.4184  0.1039
    1TCq1    C1    2   0.446   1.024  11.323 -0.0228 -0.1488  0.3303
    1TCq1    O2    3   0.443   0.955  11.223 -1.1457  0.7255 -0.6327
    1TCq1    C2    4   0.354   0.986  11.431 -0.8422  0.1851  0.6799
    1TCq1    C3    5   0.247   1.072  11.449 -0.6527  0.2550 -0.4654
    1TCq1    C4    6   0.129   1.022  11.489  0.8263  0.3543  0.5491
    1TCq1    C5    7   0.104   0.888  11.501 -0.3850  0.0873 -0.5835
    1TCq1    C6    8   0.201   0.804  11.470  0.5279 -0.0191 -0.2213
    1TCq1    C7    9   0.325   0.852  11.442  0.6505 -0.1991 -0.0602
    1TCq1    C8   10   0.195   0.681  11.547  0.1542 -0.1130 -0.1016
    1TCq1    O4   11   0.093   0.671  11.612  0.0274  0.3463  0.1449
    1TCq1    C9   12   0.018   1.113  11.502 -0.9777  0.6469 -0.1512
    1TCq1    O5   13   0.031   1.232  11.468 -0.3260 -0.2835 -0.6986
    1TCq1    O6   14   4.638   1.060  11.540  1.1209  0.0549 -0.2233
    1TCq1    H1   15   0.468   1.186  11.428 -0.0705 -1.4158  0.8844
    1TCq1    H2   16   0.259   1.180  11.451 -2.6092  0.4673 -0.3471
    1TCq1    H3   17   0.005   0.854  11.530  0.0677 -0.5992  0.1596
    1TCq1    H4   18   0.411   0.794  11.413 -0.2798 -1.5792 -0.0725
    2MPD2     C   19   0.334   0.203  11.685 -0.1496  0.2985 -0.7640
    2MPD2    C1   20   0.218   0.274  11.721 -0.1025 -1.0880 -0.0988
    2MPD2    C2   21   0.200   0.401  11.667 -0.9190  0.5607  0.3297
    2MPD2    C3   22   0.301   0.458  11.583 -0.7100  0.5464  0.7490
    2MPD2    C4   23   0.417   0.384  11.568  0.6946  0.4294  0.1537
    2MPD2    C5   24   0.434   0.256  11.612 -0.4481 -0.1725 -0.5602
    2MPD2     H   25   0.109   0.457  11.682 -0.2750  1.8387 -0.4770
    2MPD2    H1   26   0.497   0.432  11.512  1.4712 -0.1166  0.7960
    2MPD2    H2   27   0.354   0.105  11.726 -0.3328  0.6127  0.0889
    2MPD2    H3   28   0.527   0.199  11.608  1.3529  2.7814 -0.4898
    2MPD2     N   29   0.299   0.587  11.530 -0.1864 -0.4178  0.3061
    2MPD2    H5   30   0.379   0.624  11.480 -0.9345  1.6157  0.6314
    2MPD2    N1   31   0.119   0.214  11.806 -0.4462 -0.1648 -0.4225
    2MPD2    H7   32   0.049   0.281  11.834  0.1406  0.6639 -0.9342
    3TCq1    O1   33   3.598   0.262  10.780 -0.3785  0.1773 -0.0653
    3TCq1    C1   34   3.515   0.280  10.882  0.5697  0.1609  0.4542
    3TCq1    O2   35   3.467   0.189  10.956 -0.3127 -0.4612  0.4416
    3TCq1    C2   36   3.439   0.405  10.866  0.0438 -0.1614  0.3943
    3TCq1    C3   37   3.449   0.495  10.765 -0.3821 -0.0093  0.1473
    3TCq1    C4   38   3.367   0.607  10.767 -0.6193 -0.2691 -0.3490
    3TCq1    C5   39   3.296   0.646  10.876 -0.0513 -0.3063 -0.1305
    3TCq1    C6   40   3.297   0.557  10.980  0.3535 -0.0640  0.1982
    3TCq1    C7   41   3.352   0.432  10.969  0.4680 -0.5576 -0.5877
    3TCq1    C8   42   3.183   0.570  11.071  0.3973  0.5165  0.1800
    3TCq1    O4   43   3.130   0.469  11.115  0.1443  0.5263  0.2249
    3TCq1    C9   44   3.371   0.696  10.653  0.1506 -0.6541  0.5282
    3TCq1    O5   45   3.276   0.772  10.642  0.0810 -0.1547  0.2278
    3TCq1    O6   46   3.473   0.683  10.580 -0.1386  0.1771 -0.5310
    3TCq1    H1   47   3.611   0.337  10.718 -1.3667  0.0779 -0.4030
    3TCq1    H2   48   3.506   0.484  10.673  1.3160  2.2805  0.9269
    3TCq1    H3   49   3.230   0.732  10.869 -0.8405 -0.9594 -0.7109
    3TCq1    H4   50   3.341   0.363  11.052 -1.1245  1.1862  0.6340
    4MPD2     C   51   2.898   0.860  11.376 -0.1680 -0.2015  0.4792
    4MPD2    C1   52   3.004   0.933  11.323  0.8884 -1.0706  0.6356
    4MPD2    C2   53   3.083   0.879  11.225 -0.3607  0.1501 -0.5264
    4MPD2    C3   54   3.072   0.747  11.192 -0.0245  0.7091  0.5521
    4MPD2    C4   55   2.969   0.668  11.249  0.1385 -0.0984 -0.5794
    4MPD2    C5   56   2.883   0.728  11.342 -0.0945 -0.2116  0.4332
    4MPD2     H   57   3.162   0.931  11.171 -0.9388  0.3028 -1.2152
    4MPD2    H1   58   2.966   0.562  11.229  0.3865 -0.2474  0.1910
    4MPD2    H2   59   2.837   0.903  11.455  0.1151  1.7799 -0.3949
    4MPD2    H3   60   2.811   0.661  11.386 -0.1913 -1.0236 -0.9574
    4MPD2     N   61   3.172   0.702  11.102 -0.1483  0.9620 -0.1962
    4MPD2    H5   62   3.238   0.762  11.054  1.4065  1.5709  2.7168
    4MPD2    N1   63   3.024   1.069  11.342  0.0903 -0.0723  0.2017
    4MPD2    H7   64   3.095   1.113  11.284 -0.3208  0.5674  0.1816
    5TCq1    O1   65   0.305   3.675  11.780  0.8759 -0.0164 -0.0189
    5TCq1    C1   66   0.342   3.597  11.881  0.4449  0.3453 -0.4389
    5TCq1    O2   67   0.412   3.630  11.978 -0.1117 -0.1928  0.8070
    5TCq1    C2   68   0.240   3.492  11.906  0.3910 -0.9583 -1.1646
    5TCq1    C3   69   0.218   3.463  12.035 -0.6701  0.0303  0.2952
    5TCq1    C4   70   0.154   3.343  12.063  0.6914  0.0508 -0.1039
    5TCq1    C5   71   0.102   3.264  11.958  0.4665 -0.6190 -0.0600
    5TCq1    C6   72   0.140   3.288  11.829  0.0081  0.6717 -0.1693
    5TCq1    C7   73   0.203   3.406  11.804 -0.1117 -0.2058 -0.1030
    5TCq1    C8   74   0.045   3.239  11.732  0.0511 -0.4819  0.6160
    5TCq1    O4   75   4.705   3.136  11.763 -0.2632  0.6184  0.0762
    5TCq1    C9   76   0.125   3.299  12.198 -0.4539  0.0352  0.7393
    5TCq1    O5   77   0.020   3.232  12.222  0.0184  0.4201 -0.0145
    5TCq1    O6   78   0.194   3.346  12.295 -0.5185  0.0585  0.0037
    5TCq1    H1   79   0.220   3.648  11.739  0.1720 -0.0149  1.4351
    5TCq1    H2   80   0.248   3.527  12.117 -3.8957 -2.3675  3.3444
    5TCq1    H3   81   0.046   3.178  11.992 -0.1708 -0.1474  0.0947
    5TCq1    H4   82   0.236   3.426  11.703 -1.7322  2.8922 -0.0043
    6MPD2     C   83   4.575   3.403  11.466  0.4779 -0.5875 -0.1805
    6MPD2    C1   84   4.638   3.301  11.534  0.8687 -1.0251 -0.1371
    6MPD2    C2   85   4.613   3.169  11.494 -0.0159 -0.1542  0.2273
    6MPD2    C3   86   4.527   3.141  11.386 -0.1912  0.0840 -0.1583
    6MPD2    C4   87   4.462   3.251  11.327  0.0569  0.1247  0.2221
    6MPD2    C5   88   4.479   3.375  11.371 -0.0613 -0.2734  0.4726
    6MPD2     H   89   4.681   3.092  11.527  1.5605  1.0809 -0.1597
    6MPD2    H1   90   4.392   3.233  11.247  0.8132  0.4599 -0.5200
    6MPD2    H2   91   4.588   3.506  11.497 -0.9279 -0.1664 -0.9457
    6MPD2    H3   92   4.436   3.457  11.314 -0.9117 -1.6352 -0.8286
    6MPD2     N   93   4.503   3.010  11.352  0.6941 -0.2565 -0.4151
    6MPD2    H5   94   4.544   2.945  11.418  0.4013  0.2204  0.2416
    6MPD2    N1   95   0.005   3.331  11.638  0.2956 -0.5633  0.2460
    6MPD2    H7   96   0.024   3.429  11.660 -0.7107 -0.5864  1.1985
    7TCq1    O1   97   1.539   2.466  13.322  0.6311  0.3334  0.0154
    7TCq1    C1   98   1.409   2.495  13.302  0.7665  0.3252 -0.2319
    7TCq1    O2   99   1.366   2.588  13.235 -0.1443 -0.3466  0.9240
    7TCq1    C2  100   1.324   2.384  13.351 -0.3133  0.0638  0.3448
    7TCq1    C3  101   1.184   2.410  13.354  0.5521 -0.1675 -0.4398
    7TCq1    C4  102   1.105   2.309  13.408  0.3206  0.3059  0.6007
    7TCq1    C5  103   1.162   2.187  13.437  0.6255 -0.6006 -0.0992
    7TCq1    C6  104   1.289   2.155  13.404 -0.1276  0.4872  0.0998
    7TCq1    C7  105   1.376   2.260  13.372  0.3272 -0.7139 -0.4315
    7TCq1    C8  106   1.330   2.013  13.396  0.7429  0.0819  0.0967
    7TCq1    O4  107   1.265   1.938  13.469  0.3665  0.0661  0.2371
    7TCq1    C9  108   0.962   2.322  13.425  0.8666 -0.6191 -0.1194
    7TCq1    O5  109   0.897   2.235  13.487  0.1407  0.1211 -0.0681
    7TCq1    O6  110   0.907   2.408  13.353 -0.1608  0.0932 -0.3896
    7TCq1    H1  111   1.546   2.399  13.394  0.5794 -1.4047 -1.6007
    7TCq1    H2  112   1.133   2.502  13.327 -3.0104 -1.5882  1.4147
    7TCq1    H3  113   1.102   2.100  13.464  1.2783 -0.9708  0.1468
    7TCq1    H4  114   1.482   2.238  13.365  0.5661  0.1511  0.5663
    8MPD2     C  115   1.596   1.613  13.220 -0.8094  0.3340  0.9088
    8MPD2    C1  116   1.516   1.622  13.332  0.9561  0.4363  0.3679
    8MPD2    C2  117   1.465   1.743  13.372 -0.3164 -0.5834  0.5975
    8MPD2    C3  118   1.478   1.855  13.294 -0.2055 -0.0411 -0.1087
    8MPD2    C4  119   1.565   1.844  13.193 -0.3157  1.0921 -0.7766
    8MPD2    C5  120   1.623   1.728  13.155 -0.4823  0.0528 -0.0166
    8MPD2     H  121   1.413   1.745  13.468  0.9292  0.5404  1.2537
    8MPD2    H1  122   1.599   1.934  13.142 -1.5103  1.7704 -0.3786
    8MPD2    H2  123   1.644   1.526  13.177 -2.4925  0.2156 -0.7308
    8MPD2    H3  124   1.689   1.738  13.070 -0.1411  1.7368  0.4325
    8MPD2     N  125   1.429   1.992  13.314  0.3902  0.3195 -0.8093
    8MPD2    H5  126   1.470   2.069  13.262 -0.1711  1.8887  1.0836
    8MPD2    N1  127   1.486   1.509  13.406 -0.4946 -0.3504  0.0402
    8MPD2    H7  128   1.439   1.525  13.494 -2.1552  0.7550 -1.0281
    9TCq1    O1  129   3.985   0.346  10.085  0.3027 -0.9270  0.0520
    9TCq1    C1  130   4.070   0.405  10.173 -0.4886  0.5363  1.2441
    9TCq1    O2  131   4.143   0.501  10.154  0.4237 -0.0443  0.3835
    9TCq1    C2  132   4.047   0.347  10.302  1.4444 -0.4628 -0.6198
    9TCq1    C3  133   3.914   0.344  10.326  0.2963  0.1585  0.0422
    9TCq1    C4  134   3.867   0.363  10.451  0.0165  0.5226  1.1981
    9TCq1    C5  135   3.951   0.394  10.552  0.2783  0.8856  0.0921
    9TCq1    C6  136   4.087   0.408  10.528 -0.0503  0.4819  0.0075
    9TCq1    C7  137   4.133   0.379  10.404  0.7513  0.8269  0.1107
    9TCq1    C8  138   4.189   0.436  10.625 -0.8423  0.0088 -0.2110
    9TCq1    O4  139   4.302   0.467  10.585  0.2171 -0.2882  0.5297
    9TCq1    C9  140   3.729   0.352  10.480 -0.2639  0.1075 -0.3288
    9TCq1    O5  141   3.652   0.330  10.384 -0.2135  0.2554 -0.2134
    9TCq1    O6  142   3.690   0.387  10.591 -0.2685 -0.0345  0.7923
    9TCq1    H1  143   3.963   0.257  10.119 -0.1784  0.6886  3.8940
    9TCq1    H2  144   3.834   0.337  10.253  0.3694 -1.0329  0.0856
    9TCq1    H3  145   3.904   0.427  10.644  0.9629 -0.6811  0.9970
    9TCq1    H4  146   4.238   0.388  10.379 -0.0734 -1.6578 -4.1156
   10MPD2     C  147   4.322   0.587  10.846  0.0286  0.0948 -0.3465
   10MPD2    C1  148   4.207   0.513  10.858 -0.3874  0.0604  0.5178
   10MPD2    C2  149   4.143   0.500  10.976 -0.1804 -0.5506 -0.2141
   10MPD2    C3  150   4.186   0.582  11.090  0.9950 -0.5404 -0.0326
   10MPD2    C4  151   4.308   0.651  11.075 -0.6145  0.0163 -0.3105
   10MPD2    C5  152   4.375   0.657  10.956 -0.1531  0.2260  0.5529
   10MPD2     H  153   4.052   0.440  10.980 -1.1274  1.0191  1.7064
   10MPD2    H1  154   4.349   0.711  11.155  2.9488 -1.2507 -1.1947
   10MPD2    H2  155   4.373   0.597  10.751  2.5119 -2.2126  0.7134
   10MPD2    H3  156   4.473   0.702  10.954  0.9169 -2.1246 -0.6492
   10MPD2     N  157   4.121   0.583  11.220  0.3006  0.5613 -0.0855
   10MPD2    H5  158   4.166   0.635  11.295  0.9594 -0.9806  0.6036
   10MPD2    N1  159   4.142   0.447  10.750 -0.0985  0.1763  0.2242
   10MPD2    H7  160   4.055   0.399  10.768  0.1737 -0.1971  0.5314
   11TCq1    O1  161   0.264   1.091  14.346  0.0012  0.3815 -0.3548
   11TCq1    C1  162   0.193   0.983  14.385 -0.3072  0.6387  0.2505
   11TCq1    O2  163   0.141   0.899  14.314  0.0362  0.1055 -0.1647
   11TCq1    C2  164   0.142   1.004  14.518 -0.0709 -0.0123 -0.3850
   11TCq1    C3  165   0.230   1.042  14.619  0.1610  0.5952 -0.7426
   11TCq1    C4  166   0.177   1.043  14.747  0.5206 -0.4364  0.4451
   11TCq1    C5  167   0.051   1.002  14.769  0.4052 -0.8776  0.0192
   11TCq1    C6  168   4.700   0.936  14.674  0.3254  0.5985 -0.4272
   11TCq1    C7  169   0.016   0.948  14.545 -0.0537  0.7238 -0.6861
   11TCq1    C8  170   4.559   0.896  14.702  0.0791 -0.5737 -0.3868
   11TCq1    O4  171   4.515   0.932  14.812  0.0816 -0.2808 -0.5065
   11TCq1    C9  172   0.263   1.081  14.861  0.4077 -0.2782  0.6774
   11TCq1    O5  173   0.369   1.154  14.834  0.2402  0.2211 -0.4215
   11TCq1    O6  174   0.208   1.090  14.972  0.0962  0.4102  0.3099
   11TCq1    H1  175   0.274   1.164  14.410 -1.7554  1.6391 -1.5062
   11TCq1    H2  176   0.327   1.087  14.600 -0.4795  3.2033  2.0821
   11TCq1    H3  177   0.020   1.017  14.872  3.2871 -0.0703  0.7713
   11TCq1    H4  178   4.678   0.908  14.467 -0.9463  0.1231  0.3463
   12MPD2     C  179   4.256   0.849  14.668 -0.3601 -0.1257 -0.9680
   12MPD2    C1  180   4.354   0.802  14.588 -0.5586  0.0451  0.1025
   12MPD2    C2  181   4.318   0.726  14.482 -0.5637  0.0841 -0.0639
   12MPD2    C3  182   4.188   0.676  14.466  0.5425  0.2949  0.2183
   12MPD2    C4  183   4.089   0.725  14.556 -0.0714 -0.1236 -0.4165
   12MPD2    C5  184   4.125   0.809  14.651  0.5998  0.5997  0.5498
   12MPD2     H  185   4.403   0.694  14.422  0.9247  3.9383  0.0328
   12MPD2    H1  186   3.982   0.708  14.553 -0.1499 -0.0047  1.4906
   12MPD2    H2  187   4.276   0.915  14.752  0.1076  1.0263 -1.9976
   12MPD2    H3  188   4.054   0.848  14.723  1.4321 -1.2333  2.3880
   12MPD2     N  189   4.156   0.587  14.360 -0.5304 -0.1653 -0.1124
   12MPD2    H5  190   4.217   0.559  14.284 -1.6217 -1.1182 -0.6456
   12MPD2    N1  191   4.495   0.836  14.595  0.6194 -0.3859  0.7569
   12MPD2    H7  192   4.559   0.805  14.523 -1.1121 -1.9968 -0.0812
   13TCq1    O1  193   4.678   1.041  11.142 -0.1285 -0.0576 -0.5681
   13TCq1    C1  194   4.556   1.108  11.151  0.4813 -0.6997  0.7392
   13TCq1    O2  195   4.507   1.149  11.255  0.4181  0.2885  0.2390
   13TCq1    C2  196   4.468   1.059  11.049 -0.5966 -0.0288  0.0155
   13TCq1    C3  197   4.517   1.044  10.923 -0.5346  0.5277  0.6669
   13TCq1    C4  198   4.424   1.002  10.829 -0.3623 -0.1260 -0.1553
   13TCq1    C5  199   4.296   0.959  10.859 -0.0205  0.2430 -0.1251
   13TCq1    C6  200   4.258   0.980  10.985 -0.1378 -0.3929 -0.1813
   13TCq1    C7  201   4.337   1.026  11.083  0.1476  0.1674 -0.0707
   13TCq1    C8  202   4.125   0.940  11.033  0.0967 -0.3166  0.8678
   13TCq1    O4  203   4.091   0.984  11.139  0.8177  0.0792 -0.0014
   13TCq1    C9  204   4.474   0.992  10.691 -0.0115  0.6823  0.0875
   13TCq1    O5  205   4.444   0.892  10.623 -0.3029 -0.7208  0.6155
   13TCq1    O6  206   4.561   1.074  10.656 -0.0678  0.2098  0.4095
   13TCq1    H1  207   4.690   0.978  11.068 -0.1521 -1.9498  1.0311
   13TCq1    H2  208   4.618   1.064  10.888 -0.1031 -1.7670  0.5774
   13TCq1    H3  209   4.237   0.924  10.775 -0.8056 -1.5262  1.1613
   13TCq1    H4  210   4.310   1.021  11.188  1.3368 -2.6562  0.1140
   14MPD2     C  211   3.904   0.692  10.879 -0.2448  0.1749  0.3855
   14MPD2    C1  212   3.945   0.788  10.968  0.3614 -0.1744  0.2661
   14MPD2    C2  213   3.866   0.812  11.079  0.0147 -0.1581 -0.4062
   14MPD2    C3  214   3.743   0.753  11.095  0.5463  0.8612 -0.5867
   14MPD2    C4  215   3.712   0.653  11.006  0.5379  0.3823 -0.1238
   14MPD2    C5  216   3.795   0.617  10.901  0.5369 -1.0443 -0.1172
   14MPD2     H  217   3.887   0.894  11.148 -0.6624 -0.5381  0.2444
   14MPD2    H1  218   3.624   0.591  11.015  0.1449  1.2690  1.9970
   14MPD2    H2  219   3.959   0.694  10.786 -1.3784  0.4637 -0.2780
   14MPD2    H3  220   3.771   0.534  10.835  0.6171  0.6097 -2.2422
   14MPD2     N  221   3.668   0.793  11.205  0.7674  0.0990  0.1443
   14MPD2    H5  222   3.697   0.877  11.254  0.4446  0.7226 -0.7364
   14MPD2    N1  223   4.071   0.849  10.949 -0.7458  0.1936 -0.2869
   14MPD2    H7  224   4.131   0.815  10.876 -0.2845  1.8438 -0.6853
   15TCq1    O1  225   1.211   0.236   2.374 -0.2471  0.3212  0.3446
   15TCq1    C1  226   1.197   0.129   2.293  0.1176  0.4437  0.5490
   15TCq1    O2  227   1.291   0.066   2.248  0.3196  0.4300  0.0074
   15TCq1    C2  228   1.064   0.122   2.223 -0.1690  0.2102  0.3429
   15TCq1    C3  229   0.971   0.219   2.247 -0.5693 -0.1681 -0.5420
   15TCq1    C4  230   0.875   0.232   2.152  0.2939  0.1431 -0.5532
   15TCq1    C5  231   0.863   0.152   2.045 -0.2406 -0.7195  0.1298
   15TCq1    C6  232   0.949   0.053   2.032  0.2868  0.0984  0.4439
   15TCq1    C7  233   1.057   0.040   2.112  0.4204  0.0742 -0.3786
   15TCq1    C8  234   0.941   4.682   1.930 -0.0815  0.5563  0.1760
   15TCq1    O4  235   0.994   4.572   1.943 -0.0774 -0.0332  0.3271
   15TCq1    C9  236   0.792   0.349   2.159  0.3020  0.5246  0.0023
   15TCq1    O5  237   0.829   0.439   2.238 -0.3276 -0.6485  0.6057
   15TCq1    O6  238   0.719   0.379   2.055  1.2249 -0.2893 -0.5838
   15TCq1    H1  239   1.124   0.265   2.408  0.4444  1.7641  0.8942
   15TCq1    H2  240   0.971   0.293   2.327 -3.0591 -0.9637  0.2138
   15TCq1    H3  241   0.780   0.168   1.978 -0.5297 -0.9880  0.4200
   15TCq1    H4  242   1.133   4.688   2.100  1.1129  1.0155 -2.1794
   16MPD2     C  243   0.757   0.003   1.612  0.6632  0.0406  0.4875
   16MPD2    C1  244   0.845   4.664   1.700 -0.2032 -0.3373 -0.4317
   16MPD2    C2  245   0.886   4.533   1.671  0.1562 -0.9953 -0.2452
   16MPD2    C3  246   0.856   4.474   1.545  0.0341  0.3837 -0.1186
   16MPD2    C4  247   0.782   4.548   1.461 -0.0868  0.8241  0.3103
   16MPD2    C5  248   0.729   4.669   1.495  0.0167  1.0600  0.0240
   16MPD2     H  249   0.946   4.475   1.740  0.8641  1.3308  1.0531
   16MPD2    H1  250   0.757   4.514   1.361  2.3165  0.9504 -0.3279
   16MPD2    H2  251   0.712   0.100   1.628  0.5200 -0.1340  1.1201
   16MPD2    H3  252   0.668   4.715   1.418  0.4597  0.4510 -0.6903
   16MPD2     N  253   0.911   4.352   1.516  0.1213  0.7267 -0.0317
   16MPD2    H5  254   0.964   4.298   1.584 -1.2106  3.3592  3.0823
   16MPD2    N1  255   0.878   0.005   1.817 -0.1421  0.3212 -0.5875
   16MPD2    H7  256   0.834   0.096   1.824 -1.2195 -0.3070  0.6863
   17TCq1    O1  257   4.148   3.986  11.574  0.2433 -0.1371  0.2464
   17TCq1    C1  258   4.196   4.058  11.471 -0.5514  0.1001 -0.1521
   17TCq1    O2  259   4.167   4.056  11.353 -0.0220  0.1836  0.2124
   17TCq1    C2  260   4.318   4.129  11.512 -0.0705 -0.3424  0.1642
   17TCq1    C3  261   4.310   4.221  11.621 -0.0111 -0.0070 -0.8275
   17TCq1    C4  262   4.380   4.335  11.619 -0.1393 -0.2941  0.2359
   17TCq1    C5  263   4.480   4.355  11.529  0.7702  0.3573  0.4302
   17TCq1    C6  264   4.495   4.262  11.427 -0.3394 -0.5207 -0.0161
   17TCq1    C7  265   4.417   4.144  11.422 -0.7305  0.3857 -0.8655
   17TCq1    C8  266   4.562   4.295  11.303  0.2679  0.1140  0.2145
   17TCq1    O4  267   4.566   4.201  11.224 -0.0758  0.0448 -0.2447
   17TCq1    C9  268   4.365   4.441  11.722 -0.2876  0.5575 -0.2331
   17TCq1    O5  269   4.257   4.429  11.794  0.1211 -0.6635 -0.1114
   17TCq1    O6  270   4.440   4.539  11.717  0.1163  0.4092  0.1901
   17TCq1    H1  271   4.184   4.014  11.661 -0.5503 -1.0455  0.8742
   17TCq1    H2  272   4.225   4.208  11.687 -0.2505  1.2834 -0.8922
   17TCq1    H3  273   4.535   4.448  11.535  1.2959  0.1722 -1.4484
   17TCq1    H4  274   4.418   4.066  11.346 -0.3965 -0.9178  0.4714
   18MPD2     C  275   4.601   4.636  11.182  0.0518  0.9019  0.5769
   18MPD2    C1  276   4.601   4.497  11.170 -0.0757  0.1407  0.6201
   18MPD2    C2  277   4.615   4.447  11.039 -0.0766  0.0800 -0.2770
   18MPD2    C3  278   4.618   4.533  10.928 -0.2155 -0.8317  0.4530
   18MPD2    C4  279   4.617   4.670  10.944 -0.7382 -0.7131  0.3181
   18MPD2    C5  280   4.611   4.719  11.074 -0.2272 -0.4176 -0.5100
   18MPD2     H  281   4.627   4.343  11.010  1.2893  0.6989 -1.9397
   18MPD2    H1  282   4.637   0.013  10.862  1.6907 -1.7561  0.0261
   18MPD2    H2  283   4.581   4.680  11.279  0.3816  0.7930  0.6962
   18MPD2    H3  284   4.612   0.101  11.088 -0.1998 -0.6912  1.6160
   18MPD2     N  285   4.623   4.471  10.802  0.1449  0.5665  0.1810
   18MPD2    H5  286   4.631   4.370  10.788 -0.5219  0.4695  0.5021
   18MPD2    N1  287   4.587   4.431  11.290 -0.7342 -0.6515  0.2071
   18MPD2    H7  288   4.590   4.476  11.381  1.2166 -3.6184  1.6403
   19TMC2    C1  289   0.967   0.655  13.988  0.3166 -0.1596  0.0020
   19TMC2    C2  290   0.935   0.775  13.936  0.7428  0.3061  0.2446
   19TMC2    C3  291   0.800   0.816  13.947 -0.0542 -0.4252  0.3174
   19TMC2    C4  292   0.876   0.571  14.055 -0.1156 -0.2447 -0.3963
   19TMC2    C5  293   0.743   0.612  14.048  0.3767  0.2881  0.4039
   19TMC2    C6  294   0.707   0.735  13.999 -0.4848 -0.1514  0.1139
   19TMC2     C  295   1.097   0.617  13.961  0.7723  0.9776  0.6806
   19TMC2     O  296   1.165   0.678  13.878 -0.5821  0.0914  0.0228
   19TMC2     H  297   1.000   0.846  13.887 -0.5960  1.4011  0.0643
   19TMC2    H1  298   0.908   0.483  14.109  0.9358  0.6669  0.4798
   19TMC2    H2  299   0.602   0.759  13.989 -0.5421 -0.3789  0.1619
   19TMC2    C7  300   0.642   0.510  14.056 -0.4969 -0.0184  0.2859
   19TMC2    C8  301   0.764   0.954  13.909  0.5921  0.1466  0.1258
   19TMC2    O1  302   0.661   0.426  14.144 -0.2658  0.0208 -0.5215
   19TMC2    O2  303   0.839   1.021  13.843 -0.0956 -0.0604 -0.8123
   19TMC2    O5  304   0.714   1.000  14.026  0.4001  0.4439  0.5408
   19TMC2    H5  305   0.692   0.934  14.095  0.2064  0.8208  0.8399
   20MPD2     C  306   1.382   0.511  13.978 -0.1689 -0.0182 -0.6190
   20MPD2    C1  307   1.275   0.465  14.042 -0.0788  0.3104 -0.6453
   20MPD2    C2  308   1.294   0.347  14.116  0.6763  0.3116  0.8818
   20MPD2    C3  309   1.416   0.286  14.129 -0.3356 -0.1439  0.3751
   20MPD2    C4  310   1.524   0.343  14.066 -0.3313 -0.0188 -0.4680
   20MPD2    C5  311   1.507   0.458  13.996  0.1485  0.9717  0.1567
   20MPD2     H  312   1.203   0.310  14.162  0.2828  0.0341 -0.1163
   20MPD2    H1  313   1.621   0.295  14.076 -0.6875 -0.2356  1.9775
   20MPD2    H2  314   1.371   0.600  13.917  1.8361 -0.2891 -1.3698
   20MPD2    H3  315   1.597   0.492  13.945 -0.9895  0.5088 -2.1787
   20MPD2     N  316   1.426   0.171  14.214 -0.2420 -0.2075 -0.6180
   20MPD2    H5  317   1.523   0.145  14.231 -0.0694 -0.4320 -2.0192
   20MPD2    N1  318   1.146   0.523  14.044 -0.0740 -0.1849 -0.0581
   20MPD2    H7  319   1.081   0.494  14.117 -1.1599 -1.5222 -1.5697
   21MPD2     C  320   2.604   0.443  14.189  0.4337  0.2509 -0.0694
   21MPD2    C1  321   2.704   0.380  14.264 -1.2087 -0.0710  0.1374
   21MPD2    C2  322   2.724   0.416  14.395 -0.5136  0.0629 -0.0820
   21MPD2    C3  323   2.649   0.516  14.445  0.6425  0.4736 -0.2463
   21MPD2    C4  324   2.554   0.579  14.373  0.2499  0.0764  0.5026
   21MPD2    C5  325   2.535   0.546  14.246 -0.0301  0.5198  0.2771
   21MPD2     H  326   2.801   0.360  14.447  0.6910 -1.2270 -3.1978
   21MPD2    H1  327   2.496   0.654  14.426 -2.0456 -1.8814  0.7588
   21MPD2    H2  328   2.577   0.415  14.088 -0.3366  0.3770  0.1038
   21MPD2    H3  329   2.451   0.593  14.195 -0.0957 -2.0720 -2.0105
   21MPD2     N  330   2.662   0.563  14.576 -0.0424  0.4298  0.3547
   21MPD2    H5  331   2.610   0.647  14.600 -0.6230 -0.1412  1.0855
   21MPD2    N1  332   2.786   0.281  14.203  0.0024 -0.4241 -0.8374
   21MPD2    H7  333   2.863   0.239  14.255 -0.6861 -0.1038  0.4478
   22TCq2    C1  334   2.769   0.520  14.662 -0.1440 -0.3907  0.4682
   22TCq2    O2  335   2.870   0.457  14.632  1.2602  0.0383  0.5643
   22TCq2    C2  336   2.771   0.581  14.798  0.5237  0.4087  0.1896
   22TCq2    C3  337   2.881   0.549  14.876 -0.2892 -0.3080  0.0003
   22TCq2    C4  338   2.890   0.607  15.003 -0.1434 -0.6791 -0.5543
   22TCq2    C5  339   2.798   0.701  15.044  0.2957  0.7119  1.2032
   22TCq2    C6  340   2.681   0.715  14.966 -0.4806  0.4314  0.4456
   22TCq2    C7  341   2.669   0.663  14.839  0.6777 -0.5038 -1.1607
   22TCq2    C8  342   2.585   0.812  15.012  0.7115  0.9018  0.3051
   22TCq2    O4  343   2.577   0.820  15.132 -0.4521 -0.1056 -0.6400
   22TCq2    C9  344   3.013   0.583  15.066 -0.4275  0.2152  0.5837
   22TCq2    O5  345   3.066   0.475  15.028 -0.2756  0.0903  0.1639
   22TCq2    O6  346   3.067   0.671  15.137 -0.1171  0.0097  0.3641
   22TCq2    H2  347   2.959   0.484  14.839 -2.9024 -3.1535 -0.4594
   22TCq2    H3  348   2.820   0.750  15.138  0.1275  1.6380  0.7523
   22TCq2    H4  349   2.582   0.675  14.775 -0.1371  0.1402  0.0695
   23MPD2     C  350   0.067   1.443  14.533 -0.1679 -0.0819 -0.2135
   23MPD2    C1  351   4.713   1.534  14.597  0.1096  0.3320  0.3599
   23MPD2    C2  352   4.655   1.638  14.527  0.3356 -0.2262  0.1590
   23MPD2    C3  353   4.663   1.648  14.389 -0.4592  0.2630 -0.3329
   23MPD2    C4  354   4.725   1.545  14.327  0.4217  0.2027 -0.6438
   23MPD2    C5  355   0.068   1.449  14.394  0.6083  0.4853  0.6918
   23MPD2     H  356   4.597   1.708  14.586 -0.9383 -1.1436 -0.0049
   23MPD2    H1  357   0.007   1.545  14.219 -0.3890 -0.0589 -0.7031
   23MPD2    H2  358   0.112   1.352  14.571  2.4967  0.4036 -2.2141
   23MPD2    H3  359   0.111   1.368  14.336 -0.2763  1.7192 -1.7248
   23MPD2     N  360   4.582   1.736  14.316 -0.4325 -0.0701  0.1291
   23MPD2    H5  361   4.574   1.721  14.216 -2.4911 -1.6350  0.5147
   23MPD2    N1  362   4.677   1.517  14.731  0.6382 -0.6282  0.1885
   23MPD2    H7  363   4.599   1.571  14.768 -0.0942 -0.3987 -1.6682
   24TCq2    C1  364   4.529   1.850  14.364 -0.0688 -0.3526 -0.4036
   24TCq2    O2  365   4.555   1.912  14.463 -0.1358 -0.0371  0.2545
   24TCq2    C2  366   4.447   1.917  14.262  0.1159  0.2137  0.1192
   24TCq2    C3  367   4.423   2.054  14.276 -0.0064 -0.3844 -0.5442
   24TCq2    C4  368   4.321   2.112  14.201  0.1029  0.6584 -0.3427
   24TCq2    C5  369   4.231   2.035  14.136  0.3101 -0.5532  0.1695
   24TCq2    C6  370   4.253   1.901  14.144 -0.5398  0.2606  0.4435
   24TCq2    C7  371   4.353   1.838  14.201 -0.0891 -0.2560 -0.1832
   24TCq2    C8  372   4.155   1.818  14.081  0.4900 -0.3084  0.3574
   24TCq2    O4  373   4.183   1.718  14.020  0.0644 -0.0501 -0.0798
   24TCq2    C9  374   4.300   2.252  14.216 -0.1700 -0.7314  0.9547
   24TCq2    O5  375   4.180   2.292  14.190  0.1517  0.0169  0.5931
   24TCq2    O6  376   4.389   2.321  14.268 -0.1098 -0.3258 -0.5078
   24TCq2    H2  377   4.487   2.115  14.339 -0.0666 -0.2113 -0.6494
   24TCq2    H3  378   4.143   2.082  14.093 -0.7959 -1.3221  1.5889
   24TCq2    H4  379   4.345   1.731  14.215  0.5639 -0.0276  1.8184
   25TMC2    C1  380   3.873   4.235  11.852  0.1755  0.0756 -0.1091
   25TMC2    C2  381   3.983   4.304  11.898  0.8574  0.0369  0.7490
   25TMC2    C3  382   3.998   4.320  12.033 -0.0225 -0.4716  0.0645
   25TMC2    C4  383   3.774   4.186  11.938 -0.1210 -0.1263  0.3771
   25TMC2    C5  384   3.794   4.212  12.068 -0.1301 -0.5610  0.2072
   25TMC2    C6  385   3.900   4.279  12.120 -0.1183  0.8619  0.4431
   25TMC2     C  386   3.865   4.201  11.713  0.2765 -0.2120  0.7216
   25TMC2     O  387   3.964   4.234  11.651  0.3003 -0.5778  0.2838
   25TMC2     H  388   4.061   4.333  11.830 -0.5303 -3.2822 -2.2417
   25TMC2    H1  389   3.699   4.112  11.910 -0.1506  0.7519 -1.8772
   25TMC2    H2  390   3.907   4.292  12.227  2.8929 -0.3783  0.3762
   25TMC2    C7  391   3.680   4.190  12.153  0.2754 -0.5928  0.4310
   25TMC2    C8  392   4.119   4.339  12.101 -0.2100 -0.0097  0.2390
   25TMC2    O1  393   3.705   4.151  12.266  0.6215  1.0192  0.0311
   25TMC2    O2  394   4.124   4.330  12.225  0.2288  1.0173  0.3584
   25TMC2    O5  395   4.227   4.327  12.021 -0.1406  0.6801  0.1378
   25TMC2    H5  396   4.216   4.366  11.932  2.3085 -0.5479 -0.6987
   26MPD2     C  397   3.649   3.989  11.304  0.4375 -0.0095  0.0650
   26MPD2    C1  398   3.553   3.977  11.402 -0.7996  0.1922  0.4438
   26MPD2    C2  399   3.594   4.013  11.529 -0.0270  1.1038 -0.5575
   26MPD2    C3  400   3.720   4.074  11.556 -0.2831  0.2756  0.2448
   26MPD2    C4  401   3.817   4.067  11.454 -0.2857  0.1816  0.3059
   26MPD2    C5  402   3.771   4.033  11.331 -0.3553  0.0233 -0.8835
   26MPD2     H  403   3.517   4.016  11.606 -0.1779  1.3479 -0.7168
   26MPD2    H1  404   3.917   4.107  11.463  0.4240 -1.8937  1.7824
   26MPD2    H2  405   3.628   3.959  11.202  1.2555 -1.3164  0.2815
   26MPD2    H3  406   3.832   4.044  11.242  1.3387 -1.0408  0.1517
   26MPD2     N  407   3.750   4.141  11.680 -0.4099 -0.4342 -0.6417
   26MPD2    H5  408   3.670   4.137  11.742  1.1508 -1.0332  1.3231
   26MPD2    N1  409   3.424   3.927  11.372 -0.2505  0.1520 -0.8082
   26MPD2    H7  410   3.420   3.890  11.278 -2.6062 -1.2695 -0.1353
   27TMC2    C1  411   2.088   1.344  12.398  0.2224 -0.1195 -0.5974
   27TMC2    C2  412   1.995   1.410  12.320  0.2585 -0.7689 -0.2827
   27TMC2    C3  413   2.024   1.536  12.292 -0.0863  1.2136 -0.3036
   27TMC2    C4  414   2.214   1.393  12.417 -0.4841 -0.0523 -0.0752
   27TMC2    C5  415   2.230   1.528  12.400  0.2221  0.0902  0.0143
   27TMC2    C6  416   2.130   1.606  12.341 -0.3542  0.1813  0.7380
   27TMC2     C  417   2.048   1.221  12.470  0.0210 -0.1940  0.4681
   27TMC2     O  418   2.130   1.140  12.502 -0.6286 -0.4261 -0.3365
   27TMC2     H  419   1.900   1.369  12.287 -0.3739  0.3689  0.1432
   27TMC2    H1  420   2.300   1.332  12.443 -1.1237 -1.7775 -2.0402
   27TMC2    H2  421   2.153   1.712  12.340  1.5357 -0.2185  0.3577
   27TMC2    C7  422   2.280   1.586  12.527  1.0139 -0.0686 -0.3698
   27TMC2    C8  423   1.979   1.588  12.168 -0.0195 -0.0289  0.1650
   27TMC2    O1  424   2.353   1.515  12.596  0.4240  0.2765  0.0595
   27TMC2    O2  425   2.003   1.699  12.133  0.1234  0.1384 -0.5898
   27TMC2    O5  426   1.976   1.487  12.075  0.0690  0.2424 -0.2367
   27TMC2    H5  427   1.985   1.396  12.110  1.2064  0.3422 -0.2494
   28MPD2     C  428   1.752   0.988  12.814  0.2815 -0.3605 -0.0178
   28MPD2    C1  429   1.694   1.112  12.787  0.2302 -0.2860  0.4388
   28MPD2    C2  430   1.755   1.186  12.689 -0.1672  0.0119 -0.0755
   28MPD2    C3  431   1.871   1.146  12.625  0.5016 -0.4148  0.5125
   28MPD2    C4  432   1.918   1.023  12.652 -0.9049 -0.0849 -0.0414
   28MPD2    C5  433   1.863   0.947  12.745 -0.2921  0.1734  0.1264
   28MPD2     H  434   1.701   1.274  12.654 -1.1781  0.5225  2.7651
   28MPD2    H1  435   1.987   0.975  12.584  1.0769 -0.4093  2.2076
   28MPD2    H2  436   1.710   0.922  12.889  1.4408 -0.0816  0.8853
   28MPD2    H3  437   1.900   0.846  12.760 -1.3238 -0.3403 -0.7819
   28MPD2     N  438   1.931   1.238  12.527  0.0167 -0.4112  0.3104
   28MPD2    H5  439   1.886   1.329  12.521  0.0210 -0.4356 -0.1300
   28MPD2    N1  440   1.573   1.136  12.862  0.3357 -0.3219  0.1705
   28MPD2    H7  441   1.545   1.060  12.922  0.0643 -0.8213 -0.5860
   29MPD2     C  442   1.265   3.621  13.990  0.0827 -0.4592  0.1451
   29MPD2    C1  443   1.373   3.581  14.066  0.4719  0.0875  0.0925
   29MPD2    C2  444   1.422   3.664  14.167 -0.3692  0.1665 -0.3886
   29MPD2    C3  445   1.363   3.787  14.196  0.7376 -0.1744 -0.8444
   29MPD2    C4  446   1.257   3.828  14.111  0.2556  0.3365  0.0659
   29MPD2    C5  447   1.216   3.747  14.013 -0.1257 -0.2096 -0.3399
   29MPD2     H  448   1.505   3.624  14.224  0.7611  3.6510  0.4492
   29MPD2    H1  449   1.218   3.928  14.122 -1.4126 -0.2327 -0.6227
   29MPD2    H2  450   1.222   3.558  13.913  0.5619 -1.6862  0.8722
   29MPD2    H3  451   1.133   3.788  13.956 -0.6603 -0.6109  0.1569
   29MPD2     N  452   1.414   3.884  14.289  0.4166  0.7504  0.0113
   29MPD2    H5  453   1.359   3.969  14.297 -1.6637 -0.5295 -0.7359
   29MPD2    N1  454   1.444   3.470  14.034  0.6269 -0.6684 -0.4863
   29MPD2    H7  455   1.538   3.464  14.071 -0.0475  0.4389  1.3736
   30TCq2    C1  456   1.525   3.872  14.364  0.2459  0.1504  0.3594
   30TCq2    O2  457   1.585   3.773  14.407  0.2087  0.4117 -0.1107
   30TCq2    C2  458   1.569   4.002  14.415 -0.0277  0.1803  0.3216
   30TCq2    C3  459   1.622   4.012  14.542 -0.0084  0.3521  0.1481
   30TCq2    C4  460   1.692   4.123  14.570 -0.0497  1.1669 -0.0974
   30TCq2    C5  461   1.708   4.220  14.480  0.8371 -0.0273  0.2416
   30TCq2    C6  462   1.659   4.204  14.352 -0.6372  0.1715  0.3499
   30TCq2    C7  463   1.595   4.092  14.316 -0.5618 -0.3430  0.5339
   30TCq2    C8  464   1.659   4.324  14.262  0.2758  0.7066 -0.2769
   30TCq2    O4  465   1.583   4.317  14.163  0.2441  0.5817  0.1168
   30TCq2    C9  466   1.720   4.154  14.704 -0.1662  0.4155 -0.3327
   30TCq2    O5  467   1.825   4.211  14.736  0.3395  0.7678  0.2251
   30TCq2    O6  468   1.630   4.138  14.791 -0.3038  0.2271 -0.3044
   30TCq2    H2  469   1.599   3.940  14.619  2.6668 -1.0394 -0.3826
   30TCq2    H3  470   1.761   4.307  14.518  1.3750 -1.0764  1.8935
   30TCq2    H4  471   1.576   4.064  14.214 -2.7473  1.0955  0.5326
   31MPD2     C  472   3.795   2.933  14.401 -0.3415 -0.3182  0.1645
   31MPD2    C1  473   3.924   2.956  14.371  0.4929  0.1870  0.7126
   31MPD2    C2  474   4.016   2.866  14.422 -0.0480  0.3225 -1.0687
   31MPD2    C3  475   3.974   2.759  14.500  0.1082  0.2288 -0.2764
   31MPD2    C4  476   3.840   2.743  14.526  0.5183  0.0170 -0.3894
   31MPD2    C5  477   3.750   2.831  14.477 -0.0111 -0.4423 -0.6955
   31MPD2     H  478   4.123   2.874  14.403  0.0365  1.6654 -0.0419
   31MPD2    H1  479   3.805   2.658  14.583 -3.0858  0.6634 -1.5924
   31MPD2    H2  480   3.713   2.992  14.360 -3.6193 -3.0693  2.8074
   31MPD2    H3  481   3.642   2.823  14.487 -0.1853  1.9681 -0.6250
   31MPD2     N  482   4.057   2.667  14.563 -0.5724 -0.2497  0.1592
   31MPD2    H5  483   4.009   2.613  14.634  0.5417 -0.9340  0.3870
   31MPD2    N1  484   3.961   3.054  14.280  0.1424  0.4130 -0.4241
   31MPD2    H7  485   3.891   3.089  14.215 -1.6679 -1.0340  0.7608
   32TCq2    C1  486   4.174   2.621  14.506  0.1713 -0.8730  0.4434
   32TCq2    O2  487   4.227   2.658  14.402 -0.2867 -0.0255 -0.7247
   32TCq2    C2  488   4.252   2.524  14.588  1.1862  0.3795  0.0218
   32TCq2    C3  489   4.364   2.478  14.533 -0.0709 -0.3910  0.6800
   32TCq2    C4  490   4.456   2.409  14.604 -0.0855  0.0152  0.4026
   32TCq2    C5  491   4.428   2.384  14.734 -0.1094  0.2739 -0.2061
   32TCq2    C6  492   4.317   2.426  14.795  0.9576  0.6305  0.4230
   32TCq2    C7  493   4.218   2.492  14.723 -0.0787  0.0818 -0.1372
   32TCq2    C8  494   4.297   2.379  14.932 -0.9938 -0.0822  0.3910
   32TCq2    O4  495   4.379   2.302  14.981  0.5159 -0.2193 -0.0368
   32TCq2    C9  496   4.580   2.377  14.551 -0.0529 -0.1303  1.0825
   32TCq2    O5  497   4.654   2.297  14.616 -0.0124 -0.0041 -0.4615
   32TCq2    O6  498   4.621   2.441  14.445 -0.0495  0.8113  0.0044
   32TCq2    H2  499   4.387   2.507  14.431  0.0006  4.7034  2.1819
   32TCq2    H3  500   4.501   2.333  14.796  0.5729  0.9737 -0.4301
   32TCq2    H4  501   4.136   2.542  14.774  0.6653  0.3823  0.7637
   33MPD2     C  502   4.480   0.226  10.308 -0.0617  0.1624 -0.3397
   33MPD2    C1  503   4.501   0.116  10.229 -0.3227  0.7074 -0.3790
   33MPD2    C2  504   4.512   0.133  10.090 -0.0535  0.5694 -0.4493
   33MPD2    C3  505   4.520   0.259  10.037 -0.3723 -0.1264  0.0794
   33MPD2    C4  506   4.510   0.368  10.120 -0.2125  0.1158  0.1445
   33MPD2    C5  507   4.496   0.352  10.254 -0.3711  0.6464  0.4616
   33MPD2     H  508   4.551   0.055  10.026 -0.9899  0.5026 -0.9353
   33MPD2    H1  509   4.524   0.468  10.082 -1.9417  0.9530  1.6916
   33MPD2    H2  510   4.497   0.221  10.415 -2.2316  0.1373  0.0044
   33MPD2    H3  511   4.513   0.441  10.313 -0.8557 -0.0775  1.6811
   33MPD2     N  512   4.548   0.285   9.903 -0.1531  0.3070 -0.4023
   33MPD2    H5  513   4.569   0.383   9.882 -1.7381  0.6507 -0.3451
   33MPD2    N1  514   4.531   4.720  10.300  0.6776 -0.2927 -0.2629
   33MPD2    H7  515   4.526   4.714  10.401  0.5598 -0.0341 -0.2531
   34TCq2    C1  516   4.555   0.196   9.793  0.6547  0.0099  0.3230
   34TCq2    O2  517   4.514   0.080   9.779 -0.6997 -0.1318  0.4356
   34TCq2    C2  518   4.585   0.258   9.666  0.6589 -0.4217  0.1548
   34TCq2    C3  519   4.518   0.223   9.555 -0.7479  0.6967  0.1689
   34TCq2    C4  520   4.494   0.313   9.455 -0.7992 -0.3817  0.3929
   34TCq2    C5  521   4.547   0.438   9.455  0.3453  0.1160  0.2916
   34TCq2    C6  522   4.632   0.463   9.564 -0.3273  0.4614 -0.0887
   34TCq2    C7  523   4.650   0.381   9.671  0.5168 -0.7737 -0.6685
   34TCq2    C8  524   4.681   0.603   9.581  0.5247 -0.8670 -0.9545
   34TCq2    O4  525   0.036   0.624   9.669 -0.0642  0.7402  0.5609
   34TCq2    C9  526   4.427   0.275   9.333  0.6178 -0.7454  0.3825
   34TCq2    O5  527   4.424   0.356   9.237  0.6747  0.2425  0.5089
   34TCq2    O6  528   4.356   0.171   9.334  0.0725 -0.3027  0.0516
   34TCq2    H2  529   4.468   0.126   9.551  1.3506 -0.4604  1.9844
   34TCq2    H3  530   4.517   0.501   9.372 -2.5203 -1.0944  0.4140
   34TCq2    H4  531   4.711   0.418   9.752 -2.1192  1.6411  0.2008
   35MPD2     C  532   1.222   1.800  12.085 -0.2549  0.1408  0.8708
   35MPD2    C1  533   1.213   1.685  12.010 -0.4349 -0.7745  0.6981
   35MPD2    C2  534   1.215   1.690  11.870  0.1864 -0.3255 -0.5474
   35MPD2    C3  535   1.217   1.812  11.805 -0.2961 -0.1101  0.1318
   35MPD2    C4  536   1.225   1.929  11.885 -0.4419  0.0245  0.2815
   35MPD2    C5  537   1.218   1.923  12.023  0.3116  0.6979 -0.6383
   35MPD2     H  538   1.214   1.599  11.812 -0.8066 -1.2119  0.8780
   35MPD2    H1  539   1.231   2.025  11.835  1.8287 -1.7805 -2.9411
   35MPD2    H2  540   1.210   1.799  12.193 -4.1215 -0.7399  0.4446
   35MPD2    H3  541   1.215   2.016  12.079 -0.3363 -1.2702  2.6338
   35MPD2     N  542   1.211   1.817  11.665  0.1893 -0.0848 -0.2319
   35MPD2    H5  543   1.194   1.727  11.620 -0.9643 -1.0243  2.0703
   35MPD2    N1  544   1.177   1.577  12.087  0.4550  0.3022 -0.4537
   35MPD2    H7  545   1.167   1.587  12.188 -0.3135  0.4610 -0.5476
   36TCq2    C1  546   1.221   1.929  11.587 -0.1545 -0.4369  0.3007
   36TCq2    O2  547   1.270   2.038  11.618  0.1586  0.2372 -0.0341
   36TCq2    C2  548   1.173   1.913  11.450  0.3974 -0.0821  0.8703
   36TCq2    C3  549   1.216   2.009  11.357 -0.0263 -0.4440 -0.6757
   36TCq2    C4  550   1.159   1.997  11.235 -0.5749  0.1704  0.4116
   36TCq2    C5  551   1.073   1.896  11.207  0.5046  0.3105  0.2961
   36TCq2    C6  552   1.046   1.797  11.299  0.7538  0.4330 -0.0190
   36TCq2    C7  553   1.089   1.810  11.426 -0.0374  0.5750 -1.0202
   36TCq2    C8  554   0.978   1.672  11.268 -0.0566  0.2538 -0.0414
   36TCq2    O4  555   0.990   1.587  11.350 -0.0204 -0.4083 -0.1617
   36TCq2    C9  556   1.189   2.101  11.133  0.8708 -0.1428 -0.4513
   36TCq2    O5  557   1.137   2.090  11.023  0.1089 -0.0160 -0.0927
   36TCq2    O6  558   1.259   2.195  11.175  0.5899 -0.3683 -0.0865
   36TCq2    H2  559   1.286   2.088  11.382  0.0523 -0.5500 -0.5652
   36TCq2    H3  560   1.035   1.889  11.106  1.7197 -1.1642 -0.0590
   36TCq2    H4  561   1.059   1.736  11.499 -0.1149  0.4609 -1.1678
   37TMC2    C1  562   3.696   2.144  11.603 -0.3053  0.2353  0.0120
   37TMC2    C2  563   3.687   2.266  11.552  0.3396 -0.5455 -0.7004
   37TMC2    C3  564   3.787   2.352  11.588  0.4232  0.0036  0.3616
   37TMC2    C4  565   3.788   2.105  11.693  0.3706 -0.7022  0.3074
   37TMC2    C5  566   3.895   2.183  11.725  0.3190  0.3354  0.0499
   37TMC2    C6  567   3.885   2.314  11.674 -0.1241 -0.0106  0.7279
   37TMC2     C  568   3.597   2.049  11.544  0.8253 -0.2568 -0.3679
   37TMC2     O  569   3.548   2.084  11.432 -0.0789 -0.2062  0.1582
   37TMC2     H  570   3.615   2.291  11.475 -2.6859 -3.2173  1.2282
   37TMC2    H1  571   3.792   2.002  11.728  0.4867 -0.5488  0.7463
   37TMC2    H2  572   3.956   2.387  11.711  0.1636 -0.7103  1.5545
   37TMC2    C7  573   3.989   2.154  11.838  0.4920  0.0197 -0.5269
   37TMC2    C8  574   3.774   2.490  11.542  0.2698  0.5357 -0.1980
   37TMC2    O1  575   3.955   2.065  11.913 -0.0498 -0.1436 -0.2221
   37TMC2    O2  576   3.683   2.524  11.466 -0.7719  0.1292  0.2625
   37TMC2    O5  577   3.843   2.560  11.630 -0.8471  0.2648 -0.4078
   37TMC2    H5  578   3.848   2.499  11.707 -0.3245 -1.4910 -1.8327
   38MPD2     C  579   3.161   1.784  11.627  0.2492  0.5503 -0.0289
   38MPD2    C1  580   3.243   1.776  11.735 -0.7402 -0.5042  0.3255
   38MPD2    C2  581   3.360   1.851  11.738  0.3767 -0.2989  0.5545
   38MPD2    C3  582   3.410   1.907  11.628  0.7468 -0.2454 -0.4421
   38MPD2    C4  583   3.337   1.907  11.512  0.2562 -0.2331  0.0100
   38MPD2    C5  584   3.208   1.855  11.521 -0.1747  0.0809  0.0323
   38MPD2     H  585   3.401   1.871  11.837  0.5161 -0.5745  0.5498
   38MPD2    H1  586   3.367   1.951  11.418  1.7520 -2.8153 -0.7292
   38MPD2    H2  587   3.061   1.743  11.632  0.7277 -0.8248 -1.5877
   38MPD2    H3  588   3.148   1.845  11.432 -1.7446  0.7337  1.0301
   38MPD2     N  589   3.536   1.968  11.640  0.2549 -0.5287 -0.6756
   38MPD2    H5  590   3.585   1.963  11.729 -0.5622 -1.7821 -0.3011
   38MPD2    N1  591   3.206   1.721  11.861 -0.1681 -0.0329  0.5968
   38MPD2    H7  592   3.259   1.737  11.945  0.5577 -0.3054  0.1938
   39MPD2     C  593   1.552   3.354   1.360  0.7574  0.0704 -0.0905
   39MPD2    C1  594   1.438   3.335   1.432  0.5956  0.0734 -0.3316
   39MPD2    C2  595   1.321   3.390   1.382 -0.2536  0.4462 -0.0333
   39MPD2    C3  596   1.321   3.452   1.261 -0.4011 -0.0658  0.0513
   39MPD2    C4  597   1.435   3.466   1.192  0.3562  0.1446 -1.6757
   39MPD2    C5  598   1.550   3.417   1.245 -0.2389  0.2992 -0.2898
   39MPD2     H  599   1.227   3.372   1.432 -0.9608  0.4585 -1.3636
   39MPD2    H1  600   1.423   3.496   1.088 -1.5148  1.8354 -0.9547
   39MPD2    H2  601   1.647   3.322   1.399  0.7206 -2.2248 -1.8679
   39MPD2    H3  602   1.641   3.426   1.187  0.5175 -0.8978  0.7042
   39MPD2     N  603   1.202   3.492   1.197 -0.9401  0.0293  0.4872
   39MPD2    H5  604   1.219   3.538   1.108  1.3868 -0.0389  0.9073
   39MPD2    N1  605   1.436   3.269   1.560 -0.1223  0.3083  0.0274
   39MPD2    H7  606   1.523   3.243   1.604 -0.2503  0.2448  0.2426
   40TCq2    C1  607   1.326   3.219   1.627 -0.2970  0.1207 -0.6334
   40TCq2    O2  608   1.207   3.218   1.596 -0.1521  0.2404 -0.2518
   40TCq2    C2  609   1.343   3.191   1.770 -0.2631  0.0441 -0.1839
   40TCq2    C3  610   1.229   3.172   1.837 -0.2007  0.4113 -0.6271
   40TCq2    C4  611   1.237   3.130   1.968  0.1253  0.2735  0.8130
   40TCq2    C5  612   1.365   3.125   2.029  0.1262 -0.2109 -0.2948
   40TCq2    C6  613   1.477   3.161   1.962  0.3441  1.2824 -0.2792
   40TCq2    C7  614   1.468   3.180   1.825  0.0583 -0.4163 -0.2321
   40TCq2    C8  615   1.602   3.166   2.024 -0.1665 -0.5947 -0.2886
   40TCq2    O4  616   1.616   3.096   2.122 -0.5696  0.4537 -0.5983
   40TCq2    C9  617   1.117   3.136   2.059 -0.4497 -0.0249  0.6293
   40TCq2    O5  618   1.020   3.205   2.011 -0.2012  0.6960 -0.0159
   40TCq2    O6  619   1.131   3.107   2.182  0.6229  0.3438  0.3780
   40TCq2    H2  620   1.127   3.183   1.801 -0.2658  0.0117 -0.5676
   40TCq2    H3  621   1.372   3.098   2.134  1.0159  2.5457  0.3328
   40TCq2    H4  622   1.560   3.175   1.767  0.5070 -2.0075  0.6098
   41TMC2    C1  623   0.459   1.920  13.790  0.5579 -0.0846  0.3293
   41TMC2    C2  624   0.381   2.009  13.859  0.2928 -0.1226  0.3624
   41TMC2    C3  625   0.310   2.102  13.786 -0.5914 -0.2474  0.9040
   41TMC2    C4  626   0.478   1.930  13.653  0.3983 -0.1480 -0.0726
   41TMC2    C5  627   0.414   2.024  13.582  0.1228  0.3467 -1.2090
   41TMC2    C6  628   0.321   2.107  13.649 -0.1846  0.4106 -0.6270
   41TMC2     C  629   0.516   1.805  13.861  0.5006 -0.1560 -0.2904
   41TMC2     O  630   0.628   1.770  13.823 -0.1258  0.0073  0.4177
   41TMC2     H  631   0.359   2.001  13.965 -3.0426 -0.6905 -0.3726
   41TMC2    H1  632   0.541   1.858  13.602 -0.5878 -0.5554 -0.7137
   41TMC2    H2  633   0.282   2.190  13.591  1.1935  0.2044 -1.8379
   41TMC2    C7  634   0.453   2.054  13.445 -0.0237 -0.4646 -0.5473
   41TMC2    C8  635   0.205   2.190  13.843  0.0159  0.6362 -0.4892
   41TMC2    O1  636   0.410   2.160  13.397 -0.3402  0.1714 -0.2130
   41TMC2    O2  637   0.107   2.223  13.778 -0.0033 -0.0169 -0.9866
   41TMC2    O5  638   0.251   2.253  13.950 -0.1511 -0.2353  0.0438
   41TMC2    H5  639   0.345   2.245  13.980 -0.5363 -0.3044  1.2481
   42MPD2     C  640   0.634   1.679  14.093 -0.2865 -0.2798 -0.2871
   42MPD2    C1  641   0.507   1.725  14.093  0.2423 -0.3320  0.9552
   42MPD2    C2  642   0.437   1.732  14.212  0.7378  0.5207  0.2071
   42MPD2    C3  643   0.495   1.690  14.330 -0.5038  0.0149  0.3074
   42MPD2    C4  644   0.626   1.635  14.325  0.1916  0.0253 -0.0891
   42MPD2    C5  645   0.695   1.631  14.211  0.0567  0.0871 -0.6048
   42MPD2     H  646   0.331   1.756  14.214  0.1381 -2.0147 -0.6479
   42MPD2    H1  647   0.676   1.589  14.410 -0.4164  0.5068  0.5283
   42MPD2    H2  648   0.701   1.685  14.008  0.3607 -1.7089  0.1149
   42MPD2    H3  649   0.801   1.606  14.214 -0.1117 -0.3418  1.9220
   42MPD2     N  650   0.433   1.705  14.454  0.0619 -0.0967 -0.2299
   42MPD2    H5  651   0.471   1.649  14.530 -1.2695 -0.7068 -0.0135
   42MPD2    N1  652   0.446   1.765  13.973  0.1904  0.0651  0.1929
   42MPD2    H7  653   0.348   1.787  13.983 -0.1312 -0.7617 -1.1615
   43MPD2     C  654   1.514   4.380   0.576  0.6529  1.1858 -0.1266
   43MPD2    C1  655   1.598   4.319   0.671  0.3630  0.2296  0.2729
   43MPD2    C2  656   1.601   4.366   0.800 -0.2948  0.8822 -0.2515
   43MPD2    C3  657   1.513   4.461   0.840 -0.3259 -0.0813  0.5206
   43MPD2    C4  658   1.441   4.525   0.749 -0.2489 -0.0918 -0.3939
   43MPD2    C5  659   1.441   4.480   0.621  0.6277  0.1499 -0.7481
   43MPD2     H  660   1.657   4.301   0.867  1.7477  0.8974 -1.9622
   43MPD2    H1  661   1.371   4.606   0.766  0.4306  0.4259 -0.0545
   43MPD2    H2  662   1.499   4.342   0.476  1.2008  0.0761  0.2140
   43MPD2    H3  663   1.374   4.532   0.554  1.1146 -0.5928 -1.8075
   43MPD2     N  664   1.520   4.513   0.972  0.5402 -0.0250 -0.1978
   43MPD2    H5  665   1.459   4.590   0.996  0.4336  0.0411 -0.6766
   43MPD2    N1  666   1.685   4.211   0.639 -0.9672 -0.5152  0.6052
   43MPD2    H7  667   1.747   4.178   0.712  0.1464 -0.1966 -0.1949
   44TCq2    C1  668   1.612   0.142   1.306 -0.1923  0.4652  0.5625
   44TCq2    O2  669   1.632   0.194   1.195 -0.3809  0.1179  0.0881
   44TCq2    C2  670   1.552   0.010   1.307 -0.2524 -0.5385  0.3099
   44TCq2    C3  671   1.535   4.672   1.429  0.0058 -0.0557 -1.1155
   44TCq2    C4  672   1.545   4.536   1.428  0.0954 -0.3468  0.9957
   44TCq2    C5  673   1.567   4.469   1.306  0.3973  0.2729 -0.1460
   44TCq2    C6  674   1.564   4.535   1.194  0.1336 -0.2855 -0.1099
   44TCq2    C7  675   1.560   4.670   1.190 -0.3923 -0.3698 -0.0166
   44TCq2    C8  676   1.593   4.461   1.075  0.1063 -0.7626 -0.0029
   44TCq2    O4  677   1.672   4.371   1.079 -0.2254  0.7692 -0.0850
   44TCq2    C9  678   1.554   4.465   1.558  1.1919  0.5968 -0.4227
   44TCq2    O5  679   1.519   4.529   1.660 -0.2397  0.5463 -0.2071
   44TCq2    O6  680   1.619   4.355   1.547 -0.9476 -0.1926  0.6776
   44TCq2    H2  681   1.508   4.716   1.524  1.3772  1.4869 -1.4323
   44TCq2    H3  682   1.576   4.361   1.309  0.5206  0.2066 -3.1717
   44TCq2    H4  683   1.574   0.000   1.098  1.6529 -2.0022 -0.7030
   45TMC2    C1  684   3.765   2.214   9.993 -0.2156 -1.0024  0.5770
   45TMC2    C2  685   3.887   2.142  10.015  0.3137  1.1801  0.0187
   45TMC2    C3  686   4.001   2.222  10.022 -0.4252  0.3970  0.6581
   45TMC2    C4  687   3.758   2.352   9.977 -0.6094 -0.5155 -0.1520
   45TMC2    C5  688   3.874   2.415   9.961  0.0675 -0.3422  0.4943
   45TMC2    C6  689   3.996   2.353   9.979  0.2742  0.0906 -0.1288
   45TMC2     C  690   3.644   2.130   9.977  0.0447 -0.4579  0.0541
   45TMC2     O  691   3.650   2.013  10.010  0.2914 -0.0254  0.0059
   45TMC2     H  692   3.873   2.037  10.039 -1.0921  1.6629  1.3451
   45TMC2    H1  693   3.670   2.403   9.940 -0.3749 -0.9192 -1.2806
   45TMC2    H2  694   4.088   2.408   9.989  0.0154  0.0937  2.2165
   45TMC2    C7  695   3.876   2.557   9.940  0.4452 -0.3753  0.0650
   45TMC2    C8  696   4.124   2.179  10.085  0.3458 -0.2860  0.0500
   45TMC2    O1  697   3.985   2.601   9.909  0.1107  0.2127 -0.4652
   45TMC2    O2  698   4.181   2.259  10.159  0.1978 -0.5330  0.1731
   45TMC2    O5  699   4.130   2.043  10.082  0.2727 -0.9352 -0.1670
   45TMC2    H5  700   4.065   2.006  10.018 -1.0917  0.1271  0.6329
   46MPD2     C  701   3.361   2.029   9.925  0.5399 -0.4952 -0.0802
   46MPD2    C1  702   3.403   2.159   9.905  0.0754  0.1109 -0.4561
   46MPD2    C2  703   3.310   2.254   9.856 -0.0415 -0.3242 -0.5159
   46MPD2    C3  704   3.187   2.203   9.812  0.0753 -0.3450 -0.6399
   46MPD2    C4  705   3.160   2.068   9.828  0.0693  0.3645 -0.3057
   46MPD2    C5  706   3.243   1.978   9.885 -0.4024  0.0858  0.5912
   46MPD2     H  707   3.340   2.354   9.827  2.0691 -1.3678 -1.9554
   46MPD2    H1  708   3.063   2.026   9.803  0.8758 -0.7759 -1.5300
   46MPD2    H2  709   3.436   1.957   9.957 -0.4110 -1.2824  0.4049
   46MPD2    H3  710   3.221   1.872   9.897  2.4091 -0.5597  0.1332
   46MPD2     N  711   3.097   2.295   9.749  0.3996 -0.3566 -0.4279
   46MPD2    H5  712   3.127   2.391   9.742 -2.7224  0.4998 -2.2723
   46MPD2    N1  713   3.539   2.208   9.927 -0.3427 -0.0558 -0.0700
   46MPD2    H7  714   3.556   2.306   9.909  0.0315 -0.1338 -0.1519
   47TMC2    C1  715   0.104   2.949   9.511 -0.6670  0.0498 -0.4106
   47TMC2    C2  716   4.697   2.980   9.529  0.0628 -0.4366 -0.4059
   47TMC2    C3  717   4.601   2.913   9.460 -0.4650  0.3497  0.2343
   47TMC2    C4  718   0.147   2.848   9.425 -0.3010 -0.1379  0.0776
   47TMC2    C5  719   0.049   2.797   9.343 -0.2673 -0.3461 -0.1545
   47TMC2    C6  720   4.642   2.826   9.358  0.0541 -0.3797 -0.0269
   47TMC2     C  721   0.185   2.979   9.630 -0.5777  0.6218 -0.3842
   47TMC2     O  722   0.152   3.062   9.717 -0.2440 -0.1656 -0.0663
   47TMC2     H  723   4.662   3.044   9.610  0.2201  0.6341 -1.1926
   47TMC2    H1  724   0.253   2.828   9.417 -0.3078 -0.2672  0.3202
   47TMC2    H2  725   4.570   2.783   9.290  2.3833 -3.0262 -0.8101
   47TMC2    C7  726   0.082   2.719   9.227 -0.0598 -0.0709  0.1832
   47TMC2    C8  727   4.464   2.938   9.485 -0.5527 -0.1847 -0.0527
   47TMC2    O1  728   4.715   2.687   9.153 -0.1937  0.1920 -1.0776
   47TMC2    O2  729   4.430   3.041   9.539  0.1750  0.1438  0.1959
   47TMC2    O5  730   4.385   2.830   9.453 -0.2622  0.1896 -0.2829
   47TMC2    H5  731   4.426   2.749   9.417  1.3354 -0.3802  2.8001
   48MPD2     C  732   0.434   2.998   9.797 -0.2470 -0.2578 -0.4053
   48MPD2    C1  733   0.387   2.881   9.742 -0.2051 -0.3215 -0.4585
   48MPD2    C2  734   0.453   2.765   9.778  0.8104  0.1576 -0.0629
   48MPD2    C3  735   0.562   2.763   9.862 -0.4919 -0.1794 -0.7448
   48MPD2    C4  736   0.608   2.881   9.916  0.0065 -0.2785 -0.4580
   48MPD2    C5  737   0.540   2.992   9.883 -0.5765  0.3287  0.1373
   48MPD2     H  738   0.418   2.672   9.734  1.3738 -0.1812  0.2016
   48MPD2    H1  739   0.690   2.891   9.987 -1.5694 -0.0132  1.3256
   48MPD2    H2  740   0.397   3.099   9.779  0.9921  0.1471 -0.6772
   48MPD2    H3  741   0.569   3.086   9.928 -1.3319  1.2804 -1.3766
   48MPD2     N  742   0.619   2.640   9.884 -0.2116 -0.3993 -0.8611
   48MPD2    H5  743   0.569   2.559   9.847 -0.8741 -0.7156  0.6902
   48MPD2    N1  744   0.277   2.877   9.650  0.2182  0.4793  0.2182
   48MPD2    H7  745   0.268   2.799   9.587  1.4128  0.0960  0.5287
   49MPD2     C  746   3.586   4.378  10.433  0.5576  0.2155  0.6792
   49MPD2    C1  747   3.490   4.312  10.363  0.1396  0.1353  0.0011
   49MPD2    C2  748   3.379   4.274  10.435 -0.1138 -0.3545  0.3139
   49MPD2    C3  749   3.357   4.304  10.567  0.4333  0.0030  0.3295
   49MPD2    C4  750   3.457   4.372  10.637  0.0211  0.3947  0.0275
   49MPD2    C5  751   3.572   4.399  10.569 -0.2133  0.0503  0.0130
   49MPD2     H  752   3.305   4.216  10.379 -0.5728 -0.1705  0.7308
   49MPD2    H1  753   3.459   4.408  10.739 -1.5614 -1.7403  0.8173
   49MPD2    H2  754   3.678   4.406  10.384  0.9405 -1.4510  0.4528
   49MPD2    H3  755   3.654   4.438  10.628  0.2457 -1.1057  0.1410
   49MPD2     N  756   3.235   4.271  10.639  0.0897  0.3497  0.0850
   49MPD2    H5  757   3.231   4.303  10.736  1.3464  1.1311 -0.1230
   49MPD2    N1  758   3.507   4.263  10.231  0.2472  0.8781 -0.4256
   49MPD2    H7  759   3.440   4.196  10.193 -0.6155  2.2673 -1.3393
   50TCq2    C1  760   3.615   4.308  10.148 -0.0716 -0.1545 -0.3489
   50TCq2    O2  761   3.657   4.424  10.154 -0.0078 -0.3107 -0.4219
   50TCq2    C2  762   3.625   4.242  10.018  0.2418 -0.0814  0.1216
   50TCq2    C3  763   3.534   4.142   9.976  0.1930 -0.4066 -0.6715
   50TCq2    C4  764   3.550   4.090   9.852 -0.6652 -0.2623 -0.2745
   50TCq2    C5  765   3.643   4.139   9.767  0.3023  0.2905  0.8286
   50TCq2    C6  766   3.713   4.243   9.805 -0.1988 -0.2126 -0.2826
   50TCq2    C7  767   3.714   4.298   9.932  0.2945  0.6735 -0.3586
   50TCq2    C8  768   3.807   4.295   9.699 -0.2659 -0.1195 -0.3468
   50TCq2    O4  769   3.824   4.235   9.595  0.5389  0.9710 -0.5048
   50TCq2    C9  770   3.468   3.975   9.804  0.2411 -0.0365  0.1781
   50TCq2    O5  771   3.368   3.954   9.872  0.3749  0.4096  0.4984
   50TCq2    O6  772   3.493   3.932   9.685 -0.4834  0.1387 -0.6185
   50TCq2    H2  773   3.450   4.105  10.034 -0.7769 -0.0143 -1.8427
   50TCq2    H3  774   3.653   4.098   9.667  0.2864  0.9912  0.5425
   50TCq2    H4  775   3.771   4.384   9.965 -3.8589  2.3743  2.3800
   51MPD2     C  776   2.840   2.785   1.630 -0.2436 -0.2126 -0.1663
   51MPD2    C1  777   2.974   2.764   1.656  0.1316 -0.3421 -0.8949
   51MPD2    C2  778   3.027   2.819   1.767  0.4962 -0.0291 -0.4728
   51MPD2    C3  779   2.949   2.898   1.853 -0.2871 -0.2632  0.5403
   51MPD2    C4  780   2.813   2.911   1.826 -0.3555  0.2210 -0.2961
   51MPD2    C5  781   2.766   2.860   1.710  0.0112 -0.1676 -1.2293
   51MPD2     H  782   3.127   2.784   1.794 -1.0628 -1.3101  3.6412
   51MPD2    H1  783   2.749   2.969   1.891 -1.5129 -0.4431 -0.8447
   51MPD2    H2  784   2.796   2.741   1.541 -2.4316  0.7514  0.4552
   51MPD2    H3  785   2.663   2.887   1.692 -0.6527  0.2286  3.0238
   51MPD2     N  786   3.015   2.966   1.966  0.0175  0.0373  0.1423
   51MPD2    H5  787   2.952   2.998   2.039 -1.5423 -2.0594 -0.2547
   51MPD2    N1  788   3.057   2.672   1.586  0.2147 -0.3584  0.0106
   51MPD2    H7  789   3.148   2.649   1.623  0.1785  1.8209  1.4488
   52TCq2    C1  790   3.151   2.974   1.980 -0.4887  0.4264 -0.1640
   52TCq2    O2  791   3.240   2.991   1.896  0.1191 -0.4012 -0.3845
   52TCq2    C2  792   3.188   3.013   2.117  0.3402 -0.0017 -0.1792
   52TCq2    C3  793   3.112   2.972   2.223  0.5535 -0.0600  0.1737
   52TCq2    C4  794   3.170   2.972   2.348  0.4400 -0.6958  0.4339
   52TCq2    C5  795   3.287   3.035   2.367  0.2711 -0.5059 -0.3189
   52TCq2    C6  796   3.356   3.082   2.258 -1.1809  0.0730  0.3864
   52TCq2    C7  797   3.305   3.072   2.131 -0.1551  0.0318  0.3638
   52TCq2    C8  798   3.471   3.165   2.279  1.2472  0.4125  0.3175
   52TCq2    O4  799   3.548   3.179   2.184  0.0876  0.4366  0.3756
   52TCq2    C9  800   3.097   2.915   2.459  0.1834 -0.7247  0.3412
   52TCq2    O5  801   3.152   2.913   2.574  0.0396  0.5964 -0.0490
   52TCq2    O6  802   2.995   2.847   2.425  0.0034 -0.5427  0.2915
   52TCq2    H2  803   3.014   2.927   2.208  0.6844 -0.3995  0.3421
   52TCq2    H3  804   3.325   3.030   2.468  0.2039  1.5426 -0.1811
   52TCq2    H4  805   3.359   3.120   2.050 -0.7733 -0.7680 -0.5224
   53TMC2    C1  806   4.418   1.967  12.411  0.3551 -0.7052  0.2058
   53TMC2    C2  807   4.521   1.906  12.477 -0.1808 -0.7895  0.2240
   53TMC2    C3  808   4.478   1.823  12.578 -0.1838 -0.1859 -0.0273
   53TMC2    C4  809   4.285   1.953  12.440 -0.5205  0.6445  0.8359
   53TMC2    C5  810   4.257   1.869  12.547 -1.1212  0.9885 -0.2830
   53TMC2    C6  811   4.351   1.807  12.613 -0.2058 -0.8446 -0.7242
   53TMC2     C  812   4.448   2.032  12.288  0.6475 -0.4274 -0.2662
   53TMC2     O  813   4.562   2.076  12.279  0.0232 -0.5810  0.1604
   53TMC2     H  814   4.625   1.913  12.447 -0.2878  0.8968  0.2368
   53TMC2    H1  815   4.203   2.003  12.390 -0.5765 -0.2890 -0.0193
   53TMC2    H2  816   4.336   1.741  12.697  0.6009 -0.3916 -0.2229
   53TMC2    C7  817   4.116   1.852  12.585 -0.2502 -0.5795 -0.2062
   53TMC2    C8  818   4.569   1.784  12.677 -0.2776  0.7310 -0.3729
   53TMC2    O1  819   4.033   1.938  12.570 -0.0312  0.1531 -0.4135
   53TMC2    O2  820   4.564   1.684  12.750 -0.0236  0.0674  0.0029
   53TMC2    O5  821   4.614   1.902  12.723  0.1384  0.5130 -0.2431
   53TMC2    H5  822   4.583   1.979  12.670 -1.3638  1.7373  2.3972
   54MPD2     C  823   4.441   2.232  12.069 -0.6323  0.1266  0.2680
   54MPD2    C1  824   4.344   2.131  12.094  0.1451  0.6135  0.0306
   54MPD2    C2  825   4.229   2.133  12.013  1.1149  0.2605 -0.2408
   54MPD2    C3  826   4.218   2.225  11.913 -0.4517 -0.0657 -0.1157
   54MPD2    C4  827   4.320   2.311  11.878 -0.9312  0.0607 -0.1156
   54MPD2    C5  828   4.424   2.318  11.965  0.2763 -0.1158  0.7270
   54MPD2     H  829   4.156   2.058  12.042  1.7355 -1.5009 -3.3121
   54MPD2    H1  830   4.324   2.385  11.798 -1.4550  0.8285  0.5682
   54MPD2    H2  831   4.525   2.240  12.136  0.8039 -2.0116 -1.2926
   54MPD2    H3  832   4.503   2.390  11.950  0.5045 -0.6804 -0.8296
   54MPD2     N  833   4.108   2.217  11.820 -0.3898 -0.3680 -0.7587
   54MPD2    H5  834   4.118   2.274  11.736  2.3219  0.5013  0.1390
   54MPD2    N1  835   4.341   2.041  12.207 -0.5318 -0.2351 -0.3907
   54MPD2    H7  836   4.265   1.977  12.227 -0.8476  0.7974  1.8324
   55MPD2     C  837   0.114   4.060  17.562  0.5284 -0.0811 -0.5008
   55MPD2    C1  838   0.043   3.985  17.658  0.0495 -0.0273 -0.0565
   55MPD2    C2  839   4.656   4.037   0.013  0.3354 -0.0236  0.2387
   55MPD2    C3  840   4.606   4.153  17.661  0.7102  0.0344  0.6405
   55MPD2    C4  841   4.673   4.224  17.562  0.3064 -0.2787  0.1124
   55MPD2    C5  842   0.063   4.179  17.517  0.1391  0.3029  0.2421
   55MPD2     H  843   4.604   3.979   0.088 -0.5590  0.4592 -0.0135
   55MPD2    H1  844   4.643   4.323  17.527 -0.4003 -0.8476 -0.8909
   55MPD2    H2  845   0.201   4.015  17.513  0.1595 -2.1031  0.6873
   55MPD2    H3  846   0.123   4.231  17.443 -0.6248  1.7194  0.6371
   55MPD2     N  847   4.492   4.208   0.015 -0.2989 -0.6961  0.3981
   55MPD2    H5  848   4.470   4.165   0.104 -2.7439  1.6020  0.8971
   55MPD2    N1  849   0.098   3.854  17.677  0.2015  0.3052  1.0432
   55MPD2    H7  850   0.179   3.830  17.620 -0.3468 -0.1761  0.4696
   56TCq2    C1  851   0.052   3.769   0.071 -0.5185 -0.4328  0.2070
   56TCq2    O2  852   4.688   3.783   0.151 -0.1097  0.3239  0.1169
   56TCq2    C2  853   0.102   3.636   0.068  0.1275 -0.1403  0.9592
   56TCq2    C3  854   0.189   3.595  17.678  0.1071  0.1851  0.1871
   56TCq2    C4  855   0.247   3.477  17.699  0.1061 -0.1784  0.5118
   56TCq2    C5  856   0.223   3.400   0.105  0.3527  0.3025  0.0734
   56TCq2    C6  857   0.121   3.442   0.179 -0.2543 -0.0010 -0.0044
   56TCq2    C7  858   0.063   3.561   0.176  0.3242 -0.0504  0.4319
   56TCq2    C8  859   0.102   3.356   0.294 -0.2682  0.4822 -0.9294
   56TCq2    O4  860   0.125   3.235   0.277 -0.0336 -0.5199  0.6273
   56TCq2    C9  861   0.337   3.421  17.602  0.0343 -0.5253  0.7539
   56TCq2    O5  862   0.373   3.295  17.605 -0.9353 -0.1817  0.4631
   56TCq2    O6  863   0.367   3.493  17.504  0.0312  0.0828  0.4209
   56TCq2    H2  864   0.209   3.654  17.589 -1.0508 -0.2205 -0.3426
   56TCq2    H3  865   0.278   3.310   0.129  0.9661  0.9709  1.1723
   56TCq2    H4  866   4.701   3.578   0.237  0.0625  2.2519 -0.6064
   57TMC2    C1  867   3.696   0.236  13.461  0.5132 -0.1130 -0.0557
   57TMC2    C2  868   3.630   0.148  13.375 -0.8329  0.0539  0.6843
   57TMC2    C3  869   3.678   0.027  13.367 -0.6584  0.1223  0.2917
   57TMC2    C4  870   3.810   0.201  13.536 -0.3169  0.1120  0.6529
   57TMC2    C5  871   3.850   0.072  13.525 -0.6272  0.6553  0.1155
   57TMC2    C6  872   3.775   4.710  13.450  0.0277 -0.0010  0.2485
   57TMC2     C  873   3.666   0.382  13.447 -0.0659 -2.0003  0.1734
   57TMC2     O  874   3.577   0.409  13.363  0.1499  0.0461  0.2911
   57TMC2     H  875   3.551   0.180  13.307 -0.8281 -1.4607 -0.0240
   57TMC2    H1  876   3.862   0.280  13.588  1.3535  1.2486 -2.7054
   57TMC2    H2  877   3.805   4.607  13.440 -1.6573 -0.5894  1.3828
   57TMC2    C7  878   3.972   0.040  13.599  0.2860 -0.4419  0.0520
   57TMC2    C8  879   3.602   4.645  13.307  0.4910  0.1291 -0.5938
   57TMC2    O1  880   4.021   0.126  13.672  0.9732  0.3997 -0.1151
   57TMC2    O2  881   3.656   4.541  13.269 -0.7419  0.5090 -0.4182
   57TMC2    O5  882   3.469   4.680  13.290  0.0554  0.4981 -0.0919
   57TMC2    H5  883   3.436   0.029  13.345 -0.1637  1.1377 -1.0874
   58MPD2     C  884   3.550   0.812  13.730  0.1590  0.1620 -0.1652
   58MPD2    C1  885   3.532   0.788  13.594  0.6550  0.3029  0.0290
   58MPD2    C2  886   3.594   0.679  13.536  0.0254  0.7125 -0.7936
   58MPD2    C3  887   3.651   0.578  13.612  0.2007  0.2441 -0.0307
   58MPD2    C4  888   3.677   0.609  13.742  0.3499  0.3320  0.6251
   58MPD2    C5  889   3.625   0.721  13.801 -0.0761 -0.2935  0.5696
   58MPD2     H  890   3.579   0.657  13.431 -1.8408 -0.7180 -0.2287
   58MPD2    H1  891   3.734   0.539  13.803  1.1161  0.4106  0.0061
   58MPD2    H2  892   3.525   0.905  13.779  1.7741  0.2102  0.5717
   58MPD2    H3  893   3.652   0.740  13.904 -1.2155  0.9681  0.6352
   58MPD2     N  894   3.695   0.447  13.567 -0.0634  0.0389 -0.7930
   58MPD2    H5  895   3.747   0.394  13.636 -0.1589  1.2719  0.2231
   58MPD2    N1  896   3.459   0.882  13.518 -0.2333  0.0115 -0.4454
   58MPD2    H7  897   3.472   0.894  13.418 -3.0447 -1.3806 -0.9783
   59MPD2     C  898   1.374   0.805  13.634 -0.6884 -0.0480 -0.1791
   59MPD2    C1  899   1.446   0.826  13.516  0.1144  0.0949 -0.6350
   59MPD2    C2  900   1.564   0.896  13.529 -0.1516  0.1796  1.0758
   59MPD2    C3  901   1.612   0.941  13.654  0.0465  0.6854 -0.5853
   59MPD2    C4  902   1.534   0.929  13.765  0.0114  0.1482 -0.1680
   59MPD2    C5  903   1.414   0.861  13.751  0.5440 -0.3685 -0.3374
   59MPD2     H  904   1.618   0.909  13.436  1.4592 -0.6612  1.9002
   59MPD2    H1  905   1.559   0.951  13.868  2.2438  2.7864 -1.2578
   59MPD2    H2  906   1.283   0.747  13.644  0.6755 -1.6785  2.5293
   59MPD2    H3  907   1.346   0.849  13.834 -0.7460  1.2834 -1.1661
   59MPD2     N  908   1.728   1.023  13.659 -0.7532  0.2021  0.0476
   59MPD2    H5  909   1.740   1.084  13.739  0.8627 -1.5107  1.1358
   59MPD2    N1  910   1.406   0.781  13.386  0.7638  1.0277  0.7170
   59MPD2    H7  911   1.468   0.804  13.309  1.7886  0.5714  1.4145
   60TCq2    C1  912   1.291   0.710  13.363 -0.5799 -0.3947 -0.1765
   60TCq2    O2  913   1.198   0.683  13.441  0.0455 -0.4382  0.5523
   60TCq2    C2  914   1.262   0.692  13.223 -0.1208 -0.5063 -0.6413
   60TCq2    C3  915   1.153   0.622  13.193 -0.0450  0.6116 -0.7513
   60TCq2    C4  916   1.106   0.632  13.063 -0.3633 -0.3832  0.2632
   60TCq2    C5  917   1.160   0.725  12.974 -0.1481 -0.4792  0.8908
   60TCq2    C6  918   1.278   0.780  13.002 -0.3456 -0.6531 -0.5594
   60TCq2    C7  919   1.330   0.763  13.129 -0.1445  0.2550 -0.1473
   60TCq2    C8  920   1.359   0.825  12.896  0.7003  0.2287 -0.5512
   60TCq2    O4  921   1.459   0.883  12.936 -0.0473 -0.2037 -0.3262
   60TCq2    C9  922   0.982   0.569  13.033  0.2145  0.1561 -0.4169
   60TCq2    O5  923   0.930   0.502  13.127  0.6164 -0.0807 -0.1416
   60TCq2    O6  924   0.958   0.562  12.908 -0.9980  0.4382  0.0284
   60TCq2    H2  925   1.097   0.567  13.267  0.6960  0.1041 -0.5617
   60TCq2    H3  926   1.101   0.753  12.887 -0.0587 -0.2083  0.9178
   60TCq2    H4  927   1.416   0.826  13.147 -2.7624  4.0949 -1.1665
   61MPD2     C  928   1.029   1.977  15.088 -0.1847  0.8063  0.2429
   61MPD2    C1  929   0.936   2.059  15.028  0.2669  0.3444  0.0551
   61MPD2    C2  930   0.951   2.085  14.890 -0.0529  1.1278  0.1380
   61MPD2    C3  931   1.064   2.041  14.826 -0.6156  1.0694  0.1478
   61MPD2    C4  932   1.158   1.968  14.887  0.1772  0.1387  0.4054
   61MPD2    C5  933   1.140   1.941  15.015 -0.3540 -0.1808 -0.5960
   61MPD2     H  934   0.885   2.146  14.831 -1.0011 -0.0983 -0.0689
   61MPD2    H1  935   1.249   1.928  14.843  1.2966  1.4227  1.5872
   61MPD2    H2  936   1.028   1.949  15.193  2.0606  2.1802  0.6196
   61MPD2    H3  937   1.215   1.884  15.068 -2.5685 -1.1802  1.4983
   61MPD2     N  938   1.068   2.073  14.690 -0.3006 -0.0635  0.1956
   61MPD2    H5  939   1.002   2.145  14.664  1.4808  1.5862  0.1882
   61MPD2    N1  940   0.816   2.106  15.086 -0.4800 -0.0172 -0.9454
   61MPD2    H7  941   0.797   2.055  15.172  0.8105  0.6335 -0.2714
   62TCq2    C1  942   0.750   2.214  15.043  0.2305  0.3620  0.1607
   62TCq2    O2  943   0.783   2.295  14.953 -0.2246 -0.0744 -0.3851
   62TCq2    C2  944   0.620   2.234  15.105  0.5198 -0.1875 -0.2400
   62TCq2    C3  945   0.555   2.136  15.180 -0.5825 -0.2577  0.2684
   62TCq2    C4  946   0.452   2.168  15.255  0.3353 -0.3036  0.5564
   62TCq2    C5  947   0.400   2.294  15.254  0.3635  0.0184 -0.6095
   62TCq2    C6  948   0.469   2.383  15.178  1.1614 -0.1464 -0.0040
   62TCq2    C7  949   0.580   2.361  15.106 -0.7476  0.3353  0.3104
   62TCq2    C8  950   0.473   2.518  15.229  0.3873 -0.1989  0.0514
   62TCq2    O4  951   0.503   2.608  15.150 -0.1424 -0.3037 -0.0132
   62TCq2    C9  952   0.383   2.059  15.324 -0.0649  0.5770 -0.0251
   62TCq2    O5  953   0.281   2.081  15.395  0.0823 -0.2350 -0.0810
   62TCq2    O6  954   0.405   1.945  15.270  0.5712 -0.2407  0.0144
   62TCq2    H2  955   0.587   2.032  15.180 -2.2463 -0.7709  1.7693
   62TCq2    H3  956   0.299   2.314  15.287  0.5401 -1.3387  0.7228
   62TCq2    H4  957   0.624   2.443  15.051 -0.8141  0.8930  1.0920
   63TMC2    C1  958   0.500   2.759  10.999  0.6408 -1.3261 -0.8629
   63TMC2    C2  959   0.605   2.835  11.043 -0.5441  0.3491 -0.0390
   63TMC2    C3  960   0.655   2.932  10.959 -0.2770 -0.4619  0.7459
   63TMC2    C4  961   0.458   2.773  10.868 -0.2206  0.5037 -0.1703
   63TMC2    C5  962   0.529   2.853  10.786 -0.1421 -0.8835  0.5386
   63TMC2    C6  963   0.623   2.945  10.826  0.4303  0.0372  0.2788
   63TMC2     C  964   0.449   2.648  11.072  0.3542 -0.4222 -0.5911
   63TMC2     O  965   0.487   2.639  11.192 -0.0609 -0.7660 -0.4008
   63TMC2     H  966   0.633   2.831  11.148  1.5506  1.5652 -0.5517
   63TMC2    H1  967   0.372   2.717  10.832 -1.4873  0.7904  2.3624
   63TMC2    H2  968   0.670   3.020  10.764  1.5027 -1.4117 -0.6887
   63TMC2    C7  969   0.479   2.875  10.653 -0.2886  0.5707 -0.1663
   63TMC2    C8  970   0.762   3.018  11.004 -0.6270 -0.0779 -0.4914
   63TMC2    O1  971   0.367   2.835  10.629  0.0823 -0.1816 -0.8608
   63TMC2    O2  972   0.794   3.121  10.945  0.1494 -0.1556  0.0901
   63TMC2    O5  973   0.829   2.960  11.109  0.3629 -0.5784 -0.6317
   63TMC2    H5  974   0.798   2.871  11.137  0.7954 -0.3759  0.4830
   64MPD2     C  975   0.371   2.147  11.080 -0.4455 -0.1727 -0.5006
   64MPD2    C1  976   0.349   2.189  10.949 -0.1646  0.4154 -0.6032
   64MPD2    C2  977   0.353   2.322  10.918 -0.4796 -0.4197 -0.3246
   64MPD2    C3  978   0.370   2.414  11.028  1.1382 -0.0928  1.6300
   64MPD2    C4  979   0.404   2.370  11.158 -0.1131  0.1900 -0.4733
   64MPD2    C5  980   0.400   2.235  11.180  0.0054  0.2902  0.3564
   64MPD2     H  981   0.338   2.340  10.812 -2.8406  1.8636  0.3908
   64MPD2    H1  982   0.425   2.444  11.235  1.1871 -0.6052 -0.0670
   64MPD2    H2  983   0.377   2.041  11.104  1.9244 -0.0073 -0.3632
   64MPD2    H3  984   0.427   2.191  11.275  1.1442 -3.3252 -1.6032
   64MPD2     N  985   0.400   2.549  10.992 -0.2755 -0.1242  0.6886
   64MPD2    H5  986   0.385   2.568  10.893 -1.1149 -1.8645  0.4722
   64MPD2    N1  987   0.320   2.104  10.844 -0.2987  0.1608 -0.0522
   64MPD2    H7  988   0.322   2.140  10.749 -0.2064 -3.4211 -1.3998
   65MPD2     C  989   1.056   1.572  15.986 -0.3418  0.2681 -0.2509
   65MPD2    C1  990   1.022   1.523  15.864  0.1639 -0.4099 -0.0887
   65MPD2    C2  991   1.101   1.433  15.808  0.0897  0.1340 -0.6374
   65MPD2    C3  992   1.186   1.345  15.879 -0.2006  0.4197  0.4109
   65MPD2    C4  993   1.209   1.378  16.007  0.1260 -0.1210  0.2330
   65MPD2    C5  994   1.149   1.498  16.054  0.0397  0.1659  0.4623
   65MPD2     H  995   1.086   1.426  15.701 -1.0692 -0.6263 -0.4197
   65MPD2    H1  996   1.278   1.322  16.068 -1.9071 -1.1183  1.6270
   65MPD2    H2  997   1.002   1.646  16.044 -1.6399 -1.5407  0.8518
   65MPD2    H3  998   1.174   1.533  16.153  0.6178  2.2990 -0.4581
   65MPD2     N  999   1.243   1.237  15.808 -0.4130  0.3673 -0.7733
   65MPD2    H5 1000   1.281   1.163  15.866  0.9432  0.7798 -1.1275
   65MPD2    N1 1001   0.929   1.589  15.787 -0.1800  0.1279  0.1035
   65MPD2    H7 1002   0.906   1.549  15.696  2.2525 -0.7005 -0.1485
   66TCq2    C1 1003   0.878   1.721  15.807  0.0194  0.5575  0.1539
   66TCq2    O2 1004   0.890   1.797  15.901  0.2623  0.3488  0.6405
   66TCq2    C2 1005   0.806   1.760  15.685  0.7919 -0.3280 -0.0418
   66TCq2    C3 1006   0.739   1.669  15.613 -0.1778  0.9479 -0.2620
   66TCq2    C4 1007   0.679   1.711  15.499 -0.4304 -0.0699 -0.4921
   66TCq2    C5 1008   0.681   1.842  15.463  0.2257  1.0172  0.5911
   66TCq2    C6 1009   0.735   1.931  15.545  0.0168  0.0634 -0.4127
   66TCq2    C7 1010   0.795   1.893  15.666 -0.0383 -0.8909  0.0027
   66TCq2    C8 1011   0.751   2.064  15.499  0.0970 -0.0890  0.3038
   66TCq2    O4 1012   0.796   2.081  15.383  0.1533 -0.0167  0.0279
   66TCq2    C9 1013   0.621   1.609  15.416  0.1347 -0.1143 -0.6012
   66TCq2    O5 1014   0.626   1.485  15.450  0.1597  0.0771  0.3037
   66TCq2    O6 1015   0.590   1.648  15.301 -0.8267  0.3663  0.2495
   66TCq2    H2 1016   0.739   1.562  15.634 -3.0125  0.9141 -0.4817
   66TCq2    H3 1017   0.658   1.877  15.363  0.4133  1.6233  0.7623
   66TCq2    H4 1018   0.846   1.964  15.731  0.7032 -1.0144 -0.4494
   67MPD2     C 1019   1.313   1.055  14.177 -0.1427 -0.3421  0.9284
   67MPD2    C1 1020   1.277   1.176  14.233 -0.2753 -0.3402 -0.4187
   67MPD2    C2 1021   1.149   1.214  14.244  0.4661  0.6129 -0.3333
   67MPD2    C3 1022   1.050   1.133  14.191 -0.3255 -0.2328 -0.0724
   67MPD2    C4 1023   1.087   1.028  14.117 -0.6735  0.2122 -0.4480
   67MPD2    C5 1024   1.217   0.975  14.122  0.2334 -0.0951  0.0426
   67MPD2     H 1025   1.129   1.315  14.279 -1.8566  0.3564 -0.9226
   67MPD2    H1 1026   1.011   0.965  14.073 -0.0942  0.1839 -1.4130
   67MPD2    H2 1027   1.418   1.028  14.166 -0.0184  0.6360 -0.3571
   67MPD2    H3 1028   1.232   0.881  14.072 -1.6480 -1.2308  1.6133
   67MPD2     N 1029   0.909   1.158  14.203 -0.0684 -0.0107 -0.5143
   67MPD2    H5 1030   0.846   1.108  14.141  3.7436 -2.9786 -1.9323
   67MPD2    N1 1031   1.380   1.267  14.281  0.4941  0.6711  0.7497
   67MPD2    H7 1032   1.353   1.339  14.347 -2.8519  1.7100 -1.8046
   68TCq2    C1 1033   1.515   1.244  14.272 -0.1260 -0.3303 -0.2824
   68TCq2    O2 1034   1.582   1.165  14.204 -0.6221  0.9928  0.3095
   68TCq2    C2 1035   1.579   1.347  14.348  0.4266 -0.4866  0.3045
   68TCq2    C3 1036   1.522   1.460  14.393  0.1353 -0.7622  0.4438
   68TCq2    C4 1037   1.602   1.535  14.489 -0.2539 -0.5412  0.0049
   68TCq2    C5 1038   1.723   1.486  14.537  0.2298  0.0185 -0.0448
   68TCq2    C6 1039   1.771   1.372  14.484  0.2076 -0.3952 -0.0963
   68TCq2    C7 1040   1.698   1.297  14.396  0.3116 -0.5607 -1.4114
   68TCq2    C8 1041   1.858   1.287  14.567 -0.7563  0.5835  0.4817
   68TCq2    O4 1042   1.921   1.197  14.512  0.4760 -0.2167  0.3031
   68TCq2    C9 1043   1.540   1.653  14.538  0.2624  0.7569 -0.5778
   68TCq2    O5 1044   1.453   1.706  14.469  0.1292 -0.3414 -0.5007
   68TCq2    O6 1045   1.614   1.713  14.623  0.2901 -0.2348 -0.4287
   68TCq2    H2 1046   1.435   1.510  14.352  0.8792  1.8029  2.0020
   68TCq2    H3 1047   1.776   1.539  14.615  1.3998 -1.1101 -0.0829
   68TCq2    H4 1048   1.725   1.198  14.361  1.2861  0.1737 -2.7530
   69TMC2    C1 1049   3.846   2.146  12.501  0.3771  0.8492 -0.6474
   69TMC2    C2 1050   3.803   2.140  12.368  0.1321 -0.1669  0.4100
   69TMC2    C3 1051   3.868   2.212  12.271  0.1442 -0.4054 -0.2693
   69TMC2    C4 1052   3.952   2.221  12.539 -0.4114 -0.0224  0.2769
   69TMC2    C5 1053   4.015   2.285  12.442 -0.6319  0.0064 -0.8745
   69TMC2    C6 1054   3.974   2.296  12.307 -0.1510  0.4221  0.0099
   69TMC2     C 1055   3.749   2.099  12.595 -0.2035 -0.1994  0.4937
   69TMC2     O 1056   3.672   2.012  12.550 -0.1380 -0.0558  0.4617
   69TMC2     H 1057   3.716   2.080  12.348 -0.2381  0.5743 -0.1721
   69TMC2    H1 1058   3.990   2.206  12.640  1.7036 -0.8147 -0.6379
   69TMC2    H2 1059   4.031   2.348  12.230  0.9900 -0.3599  0.3360
   69TMC2    C7 1060   4.152   2.319  12.463 -0.4823 -0.0768 -0.8620
   69TMC2    C8 1061   3.817   2.231  12.140 -0.2876 -0.2030 -0.3973
   69TMC2    O1 1062   4.224   2.311  12.369  0.1434 -0.4207 -0.3624
   69TMC2    O2 1063   3.798   2.341  12.087  0.0791  0.0701  0.3904
   69TMC2    O5 1064   3.743   2.131  12.104  0.3511  0.8764 -0.5530
   69TMC2    H5 1065   3.777   2.040  12.117 -0.2283  0.6356 -0.7227
   70MPD2     C 1066   3.599   2.257  12.877  0.1327  0.5164  0.3056
   70MPD2    C1 1067   3.634   2.154  12.797 -0.3989 -0.3474 -0.3855
   70MPD2    C2 1068   3.558   2.037  12.804 -0.2097  0.0823  0.0168
   70MPD2    C3 1069   3.448   2.020  12.889  0.3816 -0.2292 -0.2741
   70MPD2    C4 1070   3.415   2.134  12.966  0.2740  0.2152 -0.2748
   70MPD2    C5 1071   3.489   2.246  12.951  0.4349  0.1354 -0.6186
   70MPD2     H 1072   3.595   1.949  12.753  2.1524 -0.4318  2.5711
   70MPD2    H1 1073   3.331   2.135  13.034 -0.6313  2.5620 -1.4078
   70MPD2    H2 1074   3.646   2.354  12.886  2.4031 -0.7136  1.8762
   70MPD2    H3 1075   3.478   2.328  13.021  1.0476  0.4068 -0.8407
   70MPD2     N 1076   3.381   1.897  12.895  0.3318 -0.3327  0.6216
   70MPD2    H5 1077   3.419   1.822  12.838 -0.1418  0.2100 -0.4233
   70MPD2    N1 1078   3.737   2.179  12.704 -0.4634  0.6140  0.0186
   70MPD2    H7 1079   3.789   2.267  12.709 -0.7367  0.7795 -0.0559
   71TMC2    C1 1080   1.653   2.991   1.513  0.0024 -0.0244  0.0069
   71TMC2    C2 1081   1.771   2.991   1.586 -0.5153  0.1374 -0.2556
   71TMC2    C3 1082   1.770   2.926   1.710 -0.1552  0.6889 -0.0785
   71TMC2    C4 1083   1.538   2.938   1.559 -0.1190  0.2452 -0.4758
   71TMC2    C5 1084   1.544   2.876   1.685 -0.6868  0.3231  0.0978
   71TMC2    C6 1085   1.661   2.869   1.761  0.1221  0.5496  0.0094
   71TMC2     C 1086   1.657   3.036   1.378  0.0980 -0.1743 -0.6112
   71TMC2     O 1087   1.544   3.025   1.324 -0.1816 -0.2287  0.6110
   71TMC2     H 1088   1.855   3.056   1.562 -0.4738  0.5782  1.0649
   71TMC2    H1 1089   1.448   2.944   1.499 -2.1471  0.6371  2.5796
   71TMC2    H2 1090   1.663   2.827   1.861 -1.3374 -0.5863 -0.4271
   71TMC2    C7 1091   1.413   2.846   1.753  0.3626 -0.4389  0.3568
   71TMC2    C8 1092   1.872   2.972   1.793  0.1706 -0.5388 -0.2882
   71TMC2    O1 1093   1.407   2.832   1.873  0.3992 -0.4755 -0.5719
   71TMC2    O2 1094   1.916   3.085   1.783  0.0531 -0.5021  0.2762
   71TMC2    O5 1095   1.889   2.879   1.883 -0.6469 -0.4457 -0.0474
   71TMC2    H5 1096   1.859   2.792   1.849  0.0043  0.2650 -2.4461
   72MPD2     C 1097   1.858   3.174   0.922  0.2192  0.0074  0.7391
   72MPD2    C1 1098   1.730   3.189   0.972 -0.7046  0.7047 -0.7021
   72MPD2    C2 1099   1.700   3.154   1.106  0.6498 -0.0707  0.4990
   72MPD2    C3 1100   1.803   3.115   1.198 -0.4093 -0.4313  0.3137
   72MPD2    C4 1101   1.932   3.119   1.150 -0.3411  0.5583 -0.7939
   72MPD2    C5 1102   1.954   3.140   1.016  0.2928  0.3825  0.2505
   72MPD2     H 1103   1.603   3.174   1.149  0.3769 -1.2119  0.4087
   72MPD2    H1 1104   2.024   3.110   1.206 -0.1624 -0.5865 -1.2752
   72MPD2    H2 1105   1.892   3.204   0.824 -1.6556  0.3782  0.2100
   72MPD2    H3 1106   2.055   3.128   0.979  0.6240  1.4816  0.7995
   72MPD2     N 1107   1.778   3.077   1.333  0.3850 -0.1382  0.1916
   72MPD2    H5 1108   1.857   3.030   1.375  0.4393 -0.8941 -0.7664
   72MPD2    N1 1109   1.623   3.238   0.890 -0.2974 -0.1622 -0.1310
   72MPD2    H7 1110   1.532   3.244   0.935  0.1185 -0.3036  0.7415
   73TMC2    C1 1111   0.625   4.619  14.121  0.0657  0.2010 -0.4385
   73TMC2    C2 1112   0.561   4.601  14.243  0.2539  0.7616  0.2325
   73TMC2    C3 1113   0.642   4.551  14.346  0.2272  1.3169  0.0429
   73TMC2    C4 1114   0.755   4.594  14.110 -0.3361  0.1478 -0.3914
   73TMC2    C5 1115   0.836   4.568  14.215  0.0540  0.4286 -0.0077
   73TMC2    C6 1116   0.780   4.535  14.340 -0.7730 -0.1580 -0.5268
   73TMC2     C 1117   0.555   4.681  14.010  0.0245 -0.4428  0.1461
   73TMC2     O 1118   0.443   4.643  13.982  0.2335  0.5057  0.3483
   73TMC2     H 1119   0.460   4.637  14.258 -0.1906  0.1336 -1.3344
   73TMC2    H1 1120   0.795   4.601  14.009  0.0958 -0.1292 -0.2390
   73TMC2    H2 1121   0.843   4.517  14.426  0.4448  1.5117 -1.0851
   73TMC2    C7 1122   0.982   4.567  14.191  0.1481  0.2165  0.0565
   73TMC2    C8 1123   0.586   4.553  14.484  0.1555  0.7531  0.2032
   73TMC2    O1 1124   1.044   4.483  14.245  0.4221  0.1510 -0.0597
   73TMC2    O2 1125   0.506   4.634  14.529 -0.0037  0.4978  0.4536
   73TMC2    O5 1126   0.596   4.420  14.513  0.4925  0.5251 -0.1901
   73TMC2    H5 1127   0.624   4.368  14.434  0.6181 -0.8612  0.7695
   74MPD2     C 1128   0.649   0.206  13.576 -0.2902 -0.0842 -0.5931
   74MPD2    C1 1129   0.743   0.245  13.672 -0.1202 -0.0171  1.0022
   74MPD2    C2 1130   0.725   0.200  13.804  0.7944 -0.2678  0.0074
   74MPD2    C3 1131   0.623   0.112  13.835  0.0355  0.1136 -0.4093
   74MPD2    C4 1132   0.528   0.084  13.742 -0.4899  0.4512  0.8064
   74MPD2    C5 1133   0.538   0.137  13.618 -0.5913  0.2074  0.0242
   74MPD2     H 1134   0.803   0.227  13.875 -1.4973  1.8199  1.7019
   74MPD2    H1 1135   0.448   0.018  13.773  0.5527 -2.2731 -2.3128
   74MPD2    H2 1136   0.658   0.228  13.470 -1.3326 -0.6993 -0.8121
   74MPD2    H3 1137   0.465   0.103  13.544 -1.0289  0.2208  0.4525
   74MPD2     N 1138   0.632   0.053  13.960  0.0323  0.0327 -0.0068
   74MPD2    H5 1139   0.710   0.085  14.017  1.3433 -2.7599 -0.2456
   74MPD2    N1 1140   0.853   0.323  13.616  0.4974 -0.1726  0.7471
   74MPD2    H7 1141   0.853   0.345  13.517  0.3974  1.2863  1.0651
   75TCq2    C1 1142   0.850   1.239  14.298  0.3120  0.7262  0.4424
   75TCq2    O2 1143   0.895   1.296  14.399  0.0882  0.1388  0.0327
   75TCq2    C2 1144   0.711   1.259  14.269 -0.2499  0.5944  0.0494
   75TCq2    C3 1145   0.639   1.298  14.384  0.0645 -0.0693  0.6396
   75TCq2    C4 1146   0.510   1.330  14.375 -0.1570  0.3731  0.5731
   75TCq2    C5 1147   0.456   1.337  14.246 -0.0629  0.2537 -0.2477
   75TCq2    C6 1148   0.535   1.314  14.136  0.7483 -0.0050 -0.5858
   75TCq2    C7 1149   0.661   1.279  14.150 -0.8563 -0.2259  0.0475
   75TCq2    C8 1150   0.470   1.270  14.019 -0.4175 -0.0032 -0.3565
   75TCq2    O4 1151   0.533   1.271  13.912 -0.4825  0.2608 -0.2347
   75TCq2    C9 1152   0.424   1.348  14.487  0.4585  0.0134  0.0349
   75TCq2    O5 1153   0.314   1.296  14.480  0.2441  0.2034  0.0533
   75TCq2    O6 1154   0.480   1.376  14.596  0.8214 -0.2999 -0.3600
   75TCq2    H2 1155   0.689   1.282  14.479  0.6761  0.4508  0.3958
   75TCq2    H3 1156   0.351   1.365  14.238 -0.1435  0.6962  2.3572
   75TCq2    H4 1157   0.716   1.256  14.059  0.3053  0.3491  0.6135
   76MPD2     C 1158   0.466   1.998  12.307 -0.0592  0.5583  0.2892
   76MPD2    C1 1159   0.350   1.991  12.233  0.3574 -0.0874 -0.5546
   76MPD2    C2 1160   0.334   1.876  12.151  0.5825  0.4720  0.2063
   76MPD2    C3 1161   0.425   1.771  12.167  0.3320 -0.3587  0.3905
   76MPD2    C4 1162   0.530   1.776  12.247  0.0122 -0.1360 -0.2289
   76MPD2    C5 1163   0.551   1.890  12.320 -0.4978 -0.7513  0.5756
   76MPD2     H 1164   0.259   1.873  12.073 -1.2078  0.3003  1.9366
   76MPD2    H1 1165   0.597   1.691  12.255  0.7103  0.5224  0.6848
   76MPD2    H2 1166   0.499   2.080  12.369 -1.6196  0.8217  0.7671
   76MPD2    H3 1167   0.635   1.886  12.388  0.5557 -2.0108 -0.7742
   76MPD2     N 1168   0.416   1.656  12.093  0.1084 -0.6073  0.1337
   76MPD2    H5 1169   0.501   1.604  12.112  0.8211  0.9509  1.2345
   76MPD2    N1 1170   0.254   2.096  12.214  0.1406 -0.9206  0.6544
   76MPD2    H7 1171   0.186   2.103  12.138  1.2310 -0.3623 -0.2651
   77TCq2    C1 1172   0.323   1.621  12.000  0.1168  0.0270  0.7939
   77TCq2    O2 1173   0.233   1.687  11.950  0.0141  0.0751  0.8568
   77TCq2    C2 1174   0.358   1.486  11.955 -0.0091 -0.2189  0.0752
   77TCq2    C3 1175   0.351   1.461  11.819  0.6797  0.0345 -0.9064
   77TCq2    C4 1176   0.426   1.358  11.775 -0.2037  0.1361 -0.0002
   77TCq2    C5 1177   0.493   1.275  11.859  0.1981 -0.3493 -0.2931
   77TCq2    C6 1178   0.480   1.297  11.999  0.3515 -0.0844  0.1075
   77TCq2    C7 1179   0.420   1.410  12.047 -0.0046  0.3093 -0.2196
   77TCq2    C8 1180   0.537   1.188  12.088 -0.4232 -0.9351 -0.5141
   77TCq2    O4 1181   0.560   1.085  12.024  0.5287 -0.2332 -0.1301
   77TCq2    C9 1182   0.408   1.319  11.637 -0.2356  0.4341 -0.2032
   77TCq2    O5 1183   0.332   1.390  11.570 -0.1159 -0.2621 -0.2206
   77TCq2    O6 1184   0.481   1.223  11.592 -0.1332  0.1852 -0.0812
   77TCq2    H2 1185   0.294   1.528  11.755  0.0453  0.2009 -0.1753
   77TCq2    H3 1186   0.538   1.185  11.821 -0.6919 -1.5124  1.4114
   77TCq2    H4 1187   0.401   1.430  12.152 -2.8671 -0.3568 -0.6080
   78MPD1     C 1188   1.500   1.143   1.910  0.1728 -0.0092 -0.5466
   78MPD1    C1 1189   1.570   1.208   1.820 -0.2979  0.4337 -0.0645
   78MPD1    C2 1190   1.644   1.322   1.857  0.2767 -0.0525 -0.2359
   78MPD1    C3 1191   1.642   1.363   1.984  0.1381  0.9282 -0.3995
   78MPD1    C4 1192   1.592   1.284   2.080 -0.8004 -0.6765  0.4089
   78MPD1    C5 1193   1.535   1.166   2.046  0.2201 -0.2674  0.5974
   78MPD1     H 1194   1.703   1.378   1.784 -0.4421  1.1984  0.1332
   78MPD1    H1 1195   1.607   1.307   2.185  0.2405  0.8659 -0.0760
   78MPD1    H2 1196   1.453   1.048   1.888  1.2076  0.5252 -5.0011
   78MPD1    H3 1197   1.506   1.090   2.118 -0.9287 -0.5252 -0.1416
   78MPD1     N 1198   1.710   1.487   2.019  0.1383 -0.0676 -0.1834
   78MPD1    H5 1199   1.697   1.515   2.116  0.5747  0.1943 -0.1983
   78MPD1    N1 1200   1.542   1.195   1.684 -0.0243  0.3495  0.0874
   78MPD1    H6 1201   1.613   1.222   1.616 -0.7075  1.0979 -0.3302
   78MPD1    H7 1202   1.495   1.106   1.671 -1.3353  1.1548 -0.6632
   79TCq2    C1 1203   1.788   1.570   1.939  0.5744  0.0344  0.1973
   79TCq2    O2 1204   1.816   1.569   1.819 -0.1432 -0.8082 -0.4918
   79TCq2    C2 1205   1.835   1.685   2.010  0.1250 -0.0296  0.3700
   79TCq2    C3 1206   1.824   1.701   2.144  0.0152 -0.2401 -1.0276
   79TCq2    C4 1207   1.869   1.820   2.203 -0.3113  0.2627  0.2038
   79TCq2    C5 1208   1.906   1.930   2.129  0.0213  1.0143  0.4547
   79TCq2    C6 1209   1.915   1.903   1.994 -0.3531  0.0659 -1.2801
   79TCq2    C7 1210   1.880   1.785   1.933  0.2311  0.3487 -1.1024
   79TCq2    C8 1211   1.982   2.009   1.918  0.2784 -0.3553 -0.7576
   79TCq2    O4 1212   2.009   2.115   1.977 -0.0050  0.0586  0.4494
   79TCq2    C9 1213   1.816   1.847   2.340  0.1614  0.4301 -0.2032
   79TCq2    O5 1214   1.763   1.753   2.409 -0.2403 -0.1411  0.2892
   79TCq2    O6 1215   1.826   1.967   2.387 -0.4455  0.2368  0.6658
   79TCq2    H2 1216   1.775   1.632   2.211  0.4359 -0.0190 -0.4873
   79TCq2    H3 1217   1.924   2.029   2.169  2.0704 -0.6724  3.6488
   79TCq2    H4 1218   1.895   1.768   1.827  1.0999  0.1927 -0.9472
   80MPD2     C 1219   3.714   1.333  12.370 -0.0669  0.3673 -0.0469
   80MPD2    C1 1220   3.660   1.381  12.249  0.2246  0.6807 -0.2344
   80MPD2    C2 1221   3.530   1.419  12.244  0.0223  0.4358  0.2165
   80MPD2    C3 1222   3.442   1.410  12.354 -0.0647 -0.1138 -0.2722
   80MPD2    C4 1223   3.497   1.357  12.473 -0.6784 -0.3173  0.1140
   80MPD2    C5 1224   3.625   1.316  12.473 -0.6295  0.3319 -0.0206
   80MPD2     H 1225   3.492   1.447  12.147  0.7157 -0.8652 -0.4348
   80MPD2    H1 1226   3.438   1.328  12.560 -2.4620 -2.2508 -1.7447
   80MPD2    H2 1227   3.819   1.305  12.377 -0.0467  0.2715 -0.7903
   80MPD2    H3 1228   3.662   1.270  12.563 -0.9460 -2.4368 -1.2996
   80MPD2     N 1229   3.311   1.460  12.345  0.6527  0.1002 -0.2929
   80MPD2    H5 1230   3.243   1.416  12.406  0.7363  1.3070  0.6605
   80MPD2    N1 1231   3.728   1.390  12.124 -0.0166  0.1627 -0.5588
   80MPD2    H7 1232   3.672   1.392  12.040  0.6432 -0.3360 -1.0080
   81TCq2    C1 1233   3.863   1.409  12.112  0.4216  0.2087  0.1560
   81TCq2    O2 1234   3.949   1.414  12.193  0.3249 -0.1307 -0.1416
   81TCq2    C2 1235   3.905   1.388  11.974 -0.0564  0.2331 -0.0708
   81TCq2    C3 1236   4.011   1.456  11.923  0.0066 -0.5485  0.7138
   81TCq2    C4 1237   4.050   1.420  11.804  0.2653 -1.0926 -0.2116
   81TCq2    C5 1238   3.980   1.325  11.729 -0.3231 -0.3892 -0.0444
   81TCq2    C6 1239   3.873   1.258  11.783  0.7415  0.2785 -0.2298
   81TCq2    C7 1240   3.837   1.284  11.916  0.6580 -0.6214 -0.0619
   81TCq2    C8 1241   3.808   1.160  11.703 -0.4951 -0.4672 -0.1221
   81TCq2    O4 1242   3.876   1.115  11.609 -0.0884  0.8141  0.5009
   81TCq2    C9 1243   4.156   1.484  11.738 -0.2282  0.1032  0.3102
   81TCq2    O5 1244   4.183   1.597  11.778 -0.0832 -0.2204 -0.4677
   81TCq2    O6 1245   4.194   1.447  11.623  0.5860 -0.7232 -0.5323
   81TCq2    H2 1246   4.054   1.543  11.971 -1.1096  0.9234 -0.9752
   81TCq2    H3 1247   4.015   1.299  11.630 -0.0558  1.7972 -0.5151
   81TCq2    H4 1248   3.771   1.221  11.975  0.9328  0.3111  1.2566
   82MPD2     C 1249   2.150   1.092  10.529  0.0956 -0.1883  0.8519
   82MPD2    C1 1250   2.045   1.014  10.493 -0.0839  0.5285 -0.1945
   82MPD2    C2 1251   2.056   0.874  10.503 -0.4770  0.3425  0.3508
   82MPD2    C3 1252   2.169   0.821  10.551 -0.2369  0.5774 -0.0906
   82MPD2    C4 1253   2.276   0.902  10.580 -0.4522  0.3814 -0.3422
   82MPD2    C5 1254   2.267   1.033  10.570  0.4915 -0.1911  0.7972
   82MPD2     H 1255   1.979   0.806  10.470 -1.2357  0.3520  2.0726
   82MPD2    H1 1256   2.370   0.853  10.603 -1.2082 -0.6574  0.5450
   82MPD2    H2 1257   2.147   1.201  10.533 -0.1449 -0.1686  0.0903
   82MPD2    H3 1258   2.350   1.096  10.600  1.1097  0.4046 -2.1249
   82MPD2     N 1259   2.190   0.685  10.579 -0.2122 -0.3016 -1.1501
   82MPD2    H5 1260   2.283   0.653  10.605  0.4238  0.6678 -2.2424
   82MPD2    N1 1261   1.932   1.068  10.428  0.5165 -0.0170 -0.5309
   82MPD2    H7 1262   1.935   1.165  10.401 -0.5699 -0.1953 -1.3009
   83TCq2    C1 1263   2.085   0.603  10.594  0.1026 -0.0597  0.1649
   83TCq2    O2 1264   1.966   0.626  10.610  0.1426 -0.0516 -0.0382
   83TCq2    C2 1265   2.115   0.456  10.589  0.6430  0.5110 -0.3916
   83TCq2    C3 1266   2.225   0.411  10.527 -0.1360  0.0280  0.1726
   83TCq2    C4 1267   2.242   0.273  10.523 -0.3112 -0.5289 -0.1413
   83TCq2    C5 1268   2.154   0.187  10.578  0.4403  0.0545 -0.0537
   83TCq2    C6 1269   2.045   0.237  10.644  0.8572  0.7390  0.8731
   83TCq2    C7 1270   2.026   0.374  10.651 -0.3944  0.2347  0.2213
   83TCq2    C8 1271   2.013   0.160  10.765  0.0603 -0.4537  0.0895
   83TCq2    O4 1272   2.000   0.220  10.870  0.4478  0.4171  0.1313
   83TCq2    C9 1273   2.368   0.226  10.471  0.0781  0.0952 -0.1252
   83TCq2    O5 1274   2.384   0.100  10.471  0.4510  0.3791  0.4775
   83TCq2    O6 1275   2.440   0.303  10.409 -0.3318 -0.9522 -0.3869
   83TCq2    H2 1276   2.295   0.478  10.478 -0.2438  0.2444  0.3187
   83TCq2    H3 1277   2.178   0.082  10.586 -1.1689 -0.1230  2.1083
   83TCq2    H4 1278   1.951   0.409  10.722  0.1060 -0.1268  0.9197
   84TCq2    C1 1279   3.129   4.197  10.597  0.5087 -0.0964  0.0915
   84TCq2    O2 1280   3.103   4.161  10.482 -0.1658 -0.2296 -0.0766
   84TCq2    C2 1281   3.023   4.182  10.693 -0.1665 -0.3737  0.2173
   84TCq2    C3 1282   2.902   4.128  10.656 -0.1591 -0.2333  0.1418
   84TCq2    C4 1283   2.803   4.120  10.750 -0.2842  0.1394 -0.0829
   84TCq2    C5 1284   2.822   4.166  10.879 -0.1095 -0.3540 -0.0436
   84TCq2    C6 1285   2.946   4.221  10.912 -0.1867 -0.1461 -0.2130
   84TCq2    C7 1286   3.046   4.223  10.824  0.3050 -0.2701  0.0668
   84TCq2    C8 1287   2.976   4.252  11.054 -0.2537  0.1339 -0.6809
   84TCq2    O4 1288   3.092   4.288  11.081  0.0001 -0.8879  0.4417
   84TCq2    C9 1289   2.676   4.065  10.719  0.0392 -0.2813  0.0988
   84TCq2    O5 1290   2.581   4.108  10.786 -0.2713 -0.2928  0.2415
   84TCq2    O6 1291   2.667   3.975  10.628 -0.0672 -0.0570 -0.3918
   84TCq2    H2 1292   2.870   4.087  10.561  0.0899 -1.4913  0.6049
   84TCq2    H3 1293   2.734   4.175  10.942  1.5793 -0.6992  2.3656
   84TCq2    H4 1294   3.146   4.246  10.858  1.0504  0.3476 -2.5034
   85MPD2     C 1295   3.091   2.758  16.229  0.2713 -0.2515 -0.0925
   85MPD2    C1 1296   3.192   2.709  16.143  0.3697  0.4103 -0.5266
   85MPD2    C2 1297   3.273   2.801  16.073  0.2448  0.9130  0.9589
   85MPD2    C3 1298   3.256   2.937  16.084  0.0772 -0.6088  0.2945
   85MPD2    C4 1299   3.159   2.982  16.168  0.0401 -0.3537 -0.2852
   85MPD2    C5 1300   3.075   2.896  16.232  0.0439 -0.6355  0.4180
   85MPD2     H 1301   3.352   2.764  16.010  0.0593  1.4880  0.3915
   85MPD2    H1 1302   3.139   3.088  16.175  1.3995 -0.0108 -1.5529
   85MPD2    H2 1303   3.026   2.693  16.287  0.9616  0.3644  1.3805
   85MPD2    H3 1304   2.992   2.928  16.294  0.4430 -0.0793  0.6612
   85MPD2     N 1305   3.328   3.027  16.005 -0.1066  0.4495 -0.4621
   85MPD2    H5 1306   3.386   2.985  15.933 -0.3488 -0.8116  0.0923
   85MPD2    N1 1307   3.209   2.569  16.117 -0.2637 -0.2648 -0.2763
   85MPD2    H7 1308   3.276   2.539  16.047  0.7376  0.5019  0.3633
   86TCq2    C1 1309   3.331   3.162  16.027 -0.1571 -0.1051  0.3275
   86TCq2    O2 1310   3.325   3.225  16.132 -0.0021  0.4867  0.0544
   86TCq2    C2 1311   3.352   3.244  15.910  0.1202  0.2610  0.3207
   86TCq2    C3 1312   3.388   3.372  15.937  0.0963 -0.4907 -0.6601
   86TCq2    C4 1313   3.437   3.452  15.828 -0.0939 -0.6305  0.2109
   86TCq2    C5 1314   3.439   3.401  15.701 -0.1954  0.0605 -0.2494
   86TCq2    C6 1315   3.400   3.271  15.681  0.2582 -0.0161  0.2154
   86TCq2    C7 1316   3.362   3.186  15.784  0.3792 -0.0336  0.2381
   86TCq2    C8 1317   3.475   3.198  15.576  0.1691  0.0402  0.1526
   86TCq2    O4 1318   3.490   3.078  15.602 -0.4300  0.4059 -0.6855
   86TCq2    C9 1319   3.473   3.589  15.847 -0.4141 -0.3029  0.3887
   86TCq2    O5 1320   3.487   3.656  15.738  0.2525  0.7300  0.3700
   86TCq2    O6 1321   3.489   3.635  15.965 -0.6122 -0.5073  0.5404
   86TCq2    H2 1322   3.382   3.424  16.031 -1.2606 -1.3476 -0.2805
   86TCq2    H3 1323   3.480   3.460  15.620  2.9125  1.1799  2.1224
   86TCq2    H4 1324   3.325   3.089  15.755  2.8979 -0.1422 -2.5318
   87MPD2     C 1325   0.658   1.673   1.211 -0.4022 -0.3840 -0.3241
   87MPD2    C1 1326   0.696   1.599   1.105  0.3340  0.0317  0.2296
   87MPD2    C2 1327   0.657   1.635   0.980 -0.2346 -0.6289  0.1713
   87MPD2    C3 1328   0.577   1.742   0.953  0.1329  0.6921 -0.6561
   87MPD2    C4 1329   0.549   1.826   1.059 -0.4718  0.1169  0.0799
   87MPD2    C5 1330   0.585   1.789   1.187  0.5038  0.4994  0.8327
   87MPD2     H 1331   0.687   1.572   0.897  3.1574 -0.3438  1.2024
   87MPD2    H1 1332   0.493   1.917   1.043  0.6133  0.6154 -0.8707
   87MPD2    H2 1333   0.675   1.642   1.313 -3.3550 -2.0315 -0.3387
   87MPD2    H3 1334   0.559   1.862   1.263  0.6138  0.6107  0.7639
   87MPD2     N 1335   0.555   1.785   0.821  0.6052 -0.1917 -0.8838
   87MPD2    H5 1336   0.527   1.880   0.798 -0.6817  0.0385  1.6376
   87MPD2    N1 1337   0.785   1.495   1.138 -0.4952 -0.3692 -0.3001
   87MPD2    H7 1338   0.829   1.497   1.229  1.5044 -0.8831 -1.2443
   88TCq2    C1 1339   0.849   1.423   1.046 -0.2799  0.0188  0.4952
   88TCq2    O2 1340   0.853   1.427   0.925  0.2001  0.1145  0.0811
   88TCq2    C2 1341   0.935   1.326   1.113 -0.0738  0.7342  0.6143
   88TCq2    C3 1342   0.922   1.284   1.242 -0.1809 -0.6913 -0.3035
   88TCq2    C4 1343   1.020   1.219   1.304  0.1729  0.3340  0.0943
   88TCq2    C5 1344   1.142   1.193   1.241 -0.0755  0.5295 -0.4723
   88TCq2    C6 1345   1.149   1.236   1.111 -0.4870  0.1374 -0.3964
   88TCq2    C7 1346   1.047   1.298   1.037 -0.5897  0.1533 -0.4185
   88TCq2    C8 1347   1.272   1.219   1.040 -0.0105  0.0768 -0.1317
   88TCq2    O4 1348   1.255   1.234   0.920  0.8089 -0.2401 -0.5582
   88TCq2    C9 1349   1.015   1.178   1.443 -0.2282  0.2176 -0.1866
   88TCq2    O5 1350   1.089   1.083   1.470  0.0756 -0.1137  0.2236
   88TCq2    O6 1351   0.904   1.194   1.491 -0.3246 -0.0256  0.0246
   88TCq2    H2 1352   0.823   1.287   1.286  0.1765 -1.1287  0.5297
   88TCq2    H3 1353   1.220   1.139   1.295 -0.5255 -2.0595 -2.4380
   88TCq2    H4 1354   1.058   1.339   0.938  0.5111 -0.9188 -0.7441
   89MPD2     C 1355   1.870   3.231   2.134  0.0629 -0.3501  0.3403
   89MPD2    C1 1356   1.821   3.280   2.018 -0.5817  0.9118 -0.5066
   89MPD2    C2 1357   1.892   3.373   1.952  0.0071  0.3306  0.1913
   89MPD2    C3 1358   2.017   3.411   1.981  0.0682 -0.7727 -0.1349
   89MPD2    C4 1359   2.061   3.374   2.110  0.1142  0.2798 -0.1329
   89MPD2    C5 1360   1.989   3.276   2.173  0.0639 -0.2230 -0.3884
   89MPD2     H 1361   1.844   3.423   1.868  0.3989 -1.7675 -1.2962
   89MPD2    H1 1362   2.152   3.402   2.160  0.4198 -2.1169  0.6641
   89MPD2    H2 1363   1.816   3.155   2.189 -0.4053  1.0540  1.8185
   89MPD2    H3 1364   2.030   3.237   2.265 -2.0729  0.3247  0.7889
   89MPD2     N 1365   2.091   3.489   1.892 -0.4168  0.0411  0.2992
   89MPD2    H5 1366   2.047   3.522   1.807  2.2852  1.5998 -0.4983
   89MPD2    N1 1367   1.689   3.256   1.963  0.0611 -0.5697  0.2716
   89MPD2    H7 1368   1.651   3.308   1.885 -0.8456 -0.1398  0.9951
   90TCq2    C1 1369   2.224   3.513   1.905 -0.7668  1.0486  0.1466
   90TCq2    O2 1370   2.305   3.480   1.989  0.6531 -0.5217 -0.6839
   90TCq2    C2 1371   2.283   3.568   1.783 -0.2115 -0.3920  0.4653
   90TCq2    C3 1372   2.420   3.567   1.766 -0.3579  0.7440  0.6402
   90TCq2    C4 1373   2.469   3.614   1.649  0.3733 -0.3251  0.7625
   90TCq2    C5 1374   2.392   3.661   1.551  0.3885 -0.3555  0.3584
   90TCq2    C6 1375   2.258   3.656   1.562 -0.0456 -0.2330 -0.4873
   90TCq2    C7 1376   2.198   3.613   1.681  0.0924 -0.1498 -0.0615
   90TCq2    C8 1377   2.177   3.710   1.460 -0.1702  0.6128 -0.2194
   90TCq2    O4 1378   2.057   3.683   1.466  0.4651 -0.0209 -0.4381
   90TCq2    C9 1379   2.610   3.629   1.642  0.3886 -0.1639  0.0311
   90TCq2    O5 1380   2.676   3.637   1.751 -1.0189  0.4665 -0.5195
   90TCq2    O6 1381   2.659   3.645   1.529  0.3545 -0.4608  0.0485
   90TCq2    H2 1382   2.488   3.547   1.848  0.3118 -2.2860 -0.6571
   90TCq2    H3 1383   2.451   3.706   1.472 -0.5022  3.4159  1.8342
   90TCq2    H4 1384   2.096   3.648   1.697 -0.3333 -2.1107  1.5201
   91TMC2    C1 1385   3.837   4.072  16.627 -0.1136 -0.3202 -0.1646
   91TMC2    C2 1386   3.864   4.117  16.498  0.3831 -0.8349 -0.1009
   91TMC2    C3 1387   3.765   4.183  16.437  0.2927  0.4047 -0.5869
   91TMC2    C4 1388   3.728   4.109  16.690 -0.4013 -0.6979  0.7265
   91TMC2    C5 1389   3.636   4.186  16.633  0.2047  0.2258 -0.5656
   91TMC2    C6 1390   3.653   4.221  16.503  0.1186 -0.4309  0.3850
   91TMC2     C 1391   3.886   3.940  16.682  0.2334  0.0137 -0.8368
   91TMC2     O 1392   3.819   3.873  16.755 -1.2334 -0.2140  0.2250
   91TMC2     H 1393   3.951   4.081  16.445  0.6007 -0.2383 -0.1443
   91TMC2    H1 1394   3.714   4.060  16.786  1.9813 -1.4895  0.6628
   91TMC2    H2 1395   3.570   4.274  16.457  0.5971 -0.4140 -0.4519
   91TMC2    C7 1396   3.505   4.141  16.675  1.0339 -0.3921  0.7019
   91TMC2    C8 1397   3.775   4.217  16.294 -0.0866  0.3110  0.4183
   91TMC2    O1 1398   3.493   4.119  16.797  1.0880 -0.2921 -0.2955
   91TMC2    O2 1399   3.701   4.308  16.254 -0.0554 -0.1633  0.4062
   91TMC2    O5 1400   3.909   4.226  16.278 -0.4886 -0.6779  0.0166
   91TMC2    H5 1401   3.957   4.141  16.281 -0.7567 -0.8143  0.5254
   92MPD2     C 1402   4.050   3.688  16.685  0.6566  0.0246 -0.3952
   92MPD2    C1 1403   4.093   3.811  16.647 -0.4664  0.6031 -0.1577
   92MPD2    C2 1404   4.219   3.837  16.601 -0.4997  0.7013  0.4490
   92MPD2    C3 1405   4.299   3.728  16.579 -0.2924 -0.7797 -0.2397
   92MPD2    C4 1406   4.258   3.603  16.603 -1.0267 -0.0537  0.0032
   92MPD2    C5 1407   4.132   3.580  16.653  0.8845  0.3365  0.0750
   92MPD2     H 1408   4.249   3.933  16.562  0.6210  1.0829  2.2642
   92MPD2    H1 1409   4.305   3.511  16.572 -2.4064 -1.3867  1.8709
   92MPD2    H2 1410   3.943   3.670  16.694  0.5823  0.9725  0.7891
   92MPD2    H3 1411   4.094   3.479  16.656  0.0310  0.6279 -0.6124
   92MPD2     N 1412   4.424   3.764  16.522 -0.3015 -0.4199  0.1176
   92MPD2    H5 1413   4.450   3.862  16.515  1.8232 -1.0369 -0.3589
   92MPD2    N1 1414   4.018   3.928  16.641 -0.0083  0.0967 -0.5785
   92MPD2    H7 1415   4.062   4.015  16.615  1.0722 -0.2402  0.1123
   93MPD2     C 1416   0.264   4.382  13.837 -0.1126 -0.1921 -0.1462
   93MPD2    C1 1417   0.231   4.249  13.804  0.3565  0.1558  0.0763
   93MPD2    C2 1418   0.095   4.225  13.786  0.3846 -0.3926  0.1453
   93MPD2    C3 1419   4.725   4.326  13.816  0.5445 -0.7546 -0.3418
   93MPD2    C4 1420   0.041   4.452  13.857  0.5821 -0.1054  0.2990
   93MPD2    C5 1421   0.173   4.478  13.869 -0.4532  0.3892 -0.5002
   93MPD2     H 1422   0.066   4.126  13.753  3.5830 -1.5363  0.7534
   93MPD2    H1 1423   4.694   4.532  13.868  1.5659  0.9331 -0.8093
   93MPD2    H2 1424   0.368   4.414  13.843  0.0854 -1.0366  1.0690
   93MPD2    H3 1425   0.208   4.575  13.901  1.3279 -1.1558  2.2918
   93MPD2     N 1426   4.582   4.301  13.813 -0.0218 -0.6071 -0.3917
   93MPD2    H5 1427   4.513   4.352  13.868  0.4473  0.8485 -1.1476
   93MPD2    N1 1428   0.324   4.151  13.775 -0.3637 -0.2504 -0.1600
   93MPD2    H7 1429   0.294   4.058  13.750  0.8901 -0.6189 -0.2900
   94TCq2    C1 1430   0.458   4.159  13.777  0.1813  0.1224  0.1894
   94TCq2    O2 1431   0.530   4.262  13.775  0.4329  0.0050  0.4638
   94TCq2    C2 1432   0.533   4.034  13.774 -0.1547 -0.6942  0.1140
   94TCq2    C3 1433   0.481   3.928  13.705 -0.1622  0.0258 -0.9472
   94TCq2    C4 1434   0.571   3.821  13.692  0.1275 -0.1733  0.5509
   94TCq2    C5 1435   0.702   3.833  13.731  0.6717 -0.5253  0.4392
   94TCq2    C6 1436   0.750   3.948  13.786  0.1650 -0.7736  0.2035
   94TCq2    C7 1437   0.665   4.048  13.812  0.0821 -0.1637  0.6665
   94TCq2    C8 1438   0.890   3.960  13.810 -0.3696  0.8654  0.4325
   94TCq2    O4 1439   0.964   3.889  13.738  0.2957  0.1289 -0.1215
   94TCq2    C9 1440   0.525   3.693  13.649  0.1440  0.5267 -0.9540
   94TCq2    O5 1441   0.424   3.692  13.578 -0.0114 -0.0919 -0.2273
   94TCq2    O6 1442   0.597   3.596  13.680  0.4303  0.0138  0.6433
   94TCq2    H2 1443   0.375   3.919  13.684 -0.4797  2.5799 -0.3792
   94TCq2    H3 1444   0.769   3.752  13.705  2.8345  1.5639 -0.5837
   94TCq2    H4 1445   0.699   4.139  13.860  0.5955  1.3353 -2.4998
   95TMC2    C1 1446   0.428   0.712  16.087 -0.4366  0.3082  0.1002
   95TMC2    C2 1447   0.307   0.684  16.038 -0.6149 -0.6293 -0.3681
   95TMC2    C3 1448   0.202   0.681  16.119 -0.0211  0.1953 -0.2600
   95TMC2    C4 1449   0.458   0.739  16.218 -1.1577  0.2017  1.1797
   95TMC2    C5 1450   0.351   0.723  16.300  0.1654 -0.1265 -1.0664
   95TMC2    C6 1451   0.222   0.696  16.256 -0.3979  0.5688  0.6722
   95TMC2     C 1452   0.542   0.697  16.003  0.3919  0.4343  0.4106
   95TMC2     O 1453   0.648   0.745  16.044 -0.3482  0.0471 -1.1465
   95TMC2     H 1454   0.282   0.673  15.933  0.0771 -2.2374 -0.3686
   95TMC2    H1 1455   0.559   0.744  16.259 -0.4918 -2.7545 -0.1004
   95TMC2    H2 1456   0.141   0.682  16.326 -1.3593  0.6551 -0.4212
   95TMC2    C7 1457   0.373   0.734  16.442 -0.2835 -0.0235 -0.5897
   95TMC2    C8 1458   0.072   0.664  16.065 -0.4280 -0.2413 -0.6602
   95TMC2    O1 1459   0.287   0.697  16.521  0.4904  0.7234  0.2312
   95TMC2    O2 1460   0.060   0.603  15.956 -0.2734 -0.0173 -0.7309
   95TMC2    O5 1461   4.719   0.753  16.127 -0.5477 -0.2538 -0.0581
   95TMC2    H5 1462   0.022   0.804  16.206 -0.1210 -0.3092 -0.1782
   96MPD2     C 1463   0.801   0.554  15.577 -0.0870 -0.8596 -0.0233
   96MPD2    C1 1464   0.828   0.658  15.665 -0.5837  0.2337 -0.1551
   96MPD2    C2 1465   0.737   0.685  15.772  0.5865 -0.4451  0.7391
   96MPD2    C3 1466   0.617   0.608  15.790  0.7806  0.3504 -0.2476
   96MPD2    C4 1467   0.595   0.504  15.699  0.3820 -0.0073  0.4090
   96MPD2    C5 1468   0.682   0.486  15.593 -0.0005 -0.6329  0.0431
   96MPD2     H 1469   0.754   0.772  15.834 -2.7941 -0.9242  2.3924
   96MPD2    H1 1470   0.508   0.439  15.702 -0.3158  0.8997 -0.3940
   96MPD2    H2 1471   0.861   0.517  15.494 -0.6250  0.5467 -1.0389
   96MPD2    H3 1472   0.657   0.406  15.523  1.0605 -0.2529 -0.7698
   96MPD2     N 1473   0.517   0.632  15.886  0.1813  0.2741 -1.0842
   96MPD2    H5 1474   0.428   0.585  15.875 -0.7325  1.0129  3.2626
   96MPD2    N1 1475   0.950   0.725  15.654  0.0906 -0.1230  0.3244
   96MPD2    H7 1476   1.011   0.682  15.585  0.2805  0.2345  0.2737
   97MPD2     C 1477   3.436   2.884   1.637 -0.3572 -0.6903 -0.0639
   97MPD2    C1 1478   3.335   2.934   1.550  0.3461  0.0924 -0.4799
   97MPD2    C2 1479   3.335   2.887   1.421 -0.0745  0.0184  0.0673
   97MPD2    C3 1480   3.438   2.803   1.374 -0.1551  0.0776  0.2733
   97MPD2    C4 1481   3.548   2.777   1.452 -0.0701 -0.1512  0.4901
   97MPD2    C5 1482   3.538   2.813   1.585  1.1060  0.3524 -0.1927
   97MPD2     H 1483   3.251   2.913   1.357  0.5380 -1.6161 -1.4177
   97MPD2    H1 1484   3.632   2.719   1.415 -1.7528 -1.2851 -1.5473
   97MPD2    H2 1485   3.446   2.911   1.742 -0.0187  0.3215 -0.3584
   97MPD2    H3 1486   3.610   2.787   1.662  1.2974 -1.3453 -0.9379
   97MPD2     N 1487   3.454   2.771   1.239 -0.0604 -0.1523 -0.4318
   97MPD2    H5 1488   3.545   2.736   1.210 -0.1491 -1.4144  0.8039
   97MPD2    N1 1489   3.242   3.017   1.606 -0.3681 -0.4039 -0.2147
   97MPD2    H7 1490   3.259   3.034   1.705 -1.3173  1.1391 -0.3344
   98TCq2    C1 1491   3.379   2.804   1.130  0.3208  0.2499 -0.6000
   98TCq2    O2 1492   3.274   2.867   1.126 -0.7143 -0.0411 -0.1344
   98TCq2    C2 1493   3.433   2.758   1.000  0.7825  0.3943  1.0300
   98TCq2    C3 1494   3.519   2.649   0.999  0.5112  0.2435 -0.5539
   98TCq2    C4 1495   3.583   2.619   0.887 -0.4758  0.6193 -0.2866
   98TCq2    C5 1496   3.577   2.702   0.777 -0.2016  0.0399  0.0230
   98TCq2    C6 1497   3.487   2.806   0.778 -0.5246  0.1397  0.5070
   98TCq2    C7 1498   3.408   2.833   0.889 -0.2904 -0.4469  0.4283
   98TCq2    C8 1499   3.487   2.903   0.670  0.0245  0.0705 -0.3705
   98TCq2    O4 1500   3.597   2.937   0.629 -0.5852  0.3841  0.0143
   98TCq2    C9 1501   3.669   2.509   0.881 -0.2019  0.0839 -0.5483
   98TCq2    O5 1502   3.744   2.507   0.779  0.5901  0.2460 -0.1873
   98TCq2    O6 1503   3.671   2.427   0.977  0.2643 -0.4958  0.3742
   98TCq2    H2 1504   3.539   2.588   1.086 -0.4795 -0.4279 -0.7985
   98TCq2    H3 1505   3.621   2.685   0.679  0.4394  2.1029 -0.0555
   98TCq2    H4 1506   3.335   2.912   0.901 -1.3284 -1.0306 -2.2488
   99MPD2     C 1507   1.889   0.501   1.570  0.1112  0.2076 -0.1629
   99MPD2    C1 1508   1.813   0.429   1.655 -0.4171  0.3787  0.2257
   99MPD2    C2 1509   1.727   0.327   1.607 -0.6117  0.4215 -0.7696
   99MPD2    C3 1510   1.715   0.299   1.475  0.2188 -0.0167 -0.3124
   99MPD2    C4 1511   1.777   0.383   1.388 -0.1052 -0.4471 -0.6709
   99MPD2    C5 1512   1.865   0.481   1.439  0.6138  0.2623 -1.0712
   99MPD2     H 1513   1.667   0.270   1.678 -0.6208  2.9660  1.2804
   99MPD2    H1 1514   1.759   0.367   1.282 -3.4933 -0.7106 -0.0554
   99MPD2    H2 1515   1.956   0.578   1.606 -0.2085  1.0833 -1.4530
   99MPD2    H3 1516   1.917   0.540   1.364 -0.0278  0.7099 -1.1585
   99MPD2     N 1517   1.643   0.183   1.439 -0.5284 -0.4802  0.9528
   99MPD2    H5 1518   1.609   0.124   1.514  2.7291 -1.0503  1.9758
   99MPD2    N1 1519   1.811   0.450   1.793 -0.6117  0.1839 -0.0813
   99MPD2    H7 1520   1.750   0.390   1.848 -1.8458  0.9447 -0.6251
  100TCq2    C1 1521   1.890   0.533   1.874 -0.0083 -0.3937  0.1928
  100TCq2    O2 1522   1.996   0.580   1.846  0.5720 -0.2593  0.5755
  100TCq2    C2 1523   1.845   0.519   2.013 -0.1452 -0.6597  0.0023
  100TCq2    C3 1524   1.940   0.523   2.110 -0.2058  0.1146 -0.8691
  100TCq2    C4 1525   1.890   0.516   2.242 -0.4088 -0.0942  0.5679
  100TCq2    C5 1526   1.759   0.506   2.283 -0.2156 -0.4461 -0.5871
  100TCq2    C6 1527   1.674   0.489   2.175 -0.8285 -0.1814 -0.5842
  100TCq2    C7 1528   1.711   0.494   2.043 -0.2084  0.0433  0.3390
  100TCq2    C8 1529   1.537   0.465   2.200 -0.4277 -0.7426  0.0991
  100TCq2    O4 1530   1.497   0.498   2.310  0.1708  0.3414 -0.3094
  100TCq2    C9 1531   1.989   0.505   2.348  0.4451  0.2576  0.2177
  100TCq2    O5 1532   1.950   0.471   2.460  0.3257 -0.8423 -0.8049
  100TCq2    O6 1533   2.109   0.503   2.315  0.0044  0.0123  0.3662
  100TCq2    H2 1534   2.045   0.523   2.081  0.0717 -0.8854  0.1527
  100TCq2    H3 1535   1.727   0.510   2.387 -0.9455  0.8128 -0.8668
  100TCq2    H4 1536   1.634   0.499   1.967  0.6162  0.0293 -0.5051
  101MPD2     C 1537   2.453   1.524  13.005 -0.8750 -0.1408 -0.1466
  101MPD2    C1 1538   2.356   1.605  13.063  0.2223  0.1619 -0.6907
  101MPD2    C2 1539   2.282   1.549  13.164 -0.2978  0.5280  0.3060
  101MPD2    C3 1540   2.283   1.413  13.199  0.2083  0.0687 -0.1608
  101MPD2    C4 1541   2.370   1.332  13.129 -0.2388  0.2309 -0.0683
  101MPD2    C5 1542   2.448   1.390  13.028 -0.5306  0.0520 -0.2706
  101MPD2     H 1543   2.210   1.614  13.213  0.4402  2.7280 -1.5214
  101MPD2    H1 1544   2.368   1.224  13.142  1.9267  0.1559 -0.3552
  101MPD2    H2 1545   2.519   1.567  12.931 -0.6544  1.0068  0.6969
  101MPD2    H3 1546   2.506   1.318  12.972  1.2099  0.8461  0.5375
  101MPD2     N 1547   2.210   1.377  13.306  0.2778  0.0936 -0.2101
  101MPD2    H5 1548   2.169   1.443  13.371  1.3064 -0.2265  0.7576
  101MPD2    N1 1549   2.345   1.736  13.021  0.5292  0.5336  0.1153
  101MPD2    H7 1550   2.390   1.765  12.935 -1.3671 -2.1165 -1.7715
  102TCq2    C1 1551   2.532   1.989  12.748  0.7382  0.6339  0.5424
  102TCq2    O2 1552   2.611   1.915  12.804 -0.5518  0.2352  0.2134
  102TCq2    C2 1553   2.406   2.022  12.819 -0.6444 -0.3199  0.2565
  102TCq2    C3 1554   2.306   2.095  12.766  0.5445  0.2762  0.5826
  102TCq2    C4 1555   2.192   2.109  12.848 -0.3181 -0.1675  0.3262
  102TCq2    C5 1556   2.166   2.029  12.960  0.1407  0.0406 -0.2337
  102TCq2    C6 1557   2.276   1.955  12.996  0.3062 -0.5967 -0.6475
  102TCq2    C7 1558   2.401   1.966  12.936 -0.0927 -0.0887  0.1636
  102TCq2    C8 1559   2.253   1.833  13.072 -0.5715 -0.5854 -0.4733
  102TCq2    O4 1560   2.169   1.826  13.162 -0.3387  0.2763 -0.1905
  102TCq2    C9 1561   2.080   2.180  12.797 -0.0195  0.3712 -0.5170
  102TCq2    O5 1562   1.973   2.119  12.813 -0.2606  0.4591 -0.3087
  102TCq2    O6 1563   2.103   2.274  12.713 -0.1439  0.8113  0.6143
  102TCq2    H2 1564   2.305   2.151  12.674  0.9896 -0.0792  0.3610
  102TCq2    H3 1565   2.066   2.010  12.997 -0.0978 -0.3566 -1.0665
  102TCq2    H4 1566   2.493   1.934  12.984 -1.7811  0.7139  4.0143
  103TMC2    C1 1567   0.791   1.347  12.805 -0.5431  0.2255 -0.1208
  103TMC2    C2 1568   0.922   1.375  12.772  0.1524 -0.5159 -0.0705
  103TMC2    C3 1569   0.981   1.488  12.822 -0.5159 -0.6492  0.4807
  103TMC2    C4 1570   0.729   1.412  12.905 -1.1534  0.1702 -0.4686
  103TMC2    C5 1571   0.786   1.523  12.944 -0.2177  0.7171 -0.2725
  103TMC2    C6 1572   0.911   1.569  12.906  0.0609  0.4984  0.1622
  103TMC2     C 1573   0.706   1.284  12.706  0.3391  0.2307  0.1670
  103TMC2     O 1574   0.596   1.330  12.689 -0.2886  0.1439  0.6424
  103TMC2     H 1575   0.972   1.342  12.682 -0.3059 -0.3086 -0.4028
  103TMC2    H1 1576   0.625   1.397  12.931 -0.8908 -2.0064 -0.6673
  103TMC2    H2 1577   0.961   1.649  12.960 -0.6995  1.5855 -0.7440
  103TMC2    C7 1578   0.698   1.611  13.020  0.1150  0.1538  0.1425
  103TMC2    C8 1579   1.097   1.530  12.745  0.2879 -0.4914  0.2956
  103TMC2    O1 1580   0.613   1.559  13.095  0.2965 -0.0934 -0.8577
  103TMC2    O2 1581   1.181   1.455  12.704 -0.2899 -0.4848 -0.3281
  103TMC2    O5 1582   1.113   1.662  12.771 -0.3111  0.3238  0.4174
  103TMC2    H5 1583   1.026   1.706  12.781 -0.5219  0.1076 -0.4084
  104MPD2     C 1584   0.769   0.996  12.496 -0.2283 -0.2220  0.2048
  104MPD2    C1 1585   0.714   1.118  12.532 -0.5784 -0.4311  0.2940
  104MPD2    C2 1586   0.634   1.189  12.443 -0.9234 -0.5002  0.3844
  104MPD2    C3 1587   0.617   1.140  12.318  0.1315  0.1989 -0.2349
  104MPD2    C4 1588   0.665   1.012  12.287  0.4149  0.4140 -0.3519
  104MPD2    C5 1589   0.750   0.944  12.371 -0.4520  0.2077  0.5286
  104MPD2     H 1590   0.592   1.286  12.471  1.5895  0.5055  0.6554
  104MPD2    H1 1591   0.666   0.977  12.185  1.1220  0.8243 -0.4877
  104MPD2    H2 1592   0.850   0.949  12.551  0.1166  0.8340  0.5897
  104MPD2    H3 1593   0.799   0.851  12.343 -1.4319 -0.1787  0.0786
  104MPD2     N 1594   0.557   1.225  12.219  0.8250  0.6409  0.1187
  104MPD2    H5 1595   0.528   1.318  12.248 -1.2697  0.8077 -2.5396
  104MPD2    N1 1596   0.762   1.169  12.654 -0.1423  0.6372 -0.1685
  104MPD2    H7 1597   0.844   1.118  12.685 -1.9339 -1.0764  1.7205
  105MPD2     C 1598   2.279   0.763  17.613  0.2149  0.4501 -0.1403
  105MPD2    C1 1599   2.210   0.873  17.575  0.0102  0.5506 -0.1466
  105MPD2    C2 1600   2.122   0.923  17.670  0.0113 -0.8317  0.0389
  105MPD2    C3 1601   2.101   0.856   0.095 -0.0909  0.0924  0.0751
  105MPD2    C4 1602   2.169   0.735   0.122  0.3056 -0.8945 -0.2448
  105MPD2    C5 1603   2.239   0.682   0.016  1.0408 -0.0989  0.0506
  105MPD2     H 1604   2.074   1.019  17.660  2.4678  0.2948 -0.8398
  105MPD2    H1 1605   2.161   0.689   0.220 -2.1933  1.7496  0.8010
  105MPD2    H2 1606   2.335   0.705  17.540 -2.3456 -0.7274 -1.1859
  105MPD2    H3 1607   2.290   0.588   0.034 -0.2516 -0.8530 -0.1802
  105MPD2     N 1608   2.014   0.919   0.183  0.1294 -0.2254  0.1588
  105MPD2    H5 1609   1.964   0.996   0.140 -1.1195 -1.6938 -1.0252
  105MPD2    N1 1610   2.224   0.949  17.456 -0.1838  0.3001 -0.5148
  105MPD2    H7 1611   2.158   1.024  17.443 -0.0312  0.8916  2.1549
  106TCq2    C1 1612   2.005   0.893   0.316 -0.0878  0.4658 -0.3440
  106TCq2    O2 1613   2.073   0.819   0.382  0.1829  0.7525  0.5854
  106TCq2    C2 1614   1.898   0.973   0.371  0.1847 -0.7958 -0.0953
  106TCq2    C3 1615   1.787   0.984   0.296 -0.0620  0.1626  0.3274
  106TCq2    C4 1616   1.670   1.036   0.358 -0.3041 -0.1932  0.1599
  106TCq2    C5 1617   1.672   1.080   0.488 -0.3473  0.2642  0.1675
  106TCq2    C6 1618   1.792   1.056   0.559  0.7854  0.3909 -0.4833
  106TCq2    C7 1619   1.905   0.998   0.505 -0.3212 -0.1379  0.3172
  106TCq2    C8 1620   1.806   1.071   0.702 -0.4575  0.1189  0.3296
  106TCq2    O4 1621   1.918   1.063   0.749 -0.1152  0.0153 -0.1628
  106TCq2    C9 1622   1.539   1.018   0.296 -0.1839  0.0453  0.1104
  106TCq2    O5 1623   1.545   0.985   0.173 -0.1005 -0.1858  0.1384
  106TCq2    O6 1624   1.440   1.017   0.374  0.0624 -0.5462 -0.1570
  106TCq2    H2 1625   1.777   0.937   0.199 -1.5812  2.7353 -0.7598
  106TCq2    H3 1626   1.581   1.131   0.518 -1.1670 -1.9295  1.4116
  106TCq2    H4 1627   2.000   0.978   0.554 -0.3805  1.9675  1.2932
  107TMC2    C1 1628   3.247   4.568  11.849  0.6768  0.4787 -0.9042
  107TMC2    C2 1629   3.384   4.570  11.844  0.2248 -0.3807 -0.1001
  107TMC2    C3 1630   3.448   4.524  11.737 -0.2349 -0.0450 -0.3003
  107TMC2    C4 1631   3.174   4.503  11.745 -0.3662  0.4418  0.1903
  107TMC2    C5 1632   3.248   4.450  11.647  0.9812 -0.0079  0.2247
  107TMC2    C6 1633   3.384   4.457  11.636 -0.2127 -0.5576  0.0946
  107TMC2     C 1634   3.180   4.654  11.948 -0.1284  0.9230 -0.8933
  107TMC2     O 1635   3.147   4.611  12.059 -0.1483  0.1758  0.6500
  107TMC2     H 1636   3.444   4.615  11.922 -1.1496  3.9884 -1.5918
  107TMC2    H1 1637   3.065   4.505  11.749 -0.3662  0.1326  0.3245
  107TMC2    H2 1638   3.437   4.405  11.558 -2.3578 -0.0683 -1.6925
  107TMC2    C7 1639   3.170   4.408  11.532  0.1984 -0.3304 -1.0292
  107TMC2    C8 1640   3.577   4.470  11.766  0.6188  0.1809 -0.4259
  107TMC2    O1 1641   3.216   4.426  11.420  0.0280  0.3301  0.7955
  107TMC2    O2 1642   3.626   4.453  11.878 -0.0308  0.0422  0.3582
  107TMC2    O5 1643   3.646   4.475  11.655 -0.4500 -0.0448 -0.3059
  107TMC2    H5 1644   3.596   4.528  11.589  2.1216  0.2012 -2.0922
  108MPD2     C 1645   3.187   0.289  11.864 -0.9362  0.0322  0.3880
  108MPD2    C1 1646   3.154   0.181  11.943 -0.0317  0.0540  0.2786
  108MPD2    C2 1647   3.060   0.190  12.045 -0.0163 -0.2485 -0.4557
  108MPD2    C3 1648   2.994   0.310  12.060  0.8453 -0.1758  0.6836
  108MPD2    C4 1649   3.032   0.422  11.987 -0.4443 -0.0810  0.0902
  108MPD2    C5 1650   3.131   0.408  11.891  0.4911 -0.6747 -1.0354
  108MPD2     H 1651   3.012   0.099  12.079 -1.2139  0.3230 -0.6332
  108MPD2    H1 1652   2.983   0.518  12.001  0.2995  0.3207 -0.0925
  108MPD2    H2 1653   3.244   0.277  11.772 -0.7877  1.3010  0.3203
  108MPD2    H3 1654   3.150   0.489  11.821  2.2494 -0.4229 -0.2858
  108MPD2     N 1655   2.875   0.320  12.135 -0.1947  0.3429  0.2898
  108MPD2    H5 1656   2.826   0.409  12.123 -0.6782 -0.0247 -0.4562
  108MPD2    N1 1657   3.200   0.055  11.898  0.4297 -0.1485  0.4190
  108MPD2    H7 1658   3.249   0.065  11.810 -1.0268  1.7437 -0.1886
  109MPD2     C 1659   2.515   2.532   2.390 -0.7261  0.2501 -0.3756
  109MPD2    C1 1660   2.590   2.608   2.308 -0.1771  0.3519  0.0645
  109MPD2    C2 1661   2.657   2.722   2.360 -0.6437 -0.1357 -0.5176
  109MPD2    C3 1662   2.650   2.752   2.490 -0.3342  0.5859  0.0887
  109MPD2    C4 1663   2.578   2.669   2.580 -0.1784 -0.2694  0.0702
  109MPD2    C5 1664   2.503   2.567   2.524 -0.1857 -0.2338  0.1069
  109MPD2     H 1665   2.711   2.795   2.300  2.2530 -0.5603  1.5661
  109MPD2    H1 1666   2.574   2.692   2.685  1.6918  0.3509  0.0167
  109MPD2    H2 1667   2.468   2.441   2.355 -2.4885  1.5724 -1.4891
  109MPD2    H3 1668   2.458   2.502   2.598 -0.9126 -1.5568 -1.4997
  109MPD2     N 1669   2.735   2.861   2.532  0.2560 -0.0492  0.3142
  109MPD2    H5 1670   2.809   2.885   2.467 -0.1189 -2.1787 -0.9157
  109MPD2    N1 1671   2.592   2.574   2.169 -0.2469  0.2082 -0.0639
  109MPD2    H7 1672   2.534   2.501   2.129 -1.5095  0.9629  0.3937
  110TCq2    C1 1673   2.741   2.917   2.656 -0.3030  0.9461  0.2526
  110TCq2    O2 1674   2.682   2.889   2.760  0.1453  0.1933  0.0802
  110TCq2    C2 1675   2.838   3.031   2.666 -0.2878  0.4626  0.2055
  110TCq2    C3 1676   2.900   3.058   2.788  0.2907 -0.0999  0.5488
  110TCq2    C4 1677   2.965   3.182   2.797 -0.3883  0.2859 -0.2908
  110TCq2    C5 1678   2.982   3.264   2.689 -0.6010 -0.2543  0.4153
  110TCq2    C6 1679   2.928   3.225   2.569 -0.7010 -0.1202  0.5051
  110TCq2    C7 1680   2.860   3.110   2.556 -0.4906 -0.3666  0.5344
  110TCq2    C8 1681   2.969   3.298   2.448  0.3261  0.3114 -0.1377
  110TCq2    O4 1682   2.883   3.292   2.360  1.0363 -0.1468  0.6905
  110TCq2    C9 1683   3.022   3.225   2.920 -1.1231  0.1346  0.1245
  110TCq2    O5 1684   3.065   3.344   2.926 -0.0048  0.4166  0.3811
  110TCq2    O6 1685   3.002   3.153   3.015  0.1189 -0.5134  0.2924
  110TCq2    H2 1686   2.889   2.993   2.874 -1.2913 -0.9627 -0.3026
  110TCq2    H3 1687   3.043   3.351   2.705 -0.1258 -0.3420 -0.9436
  110TCq2    H4 1688   2.806   3.092   2.463 -0.8689  1.2253  0.4425
  111TMC2    C1 1689   2.668   2.031  11.682 -0.0001  0.1800  0.1392
  111TMC2    C2 1690   2.575   1.951  11.749  0.1231  0.1110  0.1320
  111TMC2    C3 1691   2.619   1.867  11.851 -0.3834 -0.6576  0.0912
  111TMC2    C4 1692   2.799   2.028  11.720  0.1051 -0.2637  0.1504
  111TMC2    C5 1693   2.834   1.944  11.822  0.1904  0.6223  0.4205
  111TMC2    C6 1694   2.745   1.867  11.893  0.4916 -0.5932  0.0944
  111TMC2     C 1695   2.623   2.116  11.576 -0.0374 -0.6740 -0.5552
  111TMC2     O 1696   2.717   2.151  11.505 -0.0132 -0.2547 -0.2954
  111TMC2     H 1697   2.478   1.939  11.702 -0.1909  3.6190 -0.0718
  111TMC2    H1 1698   2.870   2.094  11.672 -1.3038  0.9355 -0.2757
  111TMC2    H2 1699   2.786   1.797  11.966  1.1893 -0.3291 -0.0414
  111TMC2    C7 1700   2.958   1.975  11.895  0.5688  0.2505  0.8305
  111TMC2    C8 1701   2.523   1.804  11.936  0.9018  0.6172 -0.5015
  111TMC2    O1 1702   2.957   1.934  12.009 -0.3458  0.2448  0.0400
  111TMC2    O2 1703   2.550   1.723  12.023 -0.0445  0.7729 -0.4794
  111TMC2    O5 1704   2.418   1.885  11.959  1.0022 -0.7650 -0.2280
  111TMC2    H5 1705   2.389   1.958  11.900 -1.1662 -1.2442  0.2379
  112MPD2     C 1706   2.283   2.391  11.308 -0.3690  0.3038  0.4605
  112MPD2    C1 1707   2.414   2.356  11.277 -0.1176  0.0370 -0.3428
  112MPD2    C2 1708   2.488   2.276  11.366  0.4326  0.3719 -0.0400
  112MPD2    C3 1709   2.429   2.242  11.490 -0.1136 -0.2626 -0.5519
  112MPD2    C4 1710   2.308   2.295  11.530  0.3030 -0.1031 -0.4066
  112MPD2    C5 1711   2.229   2.363  11.436  0.4245 -0.0021  0.0913
  112MPD2     H 1712   2.589   2.246  11.341  1.0811  3.0351 -0.6395
  112MPD2    H1 1713   2.262   2.267  11.625 -3.4240  2.0217 -1.6124
  112MPD2    H2 1714   2.220   2.451  11.243  0.3780 -0.4758 -1.0011
  112MPD2    H3 1715   2.124   2.385  11.449  0.3500  0.0213 -0.5300
  112MPD2     N 1716   2.494   2.165  11.590 -0.1423 -0.9273 -0.8215
  112MPD2    H5 1717   2.442   2.151  11.676 -1.9088  0.7997 -1.5972
  112MPD2    N1 1718   2.485   2.393  11.157 -0.1202  0.0281 -0.2909
  112MPD2    H7 1719   2.577   2.356  11.137  0.5598  1.3873  0.3746
  113MPD2     C 1720   1.130   0.060   0.791  0.2169  0.6122  0.6842
  113MPD2    C1 1721   1.024   0.127   0.859 -0.3093 -0.2626 -0.5484
  113MPD2    C2 1722   0.894   0.099   0.816  0.5449 -0.2229 -0.4832
  113MPD2    C3 1723   0.854   0.014   0.712 -0.8164 -0.3894 -0.3512
  113MPD2    C4 1724   0.956   4.675   0.652 -0.5407  0.0970  0.4310
  113MPD2    C5 1725   1.091   4.698   0.692  0.3404 -0.3039  0.1702
  113MPD2     H 1726   0.814   0.149   0.871  0.2205 -0.7521 -0.4675
  113MPD2    H1 1727   0.936   4.612   0.565 -0.0012 -0.3601  0.6419
  113MPD2    H2 1728   1.234   0.071   0.818  0.2222 -0.2486  1.0117
  113MPD2    H3 1729   1.173   4.649   0.641 -0.3787 -1.0784 -0.2597
  113MPD2     N 1730   0.719   4.721   0.671  0.1440 -0.2186 -0.0872
  113MPD2    H5 1731   0.700   4.652   0.600 -0.1067 -0.4858  0.2404
  113MPD2    N1 1732   1.040   0.219   0.966 -0.1540  0.2336 -0.2344
  113MPD2    H7 1733   0.961   0.265   1.012 -1.5502 -2.5863  0.1558
  114TCq2    C1 1734   0.610   0.033   0.738  0.3720  0.5456 -0.3136
  114TCq2    O2 1735   0.595   0.074   0.852  0.8226 -0.2467 -0.0769
  114TCq2    C2 1736   0.490   0.009   0.655  0.3137 -0.4402 -0.1008
  114TCq2    C3 1737   0.512   4.703   0.521 -0.2152  0.6250  1.2074
  114TCq2    C4 1738   0.422   4.622   0.452 -0.3760  0.2204 -0.3044
  114TCq2    C5 1739   0.318   4.569   0.522 -0.3247  0.1645  0.0521
  114TCq2    C6 1740   0.303   4.595   0.658  0.3977  0.5135 -0.2629
  114TCq2    C7 1741   0.387   4.680   0.729 -0.1059 -0.3293 -0.1465
  114TCq2    C8 1742   0.180   4.551   0.720 -0.5829 -0.2299 -0.2925
  114TCq2    O4 1743   0.090   4.517   0.649 -0.1073 -0.0091  0.4047
  114TCq2    C9 1744   0.454   4.585   0.317  0.8217 -0.4616 -0.4281
  114TCq2    O5 1745   0.392   4.484   0.275  0.5275 -0.5012  0.2782
  114TCq2    O6 1746   0.559   4.632   0.271 -0.7533 -0.1836 -0.1067
  114TCq2    H2 1747   0.592   0.017   0.460 -0.6181  1.0767  0.9731
  114TCq2    H3 1748   0.247   4.498   0.479  0.1454 -0.0759 -0.3304
  114TCq2    H4 1749   0.369   4.711   0.832  1.0152  0.0500 -0.0695
  115TMC2    C1 1750   1.931   2.913  17.483  0.2080 -0.1977  0.0705
  115TMC2    C2 1751   2.037   2.827  17.503 -0.2105 -0.3840  0.5193
  115TMC2    C3 1752   2.153   2.888  17.538 -0.9722  0.1955 -0.2212
  115TMC2    C4 1753   1.940   3.049  17.496 -1.2095  0.3264 -0.1085
  115TMC2    C5 1754   2.058   3.104  17.532  0.2545  0.0342 -0.0213
  115TMC2    C6 1755   2.162   3.020  17.573  1.5510  0.1329  0.8142
  115TMC2     C 1756   1.816   2.848  17.437 -0.1032  0.1939 -0.7023
  115TMC2     O 1757   1.822   2.730  17.409  0.0228  0.1397  0.3997
  115TMC2     H 1758   2.037   2.719  17.494 -0.5678 -0.0339 -4.0350
  115TMC2    H1 1759   1.861   3.110  17.454 -2.6879 -1.4490  0.0894
  115TMC2    H2 1760   2.257   3.061  17.604  1.2536 -0.5602  2.6718
  115TMC2    C7 1761   2.079   3.243  17.541 -0.0654 -0.2075 -0.2984
  115TMC2    C8 1762   2.249   2.793  17.586 -0.3000 -0.6273  0.0333
  115TMC2    O1 1763   2.186   3.270  17.594 -0.2760 -0.0653  0.1369
  115TMC2    O2 1764   2.256   2.673  17.555 -0.3452 -0.0355 -0.2011
  115TMC2    O5 1765   2.326   2.845  17.679 -0.5537  0.5202 -0.2190
  115TMC2    H5 1766   2.340   2.942  17.681  0.5831  0.3319  1.3603
  116MPD2     C 1767   1.316   2.842  17.299  0.2335 -0.1497  0.7028
  116MPD2    C1 1768   1.407   2.731  17.306  0.6389  0.8891  0.0046
  116MPD2    C2 1769   1.539   2.762  17.350 -0.4419  0.3054 -0.6637
  116MPD2    C3 1770   1.579   2.890  17.386  0.3420 -0.4055  0.1121
  116MPD2    C4 1771   1.489   2.991  17.377  0.8556 -0.3496 -0.4469
  116MPD2    C5 1772   1.359   2.974  17.331 -0.0095 -0.1385 -0.1142
  116MPD2     H 1773   1.619   2.691  17.337 -0.4586  0.1868 -0.1072
  116MPD2    H1 1774   1.516   3.093  17.403 -0.3137  0.1713 -1.2724
  116MPD2    H2 1775   1.216   2.821  17.263  0.5125  0.1846 -0.2764
  116MPD2    H3 1776   1.284   3.052  17.323 -0.2380 -0.4042 -0.5735
  116MPD2     N 1777   1.702   2.925  17.432 -1.0834 -0.6830 -0.1343
  116MPD2    H5 1778   1.706   3.025  17.449 -1.8623 -0.3715 -1.8265
  116MPD2    N1 1779   1.370   2.602  17.261  0.2431 -0.1579  1.0173
  116MPD2    H7 1780   1.274   2.591  17.228  0.4688 -0.3562  0.4228
  117TMC2    C1 1781   0.076   4.571  14.239  0.4214  0.5201 -0.1157
  117TMC2    C2 1782   0.096   4.534  14.369 -1.0546 -0.5994 -0.7372
  117TMC2    C3 1783   0.178   4.614  14.442  0.2219 -0.0513 -0.2797
  117TMC2    C4 1784   0.129   4.683  14.175  0.4933 -0.4129 -0.0720
  117TMC2    C5 1785   0.203   0.038  14.253  0.3986  1.0516 -0.0900
  117TMC2    C6 1786   0.228   0.004  14.387 -0.0833 -0.0202 -0.6265
  117TMC2     C 1787   4.694   4.503  14.177  0.4293 -0.4201  0.1343
  117TMC2     O 1788   4.659   4.399  14.232 -0.6935  0.5783 -0.2836
  117TMC2     H 1789   0.027   4.467  14.418 -0.6589  0.5009  1.3095
  117TMC2    H1 1790   0.120   4.680  14.067  0.6616  2.1268 -0.1423
  117TMC2    H2 1791   0.301   0.063  14.441  0.4239 -1.9407  0.7595
  117TMC2    C7 1792   0.291   0.130  14.188 -0.2930 -0.1747 -0.2198
  117TMC2    C8 1793   0.146   4.636  14.582 -0.1787 -0.4718 -0.2042
  117TMC2    O1 1794   0.395   0.157  14.243  0.2963  0.0737  0.8958
  117TMC2    O2 1795   0.118   0.020  14.626  0.0769  0.3356 -0.6707
  117TMC2    O5 1796   0.102   4.518  14.628 -0.2594  0.4241 -0.0293
  117TMC2    H5 1797   0.138   4.441  14.580  0.9089  0.7027  0.3978
  118MPD2     C 1798   0.248   0.271  13.858  0.0711 -1.3060  0.5283
  118MPD2    C1 1799   0.296   0.261  13.979  1.1504  0.2336  0.5402
  118MPD2    C2 1800   0.408   0.342  14.007 -0.3151 -0.3297  0.6399
  118MPD2    C3 1801   0.448   0.436  13.920 -0.2389  0.2992 -0.3760
  118MPD2    C4 1802   0.383   0.453  13.801 -0.5266  0.2658 -0.0143
  118MPD2    C5 1803   0.290   0.362  13.766 -0.2184 -0.0247 -0.1270
  118MPD2     H 1804   0.447   0.335  14.108  3.0294  0.7890 -0.5858
  118MPD2    H1 1805   0.425   0.522  13.728 -0.4314 -0.8802 -1.0376
  118MPD2    H2 1806   0.174   0.204  13.814 -0.5624  1.5567 -2.7915
  118MPD2    H3 1807   0.246   0.358  13.668 -1.6736 -1.1074  0.5556
  118MPD2     N 1808   0.552   0.521  13.951  0.4622  0.0609  0.6974
  118MPD2    H5 1809   0.574   0.581  13.872  0.2552 -0.0273  0.5721
  118MPD2    N1 1810   0.240   0.169  14.066  0.7880 -0.8777  0.3173
  118MPD2    H7 1811   0.150   0.139  14.031  0.8896 -1.3559  0.4776
  119MPD2     C 1812   3.672   0.851  13.159 -0.0185  0.0324 -0.7045
  119MPD2    C1 1813   3.543   0.863  13.125  0.5332 -0.2303 -0.1307
  119MPD2    C2 1814   3.467   0.756  13.084 -0.3726  0.7280 -0.0132
  119MPD2    C3 1815   3.504   0.621  13.096  0.0248  0.0263 -0.7757
  119MPD2    C4 1816   3.634   0.606  13.146 -0.1690  0.3427  0.3125
  119MPD2    C5 1817   3.713   0.720  13.169  0.4802  0.3946 -0.7699
  119MPD2     H 1818   3.370   0.786  13.047  0.6124  1.1865 -2.2653
  119MPD2    H1 1819   3.684   0.513  13.173  0.8315  1.3039  1.7457
  119MPD2    H2 1820   3.735   0.931  13.194 -0.5298 -0.6733  1.7990
  119MPD2    H3 1821   3.815   0.699  13.197  0.4946  2.0274  0.3685
  119MPD2     N 1822   3.415   0.513  13.085  0.1349 -0.0242 -0.5778
  119MPD2    H5 1823   3.440   0.424  13.126 -1.0892 -0.3076 -0.4234
  119MPD2    N1 1824   3.491   0.993  13.154 -0.1269 -0.2014  0.0627
  119MPD2    H7 1825   3.553   1.059  13.200 -0.1810 -1.2776  1.7035
  120TCq2    C1 1826   3.282   0.518  13.042 -1.0378 -1.4615 -0.3220
  120TCq2    O2 1827   3.224   0.604  12.975 -0.0429  0.1011 -0.7668
  120TCq2    C2 1828   3.192   0.414  13.093  0.1229 -0.6680 -0.3142
  120TCq2    C3 1829   3.249   0.322  13.180  0.3070  0.1192 -0.1767
  120TCq2    C4 1830   3.164   0.232  13.241 -0.1802  0.3364 -0.3494
  120TCq2    C5 1831   3.026   0.249  13.236  0.1220  0.4126  0.4698
  120TCq2    C6 1832   2.979   0.332  13.137 -0.3796 -0.7593  1.2096
  120TCq2    C7 1833   3.057   0.416  13.068  0.0669 -0.4689  0.0040
  120TCq2    C8 1834   2.839   0.323  13.110  0.1624 -0.8795 -0.2705
  120TCq2    O4 1835   2.793   0.363  13.003 -0.7028  0.1090 -0.3507
  120TCq2    C9 1836   3.208   0.130  13.333  0.3809 -0.0168 -0.1934
  120TCq2    O5 1837   3.324   0.145  13.385 -0.2370 -0.1369 -0.0404
  120TCq2    O6 1838   3.120   0.041  13.373  0.2428  0.3407 -0.1552
  120TCq2    H2 1839   3.352   0.316  13.213  0.1113 -0.1467  0.3793
  120TCq2    H3 1840   2.971   0.173  13.291  1.4153 -1.0642 -0.2468
  120TCq2    H4 1841   3.016   0.488  12.997  1.1575 -0.7643 -0.9398
  121TMC2    C1 1842   4.504   3.017  14.193 -0.1566 -0.0122  0.2912
  121TMC2    C2 1843   4.488   3.014  14.326 -0.2302  0.2080 -0.1323
  121TMC2    C3 1844   4.464   2.893  14.372  0.4793  0.0661  0.4132
  121TMC2    C4 1845   4.501   2.911  14.104 -0.3561 -0.5801 -0.1047
  121TMC2    C5 1846   4.479   2.786  14.166 -0.0277  0.0109  0.0295
  121TMC2    C6 1847   4.464   2.780  14.301  0.0151  0.0758 -0.4844
  121TMC2     C 1848   4.576   3.140  14.151  0.5278  0.0146  0.4672
  121TMC2     O 1849   4.643   3.187  14.240  0.2226 -0.0263  0.2979
  121TMC2     H 1850   4.495   3.100  14.392  0.3241  0.3595 -0.3875
  121TMC2    H1 1851   4.498   2.913  13.996 -1.2468  0.4903 -0.0549
  121TMC2    H2 1852   4.446   2.685  14.351 -1.4058 -1.4632 -3.9204
  121TMC2    C7 1853   4.459   2.659  14.091 -0.0122  0.0399  0.3629
  121TMC2    C8 1854   4.423   2.881  14.508  0.1965  0.0241  0.1056
  121TMC2    O1 1855   4.473   2.557  14.158  0.3483  0.1808  0.1738
  121TMC2    O2 1856   4.471   2.802  14.591  0.6044 -0.4964 -0.3982
  121TMC2    O5 1857   4.327   2.980  14.535  0.1716  0.0626 -0.0463
  121TMC2    H5 1858   4.286   3.006  14.449 -1.0106 -0.0647  0.4835
  122MPD2     C 1859   0.022   3.348  14.019 -0.1123 -0.1941 -0.5268
  122MPD2    C1 1860   4.669   3.256  13.954  0.3202  0.1761  0.4481
  122MPD2    C2 1861   4.656   3.278  13.817  0.7014 -0.3372 -0.1013
  122MPD2    C3 1862   0.005   3.380  13.747 -0.5468 -0.4052 -0.5266
  122MPD2    C4 1863   0.091   3.457  13.817  0.0112 -0.4422  0.1113
  122MPD2    C5 1864   0.103   3.436  13.948 -0.7229 -0.0435  0.0019
  122MPD2     H 1865   4.584   3.222  13.759  0.3973 -1.6753  1.6053
  122MPD2    H1 1866   0.154   3.528  13.765 -0.1589  1.2466  2.1957
  122MPD2    H2 1867   0.041   3.352  14.125  0.0650 -1.3777 -0.5052
  122MPD2    H3 1868   0.168   3.501  14.006  1.5260 -0.8739 -1.6193
  122MPD2     N 1869   4.722   3.415  13.612 -0.5739  0.0744  0.1384
  122MPD2    H5 1870   0.063   3.483  13.575  1.1781 -2.0859 -0.6348
  122MPD2    N1 1871   4.588   3.159  14.013 -0.3144  0.7767  0.0946
  122MPD2    H7 1872   4.521   3.114  13.951  1.1151 -0.5469 -0.4874
  123MPD2     C 1873   2.987   0.682   9.310 -0.0722  0.8072 -0.3091
  123MPD2    C1 1874   2.859   0.689   9.377 -0.4030 -0.7717 -0.3704
  123MPD2    C2 1875   2.763   0.596   9.354 -0.0907  0.3154 -0.4119
  123MPD2    C3 1876   2.789   0.485   9.279  0.4429 -0.2799 -1.5821
  123MPD2    C4 1877   2.916   0.485   9.214  0.5451 -0.3373  0.5564
  123MPD2    C5 1878   3.012   0.582   9.227  0.2853  0.9840  0.0437
  123MPD2     H 1879   2.664   0.604   9.397 -0.0770 -2.5709  0.1638
  123MPD2    H1 1880   2.956   0.406   9.150  1.6328 -1.1844  2.2742
  123MPD2    H2 1881   3.064   0.756   9.325  0.4439 -0.0785  1.4270
  123MPD2    H3 1882   3.105   0.576   9.172  0.2187 -2.4404  0.2899
  123MPD2     N 1883   2.692   0.392   9.257 -0.7335  0.4119  0.2966
  123MPD2    H5 1884   2.600   0.416   9.293 -0.6657  0.1195  0.6710
  123MPD2    N1 1885   2.834   0.800   9.461  0.8024  0.8969  0.1950
  123MPD2    H7 1886   2.912   0.860   9.485  0.9823 -0.1355  2.1995
  124TCq2    C1 1887   2.714   0.275   9.196 -0.4098 -0.3036 -0.4547
  124TCq2    O2 1888   2.816   0.220   9.160  0.6903  0.1293 -0.0662
  124TCq2    C2 1889   2.591   0.201   9.176 -0.1139 -0.3880  0.6993
  124TCq2    C3 1890   2.474   0.261   9.149  0.4724  0.4238  0.4166
  124TCq2    C4 1891   2.361   0.186   9.140  0.7654 -0.9447  0.1101
  124TCq2    C5 1892   2.362   0.048   9.149  0.1844  0.2125 -0.1202
  124TCq2    C6 1893   2.485   4.718   9.171 -0.1069 -0.1804 -0.1962
  124TCq2    C7 1894   2.601   0.063   9.176 -0.0957  0.0131  0.1828
  124TCq2    C8 1895   2.499   4.574   9.186 -0.0643 -0.2391 -0.1295
  124TCq2    O4 1896   2.611   4.541   9.215 -0.1594 -0.2416 -0.0181
  124TCq2    C9 1897   2.233   0.251   9.115 -0.2302  0.1843 -1.0493
  124TCq2    O5 1898   2.239   0.375   9.082  0.2125 -0.5174  0.4573
  124TCq2    O6 1899   2.133   0.194   9.163 -0.3053  0.2219 -0.6705
  124TCq2    H2 1900   2.464   0.367   9.131 -0.1339  0.2154 -0.4681
  124TCq2    H3 1901   2.266   4.726   9.139 -0.1467  1.3262 -2.1923
  124TCq2    H4 1902   2.703   0.032   9.195 -0.0503 -0.4805 -0.9026
  125TMC2    C1 1903   0.037   1.896   8.723 -0.4011 -0.3213  0.0677
  125TMC2    C2 1904   4.638   1.910   8.771 -0.5462  0.1806 -0.3864
  125TMC2    C3 1905   4.602   2.029   8.821 -0.6727  0.0888 -0.8411
  125TMC2    C4 1906   0.132   1.993   8.739  0.1008 -1.4868 -0.0128
  125TMC2    C5 1907   0.092   2.113   8.781 -0.3053 -0.7194  0.0716
  125TMC2    C6 1908   4.693   2.132   8.820 -0.0523  0.5566 -0.0279
  125TMC2     C 1909   0.083   1.762   8.685  0.1190  0.8305  1.1435
  125TMC2     O 1910   0.200   1.737   8.708  0.0000  0.3522 -1.0031
  125TMC2     H 1911   4.575   1.823   8.786 -0.6474  0.4893  0.9887
  125TMC2    H1 1912   0.231   1.969   8.703  0.2856  2.4375 -2.1090
  125TMC2    H2 1913   4.660   2.235   8.811 -0.3721  0.4867  0.3649
  125TMC2    C7 1914   0.199   2.205   8.814  0.9083  0.1543  0.2294
  125TMC2    C8 1915   4.467   2.050   8.864  0.0485 -1.1694 -0.2687
  125TMC2    O1 1916   0.310   2.174   8.782 -0.1522  0.3100  0.0370
  125TMC2    O2 1917   4.379   1.968   8.843 -0.1126  0.4062 -0.0769
  125TMC2    O5 1918   4.449   2.177   8.920  0.3413  0.6706  0.2893
  125TMC2    H5 1919   4.537   2.201   8.955  0.5003  1.2466 -0.4992
  126MPD1     C 1920   4.714   1.274   8.571 -0.0446 -0.5173  1.0383
  126MPD1    C1 1921   4.599   1.341   8.552  0.1614 -0.6090 -0.1906
  126MPD1    C2 1922   4.603   1.477   8.572  0.2440 -0.3515 -0.5788
  126MPD1    C3 1923   4.718   1.543   8.607  0.0650  0.8066 -0.0420
  126MPD1    C4 1924   0.110   1.471   8.624  0.0635 -0.2511  0.2187
  126MPD1    C5 1925   0.106   1.331   8.604  0.5393  0.3822 -0.8822
  126MPD1     H 1926   4.516   1.541   8.574  0.8831  0.5620 -1.2808
  126MPD1    H1 1927   0.197   1.520   8.666  0.1302 -1.3666  1.3592
  126MPD1    H2 1928   4.723   1.166   8.566  2.3899 -0.3098  1.0243
  126MPD1    H3 1929   0.197   1.274   8.618 -0.8434 -1.2058  1.6650
  126MPD1     N 1930   4.706   1.685   8.631 -0.0618 -0.1412  0.2985
  126MPD1    H5 1931   4.614   1.716   8.601  0.3017  0.1333 -0.5193
  126MPD1    N1 1932   4.473   1.275   8.547  0.0945  0.3168  0.1667
  126MPD1    H6 1933   4.420   1.340   8.488 -1.8202 -1.8776 -0.5517
  126MPD1    H7 1934   4.472   1.188   8.495  1.2257  0.4741 -0.1192
  127MPD2     C 1935   0.571   1.747   9.580 -0.4470 -0.0108  0.3651
  127MPD2    C1 1936   0.533   1.736   9.707 -0.0163 -0.2014 -0.8886
  127MPD2    C2 1937   0.565   1.839   9.798  0.3533  0.2607  0.7649
  127MPD2    C3 1938   0.649   1.943   9.756 -0.1117 -0.4331 -0.1920
  127MPD2    C4 1939   0.690   1.947   9.627 -0.2894 -0.2099 -0.0203
  127MPD2    C5 1940   0.654   1.851   9.540 -0.0665 -0.2656 -0.4129
  127MPD2     H 1941   0.525   1.838   9.898 -1.5063 -2.1165 -0.0044
  127MPD2    H1 1942   0.758   2.021   9.587 -0.5553  1.1237  2.0071
  127MPD2    H2 1943   0.541   1.677   9.504 -1.6646 -0.9196  1.6867
  127MPD2    H3 1944   0.677   1.855   9.434 -1.6738 -0.4081 -0.7600
  127MPD2     N 1945   0.680   2.042   9.845  0.6655  0.6524 -0.1905
  127MPD2    H5 1946   0.678   2.019   9.944  0.7943  0.6182 -0.1952
  127MPD2    N1 1947   0.456   1.623   9.736 -0.9027  0.0085 -0.1766
  127MPD2    H7 1948   0.448   1.558   9.658  0.8222  0.9698 -1.1471
  128TCq2    C1 1949   0.416   1.581   9.861 -0.2645 -0.4845 -0.3060
  128TCq2    O2 1950   0.422   1.639   9.967  0.1880  0.6256  0.2940
  128TCq2    C2 1951   0.352   1.446   9.857 -0.0331 -0.0877 -0.8238
  128TCq2    C3 1952   0.311   1.396   9.981  0.3240  0.1030 -0.0781
  128TCq2    C4 1953   0.218   1.298   9.981  0.4754  0.4652  1.2734
  128TCq2    C5 1954   0.177   1.237   9.863  0.2460 -0.0958  0.6553
  128TCq2    C6 1955   0.226   1.281   9.742 -0.0417 -0.4275 -0.5478
  128TCq2    C7 1956   0.314   1.389   9.735 -0.0584 -0.0509 -0.2109
  128TCq2    C8 1957   0.168   1.235   9.623  0.0121  0.6450 -0.0689
  128TCq2    O4 1958   0.199   1.290   9.520  0.0708  0.3153  0.3656
  128TCq2    C9 1959   0.176   1.242  10.107  0.3504 -0.2624  1.0829
  128TCq2    O5 1960   0.218   1.301  10.208  0.7485  0.1084  0.4986
  128TCq2    O6 1961   0.080   1.156  10.103 -0.6935  0.1003 -0.0326
  128TCq2    H2 1962   0.349   1.443  10.071 -1.5577 -2.7687  2.1764
  128TCq2    H3 1963   0.111   1.151   9.862  0.6237 -0.3719 -0.5212
  128TCq2    H4 1964   0.342   1.432   9.640 -0.1796 -0.4946 -0.4465
  129MPD2     C 1965   3.694   2.248   1.971  0.0647  0.3021  0.5468
  129MPD2    C1 1966   3.558   2.263   2.003 -0.1924 -0.0300 -0.1737
  129MPD2    C2 1967   3.474   2.310   1.897  0.7239 -0.1065  0.1886
  129MPD2    C3 1968   3.510   2.323   1.768 -0.3953 -0.4917 -0.1249
  129MPD2    C4 1969   3.640   2.300   1.738  0.2175  0.9942  0.5306
  129MPD2    C5 1970   3.725   2.264   1.840  0.2193 -0.8550  0.4333
  129MPD2     H 1971   3.368   2.324   1.913  1.2489  1.6009  2.1596
  129MPD2    H1 1972   3.684   2.338   1.647  0.9353  1.3402  1.0237
  129MPD2    H2 1973   3.767   2.227   2.048  0.4344 -0.8029 -0.1078
  129MPD2    H3 1974   3.829   2.261   1.813  0.1438  0.8615 -0.0182
  129MPD2     N 1975   3.420   2.369   1.670  0.3039  0.2480  0.1959
  129MPD2    H5 1976   3.328   2.388   1.707 -0.1563  0.0212 -0.8206
  129MPD2    N1 1977   3.505   2.248   2.133  0.4227  0.1391 -1.0917
  129MPD2    H7 1978   3.404   2.254   2.144  0.3197 -2.9253 -0.0965
  130TCq2    C1 1979   3.576   2.252   2.251  0.6109  0.0346  0.4161
  130TCq2    O2 1980   3.694   2.271   2.262  0.2529  0.2440  0.0419
  130TCq2    C2 1981   3.497   2.209   2.366 -0.3459  0.0373 -0.3791
  130TCq2    C3 1982   3.556   2.224   2.493  0.2963 -0.7131  0.2461
  130TCq2    C4 1983   3.473   2.218   2.605 -0.1639  0.7815  0.0293
  130TCq2    C5 1984   3.340   2.187   2.591 -0.8172 -0.0227 -0.3421
  130TCq2    C6 1985   3.287   2.171   2.471 -0.0846  0.0967  0.6949
  130TCq2    C7 1986   3.367   2.181   2.360  0.3045 -1.1005  0.0774
  130TCq2    C8 1987   3.137   2.176   2.450  0.4028 -0.5822  0.0182
  130TCq2    O4 1988   3.095   2.106   2.362 -0.1384  0.0408  0.5927
  130TCq2    C9 1989   3.532   2.228   2.731 -0.1353  0.3744 -0.6160
  130TCq2    O5 1990   3.464   2.273   2.824 -0.0802 -0.2596 -0.5710
  130TCq2    O6 1991   3.653   2.204   2.726 -0.0814  0.3508  0.0012
  130TCq2    H2 1992   3.659   2.256   2.507  0.7025 -1.5504 -0.8246
  130TCq2    H3 1993   3.278   2.182   2.680  0.2487 -2.0200  0.2835
  130TCq2    H4 1994   3.319   2.156   2.267  0.5645 -1.3826  0.0190
  131MPD2     C 1995   3.241   1.329  10.213 -0.0775 -0.0912 -0.0468
  131MPD2    C1 1996   3.160   1.418  10.155  0.3606 -0.2964  0.0472
  131MPD2    C2 1997   3.069   1.376  10.053  0.4311  0.5157  0.0070
  131MPD2    C3 1998   3.058   1.243  10.021  0.5915  0.3396 -0.4055
  131MPD2    C4 1999   3.146   1.157  10.080 -0.1492 -0.2927  0.7110
  131MPD2    C5 2000   3.226   1.195  10.180 -0.5773  0.2926 -0.3042
  131MPD2     H 2001   3.002   1.442   9.999  0.8346  0.7240 -0.2369
  131MPD2    H1 2002   3.146   1.051  10.060  2.8217 -0.5730  2.0999
  131MPD2    H2 2003   3.312   1.353  10.291  0.2835  1.8735 -0.9721
  131MPD2    H3 2004   3.274   1.117  10.239  0.8975  1.1997 -0.3089
  131MPD2     N 2005   2.962   1.206   9.921  1.0916 -0.3044  0.1776
  131MPD2    H5 2006   2.902   1.283   9.892 -0.5058 -1.8595 -0.5982
  131MPD2    N1 2007   3.162   1.552  10.198 -0.3975  0.4266  0.4475
  131MPD2    H7 2008   3.227   1.557  10.276  1.1785  2.0022 -0.9790
  132TCq2    C1 2009   3.482   1.894  10.353 -0.1739 -1.0885 -0.4842
  132TCq2    O2 2010   3.540   1.786  10.367  0.5293 -0.4133 -0.1260
  132TCq2    C2 2011   3.346   1.895  10.306 -0.2443 -0.4055  0.4711
  132TCq2    C3 2012   3.287   2.011  10.289  0.3254  0.3648  0.4830
  132TCq2    C4 2013   3.161   2.014  10.222 -0.8634  0.7550 -0.5215
  132TCq2    C5 2014   3.098   1.899  10.177 -0.0370 -0.4110  0.1792
  132TCq2    C6 2015   3.170   1.784  10.194  0.9728 -0.2004  0.6635
  132TCq2    C7 2016   3.296   1.781  10.245 -0.1245  0.3337 -0.2131
  132TCq2    C8 2017   3.106   1.664  10.144  0.0095  0.0238  0.0460
  132TCq2    O4 2018   3.023   1.678  10.053 -0.6761 -0.3401 -0.5891
  132TCq2    C9 2019   3.088   2.133  10.211 -0.1752 -0.0110  0.4692
  132TCq2    O5 2020   2.965   2.114  10.187 -0.1197 -0.2155 -0.0363
  132TCq2    O6 2021   3.135   2.231  10.275 -0.5068  0.4994  0.8874
  132TCq2    H2 2022   3.319   2.104  10.336 -1.7469  0.6222  1.4042
  132TCq2    H3 2023   3.006   1.897  10.120 -2.5775 -0.5435  4.2868
  132TCq2    H4 2024   3.353   1.689  10.247 -1.9755 -0.7909  0.9162
  133MPD2     C 2025   3.055   3.129   9.999  0.6435  0.1761  0.0237
  133MPD2    C1 2026   2.993   3.140   9.876 -0.2482 -0.2138  0.3127
  133MPD2    C2 2027   2.971   3.025   9.807  0.0622  0.7664 -0.2682
  133MPD2    C3 2028   3.001   2.896   9.855 -0.3315  0.8865 -0.3356
  133MPD2    C4 2029   3.054   2.885   9.978 -0.7671  0.4796 -0.3402
  133MPD2    C5 2030   3.084   3.001  10.048  0.0267 -0.1918 -0.3673
  133MPD2     H 2031   2.924   3.025   9.710 -1.7714  3.2801  0.5975
  133MPD2    H1 2032   3.074   2.792  10.031  0.0434  0.2292 -1.0814
  133MPD2    H2 2033   3.066   3.202  10.079 -2.3842  1.1795 -0.4680
  133MPD2    H3 2034   3.108   2.987  10.153  0.6607 -1.6667 -0.7119
  133MPD2     N 2035   2.971   2.769   9.791 -0.2956 -0.3326  0.2897
  133MPD2    H5 2036   2.994   2.683   9.839 -2.9453 -0.9880  0.4008
  133MPD2    N1 2037   2.954   3.267   9.831 -0.0363  0.0482  0.0494
  133MPD2    H7 2038   2.975   3.341   9.897 -0.8094 -0.6631  1.0843
  134TCq2    C1 2039   2.878   3.303   9.717  0.1155 -0.2944 -0.1763
  134TCq2    O2 2040   2.843   3.232   9.627  0.7185  0.2637  0.1098
  134TCq2    C2 2041   2.859   3.449   9.707  0.3984  0.5199  0.2673
  134TCq2    C3 2042   2.911   3.531   9.808 -0.1438 -0.1866  0.1911
  134TCq2    C4 2043   2.938   3.665   9.775 -0.6233  0.1986 -0.2407
  134TCq2    C5 2044   2.915   3.713   9.648 -0.3698  0.1422 -0.1334
  134TCq2    C6 2045   2.860   3.629   9.556  0.1775  0.6230 -0.3818
  134TCq2    C7 2046   2.822   3.501   9.586 -0.7996  0.1549 -0.2489
  134TCq2    C8 2047   2.852   3.655   9.414 -0.1983  0.6468 -0.4376
  134TCq2    O4 2048   2.827   3.567   9.333 -0.0490 -0.3125 -0.1345
  134TCq2    C9 2049   3.022   3.748   9.866  0.4546  0.5887 -0.0591
  134TCq2    O5 2050   3.086   3.838   9.807 -0.1404 -0.0448 -0.2086
  134TCq2    O6 2051   3.046   3.714   9.987 -0.3671  0.1547 -0.1994
  134TCq2    H2 2052   2.965   3.499   9.896  1.8521 -3.3073 -2.1630
  134TCq2    H3 2053   2.941   3.812   9.613 -1.1136  0.2932 -0.2724
  134TCq2    H4 2054   2.773   3.438   9.512  0.7065 -3.2842  1.6957
  135MPD2     C 2055   4.682   4.002   9.804  0.4885 -0.9578 -0.1620
  135MPD2    C1 2056   4.605   3.886   9.836  0.1201  0.1478  0.0908
  135MPD2    C2 2057   4.632   3.763   9.775  0.0010  0.1236 -0.8420
  135MPD2    C3 2058   4.724   3.761   9.669  0.6991  0.3279 -0.4417
  135MPD2    C4 2059   0.073   3.875   9.638  0.2792  0.4196  0.4407
  135MPD2    C5 2060   0.046   3.994   9.697  0.4397 -0.2151  0.2500
  135MPD2     H 2061   4.577   3.674   9.804 -0.7182  0.6469 -0.5954
  135MPD2    H1 2062   0.145   3.875   9.557 -0.2496 -0.0979 -0.0361
  135MPD2    H2 2063   4.671   4.099   9.852  2.6884 -1.5529  1.5674
  135MPD2    H3 2064   0.096   4.085   9.667 -0.6819  0.6280  0.9401
  135MPD2     N 2065   0.011   3.645   9.591 -0.7012 -0.7767 -0.6218
  135MPD2    H5 2066   0.084   3.650   9.521  0.0334 -2.6224  0.0129
  135MPD2    N1 2067   4.506   3.874   9.943  0.0704 -0.6413 -0.1206
  135MPD2    H7 2068   4.476   3.780   9.965  3.1472 -1.7587 -0.7151
  136TCq2    C1 2069   4.467   3.981  10.018  0.8917 -0.5232  0.4826
  136TCq2    O2 2070   4.492   4.100  10.011  0.5994  0.2607 -0.2222
  136TCq2    C2 2071   4.383   3.944  10.122 -0.1998 -0.3967  0.4412
  136TCq2    C3 2072   4.308   4.037  10.190  0.2590  0.2928  0.0091
  136TCq2    C4 2073   4.234   4.002  10.295  0.2837 -0.5550 -0.0855
  136TCq2    C5 2074   4.251   3.879  10.343  0.3046  0.2066 -0.0366
  136TCq2    C6 2075   4.333   3.791  10.281 -0.1457 -0.2048  0.1505
  136TCq2    C7 2076   4.404   3.815  10.174 -0.1507 -0.2268 -0.2283
  136TCq2    C8 2077   4.365   3.666  10.348 -0.5763 -0.2172  0.0595
  136TCq2    O4 2078   4.478   3.623  10.336  0.2203  0.2467  0.4285
  136TCq2    C9 2079   4.135   4.100  10.349 -0.2342  0.3045  0.2428
  136TCq2    O5 2080   4.131   4.204  10.287 -0.1776 -0.2336  0.1672
  136TCq2    O6 2081   4.061   4.064  10.442 -0.3054 -0.2820 -0.1238
  136TCq2    H2 2082   4.303   4.137  10.146 -0.7206  0.6049  0.8237
  136TCq2    H3 2083   4.198   3.848  10.432 -2.3424 -2.6765 -2.6176
  136TCq2    H4 2084   4.474   3.742  10.137 -2.0413 -1.7332 -0.8538
  137MPD2     C 2085   4.638   1.899  10.179 -0.3075  0.4755  0.0512
  137MPD2    C1 2086   4.617   2.029  10.167 -0.7326 -0.9026 -0.0622
  137MPD2    C2 2087   4.548   2.087  10.268 -0.0821  0.5188 -0.5098
  137MPD2    C3 2088   4.492   2.026  10.381 -0.2139 -0.5948  0.2060
  137MPD2    C4 2089   4.507   1.891  10.383  0.1382  0.7886  0.8376
  137MPD2    C5 2090   4.590   1.831  10.287  0.6397  0.5065  0.2380
  137MPD2     H 2091   4.528   2.193  10.260  2.7266  1.1459  0.6907
  137MPD2    H1 2092   4.466   1.827  10.461 -0.0825  1.6197  1.3964
  137MPD2    H2 2093   4.691   1.839  10.106  1.9319  2.2902  0.1875
  137MPD2    H3 2094   4.598   1.723  10.288  2.5506  0.6702  2.2633
  137MPD2     N 2095   4.406   2.097  10.465  0.1920  0.1666 -0.4356
  137MPD2    H5 2096   4.413   2.198  10.459  0.7160  0.1894  0.4413
  137MPD2    N1 2097   4.658   2.092  10.049  0.0050  0.0157 -0.4433
  137MPD2    H7 2098   4.705   2.044   9.973 -0.2567 -0.7736 -0.1023
  138TCq2    C1 2099   4.658   2.232  10.033 -0.3888  0.3775  0.1038
  138TCq2    O2 2100   4.599   2.322  10.095  0.2749 -0.1129 -0.2840
  138TCq2    C2 2101   4.703   2.277   9.909 -0.1600 -0.1494  1.1033
  138TCq2    C3 2102   4.665   2.202   9.800 -0.4041  0.4557 -0.4641
  138TCq2    C4 2103   4.687   2.263   9.682 -0.3991  0.4044  0.2274
  138TCq2    C5 2104   0.014   2.387   9.671  0.5228  0.0193  0.5507
  138TCq2    C6 2105   0.026   2.468   9.786  0.0708 -0.6418 -0.2867
  138TCq2    C7 2106   0.014   2.409   9.910  0.5433 -0.1531 -0.5942
  138TCq2    C8 2107   4.689   2.601   9.772 -0.0024  0.1996  0.4180
  138TCq2    O4 2108   4.698   2.660   9.667  0.1585  0.6274  0.2078
  138TCq2    C9 2109   4.642   2.204   9.560 -0.1244  0.3083  0.1662
  138TCq2    O5 2110   4.595   2.087   9.574 -0.6597  0.3152 -0.9267
  138TCq2    O6 2111   4.693   2.255   9.461  0.3881 -0.5755  0.3231
  138TCq2    H2 2112   4.618   2.104   9.810 -0.7318  0.5195 -1.3809
  138TCq2    H3 2113   0.035   2.425   9.571  0.7751 -3.9511 -0.8826
  138TCq2    H4 2114   0.040   2.457  10.003  1.3683  0.5608 -1.1935
  139TMC2    C1 2115   4.197   0.092  13.270  0.3551  0.8527 -0.0379
  139TMC2    C2 2116   4.110   0.059  13.167 -0.9336 -0.6778  0.1315
  139TMC2    C3 2117   4.004   0.145  13.143  0.8688 -0.6193  0.1379
  139TMC2    C4 2118   4.174   0.202  13.351  0.1662  0.2141  0.3281
  139TMC2    C5 2119   4.068   0.278  13.323 -0.0649 -0.2189 -0.0757
  139TMC2    C6 2120   3.978   0.250  13.222 -0.6044 -0.0907  0.6574
  139TMC2     C 2121   4.324   0.026  13.250  0.3684  0.8897 -0.4931
  139TMC2     O 2122   4.318   4.641  13.201  0.0610 -0.5577 -0.4129
  139TMC2     H 2123   4.126   4.698  13.105  1.6430  1.2730 -1.9284
  139TMC2    H1 2124   4.258   0.232  13.412 -0.0474 -1.2397  1.3315
  139TMC2    H2 2125   3.897   0.319  13.206  0.5082  0.8916 -0.7494
  139TMC2    C7 2126   4.046   0.410  13.382  0.0112 -0.1138  0.1296
  139TMC2    C8 2127   3.943   0.142  13.018 -0.4361 -0.0940 -0.5280
  139TMC2    O1 2128   3.984   0.492  13.311 -0.7977  0.2426  0.1344
  139TMC2    O2 2129   3.830   0.094  13.012  0.1016  0.6767 -0.0254
  139TMC2    O5 2130   3.970   0.270  12.982 -0.3934  0.4019 -0.2424
  139TMC2    H5 2131   4.067   0.279  12.974  0.2359 -2.2773  4.8754
  140MPD2     C 2132   4.655   0.103  13.372  0.2820  0.5518  0.5943
  140MPD2    C1 2133   4.566   0.043  13.291  0.0333  0.2751  0.4900
  140MPD2    C2 2134   4.602   4.654  13.209  0.4390  0.1705  0.0057
  140MPD2    C3 2135   0.011   4.611  13.221 -0.1174 -0.1317  0.3427
  140MPD2    C4 2136   0.097   4.667  13.320 -0.1434 -0.3417 -0.2346
  140MPD2    C5 2137   0.057   0.055  13.388 -0.1101 -0.1303 -0.1730
  140MPD2     H 2138   4.530   4.608  13.142 -0.6042 -1.0343  1.9482
  140MPD2    H1 2139   0.194   4.625  13.343 -0.0684 -0.3588 -0.5938
  140MPD2    H2 2140   4.618   0.192  13.422 -1.2879 -0.3759  1.0685
  140MPD2    H3 2141   0.128   0.098  13.458 -0.1611 -1.4697  0.7021
  140MPD2     N 2142   0.046   4.496  13.144  0.3087 -0.2610  0.0700
  140MPD2    H5 2143   4.696   4.449  13.096 -1.9909  2.2537  1.2394
  140MPD2    N1 2144   4.436   0.097  13.294 -0.0571 -0.7480  0.5947
  140MPD2    H7 2145   4.425   0.186  13.342 -2.6791  0.2506 -1.8623
  141TCq2    C1 2146   0.320   1.786  14.479  0.0999 -0.4182 -0.4322
  141TCq2    O2 2147   0.261   1.867  14.404  0.4996  0.1519  0.3750
  141TCq2    C2 2148   0.278   1.786  14.618 -0.1979 -0.3224 -0.0864
  141TCq2    C3 2149   0.299   1.680  14.704  0.0869  0.6952 -0.2878
  141TCq2    C4 2150   0.296   1.703  14.843 -0.0608  0.5788  0.2942
  141TCq2    C5 2151   0.280   1.826  14.885  0.4591  0.1141 -0.2363
  141TCq2    C6 2152   0.242   1.928  14.803 -0.2560 -0.2062 -0.1868
  141TCq2    C7 2153   0.232   1.905  14.667  0.1750  0.3686 -0.2381
  141TCq2    C8 2154   0.304   2.050  14.847  0.0899  0.0778  0.9056
  141TCq2    O4 2155   0.229   2.142  14.884  0.1047 -0.3155 -0.3114
  141TCq2    C9 2156   0.333   1.596  14.932  0.2647 -0.1684  0.9294
  141TCq2    O5 2157   0.354   1.481  14.883  0.4668  0.8463  0.0215
  141TCq2    O6 2158   0.365   1.623  15.049  0.2540  0.2438  0.3739
  141TCq2    H2 2159   0.328   1.582  14.669  1.1878  1.1125 -0.5512
  141TCq2    H3 2160   0.295   1.838  14.991 -2.2295  1.7401 -0.0439
  141TCq2    H4 2161   0.203   1.993  14.610  0.9586 -0.0649 -1.3012
  142MPD2     C 2162   2.676   4.049  10.297 -0.0082 -0.5081  0.4608
  142MPD2    C1 2163   2.591   3.944  10.263  0.8192  0.3537  0.1834
  142MPD2    C2 2164   2.585   3.899  10.132 -0.2996  0.0628  0.3687
  142MPD2    C3 2165   2.660   3.962  10.033  1.1057 -0.3692 -0.2241
  142MPD2    C4 2166   2.748   4.062  10.068  0.4478 -0.3452  0.2547
  142MPD2    C5 2167   2.754   4.110  10.198  0.2745 -0.5710  0.0153
  142MPD2     H 2168   2.515   3.820  10.109  0.9734 -1.2392  1.0486
  142MPD2    H1 2169   2.812   4.106   9.993 -1.7869  0.6334 -1.0881
  142MPD2    H2 2170   2.675   4.090  10.397  0.0262 -2.2633  1.1811
  142MPD2    H3 2171   2.817   4.194  10.225 -1.5260  0.6525  0.4330
  142MPD2     N 2172   2.655   3.930   9.895  0.5253 -0.7096  0.2354
  142MPD2    H5 2173   2.724   3.973   9.834  0.6956 -1.5686 -0.1760
  142MPD2    N1 2174   2.528   3.876  10.371  0.1019  0.0822 -0.0807
  142MPD2    H7 2175   2.559   3.905  10.463 -1.3088 -1.5959  0.9301
  143TCq2    C1 2176   2.559   3.848   9.838 -0.3288  0.1251  0.4492
  143TCq2    O2 2177   2.484   3.773   9.893 -0.1319 -0.0242 -0.2389
  143TCq2    C2 2178   2.559   3.846   9.691 -0.4029 -0.2951 -0.3569
  143TCq2    C3 2179   2.507   3.729   9.641  0.3765 -0.4023  0.1277
  143TCq2    C4 2180   2.502   3.713   9.502  0.2755 -1.1759 -0.2173
  143TCq2    C5 2181   2.521   3.823   9.425 -0.2443  0.1954  0.0664
  143TCq2    C6 2182   2.569   3.942   9.482  0.7436 -0.0015 -0.0712
  143TCq2    C7 2183   2.591   3.958   9.619 -0.6434  0.1355  0.6199
  143TCq2    C8 2184   2.543   4.073   9.409 -0.9703 -0.0503  0.8188
  143TCq2    O4 2185   2.602   4.174   9.441 -0.0343 -0.0989  0.2153
  143TCq2    C9 2186   2.457   3.584   9.449 -0.1469 -0.2947 -0.5652
  143TCq2    O5 2187   2.436   3.486   9.526  0.1937  0.6685  0.3723
  143TCq2    O6 2188   2.413   3.589   9.328  0.1705  0.5868  0.1226
  143TCq2    H2 2189   2.475   3.650   9.709 -0.7863 -1.1111 -1.2519
  143TCq2    H3 2190   2.522   3.807   9.318 -0.0171  1.3618 -0.1061
  143TCq2    H4 2191   2.600   4.053   9.671  1.4994  0.3326 -0.1352
  144MPD2     C 2192   0.498   4.336   0.785  0.6003  0.7575  0.5093
  144MPD2    C1 2193   0.536   4.283   0.668  0.6075 -0.8351 -0.0842
  144MPD2    C2 2194   0.672   4.279   0.638 -0.5141 -0.8700 -0.5737
  144MPD2    C3 2195   0.763   4.339   0.720 -0.5142 -0.6239  0.1802
  144MPD2    C4 2196   0.721   4.382   0.847 -0.0860 -0.5113 -0.0793
  144MPD2    C5 2197   0.591   4.391   0.871  0.7762  0.4344  0.1974
  144MPD2     H 2198   0.708   4.220   0.554  1.2956 -0.4724 -0.0730
  144MPD2    H1 2199   0.785   4.430   0.920  2.1960 -1.6484 -1.3266
  144MPD2    H2 2200   0.395   4.346   0.818  0.5439 -0.5302  0.7260
  144MPD2    H3 2201   0.559   4.436   0.965  2.0229 -0.0035  0.8334
  144MPD2     N 2202   0.903   4.334   0.702 -0.3484  0.2598  0.1755
  144MPD2    H5 2203   0.964   4.379   0.770 -0.6981 -1.5627  1.6953
  144MPD2    N1 2204   0.458   4.206   0.588  0.1098  0.2528 -0.2797
  144MPD2    H7 2205   0.497   4.179   0.499 -1.9437 -0.3217 -1.0035
  145TCq2    C1 2206   0.970   4.282   0.594 -0.5498  0.0906 -0.3375
  145TCq2    O2 2207   0.930   4.252   0.482 -0.2690 -0.0437 -0.3483
  145TCq2    C2 2208   1.111   4.249   0.627 -1.0117 -0.4721 -0.0508
  145TCq2    C3 2209   1.180   4.178   0.526 -0.1019 -0.5228  0.3767
  145TCq2    C4 2210   1.295   4.105   0.567  0.5900 -0.6633 -0.8040
  145TCq2    C5 2211   1.342   4.107   0.693  0.3020 -0.0147 -0.5406
  145TCq2    C6 2212   1.266   4.174   0.788 -0.3872 -0.0975 -0.6086
  145TCq2    C7 2213   1.156   4.237   0.756  0.7189  0.2817  0.0893
  145TCq2    C8 2214   1.300   4.147   0.927  0.0709 -0.4945  0.4130
  145TCq2    O4 2215   1.390   4.067   0.947 -0.3978 -0.2214 -0.4734
  145TCq2    C9 2216   1.372   4.037   0.461  0.4643 -0.5355 -0.2547
  145TCq2    O5 2217   1.330   4.053   0.345 -0.3771 -0.5037  0.6414
  145TCq2    O6 2218   1.464   3.956   0.497 -0.1585 -0.0698  0.0232
  145TCq2    H2 2219   1.159   4.194   0.421 -0.2788 -1.9286  0.1987
  145TCq2    H3 2220   1.433   4.056   0.724 -0.9948 -0.7670  2.0736
  145TCq2    H4 2221   1.091   4.261   0.839  1.6412  0.4718  0.7457
  146TMC2    C1 2222   2.159   2.796  11.883 -0.0482 -0.2085 -0.5798
  146TMC2    C2 2223   2.088   2.823  11.764  0.0648 -0.1370 -0.7734
  146TMC2    C3 2224   2.127   2.743  11.658  0.2815  0.0185  0.2019
  146TMC2    C4 2225   2.254   2.697  11.891  0.1652  0.1420  0.8272
  146TMC2    C5 2226   2.280   2.616  11.783  0.2871  0.5685 -0.3892
  146TMC2    C6 2227   2.221   2.648  11.666  0.5953 -0.4400 -0.0955
  146TMC2     C 2228   2.108   2.851  12.003 -0.5534 -0.1136  0.0690
  146TMC2     O 2229   1.994   2.900  11.999  0.1898  0.0574 -0.0747
  146TMC2     H 2230   2.007   2.895  11.765  1.8979  1.9270 -2.5313
  146TMC2    H1 2231   2.304   2.680  11.985  2.7910 -0.8063 -0.7338
  146TMC2    H2 2232   2.246   2.599  11.572 -2.2410  3.8049 -3.0762
  146TMC2    C7 2233   2.399   2.537  11.774 -0.0413  0.0077 -0.4993
  146TMC2    C8 2234   2.121   2.805  11.525 -0.0760 -0.6341 -0.1547
  146TMC2    O1 2235   2.450   2.523  11.664 -0.9668 -0.3029 -0.0002
  146TMC2    O2 2236   2.152   2.745  11.421  0.4782  0.7935  0.0238
  146TMC2    O5 2237   2.109   2.938  11.524 -0.2292 -0.2596  0.2608
  146TMC2    H5 2238   2.111   2.982  11.612  3.6919 -1.4674  0.7750
  147MPD2     C 2239   2.795   2.298  11.997 -0.0173  0.1077 -0.0488
  147MPD2    C1 2240   2.706   2.327  12.094 -0.7564 -0.0581 -0.0392
  147MPD2    C2 2241   2.591   2.405  12.066  0.3384  0.1769  0.0970
  147MPD2    C3 2242   2.565   2.434  11.930 -0.2395  0.6038  0.7623
  147MPD2    C4 2243   2.651   2.395  11.830 -0.5914  0.5322  0.1423
  147MPD2    C5 2244   2.776   2.330  11.865 -0.4125  0.4177 -0.5615
  147MPD2     H 2245   2.514   2.430  12.138 -0.6195 -1.6971 -0.2795
  147MPD2    H1 2246   2.644   2.431  11.728 -0.5836  1.5954  0.5157
  147MPD2    H2 2247   2.888   2.250  12.025 -0.4634 -0.3519  0.6453
  147MPD2    H3 2248   2.844   2.292  11.789  0.5900 -3.7631  2.4366
  147MPD2     N 2249   2.437   2.498  11.898 -0.6298  0.8063  0.4410
  147MPD2    H5 2250   2.387   2.525  11.982  1.2406  0.2209  1.7512
  147MPD2    N1 2251   2.758   2.308  12.224  0.1486 -0.2383 -0.0767
  147MPD2    H7 2252   2.843   2.255  12.239  1.0202  0.9797 -0.7251
  148MPD2     C 2253   2.485   2.109  10.388 -0.4949 -0.0350 -0.1510
  148MPD2    C1 2254   2.466   1.984  10.454  0.2804 -0.1275  0.3654
  148MPD2    C2 2255   2.426   1.881  10.377 -0.4485 -0.4802 -0.2648
  148MPD2    C3 2256   2.411   1.881  10.239  0.4922  0.3986  0.2346
  148MPD2    C4 2257   2.425   2.001  10.176  0.2552 -0.7053 -0.4438
  148MPD2    C5 2258   2.466   2.122  10.249  0.3076 -0.3290 -0.2317
  148MPD2     H 2259   2.414   1.786  10.429  2.6082 -0.4882  0.4235
  148MPD2    H1 2260   2.403   2.009  10.070 -0.6748  1.5174 -0.0965
  148MPD2    H2 2261   2.521   2.194  10.445  2.3267 -2.4243  1.6769
  148MPD2    H3 2262   2.487   2.219  10.206 -0.4020 -0.3436 -0.5940
  148MPD2     N 2263   2.395   1.764  10.164 -0.4862  0.3329 -0.2078
  148MPD2    H5 2264   2.388   1.768  10.063  1.1822 -0.0925 -0.3454
  148MPD2    N1 2265   2.488   1.965  10.588 -0.4302  0.4206 -0.0971
  148MPD2    H7 2266   2.488   1.868  10.617  1.5478  0.7552  0.9856
  149TCq2    C1 2267   2.493   2.060  10.687 -0.5451 -0.2569 -0.1599
  149TCq2    O2 2268   2.481   2.182  10.679  0.0238 -0.3829  0.0922
  149TCq2    C2 2269   2.534   2.009  10.821 -0.4453 -0.1009 -0.2213
  149TCq2    C3 2270   2.595   2.097  10.908  0.5755 -0.3024 -1.0323
  149TCq2    C4 2271   2.659   2.050  11.019  1.0136  0.1727 -0.2165
  149TCq2    C5 2272   2.678   1.915  11.032 -0.1063 -0.2851  0.0416
  149TCq2    C6 2273   2.606   1.828  10.949  0.3824  1.0063 -0.3818
  149TCq2    C7 2274   2.538   1.874  10.840  0.2531 -0.2410  0.9726
  149TCq2    C8 2275   2.612   1.686  10.987 -1.1016  0.1132  0.1296
  149TCq2    O4 2276   2.622   1.602  10.895 -0.1128 -0.1523 -0.2665
  149TCq2    C9 2277   2.746   2.138  11.098 -0.3128 -0.1212 -0.3813
  149TCq2    O5 2278   2.838   2.092  11.171  0.5766  0.3676  0.9181
  149TCq2    O6 2279   2.734   2.263  11.084  0.2440 -0.5584  0.1372
  149TCq2    H2 2280   2.581   2.203  10.888 -1.2671 -0.3966 -0.2422
  149TCq2    H3 2281   2.742   1.880  11.113 -1.2137  1.1681  1.5525
  149TCq2    H4 2282   2.493   1.798  10.777  0.9062  0.5821 -0.5020
  150MPD2     C 2283   3.954   0.906  11.989 -0.1421  0.4149 -0.6251
  150MPD2    C1 2284   4.040   0.883  11.875  0.5364 -0.0130 -0.6808
  150MPD2    C2 2285   4.153   0.974  11.861 -0.5719  0.2608 -0.2000
  150MPD2    C3 2286   4.179   1.071  11.950  0.2444 -0.3456 -0.0647
  150MPD2    C4 2287   4.092   1.097  12.050  0.0319  0.1406 -0.4499
  150MPD2    C5 2288   3.982   1.014  12.071  0.2505  0.2802  0.5342
  150MPD2     H 2289   4.221   0.963  11.777  0.3405  0.6338  0.5076
  150MPD2    H1 2290   4.111   1.182  12.113  0.4809  0.1249 -0.5675
  150MPD2    H2 2291   3.857   0.860  12.004  0.3335  0.2615  2.0897
  150MPD2    H3 2292   3.906   1.046  12.141  0.2642 -1.6841  1.4417
  150MPD2     N 2293   4.299   1.146  11.937  0.0201 -0.1366 -0.3178
  150MPD2    H5 2294   4.352   1.136  11.851  2.2002 -0.1221  1.0127
  150MPD2    N1 2295   4.011   0.774  11.793 -0.2470  0.2932 -0.5412
  150MPD2    H7 2296   3.934   0.712  11.817  0.4002 -1.8045 -3.8949
  151TCq2    C1 2297   4.363   1.214  12.043  0.4449 -0.0625  0.0654
  151TCq2    O2 2298   4.345   1.204  12.163 -0.3814  0.2168 -0.9012
  151TCq2    C2 2299   4.481   1.280  12.000  0.7933 -0.2647  0.4067
  151TCq2    C3 2300   4.490   1.332  11.869 -0.1283 -0.5346  0.3715
  151TCq2    C4 2301   4.590   1.421  11.835  0.0121 -0.0382  0.2477
  151TCq2    C5 2302   4.687   1.453  11.922 -0.6197  0.3323  0.5926
  151TCq2    C6 2303   4.666   1.404  12.047  0.2252 -0.5056  0.4341
  151TCq2    C7 2304   4.575   1.312  12.091  0.2089 -0.1695  0.1041
  151TCq2    C8 2305   0.050   1.400  12.146  0.9266  0.6887  0.4446
  151TCq2    O4 2306   0.094   1.506  12.188  0.5339 -0.1687  0.2081
  151TCq2    C9 2307   4.589   1.481  11.700 -0.3110  0.2882  0.1747
  151TCq2    O5 2308   4.695   1.541  11.672 -0.0999 -0.4541  0.4621
  151TCq2    O6 2309   4.519   1.426  11.605  0.2911 -0.1364  0.1233
  151TCq2    H2 2310   4.414   1.322  11.793  1.2791  1.9741 -1.3932
  151TCq2    H3 2311   0.049   1.514  11.903 -0.3312 -1.2248 -2.9978
  151TCq2    H4 2312   4.568   1.271  12.191 -2.0620 -0.0985 -0.0318
  152MPD2     C 2313   3.821   0.141  12.597  0.2667 -0.4595  0.1693
  152MPD2    C1 2314   3.857   0.261  12.546  0.5021 -0.0378  0.0005
  152MPD2    C2 2315   3.770   0.332  12.463 -0.1979  0.0037 -0.4375
  152MPD2    C3 2316   3.640   0.287  12.435  0.0260  0.5132  0.0410
  152MPD2    C4 2317   3.607   0.164  12.491 -0.5665  0.8630  0.0580
  152MPD2    C5 2318   3.691   0.101  12.575  0.5248  0.2484  0.7532
  152MPD2     H 2319   3.805   0.426  12.424 -1.6620 -0.0229 -1.8011
  152MPD2    H1 2320   3.511   0.116  12.475 -0.4440  0.9396 -0.9166
  152MPD2    H2 2321   3.889   0.080  12.655  0.1382 -2.3840 -1.7055
  152MPD2    H3 2322   3.674   4.726  12.609  0.0842 -0.6891 -2.3057
  152MPD2     N 2323   3.544   0.373  12.364 -0.4085  0.6732  0.5373
  152MPD2    H5 2324   3.577   0.459  12.322  2.2587  0.2619  1.8047
  152MPD2    N1 2325   3.984   0.310  12.576  0.0864  0.0602 -0.3156
  152MPD2    H7 2326   4.035   0.246  12.636 -0.1187 -1.2868 -1.5645
  153TCq2    C1 2327   4.043   0.425  12.533 -0.4245  0.1286  0.9272
  153TCq2    O2 2328   4.004   0.506  12.449  0.1657 -0.6424  0.6158
  153TCq2    C2 2329   4.173   0.439  12.598 -0.1381 -1.0030 -0.4802
  153TCq2    C3 2330   4.185   0.397  12.726  0.1554  0.6308 -0.7961
  153TCq2    C4 2331   4.299   0.435  12.795 -0.2049  0.3313 -0.2191
  153TCq2    C5 2332   4.387   0.531  12.748  0.3302  0.9136 -0.3882
  153TCq2    C6 2333   4.361   0.582  12.623  0.0858 -1.0706  0.0399
  153TCq2    C7 2334   4.249   0.542  12.549  0.1692  0.6723  0.1785
  153TCq2    C8 2335   4.442   0.693  12.574 -0.5307 -0.1349  0.6605
  153TCq2    O4 2336   4.451   0.719  12.454 -0.0363  0.0240 -0.7260
  153TCq2    C9 2337   4.310   0.396  12.926  0.2893  0.1890  0.0881
  153TCq2    O5 2338   4.223   0.317  12.969 -0.0822  0.1495  0.2285
  153TCq2    O6 2339   4.395   0.457  13.000 -0.0391  0.0121  0.3799
  153TCq2    H2 2340   4.107   0.335  12.767  1.8173  0.5013  2.1763
  153TCq2    H3 2341   4.474   0.559  12.806 -0.0096 -0.7159  0.9006
  153TCq2    H4 2342   4.230   0.596  12.457  0.1302 -1.4661 -1.0594
  154MPD2     C 2343   1.082   0.148  17.693  0.0549  0.3812 -0.0880
  154MPD2    C1 2344   1.184   0.232   0.030  0.4074  0.3143  0.1339
  154MPD2    C2 2345   1.147   0.354   0.071  0.4453  0.3161  0.7119
  154MPD2    C3 2346   1.016   0.401   0.054  0.1457 -0.3766 -0.0262
  154MPD2    C4 2347   0.921   0.311   0.004  0.2370 -0.0315 -0.6629
  154MPD2    C5 2348   0.950   0.185  17.681  0.2379 -0.2062  0.3433
  154MPD2     H 2349   1.222   0.425   0.104  3.0971 -0.6285 -3.2932
  154MPD2    H1 2350   0.814   0.327  17.698  0.3957  1.3343 -0.2079
  154MPD2    H2 2351   1.106   0.044  17.674 -0.1406  0.4679 -0.7727
  154MPD2    H3 2352   0.873   0.112  17.659 -1.7371  1.9803  0.0184
  154MPD2     N 2353   0.976   0.523   0.100  0.2130 -0.3393  0.3870
  154MPD2    H5 2354   1.049   0.570   0.152 -1.8991  1.5538  1.6171
  154MPD2    N1 2355   1.312   0.186   0.041 -0.7963 -0.1178  0.0696
  154MPD2    H7 2356   1.333   0.098  17.702 -2.1165 -0.4589  0.1140
  155TCq2    C1 2357   1.418   0.250   0.095  0.7343 -0.2443  0.3628
  155TCq2    O2 2358   1.431   0.339   0.177  0.2928 -0.2358 -0.3674
  155TCq2    C2 2359   1.531   0.168   0.083 -0.0701 -0.5475 -0.0539
  155TCq2    C3 2360   1.627   0.160   0.176 -0.1990 -0.2370  0.5131
  155TCq2    C4 2361   1.753   0.126   0.135  0.3214  0.3563 -0.1342
  155TCq2    C5 2362   1.794   0.104   0.006 -0.3247 -0.8973 -0.4668
  155TCq2    C6 2363   1.690   0.126  17.620  0.0988  0.3716  0.2132
  155TCq2    C7 2364   1.556   0.154  17.652  0.2719 -0.2346  0.0456
  155TCq2    C8 2365   1.709   0.115  17.478  0.2426 -0.0901  0.4651
  155TCq2    O4 2366   1.615   0.116  17.400 -0.3056 -0.1031  0.0294
  155TCq2    C9 2367   1.850   0.103   0.239 -0.4176 -0.2521  0.5441
  155TCq2    O5 2368   1.824   0.147   0.358  0.3049 -0.6560 -0.7153
  155TCq2    O6 2369   1.963   0.062   0.207 -0.3226 -0.3019 -0.5698
  155TCq2    H2 2370   1.604   0.184   0.280 -0.2131 -0.3315  0.5319
  155TCq2    H3 2371   1.899   0.082  17.696 -0.0761  0.7097 -0.9951
  155TCq2    H4 2372   1.477   0.150  17.579 -1.9497 -0.2591  2.4341
  156MPD2     C 2373   3.642   3.279  10.987 -0.0751 -0.0006 -0.0384
  156MPD2    C1 2374   3.782   3.290  11.015 -0.3784  0.7578 -0.8336
  156MPD2    C2 2375   3.827   3.193  11.110 -0.2276  0.7384 -0.0408
  156MPD2    C3 2376   3.742   3.095  11.164  0.2240 -0.5346 -0.1823
  156MPD2    C4 2377   3.618   3.071  11.107  0.6200  0.6339  1.1793
  156MPD2    C5 2378   3.566   3.167  11.022  0.0562  0.3907  0.4956
  156MPD2     H 2379   3.927   3.184  11.151 -1.1250  0.8969  2.1944
  156MPD2    H1 2380   3.564   2.985  11.143  1.2451 -0.9119 -1.5809
  156MPD2    H2 2381   3.608   3.355  10.918  0.8310 -0.2313 -0.7366
  156MPD2    H3 2382   3.466   3.159  10.980  0.5233  0.5397 -0.6257
  156MPD2     N 2383   3.800   3.015  11.265  0.4227  0.6518 -0.3938
  156MPD2    H5 2384   3.895   3.037  11.294 -0.5038  1.7954  1.7412
  156MPD2    N1 2385   3.863   3.392  10.949  0.7427  0.3880 -0.0049
  156MPD2    H7 2386   3.824   3.458  10.882  0.2052 -0.1203 -0.1961
  157TCq2    C1 2387   4.001   3.396  10.974  0.1548  0.3315 -0.5803
  157TCq2    O2 2388   4.066   3.303  11.019 -0.0005  0.6592 -0.2094
  157TCq2    C2 2389   4.066   3.515  10.924 -0.3180  0.3319 -0.7195
  157TCq2    C3 2390   4.014   3.594  10.823  0.0175  0.1831  0.6282
  157TCq2    C4 2391   4.085   3.705  10.790 -0.5682  0.2086 -0.1692
  157TCq2    C5 2392   4.199   3.735  10.841 -0.0420 -0.0526 -0.0282
  157TCq2    C6 2393   4.244   3.659  10.944  0.3962 -0.1818 -0.2921
  157TCq2    C7 2394   4.185   3.541  10.984  0.6963  0.1728 -0.2964
  157TCq2    C8 2395   4.344   3.714  11.039  0.2075 -0.4586  0.6335
  157TCq2    O4 2396   4.437   3.778  10.993 -0.0528 -0.1654  0.1389
  157TCq2    C9 2397   4.038   3.791  10.688  0.0755  0.1784 -0.4407
  157TCq2    O5 2398   3.929   3.753  10.630  0.4222 -0.8749  0.2717
  157TCq2    O6 2399   4.102   3.893  10.655 -0.5511  0.4220  0.1843
  157TCq2    H2 2400   3.923   3.572  10.768  1.9234  1.7808 -3.1985
  157TCq2    H3 2401   4.256   3.820  10.805  0.9020 -1.0455 -0.8521
  157TCq2    H4 2402   4.225   3.482  11.065 -1.3366 -1.6417 -0.6173
  158TMC2    C1 2403   4.659   1.915  13.354 -0.0453  0.1719  0.4999
  158TMC2    C2 2404   4.673   2.047  13.315 -0.8994 -0.1245 -0.4400
  158TMC2    C3 2405   4.601   2.094  13.212  0.6072 -0.2915 -0.0809
  158TMC2    C4 2406   4.576   1.829  13.285 -0.3620 -0.2200 -0.3810
  158TMC2    C5 2407   4.498   1.879  13.188 -0.2102 -0.7631 -0.3789
  158TMC2    C6 2408   4.510   2.009  13.153 -0.4021  0.4190  0.6493
  158TMC2     C 2409   0.014   1.867  13.461 -0.0932 -0.4558 -0.6390
  158TMC2     O 2410   0.127   1.911  13.466  0.0212 -0.7872  0.3511
  158TMC2     H 2411   0.028   2.104  13.359 -0.1749 -0.3520 -1.4682
  158TMC2    H1 2412   4.579   1.726  13.317  2.3188  0.0231  0.1897
  158TMC2    H2 2413   4.458   2.034  13.061  1.5793  0.7815 -0.3624
  158TMC2    C7 2414   4.408   1.792  13.117 -0.5290  0.2046  0.1238
  158TMC2    C8 2415   4.619   2.222  13.148  0.0480 -0.2596  0.1648
  158TMC2    O1 2416   4.371   1.841  13.013 -0.4422  0.3570  0.0179
  158TMC2    O2 2417   4.554   2.263  13.053 -0.3287  0.0149 -0.1922
  158TMC2    O5 2418   4.713   2.299  13.207 -0.3530  0.2572 -0.8555
  158TMC2    H5 2419   0.041   2.268  13.283 -1.4097  1.6933  0.4707
  159MPD2     C 2420   0.148   1.504  13.798 -0.6748 -0.1824 -0.4697
  159MPD2    C1 2421   0.011   1.493  13.784 -0.4452  0.0842 -0.4831
  159MPD2    C2 2422   4.673   1.585  13.701 -0.5157 -0.1566 -0.4535
  159MPD2    C3 2423   0.021   1.675  13.627  0.3857 -0.7145  0.6923
  159MPD2    C4 2424   0.157   1.675  13.641  0.3551 -0.1091  0.3976
  159MPD2    C5 2425   0.223   1.593  13.729  0.1498 -0.5257 -0.2030
  159MPD2     H 2426   4.566   1.579  13.685 -0.2009  0.5955 -2.8338
  159MPD2    H1 2427   0.213   1.745  13.580 -0.3888 -0.5032 -0.7300
  159MPD2    H2 2428   0.208   1.434  13.855 -0.2468  1.9780  1.6932
  159MPD2    H3 2429   0.331   1.597  13.731  0.1893 -1.6107 -0.3249
  159MPD2     N 2430   4.683   1.762  13.536  1.0795  0.0739  0.0755
  159MPD2    H5 2431   4.583   1.747  13.528  1.0001  0.0217  1.1565
  159MPD2    N1 2432   4.667   1.383  13.844  0.1770 -0.1304  0.4898
  159MPD2    H7 2433   0.006   1.316  13.885 -0.0733 -0.0842  0.9489
  160TMC2    C1 2434   4.462   4.704   1.291  0.8307  0.0220 -0.8065
  160TMC2    C2 2435   4.582   4.681   1.359 -0.5884 -0.1447  0.7932
  160TMC2    C3 2436   4.699   4.720   1.304  0.0702 -0.0408 -0.0538
  160TMC2    C4 2437   4.467   0.024   1.157  0.2672  0.3331  0.5802
  160TMC2    C5 2438   4.594   0.047   1.104  0.1007  0.3516 -0.5793
  160TMC2    C6 2439   4.709   0.037   1.176  0.0386 -0.4902 -0.3687
  160TMC2     C 2440   4.344   4.669   1.359 -0.7993 -0.2734 -0.3194
  160TMC2     O 2441   4.352   4.633   1.477 -0.3508  0.2724  0.4916
  160TMC2     H 2442   4.581   4.634   1.456  1.1962  0.4892  1.1180
  160TMC2    H1 2443   4.382   0.042   1.091  1.1767 -1.5727 -1.1097
  160TMC2    H2 2444   0.082   0.048   1.133 -0.3210  0.5540 -0.9247
  160TMC2    C7 2445   4.595   0.085   0.962 -0.9401  0.4059  0.5354
  160TMC2    C8 2446   0.094   4.676   1.372  0.1114 -0.4751 -0.2383
  160TMC2    O1 2447   4.499   0.063   0.890 -0.5084 -0.1668  0.1184
  160TMC2    O2 2448   0.197   4.644   1.313  0.9877  0.8404 -0.1167
  160TMC2    O5 2449   0.077   4.700   1.502  0.2780 -0.0456 -0.2583
  160TMC2    H5 2450   4.713   0.005   1.523  0.2210  1.0690 -2.1602
  161MPD2     C 2451   4.071   4.601   1.445 -0.1839 -0.0833  0.0402
  161MPD2    C1 2452   4.101   4.628   1.312  0.0862 -0.2588 -0.6909
  161MPD2    C2 2453   3.997   4.642   1.221  0.4845  0.0566  0.3494
  161MPD2    C3 2454   3.863   4.622   1.256  0.1223  0.4509 -1.5178
  161MPD2    C4 2455   3.836   4.594   1.391 -0.1864 -0.0039 -0.2164
  161MPD2    C5 2456   3.936   4.586   1.485  0.3249  0.3387  0.2681
  161MPD2     H 2457   4.016   4.672   1.119 -4.1850  1.3734 -0.1228
  161MPD2    H1 2458   3.737   4.573   1.428  1.1820 -1.3203  2.6976
  161MPD2    H2 2459   4.145   4.598   1.525  0.5690  1.8423 -0.5803
  161MPD2    H3 2460   3.903   4.571   1.587 -0.4463 -1.2634 -0.2077
  161MPD2     N 2461   3.759   4.615   1.168  0.2812 -0.2874 -0.3692
  161MPD2    H5 2462   3.665   4.624   1.207  0.8089  0.9829  0.5976
  161MPD2    N1 2463   4.233   4.663   1.277  0.2793 -0.0117  0.0358
  161MPD2    H7 2464   4.237   4.692   1.179 -0.1271 -0.5745 -0.1432
  162TMC2    C1 2465   2.503   1.851   1.068  0.0815  0.4923  0.3367
  162TMC2    C2 2466   2.428   1.958   1.039  0.3863 -0.8803 -0.1819
  162TMC2    C3 2467   2.398   2.041   1.145 -0.5514  0.1836 -0.0966
  162TMC2    C4 2468   2.552   1.826   1.198 -0.5667 -0.0851 -0.2676
  162TMC2    C5 2469   2.522   1.912   1.299 -0.4203  0.3715  0.1690
  162TMC2    C6 2470   2.450   2.024   1.274  0.1973 -0.5301  0.0769
  162TMC2     C 2471   2.528   1.760   0.959 -0.0340  0.0489 -0.1535
  162TMC2     O 2472   2.533   1.803   0.844 -0.1966 -0.3605 -0.0249
  162TMC2     H 2473   2.392   1.964   0.937 -1.8131  2.4498  0.7885
  162TMC2    H1 2474   2.620   1.744   1.219 -0.0959 -0.6924 -4.1752
  162TMC2    H2 2475   2.436   2.106   1.344  1.5641 -0.1062 -0.1535
  162TMC2    C7 2476   2.606   1.913   1.419  0.4803  0.0445  0.3012
  162TMC2    C8 2477   2.346   2.173   1.133  0.3407 -1.1448 -0.8639
  162TMC2    O1 2478   2.724   1.880   1.403  0.7022  0.0273  0.2998
  162TMC2    O2 2479   2.410   2.266   1.176 -0.0502 -0.0686  0.0601
  162TMC2    O5 2480   2.211   2.169   1.140 -0.1089  0.4577 -0.3161
  162TMC2    H5 2481   2.187   2.074   1.129 -0.1501  0.1989  1.9631
  163MPD2     C 2482   2.552   1.279   0.794 -0.0209 -0.2519 -0.4195
  163MPD2    C1 2483   2.589   1.390   0.726 -0.8565 -0.9048  0.1773
  163MPD2    C2 2484   2.578   1.516   0.787  0.5203 -0.1658  0.7357
  163MPD2    C3 2485   2.559   1.514   0.925 -0.4039 -0.4748 -1.1799
  163MPD2    C4 2486   2.540   1.393   0.994 -0.4338  0.3164  0.1072
  163MPD2    C5 2487   2.526   1.276   0.925 -0.4337  0.0646  0.4054
  163MPD2     H 2488   2.605   1.608   0.736  0.8949 -0.1078  1.0354
  163MPD2    H1 2489   2.544   1.382   1.102 -0.7098 -0.5957  0.0259
  163MPD2    H2 2490   2.536   1.188   0.736 -0.0393 -0.1255 -0.6130
  163MPD2    H3 2491   2.497   1.196   0.993 -1.2614 -0.5414 -0.6757
  163MPD2     N 2492   2.535   1.629   1.002  0.9116  0.4433  0.0167
  163MPD2    H5 2493   2.511   1.611   1.099 -1.0679  0.6747 -0.4221
  163MPD2    N1 2494   2.631   1.372   0.589  0.2280  0.0986 -0.2201
  163MPD2    H7 2495   2.627   1.282   0.544 -1.8288 -0.7839  1.7140
  164TCq2    C1 2496   2.950   1.152  11.422 -0.0080  0.2753  0.0852
  164TCq2    O2 2497   2.852   1.121  11.487  0.0306 -0.1845 -0.3760
  164TCq2    C2 2498   2.986   1.289  11.400  0.3293 -0.1489  0.5680
  164TCq2    C3 2499   3.084   1.322  11.312  0.4779  0.5705 -0.8477
  164TCq2    C4 2500   3.092   1.450  11.267  0.2483 -0.1057 -0.3495
  164TCq2    C5 2501   3.004   1.548  11.307 -0.0087 -0.0692 -0.6376
  164TCq2    C6 2502   2.905   1.514  11.404 -0.3722  0.1895 -0.3878
  164TCq2    C7 2503   2.900   1.384  11.454 -0.5349  0.1010 -0.1621
  164TCq2    C8 2504   2.792   1.605  11.425 -0.4677  0.3306 -0.0952
  164TCq2    O4 2505   2.777   1.701  11.348  0.2184 -0.6067 -0.1318
  164TCq2    C9 2506   3.188   1.486  11.169  0.1201 -0.0719  0.0148
  164TCq2    O5 2507   3.177   1.600  11.115 -0.3196  0.0612 -0.1964
  164TCq2    O6 2508   3.250   1.395  11.109 -0.4525 -0.4244 -0.6364
  164TCq2    H2 2509   3.157   1.252  11.274  0.2165  0.4065 -1.0430
  164TCq2    H3 2510   3.000   1.644  11.256 -1.4000 -0.4184 -1.1797
  164TCq2    H4 2511   2.820   1.336  11.509 -0.8982  0.8445 -0.0431
  165MPD2     C 2512   3.572   3.314   2.603 -0.3031  0.9296 -0.0804
  165MPD2    C1 2513   3.589   3.275   2.472 -0.7072 -0.8715 -0.0598
  165MPD2    C2 2514   3.702   3.316   2.399 -0.7180  0.3011  0.3626
  165MPD2    C3 2515   3.798   3.393   2.459  0.0121  0.7056  0.3690
  165MPD2    C4 2516   3.776   3.441   2.587  0.2003  0.5300  0.3047
  165MPD2    C5 2517   3.670   3.396   2.654  0.0610 -0.4417  0.5119
  165MPD2     H 2518   3.719   3.271   2.301  1.5626  1.0677  0.3972
  165MPD2    H1 2519   3.843   3.515   2.628  1.2743 -0.9058  1.1625
  165MPD2    H2 2520   3.493   3.287   2.671  0.8165 -0.5309  0.6386
  165MPD2    H3 2521   3.658   3.436   2.754 -2.1785  1.1381 -0.3953
  165MPD2     N 2522   3.909   3.450   2.390 -0.0448 -0.1617  0.2181
  165MPD2    H5 2523   3.982   3.483   2.452 -2.0222  3.1828  0.7583
  165MPD2    N1 2524   3.491   3.196   2.415  0.2754 -0.1392 -0.0900
  165MPD2    H7 2525   3.411   3.180   2.476  2.1638 -0.9027  2.2174
  166TCq2    C1 2526   3.931   3.441   2.259 -0.2416  0.3670  0.4857
  166TCq2    O2 2527   3.849   3.444   2.166 -0.3397  0.1422 -0.1742
  166TCq2    C2 2528   4.079   3.450   2.232  0.6252  0.3806  0.1394
  166TCq2    C3 2529   4.174   3.372   2.300  0.4592 -0.4100 -0.2023
  166TCq2    C4 2530   4.302   3.399   2.278  0.4723 -0.2855  0.5434
  166TCq2    C5 2531   4.338   3.507   2.197  0.6650  0.1516 -0.2444
  166TCq2    C6 2532   4.244   3.576   2.126 -0.1946  0.3344  0.4251
  166TCq2    C7 2533   4.110   3.546   2.142  0.0515 -0.7149  0.5943
  166TCq2    C8 2534   4.287   3.676   2.030  0.7431 -0.1076  0.2100
  166TCq2    O4 2535   4.401   3.659   1.984 -0.9929 -0.8339  0.0362
  166TCq2    C9 2536   4.407   3.319   2.345  0.0849 -0.8744  0.5429
  166TCq2    O5 2537   4.366   3.214   2.393  0.1340 -0.3048 -0.0407
  166TCq2    O6 2538   4.531   3.349   2.315  0.3250 -0.2143  0.2228
  166TCq2    H2 2539   4.142   3.285   2.357 -0.1785  0.2477  0.4315
  166TCq2    H3 2540   4.442   3.536   2.191  0.8120 -1.2205 -3.8697
  166TCq2    H4 2541   4.036   3.605   2.088  0.3654 -0.2150  0.7090
  167TMC2    C1 2542   1.927   1.227  13.057 -0.1247  0.3328 -0.3794
  167TMC2    C2 2543   1.807   1.190  13.112 -0.0896 -0.5150 -0.4162
  167TMC2    C3 2544   1.800   1.059  13.148  0.0894  0.6267  0.9605
  167TMC2    C4 2545   2.032   1.140  13.043  0.0159  0.3931  0.2278
  167TMC2    C5 2546   2.018   1.013  13.086 -0.0163 -0.1431 -0.3304
  167TMC2    C6 2547   1.899   0.971  13.142 -0.1630 -0.2013 -0.5477
  167TMC2     C 2548   1.929   1.366  13.017 -0.0945 -0.2181  0.0915
  167TMC2     O 2549   1.848   1.440  13.062  0.4696  0.2306 -0.2096
  167TMC2     H 2550   1.721   1.256  13.112  1.1656  1.1232  0.3552
  167TMC2    H1 2551   2.132   1.175  13.021  0.4979 -0.4857  1.0142
  167TMC2    H2 2552   1.889   0.867  13.170 -0.4352  0.3680  1.4427
  167TMC2    C7 2553   2.129   0.926  13.089  0.3522 -0.1925 -0.1299
  167TMC2    C8 2554   1.675   1.000  13.186  0.2369  0.2392  0.0128
  167TMC2    O1 2555   2.130   0.836  13.169 -0.3214 -0.2411  0.5282
  167TMC2    O2 2556   1.659   0.884  13.160  0.7042  0.1074  0.1529
  167TMC2    O5 2557   1.582   1.091  13.182  0.2209 -0.5877  0.2553
  167TMC2    H5 2558   1.614   1.177  13.217 -1.0611  0.6613 -1.6397
  168MPD2     C 2559   1.977   1.635  12.920  0.1134 -0.0316  0.1984
  168MPD2    C1 2560   2.046   1.526  12.873  0.3967 -0.6558  0.2406
  168MPD2    C2 2561   2.127   1.539  12.757  0.0593  0.6668 -0.3051
  168MPD2    C3 2562   2.132   1.663  12.698 -0.2474  0.2119 -0.1842
  168MPD2    C4 2563   2.060   1.771  12.743 -0.0039 -0.1379  0.0843
  168MPD2    C5 2564   1.982   1.754  12.857 -0.1064  0.4983 -0.1835
  168MPD2     H 2565   2.170   1.451  12.710 -0.7934 -0.1215  0.3946
  168MPD2    H1 2566   2.070   1.873  12.706 -1.0391 -0.6319 -1.5640
  168MPD2    H2 2567   1.916   1.637  13.009 -2.4033  0.2303 -1.5233
  168MPD2    H3 2568   1.918   1.834  12.892 -1.2171 -0.2796 -0.4158
  168MPD2     N 2569   2.198   1.683  12.576 -0.2911  0.2979 -0.3334
  168MPD2    H5 2570   2.161   1.757  12.516 -0.7846  0.0470 -0.3368
  168MPD2    N1 2571   2.027   1.398  12.925  0.3939 -0.2636  0.0684
  168MPD2    H7 2572   2.089   1.327  12.888  1.6726  0.5173  0.7132
  169MPD1     C 2573   4.568   1.981   9.218 -0.1593 -0.2927  0.0428
  169MPD1    C1 2574   4.704   1.979   9.207 -0.5630  0.1231 -0.1470
  169MPD1    C2 2575   0.039   1.892   9.129  0.5842  0.0667 -0.8755
  169MPD1    C3 2576   4.687   1.785   9.074  0.0696 -0.2931 -0.4869
  169MPD1    C4 2577   4.548   1.794   9.083 -0.5314  0.3197  0.5372
  169MPD1    C5 2578   4.490   1.887   9.160  0.4368  0.5553 -0.6241
  169MPD1     H 2579   0.147   1.888   9.117  0.5202 -2.0966 -0.7726
  169MPD1    H1 2580   4.494   1.710   9.041 -0.3564 -0.3407  1.6165
  169MPD1    H2 2581   4.520   2.048   9.288 -1.9370 -0.2737 -1.1958
  169MPD1    H3 2582   4.385   1.876   9.186 -0.0478  0.9457 -2.3701
  169MPD1     N 2583   0.036   1.670   9.029 -0.4065  0.0378  0.5097
  169MPD1    H5 2584   0.136   1.670   9.050 -0.1395 -1.8234 -0.7430
  169MPD1    N1 2585   0.057   2.086   9.258  0.1132 -0.2967 -0.7106
  169MPD1    H6 2586   0.018   2.134   9.339  1.5315  0.2764 -0.3691
  169MPD1    H7 2587   0.145   2.042   9.285  0.0014 -0.9549 -1.4021
  170MPD1     C 2588   3.140   3.279  13.045 -0.2888 -0.0647 -0.0437
  170MPD1    C1 2589   3.076   3.376  12.980  0.0116  0.3890  0.6975
  170MPD1    C2 2590   3.060   3.493  13.051 -0.6750 -0.7052  0.0056
  170MPD1    C3 2591   3.108   3.514  13.179 -0.5859  0.0299  0.6248
  170MPD1    C4 2592   3.192   3.415  13.228 -0.2621  0.2458 -0.4342
  170MPD1    C5 2593   3.210   3.296  13.161  0.4573  0.0360  0.6591
  170MPD1     H 2594   2.989   3.570  13.023  2.0945  1.9065  0.0113
  170MPD1    H1 2595   3.256   3.434  13.313  0.6833  0.8096 -1.2664
  170MPD1    H2 2596   3.149   3.184  12.993 -1.1497 -1.3534  2.1752
  170MPD1    H3 2597   3.259   3.206  13.198 -0.2657 -0.7620 -0.3444
  170MPD1     N 2598   3.064   3.634  13.249 -0.0398 -0.2615  0.2145
  170MPD1    H5 2599   3.002   3.695  13.196  0.1272  0.0484  0.3743
  170MPD1    N1 2600   3.000   3.353  12.867 -0.1728 -0.0945  0.1638
  170MPD1    H6 2601   2.997   3.436  12.808 -2.0289 -0.0147  0.3468
  170MPD1    H7 2602   3.037   3.278  12.809 -0.6047 -1.1205  1.2373
  171MPD1     C 2603   1.495   0.166  15.392  0.6227  0.7843 -0.1320
  171MPD1    C1 2604   1.455   0.034  15.401  0.1774 -0.0605  0.1482
  171MPD1    C2 2605   1.520   4.677  15.490  0.1825 -0.0949  0.5432
  171MPD1    C3 2606   1.625   4.721  15.566  0.0599  0.3967 -0.2635
  171MPD1    C4 2607   1.660   0.127  15.557  0.4133  0.6159  0.1829
  171MPD1    C5 2608   1.595   0.214  15.477 -0.2343 -0.1821 -0.2413
  171MPD1     H 2609   1.496   4.572  15.491 -2.4964  0.5301  1.4649
  171MPD1    H1 2610   1.750   0.161  15.608  1.8958 -2.2407 -0.5440
  171MPD1    H2 2611   1.448   0.233  15.321  0.2833 -0.5164 -1.1381
  171MPD1    H3 2612   1.630   0.316  15.474 -2.2529  0.5308  0.4827
  171MPD1     N 2613   1.705   4.645  15.654 -0.1493 -0.2510  0.2187
  171MPD1    H5 2614   1.777   4.692  15.709  0.4716 -1.3956  0.3841
  171MPD1    N1 2615   1.379   4.697  15.296  0.1637  0.0366  0.8455
  171MPD1    H6 2616   1.304   0.027  15.255  0.7750 -0.7391 -1.3527
  171MPD1    H7 2617   1.338   4.606  15.314  0.3159 -0.3534 -0.7441
  172MPD1     C 2618   0.790   3.885   0.101  0.0369 -0.1441  0.3149
  172MPD1    C1 2619   0.892   3.926   0.030  0.6653 -0.2898  0.2098
  172MPD1    C2 2620   0.951   4.047   0.058  0.8023 -0.6212  0.1082
  172MPD1    C3 2621   0.896   4.127   0.156 -0.3791 -0.0971 -0.4359
  172MPD1    C4 2622   0.786   4.087   0.224  0.0932  0.3730  0.1193
  172MPD1    C5 2623   0.731   3.963   0.192  0.0672 -0.7214 -0.4891
  172MPD1     H 2624   1.031   4.076  17.695  1.9678 -3.0409  0.4470
  172MPD1    H1 2625   0.751   4.150   0.305 -2.8832  0.4527 -1.2212
  172MPD1    H2 2626   0.757   3.782   0.091  0.8340 -0.5534  2.0337
  172MPD1    H3 2627   0.662   3.918   0.263 -0.0218  1.0240  0.5346
  172MPD1     N 2628   0.954   4.257   0.194  0.3015 -0.0201  0.5034
  172MPD1    H5 2629   0.925   4.299   0.281 -1.8625  1.8670 -1.1446
  172MPD1    N1 2630   0.931   3.853  17.627 -1.0912  0.2567 -0.4364
  172MPD1    H6 2631   0.889   3.760  17.623 -0.7805  0.1805 -2.2789
  172MPD1    H7 2632   1.026   3.847  17.593 -0.9289 -0.6319  0.1816
  173MPD1     C 2633   2.276   4.228  13.767 -0.6878 -0.9798  0.3504
  173MPD1    C1 2634   2.170   4.231  13.858 -0.0149 -0.3240  0.0389
  173MPD1    C2 2635   2.182   4.159  13.976  0.2377  0.3355  0.0713
  173MPD1    C3 2636   2.295   4.076  14.002  0.1691  0.5178  0.8411
  173MPD1    C4 2637   2.400   4.075  13.908  0.1991  0.4344 -0.1141
  173MPD1    C5 2638   2.386   4.144  13.789  0.5286 -0.0074  0.1769
  173MPD1     H 2639   2.099   4.152  14.046  1.1401 -0.9401  1.0173
  173MPD1    H1 2640   2.496   4.028  13.928 -1.2564 -2.7352 -0.5862
  173MPD1    H2 2641   2.278   4.288  13.677 -0.0108 -1.8205 -0.1926
  173MPD1    H3 2642   2.466   4.147  13.716 -0.6607  2.2358 -1.0248
  173MPD1     N 2643   2.284   3.996  14.111  0.1608 -0.0854 -0.4016
  173MPD1    H5 2644   2.202   4.003  14.171  0.8329  1.4585  0.3339
  173MPD1    N1 2645   2.067   4.322  13.832  0.2632 -0.2200  0.3388
  173MPD1    H6 2646   1.980   4.297  13.879  1.4219 -1.3436  1.8369
  173MPD1    H7 2647   2.057   4.349  13.734 -1.3589 -0.3685  0.4644
  174MPD1     C 2648   3.031   3.625  14.663 -0.1474 -0.8670  0.7586
  174MPD1    C1 2649   2.924   3.550  14.705 -0.4613 -0.4225  0.2169
  174MPD1    C2 2650   2.802   3.572  14.648  0.2021 -0.7122 -0.1440
  174MPD1    C3 2651   2.781   3.669  14.548 -0.9490  0.5001 -0.3277
  174MPD1    C4 2652   2.888   3.747  14.507 -0.4510 -0.3397 -0.7473
  174MPD1    C5 2653   3.014   3.718  14.562 -0.4511  0.4572 -1.1871
  174MPD1     H 2654   2.716   3.510  14.671  0.8942 -0.6046  2.7635
  174MPD1    H1 2655   2.886   3.817  14.425 -2.5678 -1.1962 -1.4054
  174MPD1    H2 2656   3.133   3.618  14.699 -0.0149 -1.0820  0.3422
  174MPD1    H3 2657   3.109   3.755  14.525 -1.3751 -0.2233 -4.2245
  174MPD1     N 2658   2.654   3.692  14.493 -0.1640  0.0778  0.2468
  174MPD1    H5 2659   2.655   3.761  14.418  3.0194 -1.1149 -0.7789
  174MPD1    N1 2660   2.919   3.485  14.832  0.5783 -0.2339  0.0228
  174MPD1    H6 2661   2.844   3.416  14.831 -0.2082  0.6166 -1.0398
  174MPD1    H7 2662   3.009   3.453  14.866  0.5846  0.1931  0.4067
  175MPD1     C 2663   0.474   0.159  15.415 -0.3161  0.0770  0.0850
  175MPD1    C1 2664   0.590   0.133  15.480  0.3189  0.2213  0.1400
  175MPD1    C2 2665   0.598   0.132  15.620 -0.2121  1.0271  0.0116
  175MPD1    C3 2666   0.484   0.169  15.691  0.3817 -0.7193  0.1962
  175MPD1    C4 2667   0.362   0.190  15.623 -0.7826 -0.2620 -0.1186
  175MPD1    C5 2668   0.364   0.182  15.488 -0.1432 -0.9548 -0.2833
  175MPD1     H 2669   0.693   0.115  15.669 -0.8482  0.4637  1.0285
  175MPD1    H1 2670   0.277   0.222  15.683 -0.3668  1.5545 -0.4812
  175MPD1    H2 2671   0.454   0.157  15.308 -0.6823 -0.3612  0.1599
  175MPD1    H3 2672   0.272   0.202  15.434 -0.0452 -0.4228 -0.2518
  175MPD1     N 2673   0.476   0.154  15.831  0.3148  0.0855 -0.3778
  175MPD1    H5 2674   0.388   0.160  15.881 -0.7640 -0.7680 -2.2251
  175MPD1    N1 2675   0.705   0.096  15.414 -0.2651 -0.2025 -0.5088
  175MPD1    H6 2676   0.745   0.009  15.449  0.4341 -0.6221 -2.3522
  175MPD1    H7 2677   0.712   0.097  15.313 -0.4758 -0.4465 -0.5268
  176MPD1     C 2678   2.077   1.668  16.423  0.8480  0.2433 -0.3961
  176MPD1    C1 2679   1.998   1.784  16.419 -0.4947 -0.1030  0.1022
  176MPD1    C2 2680   2.024   1.886  16.504  0.5571 -0.3396 -0.2071
  176MPD1    C3 2681   2.122   1.875  16.599 -0.5395 -0.1804  0.3424
  176MPD1    C4 2682   2.197   1.756  16.605  0.5122  0.8821  0.1296
  176MPD1    C5 2683   2.167   1.653  16.521  0.1484 -0.6436  0.0838
  176MPD1     H 2684   1.961   1.974  16.494 -0.3894 -1.0350 -0.4317
  176MPD1    H1 2685   2.281   1.740  16.672 -0.3253 -2.3513  0.3973
  176MPD1    H2 2686   2.061   1.582  16.358 -0.2776 -1.7365  2.4874
  176MPD1    H3 2687   2.223   1.560  16.521  1.4613  0.1601 -0.3819
  176MPD1     N 2688   2.144   1.980  16.690 -0.3296  0.5426 -0.0525
  176MPD1    H5 2689   2.093   2.066  16.669  0.0426  0.6037 -0.7009
  176MPD1    N1 2690   1.919   1.803  16.305  0.0733 -0.0012 -0.1587
  176MPD1    H6 2691   1.878   1.721  16.260  0.7326  0.3651 -1.4064
  176MPD1    H7 2692   1.844   1.870  16.315  0.6943  0.4576  1.4916
  177MPD1     C 2693   1.331   1.995  10.424 -0.5517 -0.0623  0.2744
  177MPD1    C1 2694   1.290   1.934  10.312 -0.4814 -0.0794 -0.2992
  177MPD1    C2 2695   1.202   2.001  10.230  0.3218 -0.3657 -0.6082
  177MPD1    C3 2696   1.147   2.126  10.259  0.4750 -0.4234 -0.4010
  177MPD1    C4 2697   1.192   2.184  10.376 -0.0726 -0.2970 -0.5791
  177MPD1    C5 2698   1.281   2.119  10.457 -0.0254 -0.2277  0.0533
  177MPD1     H 2699   1.160   1.943  10.149  0.9945  0.7528 -1.7791
  177MPD1    H1 2700   1.163   2.286  10.396 -0.8329 -0.7019  0.3978
  177MPD1    H2 2701   1.406   1.956  10.491  0.4030 -1.0541 -1.3916
  177MPD1    H3 2702   1.306   2.172  10.548  0.3551  0.5866 -0.5243
  177MPD1     N 2703   1.039   2.172  10.187 -0.3965 -0.5720  0.4491
  177MPD1    H5 2704   1.023   2.123  10.100  0.6110  1.4401 -0.8791
  177MPD1    N1 2705   1.345   1.808  10.281  0.3361  0.3918 -0.6834
  177MPD1    H6 2706   1.444   1.812  10.257  1.0329  0.7360  2.2519
  177MPD1    H7 2707   1.295   1.758  10.208  2.6012  0.8698 -2.5461
  178MPD1     C 2708   2.807   3.572  17.142 -0.0600  0.0131 -0.2778
  178MPD1    C1 2709   2.685   3.511  17.145 -0.0458  0.6510  0.3105
  178MPD1    C2 2710   2.671   3.378  17.115  0.1580 -0.2559 -0.0274
  178MPD1    C3 2711   2.781   3.312  17.069 -0.0008  0.3144  0.0669
  178MPD1    C4 2712   2.903   3.374  17.066  0.3507  0.5052  0.1077
  178MPD1    C5 2713   2.916   3.506  17.098  0.5344 -0.0141  0.0473
  178MPD1     H 2714   2.575   3.327  17.115 -1.1412  2.1638 -1.0133
  178MPD1    H1 2715   2.989   3.321  17.028  1.0362  0.5535  1.5823
  178MPD1    H2 2716   2.822   3.676  17.166  0.3526 -0.2805  0.7161
  178MPD1    H3 2717   3.012   3.556  17.100  0.3244  0.4709 -2.4403
  178MPD1     N 2718   2.766   3.171  17.050 -0.2776  0.0883  0.4591
  178MPD1    H5 2719   2.853   3.122  17.029 -0.3080  0.7603 -1.2187
  178MPD1    N1 2720   2.576   3.604  17.165  0.5331 -0.1262 -0.2536
  178MPD1    H6 2721   2.590   3.685  17.105  2.1803  0.3663  0.8071
  178MPD1    H7 2722   2.485   3.566  17.141  0.8730 -0.2969 -1.2880
  179MPD1     C 2723   2.315   1.475  15.247  0.3374 -0.8703 -0.7942
  179MPD1    C1 2724   2.429   1.470  15.330  0.1934  0.0525  0.1203
  179MPD1    C2 2725   2.456   1.349  15.382 -0.1521  0.3534  0.3825
  179MPD1    C3 2726   2.372   1.239  15.363 -0.3500 -0.1562 -0.5220
  179MPD1    C4 2727   2.259   1.247  15.284  0.4932  0.3891 -0.0008
  179MPD1    C5 2728   2.235   1.367  15.222  0.5544  0.1923 -0.1589
  179MPD1     H 2729   2.553   1.336  15.429 -0.1855  2.4885  1.0167
  179MPD1    H1 2730   2.193   1.164  15.261  0.0862  1.3514 -2.2540
  179MPD1    H2 2731   2.282   1.557  15.184 -0.3278 -0.2557  0.3587
  179MPD1    H3 2732   2.146   1.368  15.160 -0.0246  1.4116  0.6798
  179MPD1     N 2733   2.416   1.113  15.400  0.4190 -1.0205  0.4531
  179MPD1    H5 2734   2.387   1.040  15.336  0.4727 -1.3565  0.8126
  179MPD1    N1 2735   2.526   1.564  15.309  0.0380 -0.5943  0.5895
  179MPD1    H6 2736   2.493   1.656  15.282  0.9059 -1.1691 -2.4234
  179MPD1    H7 2737   2.590   1.540  15.234  0.4370  1.6744  0.2084
  180MPD1     C 2738   2.470   2.128  15.362 -1.0336  0.2568  0.6055
  180MPD1    C1 2739   2.564   2.089  15.267 -0.1577  1.3284 -0.6957
  180MPD1    C2 2740   2.547   2.145  15.148  0.0476 -0.5627 -0.1869
  180MPD1    C3 2741   2.458   2.257  15.132 -0.7498 -0.2350  0.2286
  180MPD1    C4 2742   2.383   2.301  15.237  0.2024 -0.1214  0.2742
  180MPD1    C5 2743   2.381   2.229  15.351 -0.3377 -0.0578 -0.2673
  180MPD1     H 2744   2.589   2.100  15.059  1.0691  1.2388 -0.6046
  180MPD1    H1 2745   2.316   2.386  15.236  0.8252  0.3666 -0.5952
  180MPD1    H2 2746   2.461   2.081  15.459  0.3456  2.4491  1.7849
  180MPD1    H3 2747   2.322   2.255  15.438  0.6419 -1.7345  0.8892
  180MPD1     N 2748   2.468   2.321  15.008 -0.8450 -0.0584 -0.0810
  180MPD1    H5 2749   2.549   2.302  14.950 -1.3033  0.3255 -0.8378
  180MPD1    N1 2750   2.643   1.969  15.282 -0.9136  0.0215 -0.3003
  180MPD1    H6 2751   2.681   1.962  15.376  1.3757  1.8364 -1.0745
  180MPD1    H7 2752   2.720   1.964  15.215 -1.1288  0.9117 -0.6088
  181MPD1     C 2753   4.501   4.134   8.642 -0.0259 -0.4823 -0.2602
  181MPD1    C1 2754   4.517   4.266   8.654  0.2428 -0.1925  0.0683
  181MPD1    C2 2755   4.612   4.306   8.748 -0.0417 -0.0444  0.0971
  181MPD1    C3 2756   4.658   4.218   8.842  0.4586 -0.6824 -0.8059
  181MPD1    C4 2757   4.620   4.086   8.838 -0.0422 -0.1492 -0.6382
  181MPD1    C5 2758   4.541   4.045   8.734  0.2906 -0.4008 -0.1006
  181MPD1     H 2759   4.655   4.405   8.738  2.8650 -1.2419  0.5607
  181MPD1    H1 2760   4.663   4.017   8.909  0.0429  2.3641  1.7194
  181MPD1    H2 2761   4.438   4.099   8.561  0.0896 -0.5119 -0.3374
  181MPD1    H3 2762   4.507   3.942   8.724 -0.7404  0.0173 -0.9150
  181MPD1     N 2763   0.029   4.258   8.943 -0.4929  0.1840  0.1145
  181MPD1    H5 2764   0.070   4.181   8.994  0.3282  0.1849 -0.5380
  181MPD1    N1 2765   4.465   4.360   8.564 -0.2540  0.5419  0.1123
  181MPD1    H6 2766   4.445   4.449   8.611  2.1895  0.5527  1.1296
  181MPD1    H7 2767   4.378   4.320   8.528  1.0266 -1.9273 -0.2071
  182MPD1     C 2768   0.725   3.257   1.196  0.1822  0.2842  0.1041
  182MPD1    C1 2769   0.822   3.224   1.104 -0.1676  0.2642 -0.1348
  182MPD1    C2 2770   0.785   3.225   0.965  0.4977 -0.6026  0.2815
  182MPD1    C3 2771   0.664   3.280   0.923 -0.5139 -0.2793 -0.2002
  182MPD1    C4 2772   0.572   3.313   1.024  0.4429  0.4952 -0.6069
  182MPD1    C5 2773   0.603   3.299   1.156  0.1319 -0.0883  0.4302
  182MPD1     H 2774   0.853   3.188   0.890  2.7135  3.2832  0.3696
  182MPD1    H1 2775   0.471   3.338   0.994  0.9047  0.8225 -1.8720
  182MPD1    H2 2776   0.747   3.243   1.301 -0.6380 -1.0582  0.1054
  182MPD1    H3 2777   0.533   3.339   1.228 -1.1022  0.5337 -1.1274
  182MPD1     N 2778   0.625   3.300   0.791  0.1988  0.2745 -0.1480
  182MPD1    H5 2779   0.530   3.330   0.775  0.1662  1.5152  2.3814
  182MPD1    N1 2780   0.938   3.163   1.144  0.1859  0.1099  0.7242
  182MPD1    H6 2781   0.979   3.190   1.234  0.9092  2.0398 -0.1889
  182MPD1    H7 2782   1.002   3.173   1.067  0.8186  0.4379  1.2915
  183MPD1     C 2783   1.990   4.058  10.151 -0.7099  0.0268 -0.8413
  183MPD1    C1 2784   1.920   3.975  10.241 -0.4612 -0.0832 -0.6470
  183MPD1    C2 2785   1.776   3.960  10.230  0.5220  0.1402 -0.6821
  183MPD1    C3 2786   1.703   4.035  10.138 -0.2468  0.8835  0.5833
  183MPD1    C4 2787   1.770   4.118  10.054 -0.5376  0.2012 -0.0752
  183MPD1    C5 2788   1.906   4.124  10.065  0.3699 -0.1475 -0.3635
  183MPD1     H 2789   1.712   3.913  10.304  0.8430  1.5068  0.4792
  183MPD1    H1 2790   1.728   4.179   9.975 -0.7013 -0.6716 -0.6528
  183MPD1    H2 2791   2.097   4.072  10.153 -0.9682  1.9724 -0.2074
  183MPD1    H3 2792   1.949   4.183   9.985  1.6465  0.7163  0.9554
  183MPD1     N 2793   1.562   4.020  10.142 -0.0908  0.2245 -0.4110
  183MPD1    H5 2794   1.520   3.956  10.208  1.7676  2.4006  2.8695
  183MPD1    N1 2795   1.999   3.902  10.334  0.0833  0.8560  0.1164
  183MPD1    H6 2796   2.075   3.961  10.369  1.5430 -1.3019  0.6360
  183MPD1    H7 2797   1.957   3.883  10.425 -1.4745  1.1515 -0.5533
  184MPD1     C 2798   4.595   1.471   9.840  0.4746 -0.0612  0.0380
  184MPD1    C1 2799   4.671   1.523   9.945 -0.1445  0.3854 -0.5140
  184MPD1    C2 2800   0.027   1.628   9.908  0.2248  0.1943  0.4363
  184MPD1    C3 2801   0.032   1.681   9.783 -0.6515  0.0940  0.1029
  184MPD1    C4 2802   4.692   1.610   9.687 -0.2213  0.0650  0.6286
  184MPD1    C5 2803   4.613   1.497   9.712 -0.2330 -0.6138 -0.3113
  184MPD1     H 2804   0.100   1.658   9.982 -0.5677 -0.7601  1.6143
  184MPD1    H1 2805   4.705   1.639   9.583 -0.4124  0.6397  0.7646
  184MPD1    H2 2806   4.534   1.386   9.870 -1.3499  1.7602  1.5433
  184MPD1    H3 2807   4.576   1.439   9.628  1.3028  0.1020 -1.4588
  184MPD1     N 2808   0.097   1.803   9.745 -0.5305  0.5615 -0.5220
  184MPD1    H5 2809   0.079   1.841   9.652 -1.0958  1.8622  0.1241
  184MPD1    N1 2810   4.653   1.493  10.084 -0.1408  0.2428 -0.4661
  184MPD1    H6 2811   4.633   1.394  10.090 -2.4363  0.6730 -1.0443
  184MPD1    H7 2812   0.011   1.521  10.136  0.2155  0.4987 -1.1690
  185MPD1     C 2813   0.691   2.131   9.056 -0.6599 -0.0082  0.4521
  185MPD1    C1 2814   0.557   2.106   9.045  0.3119  0.5620 -0.2939
  185MPD1    C2 2815   0.491   2.100   9.167  0.2851  0.0860 -0.6074
  185MPD1    C3 2816   0.555   2.141   9.285 -0.8748 -0.7440  0.7261
  185MPD1    C4 2817   0.684   2.181   9.284 -0.2234 -0.2102 -0.3056
  185MPD1    C5 2818   0.747   2.178   9.168 -0.2983 -0.0266 -0.6219
  185MPD1     H 2819   0.383   2.088   9.176  0.1111  0.9813 -1.5137
  185MPD1    H1 2820   0.742   2.218   9.369 -0.8484  0.9836 -0.3965
  185MPD1    H2 2821   0.755   2.114   8.970 -1.8028 -0.4795 -0.3016
  185MPD1    H3 2822   0.850   2.211   9.158  0.1284 -1.0765  0.2815
  185MPD1     N 2823   0.491   2.129   9.410 -0.4717 -0.5815 -0.7456
  185MPD1    H5 2824   0.544   2.157   9.492 -2.6682  0.5412  0.2675
  185MPD1    N1 2825   0.503   2.050   8.929 -0.4573  0.4606  0.1704
  185MPD1    H6 2826   0.559   2.080   8.849  1.5911  0.8019  1.7547
  185MPD1    H7 2827   0.411   2.085   8.902 -1.0164 -0.3433  1.0505
  186MPD1     C 2828   2.893   0.977  15.332  0.0519 -0.4207  0.2394
  186MPD1    C1 2829   3.006   0.943  15.401  0.8585 -0.5316  0.2525
  186MPD1    C2 2830   3.037   1.024  15.511 -0.0644 -0.2931  0.2618
  186MPD1    C3 2831   2.961   1.133  15.552  0.4531  0.2330 -0.1306
  186MPD1    C4 2832   2.855   1.166  15.476  0.5824  1.1104 -0.0410
  186MPD1    C5 2833   2.829   1.092  15.363 -0.8863 -0.0765  0.5889
  186MPD1     H 2834   3.119   0.998  15.578 -0.2906 -0.0145  0.6481
  186MPD1    H1 2835   2.789   1.244  15.511 -1.0419  1.1079 -3.0327
  186MPD1    H2 2836   2.859   0.916  15.249 -0.4444  0.1325  0.0361
  186MPD1    H3 2837   2.747   1.122  15.300  0.3482 -0.9627 -1.4541
  186MPD1     N 2838   2.983   1.208  15.671  0.2139 -0.0061 -0.2697
  186MPD1    H5 2839   2.899   1.258  15.699  0.2177 -0.3147  0.3014
  186MPD1    N1 2840   3.069   0.818  15.394 -0.4598  0.2110 -0.4540
  186MPD1    H6 2841   3.069   0.791  15.296 -0.0402 -1.7101  0.0705
  186MPD1    H7 2842   3.164   0.818  15.430 -0.2734 -0.9017 -0.9372
  187MPD1     C 2843   2.733   2.842  17.558  0.1252  0.1812  0.0762
  187MPD1    C1 2844   2.638   2.768  17.498 -0.0026 -0.3277 -0.7217
  187MPD1    C2 2845   2.537   2.836  17.429 -0.2073 -0.4012 -1.1993
  187MPD1    C3 2846   2.529   2.973  17.420  0.0715 -0.2906 -0.4975
  187MPD1    C4 2847   2.631   3.047  17.488 -0.7905  0.2534 -0.1301
  187MPD1    C5 2848   2.724   2.977  17.553  0.0251  0.7541  0.5645
  187MPD1     H 2849   2.466   2.767  17.384 -0.4168 -2.1208  1.7661
  187MPD1    H1 2850   2.622   3.155  17.498 -0.6303  0.2019  0.5415
  187MPD1    H2 2851   2.815   2.804  17.617 -0.0069 -0.5711 -0.2207
  187MPD1    H3 2852   2.802   3.029  17.608  0.7107 -0.8731  1.1297
  187MPD1     N 2853   2.426   3.042  17.355 -0.0671  0.0516  0.1503
  187MPD1    H5 2854   2.423   3.142  17.373  1.8879  0.0755  0.4217
  187MPD1    N1 2855   2.640   2.631  17.492  0.3619 -0.1411 -0.4512
  187MPD1    H6 2856   2.549   2.596  17.522  0.3563 -0.6571 -1.0726
  187MPD1    H7 2857   2.714   2.604  17.555  0.6957 -0.7005 -1.0900
  188MPD1     C 2858   2.736   3.569  10.135  0.6714 -0.7312  0.1364
  188MPD1    C1 2859   2.837   3.523  10.213 -0.4114 -0.7193  0.1835
  188MPD1    C2 2860   2.841   3.383  10.236 -0.3765 -0.4929  0.1623
  188MPD1    C3 2861   2.759   3.300  10.159 -0.0720  0.4588 -0.1107
  188MPD1    C4 2862   2.690   3.347  10.057  0.5086 -0.4584  0.7102
  188MPD1    C5 2863   2.673   3.480  10.054  0.3522  0.2611  0.0973
  188MPD1     H 2864   2.919   3.334  10.294 -0.7886  0.1214  1.2278
  188MPD1    H1 2865   2.617   3.283  10.009 -0.1131  1.0543 -0.3577
  188MPD1    H2 2866   2.725   3.674  10.113 -0.5333 -1.2472 -1.7515
  188MPD1    H3 2867   2.599   3.518   9.985 -0.0159 -1.5690 -0.5120
  188MPD1     N 2868   2.758   3.161  10.173 -0.1644  0.3395 -0.7080
  188MPD1    H5 2869   2.698   3.104  10.114  2.1438 -3.2102  0.4016
  188MPD1    N1 2870   2.899   3.607  10.300  0.7003  0.7785 -0.0812
  188MPD1    H6 2871   2.918   3.699  10.261  2.5729 -0.2032 -1.4349
  188MPD1    H7 2872   2.991   3.568  10.318  0.2469  0.4644  1.5932
  189MPD1     C 2873   4.293   3.468  17.328  0.1566 -0.1035  0.2552
  189MPD1    C1 2874   4.230   3.589  17.358  0.4546  0.1371  0.1589
  189MPD1    C2 2875   4.145   3.586  17.466  0.6030 -0.2398  0.2629
  189MPD1    C3 2876   4.099   3.466  17.522 -1.3965 -0.1306  0.2740
  189MPD1    C4 2877   4.146   3.351  17.472 -0.9447 -0.2783 -1.0114
  189MPD1    C5 2878   4.250   3.352  17.387  0.3777 -0.3116 -0.2511
  189MPD1     H 2879   4.112   3.682  17.506 -0.2923 -0.2524 -0.4559
  189MPD1    H1 2880   4.109   3.258  17.513  3.3431 -0.9416  1.3198
  189MPD1    H2 2881   4.372   3.455  17.255  0.7381  1.0590  0.6844
  189MPD1    H3 2882   4.297   3.259  17.356  0.7855 -0.9160  2.1615
  189MPD1     N 2883   3.999   3.482  17.618  0.4388  0.3680  0.2561
  189MPD1    H5 2884   3.979   3.580  17.632 -1.0647  0.1928 -0.7055
  189MPD1    N1 2885   4.273   3.708  17.298 -0.1925  0.5005  0.4519
  189MPD1    H6 2886   4.200   3.779  17.299 -0.5891  0.0816  0.9327
  189MPD1    H7 2887   4.305   3.683  17.204 -1.9944 -0.4385  0.0944
  190MPD1     C 2888   2.684   2.021  16.167  0.2800  0.5551 -0.1040
  190MPD1    C1 2889   2.685   2.156  16.185  0.4896 -0.4419  0.7285
  190MPD1    C2 2890   2.716   2.243  16.080 -0.0139  0.1503 -0.4593
  190MPD1    C3 2891   2.756   2.198  15.955 -1.0283 -0.3730  0.0529
  190MPD1    C4 2892   2.759   2.063  15.941  0.2958 -0.4122  0.6182
  190MPD1    C5 2893   2.724   1.975  16.043  0.0366  0.0998  0.8348
  190MPD1     H 2894   2.719   2.349  16.102  2.0850 -0.0094  0.0434
  190MPD1    H1 2895   2.775   2.013  15.847 -0.2940 -0.5190  0.5770
  190MPD1    H2 2896   2.655   1.957  16.250  2.8987 -0.1820  0.2480
  190MPD1    H3 2897   2.723   1.870  16.016 -2.3679  0.0265  1.2230
  190MPD1     N 2898   2.782   2.292  15.850  0.3533 -0.0653 -0.2263
  190MPD1    H5 2899   2.795   2.390  15.876  1.6490  0.1700 -1.7696
  190MPD1    N1 2900   2.645   2.199  16.314 -0.1349 -0.0905  0.4284
  190MPD1    H6 2901   2.665   2.130  16.387  0.5203  0.3485  0.6623
  190MPD1    H7 2902   2.656   2.297  16.340 -0.6992 -0.1394  0.8487
  191MPD1     C 2903   1.869   4.220  12.882  0.2051 -0.1950  0.3994
  191MPD1    C1 2904   1.793   4.311  12.820 -0.0302  0.7143  0.1882
  191MPD1    C2 2905   1.853   4.413  12.752 -0.4031  0.0817  0.4338
  191MPD1    C3 2906   1.992   4.422  12.742  0.6022  0.1626 -0.0009
  191MPD1    C4 2907   2.065   4.330  12.801  0.8912  0.1118  0.0059
  191MPD1    C5 2908   2.002   4.233  12.868  0.2790  0.0593 -0.0779
  191MPD1     H 2909   1.796   4.495  12.710 -1.3360 -0.7629  0.0570
  191MPD1    H1 2910   2.173   4.325  12.788  0.9348  1.5900 -0.2069
  191MPD1    H2 2911   1.827   4.138  12.939  1.3529 -0.6353  0.5972
  191MPD1    H3 2912   2.073   4.166  12.914 -0.2310 -1.0568 -0.9057
  191MPD1     N 2913   2.045   4.532  12.669 -0.0935 -0.1457  0.1135
  191MPD1    H5 2914   1.981   4.592  12.618 -2.0596 -2.3213  0.0268
  191MPD1    N1 2915   1.656   4.311  12.848 -0.2642  0.9159  0.9379
  191MPD1    H6 2916   1.598   4.352  12.774  1.6789  0.8195 -0.6510
  191MPD1    H7 2917   1.632   4.213  12.858 -1.0338  1.0650  0.5789
  192MPD1     C 2918   1.711   0.611  12.338 -0.0881 -0.1344 -0.2447
  192MPD1    C1 2919   1.765   0.595  12.465  0.6390  0.1697 -0.4338
  192MPD1    C2 2920   1.858   0.491  12.472  0.4883  0.5722 -0.6691
  192MPD1    C3 2921   1.878   0.399  12.369 -0.4069 -0.4755 -0.7601
  192MPD1    C4 2922   1.815   0.417  12.249  0.3921 -0.0907  0.1131
  192MPD1    C5 2923   1.725   0.519  12.238 -0.1585 -0.0783  0.1295
  192MPD1     H 2924   1.919   0.484  12.561  0.6110 -0.0366 -0.8036
  192MPD1    H1 2925   1.837   0.347  12.169  2.1216 -0.2736  0.7534
  192MPD1    H2 2926   1.661   0.704  12.315 -0.6300  0.1659  2.1901
  192MPD1    H3 2927   1.678   0.546  12.143 -0.5145  4.3879  1.5441
  192MPD1     N 2928   1.966   0.291  12.371 -0.1352  0.1091  0.3722
  192MPD1    H5 2929   1.974   0.235  12.287 -1.3346  0.1912  0.2110
  192MPD1    N1 2930   1.760   0.694  12.563  0.4751  0.2391 -0.1247
  192MPD1    H6 2931   1.792   0.656  12.651 -3.2128 -0.0556  1.0614
  192MPD1    H7 2932   1.667   0.733  12.581  0.3240 -0.5746  0.7896
  193MPD1     C 2933   1.741   4.096  16.103 -0.1896 -0.2436  0.0571
  193MPD1    C1 2934   1.696   4.223  16.076  0.3366  0.8671  1.1243
  193MPD1    C2 2935   1.734   4.324  16.164 -0.6328 -0.7790 -0.0222
  193MPD1    C3 2936   1.834   4.309  16.257  0.0725  0.0781 -0.2235
  193MPD1    C4 2937   1.888   4.181  16.276  0.0539  0.0808 -0.7191
  193MPD1    C5 2938   1.832   4.071  16.210 -0.8519  0.0331 -0.4422
  193MPD1     H 2939   1.686   4.421  16.164  2.0767  0.5405  2.9003
  193MPD1    H1 2940   1.948   4.160  16.363 -0.2479 -0.4468 -0.6393
  193MPD1    H2 2941   1.705   4.017  16.038 -0.7952  0.2745 -0.2464
  193MPD1    H3 2942   1.864   3.970  16.229  0.2534  0.3115 -0.8362
  193MPD1     N 2943   1.881   4.412  16.337 -0.4233 -0.3123  1.0434
  193MPD1    H5 2944   1.949   4.394  16.410  1.7487  1.7891 -0.4926
  193MPD1    N1 2945   1.593   4.240  15.983  0.2927  0.0179  0.1800
  193MPD1    H6 2946   1.605   4.181  15.900 -2.6312 -0.6869  0.2694
  193MPD1    H7 2947   1.597   4.336  15.949  0.9274  1.0837  3.2568
  194MPD1     C 2948   0.172   2.351  16.191  0.2675  0.8172 -0.2292
  194MPD1    C1 2949   0.127   2.225  16.158  0.2287  0.1792 -0.2665
  194MPD1    C2 2950   0.091   2.141  16.257  0.0377 -0.2429 -0.1214
  194MPD1    C3 2951   0.096   2.177  16.391  0.1254  0.4832  0.0351
  194MPD1    C4 2952   0.111   2.310  16.420 -0.3812  0.2215  0.4819
  194MPD1    C5 2953   0.150   2.390  16.319 -0.1492 -0.1815  0.1580
  194MPD1     H 2954   0.065   2.041  16.223  0.2864 -0.3327 -0.0440
  194MPD1    H1 2955   0.097   2.345  16.522  2.2616  0.8317  0.6455
  194MPD1    H2 2956   0.225   2.419  16.126  1.9297 -2.1815 -2.0311
  194MPD1    H3 2957   0.165   2.495  16.339 -2.7650  0.4522 -1.1674
  194MPD1     N 2958   0.062   2.085  16.495  0.6480 -0.2226 -0.4931
  194MPD1    H5 2959   0.077   2.121  16.588  1.0404  0.4707 -0.8213
  194MPD1    N1 2960   0.140   2.183  16.024  0.0072 -0.3118 -0.3521
  194MPD1    H6 2961   0.079   2.103  16.004 -0.8248  0.5512 -1.2213
  194MPD1    H7 2962   0.108   2.251  15.956  0.9354 -0.4013 -0.8750
  195MPD1     C 2963   2.520   3.366   0.621 -0.0661 -0.4913 -0.1273
  195MPD1    C1 2964   2.547   3.242   0.669  0.2292 -0.1430  0.0383
  195MPD1    C2 2965   2.490   3.133   0.608 -0.4695 -0.3570 -0.3148
  195MPD1    C3 2966   2.411   3.146   0.494 -0.3119  0.0114 -0.4267
  195MPD1    C4 2967   2.376   3.276   0.453 -0.1782 -0.4452 -0.2465
  195MPD1    C5 2968   2.440   3.382   0.514 -0.1137  0.7059  0.8279
  195MPD1     H 2969   2.509   3.032   0.644  0.8131 -0.6740 -1.8311
  195MPD1    H1 2970   2.303   3.291   0.375  0.2959 -2.8192 -1.1462
  195MPD1    H2 2971   2.561   3.455   0.667 -0.6718 -0.3399  0.1290
  195MPD1    H3 2972   2.416   3.485   0.491  0.4277  0.5621 -0.3666
  195MPD1     N 2973   2.357   3.034   0.420 -0.2845  0.4240  0.4491
  195MPD1    H5 2974   2.296   3.069   0.347  0.6577 -0.4136 -0.7421
  195MPD1    N1 2975   2.608   3.233   0.797 -1.2010 -0.4809 -0.2962
  195MPD1    H6 2976   2.680   3.306   0.801 -2.6966  0.9733  0.0578
  195MPD1    H7 2977   2.652   3.142   0.791  0.2250  0.0403  2.3759
  196MPD1     C 2978   1.153   3.423  17.614  0.1976 -0.9430 -0.2538
  196MPD1    C1 2979   1.233   3.325  17.658 -0.6938 -0.5709  0.1503
  196MPD1    C2 2980   1.301   3.343   0.080 -0.5348 -0.2266  0.2653
  196MPD1    C3 2981   1.272   3.454   0.157 -0.4980 -0.1049  0.6230
  196MPD1    C4 2982   1.191   3.556   0.102 -0.5105 -0.0296 -0.1335
  196MPD1    C5 2983   1.144   3.534  17.683  0.0792 -0.3652  0.0068
  196MPD1     H 2984   1.367   3.264   0.114  0.9261  1.7453  2.0108
  196MPD1    H1 2985   1.163   3.651   0.145  0.2524 -0.0061  0.3128
  196MPD1    H2 2986   1.098   3.408  17.521  2.2330  0.9997 -1.7777
  196MPD1    H3 2987   1.089   3.619  17.644  0.4833 -0.0623  0.0995
  196MPD1     N 2988   1.314   3.466   0.288 -0.4461 -0.7089  0.5842
  196MPD1    H5 2989   1.305   3.549   0.345 -1.0790 -1.8962  2.2006
  196MPD1    N1 2990   1.263   3.218  17.570  0.2934  0.8305 -0.0721
  196MPD1    H6 2991   1.256   3.131  17.623  1.2945  0.5970 -0.3413
  196MPD1    H7 2992   1.194   3.212  17.495 -1.8473  0.9672  1.8886
  197MPD1     C 2993   4.507   0.388  17.278 -0.0585  0.5614  0.8302
  197MPD1    C1 2994   4.609   0.357  17.358  0.5034  0.3357  0.1956
  197MPD1    C2 2995   0.012   0.347  17.304  0.6452  0.1724  0.4972
  197MPD1    C3 2996   0.041   0.385  17.176 -0.2445 -0.4008 -0.7948
  197MPD1    C4 2997   4.663   0.425  17.092  0.3190 -0.2784  0.8533
  197MPD1    C5 2998   4.532   0.423  17.143  0.2552 -0.9908 -0.4640
  197MPD1     H 2999   0.080   0.304  17.376  0.9351 -2.0548 -1.1329
  197MPD1    H1 3000   4.666   0.461  16.989  0.6762 -0.1738  0.8996
  197MPD1    H2 3001   4.407   0.395  17.320  0.2448  1.5220  1.3950
  197MPD1    H3 3002   4.453   0.464  17.082 -1.3434 -0.4269  1.9704
  197MPD1     N 3003   0.171   0.388  17.131  0.0200  0.9469 -0.4249
  197MPD1    H5 3004   0.172   0.409  17.032 -3.7541  0.4635 -0.5573
  197MPD1    N1 3005   4.585   0.322  17.496 -0.2805 -0.2736  0.6021
  197MPD1    H6 3006   4.514   0.380  17.540 -1.9415 -2.3099  0.6022
  197MPD1    H7 3007   4.674   0.320  17.545  0.0648  0.0273 -0.0043
  198MPD1     C 3008   2.228   3.445  15.811 -0.1636 -0.1914  0.1398
  198MPD1    C1 3009   2.332   3.473  15.726 -0.0881 -0.4749  0.0135
  198MPD1    C2 3010   2.431   3.558  15.763 -0.1936  0.8107  0.0068
  198MPD1    C3 3011   2.443   3.592  15.898 -0.7550  0.6742 -0.8200
  198MPD1    C4 3012   2.345   3.556  15.986 -0.4836 -0.9712 -0.4326
  198MPD1    C5 3013   2.228   3.495  15.938  0.5267 -0.2348 -0.0624
  198MPD1     H 3014   2.503   3.596  15.690  1.9751 -2.3429  0.5047
  198MPD1    H1 3015   2.346   3.592  16.088 -0.8869 -0.7783 -0.4952
  198MPD1    H2 3016   2.141   3.393  15.773  0.6807 -1.7982  0.4329
  198MPD1    H3 3017   2.158   3.484  16.020  0.0082  0.4337 -0.4198
  198MPD1     N 3018   2.548   3.680  15.926 -0.4861 -0.2417  0.0808
  198MPD1    H5 3019   2.610   3.707  15.850  0.1477 -0.7630  0.4077
  198MPD1    N1 3020   2.325   3.441  15.585 -0.2110  0.0912 -0.8796
  198MPD1    H6 3021   2.274   3.353  15.582  0.0955 -0.0262 -2.8150
  198MPD1    H7 3022   2.415   3.402  15.560 -0.9021 -1.8264 -0.3639
  199MPD1     C 3023   0.794   0.513  10.003 -0.1333 -0.3803 -0.1841
  199MPD1    C1 3024   0.713   0.400  10.005 -0.4614 -0.2072  0.1668
  199MPD1    C2 3025   0.633   0.361   9.903  0.4472 -0.2205 -0.4354
  199MPD1    C3 3026   0.612   0.442   9.795  0.0766  0.4868 -0.2769
  199MPD1    C4 3027   0.680   0.562   9.797  0.5320 -0.4008 -0.2979
  199MPD1    C5 3028   0.767   0.594   9.898  0.6104 -0.2512 -0.2464
  199MPD1     H 3029   0.594   0.261   9.913  2.5165 -1.3736 -3.8882
  199MPD1    H1 3030   0.672   0.638   9.720  0.3928  1.6082  1.7114
  199MPD1    H2 3031   0.865   0.534  10.082  1.1247 -4.1421 -0.3110
  199MPD1    H3 3032   0.823   0.686   9.889 -0.8177  0.6519  0.0969
  199MPD1     N 3033   0.526   0.415   9.689 -0.3925 -0.0165  0.2982
  199MPD1    H5 3034   0.518   0.490   9.621 -0.4066 -0.4033 -0.1234
  199MPD1    N1 3035   0.734   0.308  10.112  1.0374  0.2215  0.1082
  199MPD1    H6 3036   0.643   0.267  10.129  0.7191  0.0734 -2.0227
  199MPD1    H7 3037   0.751   0.353  10.202 -0.1372  0.9757 -0.0428
  200MPD1     C 3038   3.322   4.558  15.043 -0.2155  0.9656  0.1877
  200MPD1    C1 3039   3.342   4.471  14.936  0.3229 -0.4640 -0.0437
  200MPD1    C2 3040   3.456   4.477  14.864  0.1014  0.0868  0.5028
  200MPD1    C3 3041   3.548   4.581  14.880 -0.1995  0.7228 -0.2332
  200MPD1    C4 3042   3.535   4.661  14.992  0.4319  1.0079 -0.1441
  200MPD1    C5 3043   3.424   4.644  15.071  0.5316  0.2304  0.5600
  200MPD1     H 3044   3.466   4.412  14.778  1.4378 -1.3398  1.7537
  200MPD1    H1 3045   3.608   0.010  15.019 -0.8595  1.4032  2.2766
  200MPD1    H2 3046   3.245   4.558  15.120 -0.5986 -1.2127 -0.1999
  200MPD1    H3 3047   3.419   4.704  15.161  2.7194 -0.5961  1.2296
  200MPD1     N 3048   3.650   4.592  14.791 -0.2986 -0.2423 -0.3213
  200MPD1    H5 3049   3.653   4.512  14.728  1.2021 -0.9653  0.6827
  200MPD1    N1 3050   3.239   4.387  14.894 -0.1909 -0.0152  0.8539
  200MPD1    H6 3051   3.161   4.375  14.958  0.3277  1.8330  1.8417
  200MPD1    H7 3052   3.281   4.299  14.864 -0.4456 -0.0967  0.7369
  201MPD1     C 3053   1.166   4.063  12.958 -0.2082  0.2001  0.1541
  201MPD1    C1 3054   1.136   3.963  12.865 -0.2570  0.3160 -0.1084
  201MPD1    C2 3055   1.109   3.842  12.915 -0.6033  0.0755  0.5190
  201MPD1    C3 3056   1.095   3.813  13.049 -0.3777 -0.6273  0.1162
  201MPD1    C4 3057   1.118   3.914  13.137 -0.1549 -0.1135 -0.3954
  201MPD1    C5 3058   1.159   4.035  13.090  0.0381 -0.6913 -0.1675
  201MPD1     H 3059   1.097   3.753  12.853 -2.1944 -0.0464  1.0062
  201MPD1    H1 3060   1.109   3.901  13.245 -0.4583 -0.8553 -0.5109
  201MPD1    H2 3061   1.211   4.157  12.929 -0.1410  0.4357  1.0114
  201MPD1    H3 3062   1.183   4.109  13.165 -0.8434 -2.1683  1.5706
  201MPD1     N 3063   1.061   3.680  13.090 -0.2631 -0.5114  0.1631
  201MPD1    H5 3064   1.065   3.610  13.017  0.7367  0.9250 -1.1684
  201MPD1    N1 3065   1.160   3.982  12.729 -0.4572  0.0314 -0.2996
  201MPD1    H6 3066   1.115   3.911  12.670 -1.7009 -0.7236  1.5653
  201MPD1    H7 3067   1.121   4.073  12.705  2.5383  0.6683 -2.7281
  202MPD1     C 3068   1.189   3.277   9.399  0.2666 -0.4687 -0.0260
  202MPD1    C1 3069   1.159   3.144   9.420 -0.7005 -0.0251 -0.5698
  202MPD1    C2 3070   1.195   3.086   9.542 -0.1657  0.0117 -0.4519
  202MPD1    C3 3071   1.303   3.141   9.618 -0.0525  0.2860  0.7838
  202MPD1    C4 3072   1.347   3.267   9.575  0.2970 -0.2980  0.7802
  202MPD1    C5 3073   1.290   3.330   9.471 -0.3502 -0.2620 -0.3074
  202MPD1     H 3074   1.156   2.987   9.564  2.1770 -0.9692 -0.7451
  202MPD1    H1 3075   1.412   3.326   9.638  1.6241 -3.0587  1.9777
  202MPD1    H2 3076   1.152   3.340   9.320 -1.0792  2.1616  2.6882
  202MPD1    H3 3077   1.317   3.434   9.457 -1.8193  0.0844 -0.5534
  202MPD1     N 3078   1.339   3.102   9.747 -0.1396 -0.5334 -0.3928
  202MPD1    H5 3079   1.387   3.168   9.808 -0.5598 -2.1218  1.6458
  202MPD1    N1 3080   1.045   3.089   9.355 -0.1431  0.7694  0.0582
  202MPD1    H6 3081   1.047   2.987   9.352 -2.1459  0.6125  4.4814
  202MPD1    H7 3082   1.029   3.123   9.260  2.8796 -0.7399 -1.0129
  203MPD1     C 3083   0.655   4.719  12.333 -0.3164  0.7678  0.1544
  203MPD1    C1 3084   0.736   4.620  12.286 -0.0430  0.2332  0.2183
  203MPD1    C2 3085   0.727   4.502  12.358  0.4980 -0.3224 -0.1163
  203MPD1    C3 3086   0.672   4.492  12.487  0.6572 -0.5584  0.8295
  203MPD1    C4 3087   0.607   4.609  12.538 -0.1836  0.0657  0.6166
  203MPD1    C5 3088   0.600   4.722  12.458  0.3540 -1.0277  0.2775
  203MPD1     H 3089   0.776   4.419  12.310  2.1923 -1.1629  3.0253
  203MPD1    H1 3090   0.569   4.623  12.639 -2.1865 -0.4588 -0.0571
  203MPD1    H2 3091   0.651   0.084  12.274 -2.0620  0.4991 -0.1165
  203MPD1    H3 3092   0.546   0.082  12.496  2.6950  0.2100  0.8598
  203MPD1     N 3093   0.682   4.376  12.568  0.0326  0.4480 -0.0945
  203MPD1    H5 3094   0.721   4.295  12.521  1.5566  1.1000  0.0472
  203MPD1    N1 3095   0.780   4.620  12.155 -0.0054  0.1892  0.1184
  203MPD1    H6 3096   0.856   4.552  12.149  0.6027  0.8411  0.3730
  203MPD1    H7 3097   0.814   4.714  12.134  0.3024 -0.0076 -0.2678
  204MPD1     C 3098   3.999   0.251   0.296 -0.1366  0.6480 -0.4791
  204MPD1    C1 3099   3.947   0.129   0.317 -0.2671  0.1469 -0.2867
  204MPD1    C2 3100   3.916   0.055   0.208  0.3766  0.0732 -0.4076
  204MPD1    C3 3101   3.923   0.109   0.076  0.4748  0.6128 -0.2006
  204MPD1    C4 3102   3.977   0.235   0.059  0.9288  0.7223  0.2180
  204MPD1    C5 3103   4.010   0.305   0.168 -0.2631  0.1690 -0.2758
  204MPD1     H 3104   3.888   4.678   0.227  0.4857 -0.2314 -1.8696
  204MPD1    H1 3105   3.991   0.285  17.669 -0.1301 -0.2984 -0.4914
  204MPD1    H2 3106   4.024   0.315   0.380 -2.8246  1.1557 -0.0740
  204MPD1    H3 3107   4.038   0.409   0.155  1.1320  0.0372  1.4728
  204MPD1     N 3108   3.901   0.026  17.674  0.3315  0.1272 -0.1354
  204MPD1    H5 3109   3.890   4.652  17.688  1.6529 -0.0718 -0.5271
  204MPD1    N1 3110   3.950   0.079   0.445 -0.4008 -0.0879  0.3671
  204MPD1    H6 3111   3.870   0.017   0.452 -0.0291 -0.6182 -0.0428
  204MPD1    H7 3112   3.928   0.152   0.513  2.1160  0.2894  0.7872
  205MPD1     C 3113   0.464   4.347  16.912  0.0926 -0.4733 -0.3184
  205MPD1    C1 3114   0.509   4.234  16.987  0.4534 -0.5029  1.2619
  205MPD1    C2 3115   0.417   4.137  17.019  0.0915 -0.1661 -0.0901
  205MPD1    C3 3116   0.284   4.151  16.976 -0.1789 -0.3774  0.6161
  205MPD1    C4 3117   0.250   4.257  16.891  0.0897  0.3547 -0.5934
  205MPD1    C5 3118   0.347   4.346  16.850  0.1113  0.1213  0.1337
  205MPD1     H 3119   0.451   4.065  17.092  2.2113 -1.3425 -2.2680
  205MPD1    H1 3120   0.148   4.254  16.853 -0.3009 -1.9935  0.6331
  205MPD1    H2 3121   0.524   4.435  16.895  0.5981 -0.7547  0.0110
  205MPD1    H3 3122   0.320   4.435  16.794 -0.8988  0.1752  0.7037
  205MPD1     N 3123   0.177   4.077  17.027 -0.1004  0.4738 -0.1322
  205MPD1    H5 3124   0.083   4.105  16.999  0.6222  1.6572 -1.3336
  205MPD1    N1 3125   0.633   4.231  17.046  0.4739  0.5548 -0.1099
  205MPD1    H6 3126   0.709   4.274  16.994 -0.4154  0.7367 -1.2631
  205MPD1    H7 3127   0.661   4.136  17.070  0.1144  0.6305  0.6058
  206MPD1     C 3128   3.965   2.384  16.373  0.4420  0.1406 -0.2052
  206MPD1    C1 3129   3.960   2.246  16.353 -0.6830  0.7189 -0.3798
  206MPD1    C2 3130   4.036   2.184  16.256 -1.2077  0.0065  0.1273
  206MPD1    C3 3131   4.098   2.259  16.161  0.3697  0.0439 -0.2665
  206MPD1    C4 3132   4.094   2.397  16.173  0.5233  0.2558  0.3391
  206MPD1    C5 3133   4.027   2.453  16.273  0.0813 -0.1084 -0.1143
  206MPD1     H 3134   4.059   2.079  16.263 -0.8373  0.0419 -0.6037
  206MPD1    H1 3135   4.139   2.469  16.106 -3.9863 -0.1198 -3.0812
  206MPD1    H2 3136   3.917   2.439  16.452 -0.1426 -2.0984  1.0054
  206MPD1    H3 3137   4.017   2.561  16.276 -1.2409 -0.2670  1.7784
  206MPD1     N 3138   4.156   2.207  16.048 -0.1004 -0.1311 -0.3444
  206MPD1    H5 3139   4.208   2.271  15.988 -0.4733 -0.5398 -1.1075
  206MPD1    N1 3140   3.915   2.172  16.465 -0.3222 -0.2206 -0.0250
  206MPD1    H6 3141   3.890   2.076  16.439  0.2750  0.1554 -1.9972
  206MPD1    H7 3142   3.834   2.212  16.512  0.3710  1.5699 -0.3616
  207MPD1     C 3143   1.634   3.402  10.340  0.2783  0.0576  0.4373
  207MPD1    C1 3144   1.707   3.328  10.428 -0.1657  0.2103  0.7287
  207MPD1    C2 3145   1.826   3.385  10.474 -0.4104 -0.3363 -0.4346
  207MPD1    C3 3146   1.881   3.495  10.416  0.2550 -0.3231 -0.9141
  207MPD1    C4 3147   1.818   3.557  10.315  0.1434 -0.4637 -0.1478
  207MPD1    C5 3148   1.688   3.512  10.277  0.7453 -0.4515 -1.0899
  207MPD1     H 3149   1.873   3.328  10.553  1.6149  1.6192 -0.2207
  207MPD1    H1 3150   1.861   3.647  10.273 -0.7244  0.7838  1.6548
  207MPD1    H2 3151   1.540   3.354  10.315  0.8145 -0.6713 -0.1782
  207MPD1    H3 3152   1.633   3.569  10.203  0.4274  0.4430 -0.1729
  207MPD1     N 3153   2.004   3.551  10.460 -0.0076  0.6876 -0.2812
  207MPD1    H5 3154   2.044   3.632  10.413 -2.5731  2.4993  0.6519
  207MPD1    N1 3155   1.637   3.232  10.504 -0.3475 -0.3530 -0.0232
  207MPD1    H6 3156   1.707   3.163  10.529 -2.1979 -2.1018  0.3558
  207MPD1    H7 3157   1.560   3.192  10.450 -0.6234 -0.6738  0.6108
  208MPD1     C 3158   0.538   2.028  17.203  0.4648 -0.0097  0.4884
  208MPD1    C1 3159   0.535   2.071  17.337  0.4375  0.1460 -1.1844
  208MPD1    C2 3160   0.512   2.209  17.357 -0.0289 -0.9318  0.5869
  208MPD1    C3 3161   0.477   2.292  17.248  0.4936  0.4626 -0.2851
  208MPD1    C4 3162   0.501   2.244  17.118 -0.1040  0.9704 -0.3739
  208MPD1    C5 3163   0.513   2.108  17.098 -0.2221 -0.1636 -0.4417
  208MPD1     H 3164   0.507   2.240  17.461 -1.7648 -0.5781  0.3992
  208MPD1    H1 3165   0.484   2.294  17.023  0.3934 -1.5580 -1.7949
  208MPD1    H2 3166   0.568   1.926  17.181 -1.2371 -0.5591  0.7372
  208MPD1    H3 3167   0.529   2.076  16.996  1.7463 -2.3443  0.5530
  208MPD1     N 3168   0.446   2.425  17.270 -0.1480  0.4232  0.3947
  208MPD1    H5 3169   0.441   2.457  17.366 -1.7662  0.3446  0.3409
  208MPD1    N1 3170   0.569   1.983  17.435  0.2764  0.1937 -0.2370
  208MPD1    H6 3171   0.539   1.890  17.408  0.0486 -0.3208  1.7940
  208MPD1    H7 3172   0.536   2.010  17.527 -2.3140 -3.3190 -0.1669
  209MPD1     C 3173   2.591   2.814  11.724 -0.5493  0.6232 -0.4288
  209MPD1    C1 3174   2.609   2.892  11.836  0.1487 -0.6275 -0.2620
  209MPD1    C2 3175   2.548   3.012  11.844  0.1783  0.2148 -0.6873
  209MPD1    C3 3176   2.478   3.058  11.730  0.3115 -0.0381 -0.0027
  209MPD1    C4 3177   2.452   2.980  11.621 -0.3820  0.0594 -0.0425
  209MPD1    C5 3178   2.506   2.855  11.625 -0.3306 -0.5425 -0.2081
  209MPD1     H 3179   2.572   3.077  11.927 -0.5470 -1.3228  0.7163
  209MPD1    H1 3180   2.393   3.000  11.533 -0.3462 -0.7272 -0.2452
  209MPD1    H2 3181   2.634   2.714  11.724 -1.1107  0.3825  0.9496
  209MPD1    H3 3182   2.503   2.795  11.535 -1.3730  2.5747 -2.2356
  209MPD1     N 3183   2.452   3.197  11.728 -0.7447 -0.0825 -0.9830
  209MPD1    H5 3184   2.470   3.252  11.812  0.5088 -1.7703 -0.1345
  209MPD1    N1 3185   2.677   2.844  11.951  0.0095 -0.4329 -0.2002
  209MPD1    H6 3186   2.703   2.925  12.008 -1.4527 -0.4334  0.4608
  209MPD1    H7 3187   2.747   2.772  11.933  0.6188 -0.4164  2.0335
  210MPD1     C 3188   2.178   3.793  12.321 -0.5494 -0.1746 -0.3375
  210MPD1    C1 3189   2.281   3.854  12.255  1.1676 -0.4421 -0.7957
  210MPD1    C2 3190   2.302   3.826  12.120  0.1242 -0.2941  0.0380
  210MPD1    C3 3191   2.239   3.720  12.060  0.2133 -0.4620 -0.6120
  210MPD1    C4 3192   2.144   3.644  12.133  0.4182 -0.0967 -0.5211
  210MPD1    C5 3193   2.104   3.697  12.251  0.7631  0.8300  0.5718
  210MPD1     H 3194   2.370   3.890  12.064  2.4477  0.4276  3.6502
  210MPD1    H1 3195   2.088   3.560  12.094  1.1934 -0.1308 -1.5614
  210MPD1    H2 3196   2.133   3.818  12.416 -0.9183 -0.5186 -0.4208
  210MPD1    H3 3197   2.014   3.669  12.304 -0.2637  0.7734 -1.2313
  210MPD1     N 3198   2.267   3.672  11.927  0.0994 -0.5596  0.1609
  210MPD1    H5 3199   2.190   3.618  11.890  1.9151 -2.1015 -1.3962
  210MPD1    N1 3200   2.342   3.960  12.317  0.0523  0.3150 -0.1559
  210MPD1    H6 3201   2.330   3.960  12.418  1.6391  1.1285  0.0391
  210MPD1    H7 3202   2.437   3.975  12.284  0.6136  0.0314  1.3540
  211MPD1     C 3203   0.755   3.753  16.332 -1.2192  0.6305 -0.3230
  211MPD1    C1 3204   0.704   3.865  16.272  0.3625  0.4757 -0.5990
  211MPD1    C2 3205   0.571   3.869  16.262 -0.2071  0.2879  0.5089
  211MPD1    C3 3206   0.489   3.766  16.302 -0.6177  1.0061  1.1198
  211MPD1    C4 3207   0.544   3.649  16.348  0.1163  0.5358 -0.0103
  211MPD1    C5 3208   0.677   3.642  16.355  0.3437  0.6188 -0.0613
  211MPD1     H 3209   0.529   3.956  16.212  0.9267 -0.0111 -0.9963
  211MPD1    H1 3210   0.489   3.559  16.370  1.2899 -0.0683  0.4457
  211MPD1    H2 3211   0.862   3.745  16.352 -0.8934  2.6589 -1.1644
  211MPD1    H3 3212   0.725   3.553  16.394 -1.2547 -1.0186 -1.8772
  211MPD1     N 3213   0.354   3.785  16.291  0.5876  0.2309 -0.1693
  211MPD1    H5 3214   0.316   3.868  16.245  3.9730  2.4086  0.9449
  211MPD1    N1 3215   0.785   3.982  16.258 -0.8497 -0.4626  0.1558
  211MPD1    H6 3216   0.885   3.967  16.253 -0.4906  2.0279 -0.0744
  211MPD1    H7 3217   0.762   4.043  16.180 -1.4439 -2.7036 -1.4170
  212MPD1     C 3218   3.495   2.564  16.284  0.3883  0.1148 -0.1397
  212MPD1    C1 3219   3.590   2.465  16.266  0.6935 -0.2184  0.0889
  212MPD1    C2 3220   3.564   2.347  16.327  0.0261 -0.1692  0.8931
  212MPD1    C3 3221   3.461   2.331  16.417 -0.4174 -0.4685  0.3724
  212MPD1    C4 3222   3.376   2.435  16.440  0.0607  0.2791 -0.0278
  212MPD1    C5 3223   3.393   2.555  16.376 -0.1015  0.2795  0.1398
  212MPD1     H 3224   3.628   2.260  16.314 -2.2624 -1.5527 -0.9368
  212MPD1    H1 3225   3.301   2.435  16.518 -1.2603 -0.9637 -1.3071
  212MPD1    H2 3226   3.500   2.662  16.238 -0.7606  0.7621  1.1046
  212MPD1    H3 3227   3.322   2.636  16.386 -1.4400 -0.8427 -0.3241
  212MPD1     N 3228   3.436   2.219  16.499  0.9448 -0.1040  0.0180
  212MPD1    H5 3229   3.353   2.225  16.557  0.5803 -0.4579 -0.4658
  212MPD1    N1 3230   3.687   2.479  16.164 -0.9953  0.1760  0.2220
  212MPD1    H6 3231   3.764   2.423  16.198 -0.4263  0.5126 -0.5220
  212MPD1    H7 3232   3.717   2.576  16.164 -0.1079 -0.1108  1.1071
  213MPD1     C 3233   2.181   2.764  15.869  0.3785 -0.2827 -0.2940
  213MPD1    C1 3234   2.204   2.759  15.733 -0.3655 -0.3350 -0.0215
  213MPD1    C2 3235   2.098   2.798  15.649  0.1876 -0.1238  0.5784
  213MPD1    C3 3236   1.967   2.804  15.699 -0.0416 -0.2792 -0.3871
  213MPD1    C4 3237   1.954   2.796  15.836  0.2947  0.5453 -0.2540
  213MPD1    C5 3238   2.058   2.785  15.915 -0.6016 -0.4017 -0.2442
  213MPD1     H 3239   2.107   2.797  15.541 -0.5795 -1.9592  0.5264
  213MPD1    H1 3240   1.856   2.803  15.883 -1.2254 -0.4773 -3.3046
  213MPD1    H2 3241   2.268   2.757  15.934 -0.3505 -1.4337  0.5461
  213MPD1    H3 3242   2.045   2.778  16.022  0.2725 -0.7387 -0.1563
  213MPD1     N 3243   1.864   2.814  15.606 -0.4342  0.6658 -0.0438
  213MPD1    H5 3244   1.888   2.802  15.509 -2.0420 -0.4592 -0.2981
  213MPD1    N1 3245   2.331   2.769  15.686  0.0224  0.5525  0.3622
  213MPD1    H6 3246   2.323   2.740  15.588  0.2074 -3.0885  1.4243
  213MPD1    H7 3247   2.392   2.702  15.732  0.5146  1.1020  0.5054
  214MPD1     C 3248   1.462   2.026  15.512  0.4101 -0.0543  0.1408
  214MPD1    C1 3249   1.419   2.092  15.397 -0.5316  0.1716 -0.1844
  214MPD1    C2 3250   1.446   2.222  15.377  0.6287 -0.1551 -0.3844
  214MPD1    C3 3251   1.492   2.305  15.482  0.0378 -0.0827  0.3247
  214MPD1    C4 3252   1.533   2.241  15.595 -0.0179  0.0828 -0.2728
  214MPD1    C5 3253   1.512   2.102  15.611  0.3088 -0.3736  0.3626
  214MPD1     H 3254   1.435   2.266  15.279  1.3522  0.1245 -0.3427
  214MPD1    H1 3255   1.576   2.298  15.677 -0.0348 -0.6441  0.2438
  214MPD1    H2 3256   1.453   1.918  15.521 -0.3719  0.2042  2.5825
  214MPD1    H3 3257   1.549   2.055  15.701 -2.5257  0.0817  1.7515
  214MPD1     N 3258   1.518   2.449  15.473 -0.2647  0.2330 -0.3613
  214MPD1    H5 3259   1.569   2.491  15.550 -3.0269  0.6557  1.2347
  214MPD1    N1 3260   1.363   2.015  15.290  0.3875 -0.7380 -0.3510
  214MPD1    H6 3261   1.295   2.063  15.231  0.5791 -0.5414 -0.4101
  214MPD1    H7 3262   1.330   1.923  15.319 -2.0031  0.1833 -0.1857
  215MPD1     C 3263   2.083   3.604  11.368 -0.3594 -0.3454  0.0550
  215MPD1    C1 3264   2.033   3.680  11.466  0.4070 -0.6179 -0.0876
  215MPD1    C2 3265   2.108   3.794  11.501 -0.5552 -0.5228 -0.1214
  215MPD1    C3 3266   2.199   3.852  11.419 -0.0600  0.1249 -0.7707
  215MPD1    C4 3267   2.237   3.776  11.308 -0.4441  0.1386 -0.4752
  215MPD1    C5 3268   2.185   3.653  11.288  0.0462  0.2820 -0.1317
  215MPD1     H 3269   2.066   3.853  11.582  1.1349 -3.6727  3.0438
  215MPD1    H1 3270   2.310   3.818  11.239 -0.9575  1.9793  0.1065
  215MPD1    H2 3271   2.036   3.511  11.339  0.0632 -0.6404  0.3091
  215MPD1    H3 3272   2.215   3.598  11.199  1.4266 -0.8628  1.0432
  215MPD1     N 3273   2.245   3.979  11.457 -0.1551  0.0767  0.7544
  215MPD1    H5 3274   2.214   4.019  11.545 -0.3820 -1.4129  1.3539
  215MPD1    N1 3275   1.930   3.644  11.550 -0.1950 -0.0557  0.7964
  215MPD1    H6 3276   1.884   3.723  11.595  1.2112  1.0508  0.2998
  215MPD1    H7 3277   1.863   3.592  11.494 -0.0045 -0.8522  1.3024
  216MPD1     C 3278   3.849   1.828  16.482 -0.4683 -0.1961 -0.0063
  216MPD1    C1 3279   3.870   1.729  16.385 -0.0603  0.3466 -0.0678
  216MPD1    C2 3280   3.927   1.609  16.424 -0.2241 -0.7011  0.2486
  216MPD1    C3 3281   3.949   1.578  16.559  0.6312 -0.4111 -0.1367
  216MPD1    C4 3282   3.910   1.676  16.652  0.1230 -0.0910  0.1866
  216MPD1    C5 3283   3.862   1.795  16.614  0.0391 -0.1468  0.2792
  216MPD1     H 3284   3.945   1.540  16.342 -2.6902 -1.5635  0.4387
  216MPD1    H1 3285   3.914   1.663  16.759 -3.4153  0.3769  0.3672
  216MPD1    H2 3286   3.822   1.929  16.456 -0.9581 -0.4827 -0.5961
  216MPD1    H3 3287   3.836   1.856  16.700  0.5077 -0.4854  0.6567
  216MPD1     N 3288   3.988   1.444  16.599 -0.1999  0.4352 -0.4324
  216MPD1    H5 3289   4.009   1.381  16.522  1.3385  1.1833 -0.6215
  216MPD1    N1 3290   3.873   1.766  16.251 -0.2764  0.0240  0.2760
  216MPD1    H6 3291   3.859   1.681  16.196  2.7433 -1.1103  1.2326
  216MPD1    H7 3292   3.800   1.832  16.224 -1.3291 -1.7419 -1.1940
  217MPD1     C 3293   3.980   3.219   9.142 -0.1938 -0.7344  0.5474
  217MPD1    C1 3294   4.077   3.124   9.118 -0.9660  0.4635 -0.1461
  217MPD1    C2 3295   4.205   3.141   9.164 -0.0743  0.8409 -0.2827
  217MPD1    C3 3296   4.238   3.266   9.214 -0.4386 -0.4785 -0.3415
  217MPD1    C4 3297   4.143   3.368   9.219  0.4318  0.3699 -0.0476
  217MPD1    C5 3298   4.012   3.341   9.185 -0.6166  0.3215 -0.4534
  217MPD1     H 3299   4.278   3.062   9.151 -1.5842 -0.7309  0.8157
  217MPD1    H1 3300   4.175   3.467   9.250 -1.9048  0.1529  3.0312
  217MPD1    H2 3301   3.877   3.211   9.109 -0.4760 -4.0181  2.2689
  217MPD1    H3 3302   3.938   3.420   9.190  0.2667  1.1198  0.2338
  217MPD1     N 3303   4.363   3.300   9.266  0.4835 -0.0374  0.1372
  217MPD1    H5 3304   4.370   3.392   9.308 -0.4428 -0.6135  1.5590
  217MPD1    N1 3305   4.045   3.004   9.069 -0.0250 -0.0885  0.4134
  217MPD1    H6 3306   3.961   3.003   9.012  2.6609 -0.1828 -3.5497
  217MPD1    H7 3307   4.118   2.963   9.011 -0.3282 -1.0258  0.6906
  218MPD1     C 3308   1.742   3.616  13.372 -0.2217 -0.2052 -0.0999
  218MPD1    C1 3309   1.782   3.494  13.332  1.3896  0.0540  0.3378
  218MPD1    C2 3310   1.879   3.482  13.239  0.6522  0.5574  0.2105
  218MPD1    C3 3311   1.955   3.594  13.200 -0.4653 -0.3435 -0.3951
  218MPD1    C4 3312   1.906   3.723  13.238 -0.3612  0.9149 -0.5870
  218MPD1    C5 3313   1.797   3.732  13.328 -0.2137 -0.0737 -0.1996
  218MPD1     H 3314   1.912   3.383  13.210 -2.9674 -0.9243  1.1341
  218MPD1    H1 3315   1.954   3.812  13.198  1.4822  0.5153  0.7501
  218MPD1    H2 3316   1.665   3.618  13.448 -0.7809 -3.2428 -0.5836
  218MPD1    H3 3317   1.771   3.829  13.367 -0.3036  0.0121 -0.4722
  218MPD1     N 3318   2.063   3.575  13.104 -0.4012 -0.1283  0.1608
  218MPD1    H5 3319   2.092   3.481  13.081  0.0862 -0.4382  2.0176
  218MPD1    N1 3320   1.694   3.387  13.374  0.3114 -0.2053  0.3174
  218MPD1    H6 3321   1.661   3.401  13.469 -1.1481  0.8572 -0.3539
  218MPD1    H7 3322   1.731   3.293  13.363 -1.7191 -0.6921 -2.2046
  219MPD1     C 3323   2.800   4.177  12.740 -0.0441  0.1469 -0.0187
  219MPD1    C1 3324   2.710   4.145  12.648 -0.0690 -0.4960  0.0562
  219MPD1    C2 3325   2.632   4.032  12.660  0.2267 -0.1542  0.7628
  219MPD1    C3 3326   2.657   3.946  12.766  0.0201  0.3313  0.0416
  219MPD1    C4 3327   2.756   3.975  12.857 -0.8499  0.5514 -0.0290
  219MPD1    C5 3328   2.835   4.088  12.831 -0.6556 -0.4267 -0.5020
  219MPD1     H 3329   2.560   4.012  12.581  1.4764 -0.6915 -0.2401
  219MPD1    H1 3330   2.784   3.906  12.935 -0.6537  0.9074  0.2141
  219MPD1    H2 3331   2.847   4.274  12.730  1.2270 -0.7311 -2.5023
  219MPD1    H3 3332   2.914   4.104  12.903 -1.1479  2.0695 -0.5479
  219MPD1     N 3333   2.570   3.834  12.795 -0.3087  0.0989  0.0446
  219MPD1    H5 3334   2.593   3.784  12.881  1.4379  0.1378 -0.3891
  219MPD1    N1 3335   2.662   4.241  12.551  0.3831  0.8925 -0.4071
  219MPD1    H6 3336   2.629   4.199  12.464 -0.9056 -0.9053  0.9617
  219MPD1    H7 3337   2.740   4.301  12.524  2.4070 -0.4708  2.4814
  220MPD1     C 3338   2.291   4.252   9.693 -0.1824  0.2673 -0.4011
  220MPD1    C1 3339   2.303   4.127   9.749  0.0979  0.2959 -0.5422
  220MPD1    C2 3340   2.321   4.118   9.884  0.5994 -0.1971  0.1375
  220MPD1    C3 3341   2.354   4.239   9.955  0.4687  0.4249 -0.6234
  220MPD1    C4 3342   2.365   4.360   9.896  1.0166 -0.4962  0.3299
  220MPD1    C5 3343   2.328   4.366   9.766 -0.6359  0.0290  0.0779
  220MPD1     H 3344   2.305   4.025   9.938  1.4711  0.1891  1.0596
  220MPD1    H1 3345   2.382   4.457   9.943 -1.3458  0.6770 -1.2099
  220MPD1    H2 3346   2.249   4.265   9.594 -1.0976  0.7785  0.0467
  220MPD1    H3 3347   2.341   4.465   9.723  0.9595  0.3432  1.2895
  220MPD1     N 3348   2.389   4.224  10.093  0.5151 -0.9251 -0.3581
  220MPD1    H5 3349   2.387   4.130  10.131 -2.2813 -1.1027 -0.9365
  220MPD1    N1 3350   2.240   4.022   9.679 -0.4821  0.5633  0.1865
  220MPD1    H6 3351   2.241   4.032   9.577 -2.6465  0.2664  0.1374
  220MPD1    H7 3352   2.263   3.928   9.709  0.6891  0.9821  0.6190
  221MPD1     C 3353   3.606   3.509  16.752  0.2458 -0.1181 -0.1011
  221MPD1    C1 3354   3.614   3.613  16.670 -0.9260  0.2781  0.1104
  221MPD1    C2 3355   3.701   3.606  16.562 -0.4216  0.4707 -0.7817
  221MPD1    C3 3356   3.785   3.496  16.545 -0.5059 -0.9491 -0.3547
  221MPD1    C4 3357   3.778   3.389  16.627 -0.6230 -0.5405  0.1855
  221MPD1    C5 3358   3.692   3.397  16.735 -0.0843 -0.0678 -0.0809
  221MPD1     H 3359   3.692   3.688  16.491 -2.8903  0.1444 -0.8392
  221MPD1    H1 3360   3.833   3.299  16.603 -0.1237 -0.9402  2.8803
  221MPD1    H2 3361   3.530   3.493  16.828 -1.5341  0.3195 -1.7848
  221MPD1    H3 3362   3.676   3.316  16.805 -2.5201  0.1160 -0.4061
  221MPD1     N 3363   3.876   3.479  16.439  0.1263  0.2784  0.0123
  221MPD1    H5 3364   3.925   3.391  16.428 -2.2673 -0.7479 -2.3479
  221MPD1    N1 3365   3.513   3.715  16.675  0.0450 -0.2361 -0.2568
  221MPD1    H6 3366   3.534   3.793  16.613  1.9926 -1.9695 -1.7820
  221MPD1    H7 3367   3.499   3.759  16.766 -0.6061  1.0962 -1.0033
  222MPD1     C 3368   3.560   1.095  16.770 -0.1896  0.1585  0.3539
  222MPD1    C1 3369   3.525   0.989  16.848  0.1193  0.0885 -0.1927
  222MPD1    C2 3370   3.512   1.001  16.985  0.0864 -0.3676 -0.2771
  222MPD1    C3 3371   3.532   1.125  17.049  0.6081 -0.1226  0.7026
  222MPD1    C4 3372   3.598   1.222  16.971 -0.3659 -0.9108 -0.6988
  222MPD1    C5 3373   3.611   1.205  16.830 -0.4933  0.6242 -0.0995
  222MPD1     H 3374   3.459   0.926  17.043 -0.3544 -0.8528 -1.2984
  222MPD1    H1 3375   3.625   1.320  17.009  0.9893 -1.2302 -0.8494
  222MPD1    H2 3376   3.575   1.096  16.662  0.7593  1.5451  0.4947
  222MPD1    H3 3377   3.643   1.287  16.768 -0.8038  2.1648  1.7977
  222MPD1     N 3378   3.490   1.163  17.178  0.2498 -0.2512  0.8460
  222MPD1    H5 3379   3.516   1.256  17.210  2.0874 -0.1588 -0.8238
  222MPD1    N1 3380   3.475   0.872  16.784 -0.3698  0.3445  0.4235
  222MPD1    H6 3381   3.537   0.855  16.705 -0.0350 -0.6694  0.9081
  222MPD1    H7 3382   3.486   0.793  16.847 -0.6807 -0.2749 -0.3042
  223MPD1     C 3383   3.481   0.603   0.286  0.2552  0.9137 -0.2721
  223MPD1    C1 3384   3.545   0.593   0.166  0.2273 -0.8960  0.2438
  223MPD1    C2 3385   3.517   0.683   0.068  0.0019 -0.2569  0.2205
  223MPD1    C3 3386   3.424   0.789   0.091  0.2527 -1.3912  0.1612
  223MPD1    C4 3387   3.345   0.786   0.202  0.2038  0.0243 -0.3857
  223MPD1    C5 3388   3.377   0.694   0.295  0.2012 -0.0209 -0.4972
  223MPD1     H 3389   3.575   0.681  17.681 -1.6309 -1.9435 -0.7727
  223MPD1    H1 3390   3.259   0.850   0.215 -0.5530 -1.3094  1.2953
  223MPD1    H2 3391   3.501   0.535   0.368 -0.2689  1.1839  0.0811
  223MPD1    H3 3392   3.318   0.698   0.386 -1.5939 -0.6272 -1.6622
  223MPD1     N 3393   3.414   0.888  17.697  0.4042  0.1441  0.1877
  223MPD1    H5 3394   3.467   0.873  17.612  1.8458 -0.6196  1.2116
  223MPD1    N1 3395   3.655   0.506   0.160 -0.0999 -0.4643  0.1578
  223MPD1    H6 3396   3.650   0.423   0.218  0.9465 -0.1619  0.6917
  223MPD1    H7 3397   3.689   0.483   0.067  0.0186 -0.6168  0.2389
  224MPD1     C 3398   1.521   4.133   9.528  0.3916  0.1914  0.4642
  224MPD1    C1 3399   1.490   4.132   9.659  0.5800  0.2696  0.0142
  224MPD1    C2 3400   1.367   4.073   9.695 -0.1937 -0.1227 -0.1330
  224MPD1    C3 3401   1.273   4.033   9.602  0.3502 -0.1316 -0.1626
  224MPD1    C4 3402   1.303   4.043   9.468  0.1301  0.1868 -0.7755
  224MPD1    C5 3403   1.427   4.095   9.438  0.0390 -0.1438 -0.3400
  224MPD1     H 3404   1.354   4.064   9.803  0.2207 -2.1466 -0.2507
  224MPD1    H1 3405   1.232   4.003   9.396  0.6511  1.5740 -2.0608
  224MPD1    H2 3406   1.623   4.153   9.496 -1.1805  2.5424 -3.0319
  224MPD1    H3 3407   1.456   4.087   9.334  0.6684 -2.8012  0.0346
  224MPD1     N 3408   1.147   3.983   9.634 -0.1751  0.0888 -0.7945
  224MPD1    H5 3409   1.080   3.963   9.560 -2.0353 -1.5146  1.3292
  224MPD1    N1 3410   1.585   4.149   9.760 -0.3294 -0.1899  0.3573
  224MPD1    H6 3411   1.546   4.190   9.844  0.1915 -1.4898  1.2256
  224MPD1    H7 3412   1.651   4.221   9.732 -0.3052 -0.6871 -0.8642
  225MPD1     C 3413   1.759   0.519  13.037  0.5545  0.3858  0.8620
  225MPD1    C1 3414   1.788   0.397  12.991  0.0860  0.7119 -0.1958
  225MPD1    C2 3415   1.752   0.357  12.866  0.2040  0.1918  0.2398
  225MPD1    C3 3416   1.662   0.432  12.790  0.8685  0.2274 -0.4857
  225MPD1    C4 3417   1.628   0.558  12.844  0.5228 -0.7909  0.1541
  225MPD1    C5 3418   1.675   0.595  12.967  0.0491 -0.1276 -0.1591
  225MPD1     H 3419   1.790   0.261  12.832  0.3658  0.4490 -0.2955
  225MPD1    H1 3420   1.553   0.621  12.798  0.0440 -1.1566  0.4364
  225MPD1    H2 3421   1.803   0.547  13.132  1.2750 -1.7107  1.1427
  225MPD1    H3 3422   1.651   0.692  13.008  2.6499 -0.4171  2.0959
  225MPD1     N 3423   1.602   0.398  12.670 -0.6330  0.0936 -1.0164
  225MPD1    H5 3424   1.534   0.461  12.629 -0.9631  0.1702 -0.3547
  225MPD1    N1 3425   1.880   0.312  13.062  0.4705  0.3547  0.1715
  225MPD1    H6 3426   1.876   0.341  13.159 -1.5223 -2.0545  0.8152
  225MPD1    H7 3427   1.846   0.217  13.047  0.1988  0.3631  0.7386
  226MPD1     C 3428   0.552   3.348   9.142  0.4708 -0.2968  0.2593
  226MPD1    C1 3429   0.467   3.428   9.059 -0.1197 -0.0088  0.3112
  226MPD1    C2 3430   0.471   3.571   9.062  0.0551 -0.4169  0.1188
  226MPD1    C3 3431   0.559   3.636   9.143 -0.1333 -0.1837  0.1886
  226MPD1    C4 3432   0.644   3.558   9.216 -0.5995  0.7309  1.5332
  226MPD1    C5 3433   0.636   3.421   9.224  0.3416 -0.0804  0.2737
  226MPD1     H 3434   0.412   3.638   9.000 -1.5822 -2.7943 -0.9198
  226MPD1    H1 3435   0.719   3.596   9.284  0.8454  1.6713 -0.5607
  226MPD1    H2 3436   0.552   3.240   9.137 -1.3286 -0.4211  3.1444
  226MPD1    H3 3437   0.706   3.370   9.289 -0.8165 -0.3558  1.3015
  226MPD1     N 3438   0.579   3.774   9.133  0.3750 -0.1993  0.0277
  226MPD1    H5 3439   0.507   3.816   9.075  0.0509  0.1590  0.6862
  226MPD1    N1 3440   0.381   3.360   8.968  0.0860 -0.9843  0.5628
  226MPD1    H6 3441   0.294   3.411   8.955  0.2935 -0.1706  2.4156
  226MPD1    H7 3442   0.362   3.270   9.010 -1.2364  0.2185  2.5327
  227MPD1     C 3443   0.249   4.526   8.630 -0.0485 -0.2562 -0.2362
  227MPD1    C1 3444   0.312   4.606   8.724 -0.5471 -0.5286 -0.7065
  227MPD1    C2 3445   0.398   4.543   8.814 -0.0431 -0.2814 -0.2093
  227MPD1    C3 3446   0.400   4.405   8.823 -0.3525  0.4115 -0.4348
  227MPD1    C4 3447   0.325   4.330   8.735  0.2512 -0.5241  0.1800
  227MPD1    C5 3448   0.256   4.388   8.632 -0.3643  0.3475 -0.3049
  227MPD1     H 3449   0.461   4.595   8.885  1.4317 -0.4883 -1.3688
  227MPD1    H1 3450   0.323   4.222   8.743  1.0795 -0.6024 -0.6551
  227MPD1    H2 3451   0.192   4.565   8.546  0.8770  0.4952 -0.5101
  227MPD1    H3 3452   0.202   4.334   8.555 -0.5032  0.0660 -0.0108
  227MPD1     N 3453   0.485   4.338   8.914 -0.2469 -0.0025 -0.0845
  227MPD1    H5 3454   0.554   4.399   8.957 -0.4312 -2.1062  3.1605
  227MPD1    N1 3455   0.313   0.016   8.721 -0.6096  0.4253 -0.0372
  227MPD1    H6 3456   0.245   0.047   8.652  0.7468  3.1771 -0.1579
  227MPD1    H7 3457   0.294   0.056   8.813 -1.9507  0.5271 -0.3478
  228MPD1     C 3458   3.578   2.430  12.425  0.1760  0.5239  0.4316
  228MPD1    C1 3459   3.493   2.412  12.323  0.0536 -0.3185  0.3814
  228MPD1    C2 3460   3.356   2.413  12.339 -0.5989 -0.1718  0.4803
  228MPD1    C3 3461   3.302   2.407  12.465  0.5275 -0.1489  0.8016
  228MPD1    C4 3462   3.386   2.419  12.571  0.2225 -0.0896  0.6582
  228MPD1    C5 3463   3.521   2.440  12.549 -0.0041 -0.1053 -0.2660
  228MPD1     H 3464   3.295   2.424  12.250  1.5992 -0.6918 -1.0762
  228MPD1    H1 3465   3.345   2.427  12.671  0.6010 -0.0437  0.8105
  228MPD1    H2 3466   3.683   2.448  12.407  0.4059  3.3639  4.5521
  228MPD1    H3 3467   3.584   2.457  12.635 -0.5550 -2.5298  0.6215
  228MPD1     N 3468   3.165   2.381  12.479  0.5220  0.0439 -0.2870
  228MPD1    H5 3469   3.115   2.381  12.391  0.5559 -4.1425 -0.3237
  228MPD1    N1 3470   3.540   2.424  12.198 -0.0284  0.4049  0.3397
  228MPD1    H6 3471   3.483   2.381  12.126  0.5407  0.5024 -0.1697
  228MPD1    H7 3472   3.637   2.399  12.183 -0.0047  1.3843 -1.2082
  229MPD1     C 3473   2.463   0.622  13.746  0.1878 -0.3464  0.1162
  229MPD1    C1 3474   2.597   0.606  13.712 -0.3776  0.4051 -0.2738
  229MPD1    C2 3475   2.683   0.634  13.817 -0.1707  0.0977  0.5025
  229MPD1    C3 3476   2.647   0.685  13.940 -0.6032  0.1932 -0.7565
  229MPD1    C4 3477   2.512   0.718  13.954  0.0478 -0.0705 -0.0239
  229MPD1    C5 3478   2.422   0.683  13.861 -0.7321 -0.0561 -0.3483
  229MPD1     H 3479   2.788   0.611  13.806  0.1057  1.9083 -0.7381
  229MPD1    H1 3480   2.470   0.748  14.050 -0.3390 -1.5082  0.2544
  229MPD1    H2 3481   2.392   0.598  13.668 -2.1926  1.3206  1.7838
  229MPD1    H3 3482   2.317   0.679  13.886 -1.0914  0.5767 -1.7178
  229MPD1     N 3483   2.736   0.706  14.048  0.2302  0.1649 -0.5685
  229MPD1    H5 3484   2.688   0.747  14.127 -0.9966 -1.6983 -0.3497
  229MPD1    N1 3485   2.643   0.545  13.588  0.0181  0.1160  0.1087
  229MPD1    H6 3486   2.735   0.576  13.558 -0.3545  1.0003 -0.1446
  229MPD1    H7 3487   2.581   0.560  13.508 -0.2442 -0.9852  0.1104
  230MPD1     C 3488   2.898   1.082  14.975  0.4937 -0.2486 -0.3508
  230MPD1    C1 3489   2.997   0.980  14.970  0.2549 -0.0275  0.0823
  230MPD1    C2 3490   3.020   0.910  14.851  0.1091  0.0929 -0.8123
  230MPD1    C3 3491   2.933   0.923  14.743 -0.2582  0.1894 -0.0364
  230MPD1    C4 3492   2.839   1.021  14.745  0.4418 -1.1014 -1.0776
  230MPD1    C5 3493   2.823   1.096  14.861  0.0149  0.5133 -0.3559
  230MPD1     H 3494   3.091   0.829  14.843  1.1998  0.8449  1.4912
  230MPD1    H1 3495   2.770   1.041  14.664 -0.0072  1.4583 -0.0645
  230MPD1    H2 3496   2.876   1.143  15.062 -1.1221  1.5934 -2.0561
  230MPD1    H3 3497   2.760   1.184  14.866 -2.0050 -1.0881  2.1430
  230MPD1     N 3498   2.956   0.838  14.627 -0.6827 -0.9634  0.0552
  230MPD1    H5 3499   3.038   0.779  14.630 -0.2270 -0.3579 -0.3189
  230MPD1    N1 3500   3.079   0.956  15.085 -0.4593  0.1387 -1.4873
  230MPD1    H6 3501   3.095   0.856  15.085 -1.8547 -0.0949 -0.4786
  230MPD1    H7 3502   3.039   0.986  15.174  1.0307  0.0125 -0.7766
  231MPD1     C 3503   0.930   2.792  15.220  0.7542  0.0903  0.3198
  231MPD1    C1 3504   0.998   2.727  15.122  0.4002  0.3851  0.4096
  231MPD1    C2 3505   1.093   2.799  15.051 -0.3191 -0.9828 -0.4710
  231MPD1    C3 3506   1.134   2.920  15.097  0.7707  0.0502 -1.3697
  231MPD1    C4 3507   1.068   2.986  15.196 -0.3181  0.8198  0.0787
  231MPD1    C5 3508   0.963   2.919  15.261  0.4837 -0.0784 -0.0001
  231MPD1     H 3509   1.146   2.748  14.971 -0.9127 -0.0756 -1.4475
  231MPD1    H1 3510   1.097   3.080  15.242  1.7700  0.8041 -1.2264
  231MPD1    H2 3511   0.856   2.732  15.272  0.9670 -2.4389 -2.3397
  231MPD1    H3 3512   0.908   2.964  15.343  0.3142  0.6457 -0.5151
  231MPD1     N 3513   1.241   2.983  15.027 -0.3344  0.7076 -0.7576
  231MPD1    H5 3514   1.269   2.951  14.935  1.5307  0.4696 -0.1064
  231MPD1    N1 3515   0.957   2.596  15.082  0.4797  0.0880  0.3177
  231MPD1    H6 3516   0.945   2.533  15.161 -0.7957  0.0147  0.0535
  231MPD1    H7 3517   1.021   2.556  15.013  2.9407  3.8082  0.4118
  232MPD1     C 3518   3.305   0.064  17.396 -0.4392 -0.1565 -0.3438
  232MPD1    C1 3519   3.258   4.713  17.499  0.1970 -0.3460 -0.0733
  232MPD1    C2 3520   3.123   4.724  17.538  0.4596 -0.1371 -0.3316
  232MPD1    C3 3521   3.047   0.108  17.489  0.2443 -0.7729 -0.2421
  232MPD1    C4 3522   3.110   0.199  17.406  0.2831  0.3852 -0.3874
  232MPD1    C5 3523   3.234   0.168  17.348  0.4075  0.4596  0.3688
  232MPD1     H 3524   3.070   4.651  17.599  1.5854 -0.4067  0.3209
  232MPD1    H1 3525   3.069   0.294  17.374  0.0426  0.7076  0.8797
  232MPD1    H2 3526   3.408   0.045  17.368 -0.0923  0.7795  0.3396
  232MPD1    H3 3527   3.273   0.241  17.279 -1.0305 -1.7109 -2.7308
  232MPD1     N 3528   2.910   0.112  17.529 -0.4240 -0.3896 -0.1294
  232MPD1    H5 3529   2.878   0.035  17.586  1.8675  0.0194  1.7409
  232MPD1    N1 3530   3.333   4.600  17.532 -0.0202  0.3243  0.1244
  232MPD1    H6 3531   3.328   4.589  17.633 -2.4003 -0.3075 -0.0611
  232MPD1    H7 3532   3.433   4.604  17.512 -0.1124 -1.5474 -0.7670
  233MPD1     C 3533   4.257   4.288   1.260 -0.2956  0.6258  0.0276
  233MPD1    C1 3534   4.339   4.244   1.371 -0.1024 -0.4039 -0.7480
  233MPD1    C2 3535   4.434   4.145   1.357  0.4893 -0.2191  0.0611
  233MPD1    C3 3536   4.452   4.085   1.232 -0.7306 -1.0848 -0.1071
  233MPD1    C4 3537   4.378   4.127   1.128 -0.1360 -0.0694 -0.1968
  233MPD1    C5 3538   4.284   4.226   1.141  0.1231 -0.1223  0.8142
  233MPD1     H 3539   4.480   4.105   1.446 -0.5355 -3.7155 -0.9951
  233MPD1    H1 3540   4.396   4.082   1.031  1.8781  0.2957  0.0091
  233MPD1    H2 3541   4.180   4.364   1.266 -1.4464 -0.3671 -1.9488
  233MPD1    H3 3542   4.233   4.258   1.051  0.4071  0.3100  0.8082
  233MPD1     N 3543   4.522   3.959   1.221 -0.5566 -0.2699 -0.1742
  233MPD1    H5 3544   4.524   3.917   1.129 -0.0903 -0.0603 -0.2623
  233MPD1    N1 3545   4.307   4.301   1.496  0.4538  0.2428  0.4307
  233MPD1    H6 3546   4.376   4.295   1.571 -0.0140  0.3608  0.8716
  233MPD1    H7 3547   4.278   4.398   1.490 -1.8210 -0.5121 -0.6178
  234MPD1     C 3548   1.127   2.085   9.667 -0.3314 -0.2509 -0.3242
  234MPD1    C1 3549   1.145   2.170   9.772  0.0223  0.0199 -0.4795
  234MPD1    C2 3550   1.106   2.300   9.764 -0.7057 -0.0684  0.1760
  234MPD1    C3 3551   1.052   2.351   9.645  0.0313 -0.1668  0.5433
  234MPD1    C4 3552   1.047   2.269   9.540 -0.2257 -0.0440 -0.3612
  234MPD1    C5 3553   1.086   2.136   9.546  0.3377  0.4029  0.1637
  234MPD1     H 3554   1.123   2.363   9.850 -0.1747  0.5775 -0.4054
  234MPD1    H1 3555   1.009   2.303   9.444  1.0136 -0.1406 -0.8837
  234MPD1    H2 3556   1.142   1.978   9.678  0.8984  0.1567  1.9688
  234MPD1    H3 3557   1.087   2.079   9.454 -1.1549 -0.7204  0.8481
  234MPD1     N 3558   1.003   2.481   9.644 -0.2108 -0.5828  0.1379
  234MPD1    H5 3559   1.021   2.539   9.725  0.0034 -0.6714  0.1528
  234MPD1    N1 3560   1.186   2.116   9.897 -0.3210 -0.1492 -0.4908
  234MPD1    H6 3561   1.251   2.041   9.873  1.1905  0.6987  0.9878
  234MPD1    H7 3562   1.239   2.183   9.952  0.0130  0.5833 -1.6919
  235MPD1     C 3563   2.232   1.647   9.744  0.0199  0.0228  0.1107
  235MPD1    C1 3564   2.358   1.664   9.798 -0.7151  0.2513  0.4341
  235MPD1    C2 3565   2.438   1.556   9.809 -0.2873  0.3612 -0.1285
  235MPD1    C3 3566   2.399   1.426   9.768  0.3987  0.3471 -0.4030
  235MPD1    C4 3567   2.274   1.410   9.710  0.5169  0.4614 -0.1850
  235MPD1    C5 3568   2.201   1.524   9.694  0.5992 -0.1096 -0.6083
  235MPD1     H 3569   2.539   1.570   9.846  0.0912 -1.7445 -0.3531
  235MPD1    H1 3570   2.234   1.318   9.669  1.3677 -0.3915  0.8936
  235MPD1    H2 3571   2.155   1.724   9.747  0.6946  0.7899 -1.7479
  235MPD1    H3 3572   2.100   1.508   9.656 -0.8503  1.0462  2.7343
  235MPD1     N 3573   2.494   1.319   9.770 -0.1061  0.3768  0.4507
  235MPD1    H5 3574   2.585   1.348   9.805  1.6675 -2.0534 -2.1852
  235MPD1    N1 3575   2.388   1.785   9.862  0.5657  0.2232  0.0809
  235MPD1    H6 3576   2.484   1.818   9.857  0.0179  1.7240 -0.3034
  235MPD1    H7 3577   2.336   1.862   9.820 -0.4841 -1.3324 -1.4736
  236MPD1     C 3578   1.707   1.839   9.697  0.0528 -0.3539  0.4181
  236MPD1    C1 3579   1.752   1.708   9.673 -0.5571  1.1899  0.3292
  236MPD1    C2 3580   1.837   1.655   9.765 -0.1786 -0.7074 -0.6574
  236MPD1    C3 3581   1.866   1.715   9.886 -0.3188  0.4578  0.5427
  236MPD1    C4 3582   1.836   1.850   9.900 -0.2631 -0.6258  0.3255
  236MPD1    C5 3583   1.751   1.906   9.812  0.5289 -0.2303  0.4976
  236MPD1     H 3584   1.883   1.561   9.737  0.3158 -0.7950  0.4500
  236MPD1    H1 3585   1.865   1.912   9.984 -0.3296 -0.1963  0.0296
  236MPD1    H2 3586   1.627   1.893   9.648 -0.6554 -2.2303 -0.5000
  236MPD1    H3 3587   1.710   2.004   9.836  1.0359 -0.0475  0.6188
  236MPD1     N 3588   1.953   1.649   9.978 -0.2836 -1.0042  0.0615
  236MPD1    H5 3589   1.997   1.707  10.048 -0.2397 -3.0811  1.7736
  236MPD1    N1 3590   1.742   1.657   9.542 -1.0405 -0.0665  0.4209
  236MPD1    H6 3591   1.729   1.557   9.534 -0.2573 -0.1985  0.8082
  236MPD1    H7 3592   1.666   1.702   9.490 -0.7844 -1.5892 -1.2758
  237MPD1     C 3593   1.675   4.019  15.237  0.0043  0.2417 -0.1391
  237MPD1    C1 3594   1.614   4.102  15.331  0.0342  0.3024 -0.0606
  237MPD1    C2 3595   1.476   4.113  15.335 -0.4129 -0.3313 -0.1768
  237MPD1    C3 3596   1.393   4.073  15.229 -0.1446 -0.4005  0.1544
  237MPD1    C4 3597   1.454   4.008  15.126  0.3248 -0.4546 -0.6446
  237MPD1    C5 3598   1.591   3.991  15.125  0.6912  0.2557  0.1533
  237MPD1     H 3599   1.441   4.150  15.431  0.2429  2.1895 -0.8844
  237MPD1    H1 3600   1.389   3.973  15.047 -1.5736  0.2804  0.5969
  237MPD1    H2 3601   1.782   4.007  15.221  0.0868 -0.8038  1.2190
  237MPD1    H3 3602   1.639   3.957  15.033  1.5587  2.0586 -0.0626
  237MPD1     N 3603   1.256   4.091  15.219 -0.5862  0.0254  0.2119
  237MPD1    H5 3604   1.212   4.053  15.136 -1.3270 -0.4346  0.8121
  237MPD1    N1 3605   1.687   4.122  15.447 -0.0471 -0.2838 -0.2488
  237MPD1    H6 3606   1.787   4.138  15.433 -0.2381 -0.2773 -1.6243
  237MPD1    H7 3607   1.644   4.196  15.502 -0.0502 -0.0698 -0.5361
  238MPD1     C 3608   3.034   1.946  15.325 -1.1850 -0.9047  0.4649
  238MPD1    C1 3609   3.079   1.982  15.202  0.2980 -0.6046 -0.2540
  238MPD1    C2 3610   3.063   2.105  15.154  1.2572  0.1752 -0.2128
  238MPD1    C3 3611   2.981   2.200  15.220  0.2452 -0.1865 -0.8801
  238MPD1    C4 3612   2.925   2.162  15.341  0.9685 -0.3599 -0.3302
  238MPD1    C5 3613   2.955   2.035  15.390  0.0721 -0.3802  0.5994
  238MPD1     H 3614   3.095   2.123  15.052  1.6616  1.6317  0.1845
  238MPD1    H1 3615   2.865   2.234  15.395 -0.9481 -1.5127 -0.9434
  238MPD1    H2 3616   3.050   1.848  15.367 -1.3837 -1.1878 -0.1159
  238MPD1    H3 3617   2.907   2.005  15.483 -2.3615 -0.2004 -0.6079
  238MPD1     N 3618   2.940   2.328  15.178  0.8362 -0.5145 -0.2330
  238MPD1    H5 3619   2.887   2.385  15.243 -1.0561  2.8810 -4.7148
  238MPD1    N1 3620   3.151   1.885  15.121  0.6801  0.1090 -0.2131
  238MPD1    H6 3621   3.106   1.854  15.036  1.6532  1.0139 -1.0493
  238MPD1    H7 3622   3.160   1.795  15.169 -1.5493 -0.0763 -0.1752
  239MPD1     C 3623   3.320   3.693  15.113  0.1238 -0.1338 -0.6810
  239MPD1    C1 3624   3.258   3.812  15.145  0.3622 -0.3146  0.2459
  239MPD1    C2 3625   3.205   3.885  15.043  0.4394 -0.4435 -0.3953
  239MPD1    C3 3626   3.226   3.844  14.914  0.2800 -0.4285 -0.2946
  239MPD1    C4 3627   3.289   3.726  14.887 -0.8193  0.3448  0.1738
  239MPD1    C5 3628   3.340   3.652  14.988 -0.6824 -0.1636 -0.5283
  239MPD1     H 3629   3.146   3.974  15.063  0.5223 -0.4826  0.0182
  239MPD1    H1 3630   3.298   3.698  14.783 -0.6358 -0.8606  0.5104
  239MPD1    H2 3631   3.360   3.632  15.193  0.4735  0.0116 -0.7432
  239MPD1    H3 3632   3.389   3.558  14.964 -1.8390 -0.8342 -0.2441
  239MPD1     N 3633   3.174   3.921  14.805  0.4906 -0.2433  0.0101
  239MPD1    H5 3634   3.202   3.896  14.711  1.4606  0.6768  0.0595
  239MPD1    N1 3635   3.249   3.854  15.279  0.1086  0.2151 -0.4543
  239MPD1    H6 3636   3.291   3.792  15.348  1.6584 -1.2754 -2.7575
  239MPD1    H7 3637   3.155   3.890  15.296  0.1573 -1.0388  2.4639
  240MPD1     C 3638   2.880   3.456  13.724 -0.5377 -0.4938  0.4321
  240MPD1    C1 3639   2.744   3.455  13.722  0.3002  0.8579  0.0598
  240MPD1    C2 3640   2.682   3.458  13.848 -0.2708 -0.7317  0.3485
  240MPD1    C3 3641   2.746   3.439  13.962 -0.0029 -0.9223  1.1415
  240MPD1    C4 3642   2.883   3.436  13.959 -0.2850  0.0870  0.3931
  240MPD1    C5 3643   2.949   3.455  13.841 -0.6121  0.4765 -0.3838
  240MPD1     H 3644   2.577   3.483  13.839  0.2082  1.6768  1.3504
  240MPD1    H1 3645   2.940   3.432  14.050 -2.3725 -1.4141  1.6421
  240MPD1    H2 3646   2.943   3.476  13.638 -0.2490  1.0341  0.9900
  240MPD1    H3 3647   3.057   3.451  13.843 -0.5476  2.6861  1.6978
  240MPD1     N 3648   2.663   3.425  14.071  0.4029 -0.1259  0.0791
  240MPD1    H5 3649   2.562   3.415  14.061  0.1206  1.9219  0.7096
  240MPD1    N1 3650   2.683   3.495  13.604 -1.2634 -0.1671  0.4625
  240MPD1    H6 3651   2.726   3.451  13.523 -1.4655  0.3871  0.0485
  240MPD1    H7 3652   2.583   3.473  13.609 -1.2862 -0.9144 -3.2549
  241MPD1     C 3653   2.923   3.068  14.984  0.7402 -0.3251 -0.1309
  241MPD1    C1 3654   2.788   3.099  14.995  0.1071  0.0366  0.1682
  241MPD1    C2 3655   2.728   3.160  14.890  0.1022 -0.2480  0.0641
  241MPD1    C3 3656   2.796   3.192  14.772  0.1920 -0.7121  0.4131
  241MPD1    C4 3657   2.934   3.170  14.764  0.0180 -0.5266  0.4050
  241MPD1    C5 3658   2.996   3.110  14.871  0.2549  0.0251  0.6066
  241MPD1     H 3659   2.621   3.172  14.902 -0.0410  0.6331 -2.0712
  241MPD1    H1 3660   2.996   3.195  14.679  0.9563 -0.8844  0.9854
  241MPD1    H2 3661   2.981   3.019  15.062 -2.2688 -3.2810  0.2677
  241MPD1    H3 3662   3.102   3.085  14.863 -0.1122 -0.7765 -1.6365
  241MPD1     N 3663   2.725   3.241  14.657 -0.2075 -0.2788 -0.1701
  241MPD1    H5 3664   2.777   3.269  14.574 -2.0481  0.6491 -0.9964
  241MPD1    N1 3665   2.718   3.045  15.110  0.5024  0.5485 -0.2844
  241MPD1    H6 3666   2.638   3.099  15.141  0.4290  0.0569  0.3937
  241MPD1    H7 3667   2.787   3.037  15.185  1.1669 -0.0589 -0.9524
  242MPD1     C 3668   2.189   0.925  15.752 -0.6098 -0.2337 -0.4591
  242MPD1    C1 3669   2.108   0.992  15.660 -0.0755 -0.0853  0.3905
  242MPD1    C2 3670   2.128   1.130  15.652 -0.4513  0.3981 -0.1818
  242MPD1    C3 3671   2.227   1.197  15.712 -0.8703  0.5033  0.4189
  242MPD1    C4 3672   2.307   1.126  15.794 -0.7210 -0.3357  0.5775
  242MPD1    C5 3673   2.286   0.994  15.819 -0.0567  0.6626  0.2745
  242MPD1     H 3674   2.065   1.189  15.587 -0.6568  2.7670  2.1623
  242MPD1    H1 3675   2.387   1.176  15.848 -0.2083 -0.2218 -0.2986
  242MPD1    H2 3676   2.180   0.817  15.751  0.3829 -0.3030 -3.8637
  242MPD1    H3 3677   2.366   0.942  15.870  0.5565  1.7264  0.4066
  242MPD1     N 3678   2.256   1.335  15.697  0.0610  0.0319  0.0037
  242MPD1    H5 3679   2.324   1.375  15.761 -0.9153 -1.9301  2.2513
  242MPD1    N1 3680   1.999   0.927  15.604 -0.1875 -0.3437 -0.0809
  242MPD1    H6 3681   2.008   0.827  15.587  1.9893 -0.0114 -0.7919
  242MPD1    H7 3682   1.976   0.979  15.520  2.7254  2.5604  0.9171
  243MPD1     C 3683   4.381   4.698  17.619 -0.5527  0.1832  0.4957
  243MPD1    C1 3684   4.294   0.067  17.666  0.6565  0.1822 -0.4901
  243MPD1    C2 3685   4.247   0.160  17.568  0.5797 -0.0172  0.4316
  243MPD1    C3 3686   4.250   0.125  17.435 -0.1394  0.6516 -0.0215
  243MPD1    C4 3687   4.330   0.023  17.394  0.7313  1.0188 -0.8841
  243MPD1    C5 3688   4.398   4.676  17.491 -0.3588  0.1978  0.0618
  243MPD1     H 3689   4.180   0.240  17.595 -2.2226 -1.5280 -2.0373
  243MPD1    H1 3690   4.327   4.723  17.288  2.0749  0.5061 -0.7992
  243MPD1    H2 3691   4.434   4.647  17.699 -0.7077  0.9788  1.0963
  243MPD1    H3 3692   4.464   4.597  17.458 -1.1476 -0.3794 -0.1475
  243MPD1     N 3693   4.197   0.227  17.347 -0.3394  0.2381 -0.6553
  243MPD1    H5 3694   4.155   0.305  17.396 -0.0025 -0.5896  0.9395
  243MPD1    N1 3695   4.268   0.095   0.096  0.5839 -0.1199  0.1565
  243MPD1    H6 3696   4.175   0.136   0.107  0.5271  0.0356 -0.9314
  243MPD1    H7 3697   4.277   0.010   0.151 -0.6607 -1.8608 -2.3385
  244MPD1     C 3698   3.407   0.496  17.506  0.2580  0.1938 -0.2458
  244MPD1    C1 3699   3.453   0.594  17.421  0.2841  1.0194  0.7358
  244MPD1    C2 3700   3.566   0.567  17.343  0.6107 -0.1595 -0.3865
  244MPD1    C3 3701   3.629   0.444  17.342 -0.2803 -0.1467 -0.3518
  244MPD1    C4 3702   3.575   0.337  17.421  0.2338  0.4752 -0.2817
  244MPD1    C5 3703   3.464   0.374  17.498  0.3607  0.3129  0.9173
  244MPD1     H 3704   3.603   0.648  17.281  0.9545 -0.7747 -0.9832
  244MPD1    H1 3705   3.627   0.243  17.429  0.5062  0.4607 -2.4061
  244MPD1    H2 3706   3.336   0.507  17.587  0.6169 -0.6694  0.1924
  244MPD1    H3 3707   3.427   0.300  17.568  1.5658 -0.9930  0.1891
  244MPD1     N 3708   3.744   0.418  17.273 -0.2138  0.2383  0.0737
  244MPD1    H5 3709   3.792   0.330  17.290  0.2351  0.4652 -0.0429
  244MPD1    N1 3710   3.402   0.726  17.431 -0.4268  0.5474  0.5570
  244MPD1    H6 3711   3.420   0.779  17.345  2.8030  0.8420  1.4010
  244MPD1    H7 3712   3.301   0.717  17.441 -0.0970 -0.7852  2.6785
  245MPD1     C 3713   0.706   0.811  13.310 -0.0896 -0.0112  0.8388
  245MPD1    C1 3714   0.699   0.892  13.419  0.0389 -0.1206  0.7967
  245MPD1    C2 3715   0.813   0.952  13.456 -0.3876  0.0139 -0.1092
  245MPD1    C3 3716   0.929   0.957  13.380  0.6103 -0.0159  0.0890
  245MPD1    C4 3717   0.935   0.886  13.260 -0.1998 -0.0679 -0.0176
  245MPD1    C5 3718   0.817   0.812  13.232  0.4171  0.3448  0.0435
  245MPD1     H 3719   0.808   1.002  13.552  0.2384 -0.4785  0.1784
  245MPD1    H1 3720   1.020   0.874  13.194  1.3207 -0.5276  1.9961
  245MPD1    H2 3721   0.619   0.752  13.282  1.5898 -1.2047 -1.9700
  245MPD1    H3 3722   0.814   0.751  13.142  2.0130  1.0971 -0.5127
  245MPD1     N 3723   1.047   1.032  13.430 -0.1175  0.5350 -0.6286
  245MPD1    H5 3724   1.046   1.062  13.527  1.2460 -2.2165  0.2550
  245MPD1    N1 3725   0.596   0.888  13.515 -0.6474 -0.2151 -0.2525
  245MPD1    H6 3726   0.501   0.876  13.479 -0.2398  1.2095 -1.8300
  245MPD1    H7 3727   0.593   0.977  13.565 -1.2843 -0.7944  0.7480
  246MPD1     C 3728   2.844   3.999   9.036  0.5263 -0.1230  0.1201
  246MPD1    C1 3729   2.843   4.064   9.157 -0.2205 -0.0789  0.7800
  246MPD1    C2 3730   2.873   3.988   9.267 -0.4341 -0.9848 -0.0172
  246MPD1    C3 3731   2.873   3.853   9.266 -0.1777 -0.2839 -0.5931
  246MPD1    C4 3732   2.864   3.784   9.140  0.5555  0.5331 -0.0856
  246MPD1    C5 3733   2.856   3.861   9.028 -0.2092 -0.0363 -0.2586
  246MPD1     H 3734   2.880   4.038   9.363  0.9038 -0.1452 -0.5500
  246MPD1    H1 3735   2.861   3.677   9.124 -1.7301  0.6872 -0.7513
  246MPD1    H2 3736   2.822   4.050   8.943  2.5756  0.0257 -0.2758
  246MPD1    H3 3737   2.840   3.802   8.939 -0.4201 -1.9430  1.0283
  246MPD1     N 3738   2.869   3.790   9.394 -0.5308 -0.2635 -0.0506
  246MPD1    H5 3739   2.870   3.849   9.476 -2.2227 -0.2287 -0.0634
  246MPD1    N1 3740   2.835   4.205   9.159  0.1222  0.8068 -0.2095
  246MPD1    H6 3741   2.800   4.225   9.252 -1.7595 -0.9564 -0.5344
  246MPD1    H7 3742   2.790   4.242   9.075 -1.7845 -0.9834  0.0188
  247MPD1     C 3743   0.695   0.802  16.820 -0.3614  0.3235 -0.1109
  247MPD1    C1 3744   0.566   0.764  16.820  0.3737 -0.2492  0.1670
  247MPD1    C2 3745   0.481   0.780  16.709 -0.5281 -0.0944  0.7164
  247MPD1    C3 3746   0.535   0.832  16.593  0.1438 -0.4167  0.8085
  247MPD1    C4 3747   0.663   0.883  16.597  0.0326  0.3879 -0.6877
  247MPD1    C5 3748   0.735   0.866  16.712 -0.9419 -0.1261 -0.1582
  247MPD1     H 3749   0.384   0.734  16.718  0.7788 -2.7051  1.4117
  247MPD1    H1 3750   0.710   0.910  16.503 -1.2343 -0.8777 -1.6896
  247MPD1    H2 3751   0.772   0.774  16.890 -0.8192  0.4738  0.4545
  247MPD1    H3 3752   0.840   0.892  16.708 -0.9837 -0.0921 -1.2299
  247MPD1     N 3753   0.476   0.822  16.465  0.3717  0.6014 -0.3639
  247MPD1    H5 3754   0.528   0.860  16.387 -0.7633  0.6321 -1.0858
  247MPD1    N1 3755   0.529   0.671  16.923 -0.2326  1.0412 -0.4552
  247MPD1    H6 3756   0.576   0.702  17.008  0.9097 -0.5059 -0.5277
  247MPD1    H7 3757   0.429   0.657  16.939  0.2251 -1.7629 -0.1941
  248MPD1     C 3758   1.989   0.014  17.062 -0.8269  1.0627  0.0841
  248MPD1    C1 3759   2.063   4.695  17.171  0.2553  0.0170 -0.6016
  248MPD1    C2 3760   2.007   4.713  17.298 -0.5625  0.2788  0.4339
  248MPD1    C3 3761   1.889   0.059  17.315 -0.6446 -0.2584 -0.1808
  248MPD1    C4 3762   1.828   0.116  17.207  0.3449  0.4552  0.2211
  248MPD1    C5 3763   1.873   0.087  17.082  0.3908  0.3405 -0.2743
  248MPD1     H 3764   2.053   4.668  17.386 -1.1151  0.3580  0.7682
  248MPD1    H1 3765   1.730   0.160  17.222  0.2623  0.8770 -1.5280
  248MPD1    H2 3766   2.025   4.712  16.964 -4.3585 -2.2514 -0.2606
  248MPD1    H3 3767   1.818   0.112  16.992 -0.5206  1.9902  0.7487
  248MPD1     N 3768   1.835   0.072  17.445 -0.3382  0.3378  0.2714
  248MPD1    H5 3769   1.886   0.033  17.524 -2.5776 -1.3730  0.8638
  248MPD1    N1 3770   2.177   4.608  17.155  0.0197 -0.4165 -0.7372
  248MPD1    H6 3771   2.233   4.629  17.072  0.7249 -1.1671 -0.4487
  248MPD1    H7 3772   2.239   4.610  17.235  0.3528  0.1887 -1.0071
  249MPD1     C 3773   4.224   4.586   9.594  0.2717  0.4173  0.3451
  249MPD1    C1 3774   4.174   4.617   9.715  0.4437 -0.2947 -0.2029
  249MPD1    C2 3775   4.048   4.570   9.753  0.4016  0.1956 -0.4884
  249MPD1    C3 3776   3.986   4.472   9.674  0.5985 -0.1577 -0.0561
  249MPD1    C4 3777   4.047   4.423   9.557  0.5395 -0.4517  0.3836
  249MPD1    C5 3778   4.159   4.490   9.519  0.1617 -0.1267 -0.2016
  249MPD1     H 3779   4.000   4.602   9.845 -1.6951 -0.0488 -1.5005
  249MPD1    H1 3780   4.016   4.338   9.497 -0.0637  0.2316 -0.2633
  249MPD1    H2 3781   4.315   4.631   9.556 -0.0526 -1.4345 -2.6110
  249MPD1    H3 3782   4.203   4.461   9.424 -0.2937 -0.6420 -0.2531
  249MPD1     N 3783   3.876   4.408   9.738 -0.3208  0.0411  0.0755
  249MPD1    H5 3784   3.856   4.451   9.827 -3.2191 -1.1149  0.0005
  249MPD1    N1 3785   4.233   4.725   9.792 -0.4229 -0.5764  0.8941
  249MPD1    H6 3786   4.333   0.003   9.773 -0.2725 -2.3421  1.2951
  249MPD1    H7 3787   4.214   4.724   9.892  0.2044 -0.9563  1.0090
  250MPD2     C 3788   3.983   3.805  12.973 -0.6157 -0.1148  0.0141
  250MPD2    C1 3789   4.042   3.896  12.885 -0.2022  0.2900 -0.4480
  250MPD2    C2 3790   4.051   3.870  12.753  0.6063  0.4792  0.4357
  250MPD2    C3 3791   3.991   3.754  12.701 -0.3743 -0.1236 -0.5008
  250MPD2    C4 3792   3.916   3.673  12.783  0.1480 -0.5482 -0.0568
  250MPD2    C5 3793   3.911   3.703  12.915  0.3221 -0.1104 -0.2672
  250MPD2     H 3794   4.102   3.942  12.691 -1.5498  2.2894  0.7719
  250MPD2    H1 3795   3.876   3.579  12.748  1.6192 -1.1914  0.0064
  250MPD2    H2 3796   3.984   3.818  13.081  2.0297 -0.6165  0.0585
  250MPD2    H3 3797   3.858   3.628  12.973  0.3855  0.5395  0.6323
  250MPD2     N 3798   4.019   3.713  12.569 -0.1303 -0.1902 -0.3726
  250MPD2    H5 3799   3.986   3.621  12.539 -0.6534  0.7400 -2.6599
  250MPD2    N1 3800   4.097   4.010  12.947  0.0517 -0.4135  0.0441
  250MPD2    H7 3801   4.084   4.025  13.046 -0.8467 -3.0379  0.3320
  251TMC3    C1 3802   4.237   4.203  12.961 -0.3596  0.0578  0.4008
  251TMC3    C2 3803   4.249   4.194  13.097  0.5533 -0.3536 -0.2580
  251TMC3    C3 3804   4.329   4.280  13.168 -0.4526  0.5505  0.1477
  251TMC3    C4 3805   4.296   4.300  12.890  0.1165  0.5967 -0.4507
  251TMC3    C5 3806   4.382   4.376  12.958 -0.1900  0.3138 -0.0372
  251TMC3    C6 3807   4.404   4.370  13.097 -0.2896  0.2353  0.0845
  251TMC3     C 3808   4.184   4.097  12.886  0.2007  0.7008  0.4524
  251TMC3     O 3809   4.238   4.084  12.778  0.2259 -0.3437 -0.3656
  251TMC3     H 3810   4.184   4.128  13.154 -3.5149  1.7359 -2.4285
  251TMC3    H1 3811   4.301   4.306  12.782  2.8319 -1.0348 -0.4071
  251TMC3    H2 3812   4.489   4.421  13.142 -0.2813  2.7466 -2.7707
  251TMC3    C7 3813   4.492   4.412  12.883  0.7645  0.9727 -0.6668
  251TMC3    C8 3814   4.289   4.308  13.306 -0.1842  0.7218 -0.3616
  251TMC3    O1 3815   4.595   4.387  12.945  0.7103  0.4021  0.0890
  251TMC3    O2 3816   4.202   4.239  13.362 -0.2491  0.1928 -0.1088
  252TMC3    C1 3817   0.071   1.447   8.964  0.2306 -0.7364 -0.5348
  252TMC3    C2 3818   0.205   1.473   8.958  0.4189 -0.1174 -0.5968
  252TMC3    C3 3819   0.296   1.380   8.988  0.1633 -0.4359 -0.8815
  252TMC3    C4 3820   0.022   1.315   8.975  0.3420  0.5112  0.7109
  252TMC3    C5 3821   0.119   1.223   8.999 -0.3709  0.8800 -0.6940
  252TMC3    C6 3822   0.257   1.252   9.013  0.6920 -0.3556 -0.8018
  252TMC3     C 3823   4.703   1.557   8.979  0.2716  0.3068 -0.4482
  252TMC3     O 3824   4.587   1.521   8.963 -0.2607  0.5714  0.5234
  252TMC3     H 3825   0.239   1.576   8.950 -2.2562  0.7996 -0.3310
  252TMC3    H1 3826   4.643   1.297   8.954 -0.1759  2.5722  1.4838
  252TMC3    H2 3827   0.326   1.171   9.033 -0.1114 -0.3746  1.8723
  252TMC3    C7 3828   0.079   1.083   8.969  0.4161 -0.7024 -0.2341
  252TMC3    C8 3829   0.422   1.433   9.036 -0.1624 -0.6220 -0.0240
  252TMC3    O1 3830   4.708   1.066   8.891 -0.5525  0.5105 -0.4733
  252TMC3    O2 3831   0.472   1.519   8.966 -0.2851 -0.3241 -0.0680
  253MPD2     C 3832   0.757   4.455  14.924 -0.5065  0.2101 -0.8666
  253MPD2    C1 3833   0.627   4.411  14.934  0.0541  0.1483 -0.3557
  253MPD2    C2 3834   0.567   4.419  15.057  0.2503  0.8665  0.8839
  253MPD2    C3 3835   0.626   4.493  15.161 -0.2651  0.4124  0.0953
  253MPD2    C4 3836   0.755   4.540  15.147  0.1809 -0.2645  0.8597
  253MPD2    C5 3837   0.821   4.521  15.026 -0.2580 -0.0286 -0.1266
  253MPD2     H 3838   0.475   4.364  15.072  1.1990 -1.1681 -0.7794
  253MPD2    H1 3839   0.790   4.610  15.223 -0.0883  0.6518  0.1415
  253MPD2    H2 3840   0.802   4.457  14.826  4.4725  1.1230  1.4205
  253MPD2    H3 3841   0.922   4.559  15.018  0.1400 -1.2683 -1.1176
  253MPD2     N 3842   0.560   4.516  15.281  0.2861 -0.4344 -0.0659
  253MPD2    H5 3843   0.611   4.559  15.358 -2.2966  1.9988  0.3119
  253MPD2    N1 3844   0.572   4.337  14.825 -0.3441 -0.4638 -0.0094
  253MPD2    H7 3845   0.640   4.311  14.754 -1.6398 -2.6013 -0.4463
  254TMC3    C1 3846   0.373   4.522  15.430  0.3825  0.6502  0.6474
  254TMC3    C2 3847   0.238   4.542  15.443  0.2307 -0.1858 -0.0725
  254TMC3    C3 3848   0.200   4.578  15.566  0.1029 -0.3239 -0.4725
  254TMC3    C4 3849   0.460   4.525  15.534  0.8142  0.1751  0.4189
  254TMC3    C5 3850   0.413   4.574  15.654  0.2068 -0.3554 -0.2475
  254TMC3    C6 3851   0.281   4.596  15.672  0.8133  0.4790 -0.0324
  254TMC3     C 3852   0.426   4.494  15.304 -0.1100  0.7503 -0.0068
  254TMC3     O 3853   0.341   4.436  15.235 -0.2741 -0.3983 -0.2379
  254TMC3     H 3854   0.172   4.521  15.360  1.0437 -1.0978 -0.4882
  254TMC3    H1 3855   0.566   4.503  15.520  0.0120 -2.4452 -1.5911
  254TMC3    H2 3856   0.254   4.638  15.768  2.2336 -0.2955  0.6918
  254TMC3    C7 3857   0.492   4.550  15.777  0.5466  0.3322 -0.3331
  254TMC3    C8 3858   0.076   4.648  15.564  0.6191  0.2667 -0.5586
  254TMC3    O1 3859   0.430   4.559  15.884  0.0247 -0.1586 -1.1135
  254TMC3    O2 3860   0.033   4.700  15.462  0.1665 -0.8315  0.0913
  255MPD2     C 3861   3.548   2.554  10.761  0.1129  0.0081 -0.0205
  255MPD2    C1 3862   3.670   2.622  10.774 -0.0679 -0.0847 -0.2022
  255MPD2    C2 3863   3.787   2.550  10.765  0.3002 -0.4438 -0.1324
  255MPD2    C3 3864   3.791   2.417  10.764 -0.3465  0.3633  0.5009
  255MPD2    C4 3865   3.673   2.342  10.760  0.4102 -0.1455  0.0326
  255MPD2    C5 3866   3.557   2.416  10.752 -0.4372 -0.1796 -0.6475
  255MPD2     H 3867   3.883   2.598  10.782  0.9269 -1.0289 -2.0910
  255MPD2    H1 3868   3.666   2.234  10.772  1.3519 -0.0875  1.1157
  255MPD2    H2 3869   3.449   2.597  10.770  0.3208 -0.0181  2.4871
  255MPD2    H3 3870   3.465   2.361  10.744 -0.4205 -0.4724  1.1852
  255MPD2     N 3871   3.915   2.352  10.776 -0.7193  0.2975 -0.0481
  255MPD2    H5 3872   3.998   2.410  10.771 -1.1648  1.2006  2.9325
  255MPD2    N1 3873   3.689   2.765  10.778  0.7148  0.4293 -0.5480
  255MPD2    H7 3874   3.788   2.786  10.772  1.0238 -0.9485 -0.1266
  256TMC3    C1 3875   3.638   2.995  10.751 -0.7577 -0.1330 -0.4038
  256TMC3    C2 3876   3.769   3.019  10.752 -0.4139 -0.0564 -0.2669
  256TMC3    C3 3877   3.812   3.143  10.710  0.5326  0.5353  0.5280
  256TMC3    C4 3878   3.548   3.082  10.700  0.1230 -0.4341  0.9215
  256TMC3    C5 3879   3.595   3.205  10.663  0.6079  0.0096 -0.0307
  256TMC3    C6 3880   3.730   3.236  10.650  0.2453 -0.2202 -0.0772
  256TMC3     C 3881   3.592   2.854  10.758 -0.6591  0.1473  0.3947
  256TMC3     O 3882   3.475   2.832  10.755 -0.1378 -0.6376 -0.3541
  256TMC3     H 3883   3.844   2.947  10.783 -1.1168 -1.6723 -2.3654
  256TMC3    H1 3884   3.443   3.056  10.706  0.0597 -0.5094 -0.5714
  256TMC3    H2 3885   3.751   3.340  10.629 -2.1184  0.5008  1.1205
  256TMC3    C7 3886   3.491   3.286  10.601  0.5662  1.0612 -0.0461
  256TMC3    C8 3887   3.947   3.151  10.671 -0.2559 -0.5795  0.3788
  256TMC3    O1 3888   3.375   3.286  10.641  0.1328 -0.2418 -0.4724
  256TMC3    O2 3889   4.013   3.054  10.700 -0.2783 -0.2764 -0.7616
  257MPD2     C 3890   3.388   4.392  13.023 -0.9211 -0.0295 -0.2317
  257MPD2    C1 3891   3.283   4.345  12.954  0.1081 -0.1945 -0.3013
  257MPD2    C2 3892   3.205   4.252  13.019  0.0024  0.3814 -0.4304
  257MPD2    C3 3893   3.221   4.221  13.155  0.1477 -0.6734  0.3024
  257MPD2    C4 3894   3.321   4.284  13.224  0.2171  0.1578  0.1904
  257MPD2    C5 3895   3.405   4.367  13.156 -0.0634 -0.2479  1.0332
  257MPD2     H 3896   3.129   4.202  12.962  1.5141 -0.2384 -1.9104
  257MPD2    H1 3897   3.352   4.251  13.322  0.5398 -2.1485 -0.6955
  257MPD2    H2 3898   3.464   4.449  12.972  0.1016 -2.0494 -0.9730
  257MPD2    H3 3899   3.492   4.405  13.208  1.7014 -3.0091  0.0744
  257MPD2     N 3900   3.130   4.134  13.224  0.1782  0.0287 -0.2973
  257MPD2    H5 3901   3.063   4.094  13.159  0.2606  2.2084 -1.7210
  257MPD2    N1 3902   3.292   4.367  12.813  0.3273  0.3279  0.2755
  257MPD2    H7 3903   3.370   4.427  12.791 -1.1036  1.7780 -0.8413
  258TMC3    C1 3904   3.043   4.010  13.416  0.2862  0.7767 -0.4452
  258TMC3    C2 3905   3.039   3.889  13.352  0.3534 -0.1599 -0.3613
  258TMC3    C3 3906   3.013   3.771  13.424  0.9270 -1.1633  0.6499
  258TMC3    C4 3907   3.001   4.024  13.547  0.5364  0.2200  0.5381
  258TMC3    C5 3908   2.990   3.907  13.617 -0.0954 -0.0477 -0.2702
  258TMC3    C6 3909   2.993   3.785  13.557  0.2347  0.3417 -0.1442
  258TMC3     C 3910   3.118   4.123  13.360 -0.0067  0.4682  0.8612
  258TMC3     O 3911   3.169   4.195  13.450  0.4132  0.3655 -0.2573
  258TMC3     H 3912   3.063   3.881  13.247 -0.3444 -0.1521 -0.5173
  258TMC3    H1 3913   2.998   4.118  13.602 -0.6026 -0.4456  1.6219
  258TMC3    H2 3914   2.964   3.697  13.614  0.4157  2.1227  2.7048
  258TMC3    C7 3915   2.965   3.909  13.762 -0.8078 -0.0204 -0.5321
  258TMC3    C8 3916   3.081   3.649  13.381  0.3223 -0.0060  0.4667
  258TMC3    O1 3917   2.867   3.965  13.802 -0.4883 -0.3633 -0.7832
  258TMC3    O2 3918   3.131   3.579  13.468  0.8204 -0.0255 -0.0126
  259MPD2     C 3919   2.059   1.324   1.306  0.6060  0.4811  0.2983
  259MPD2    C1 3920   2.086   1.196   1.340 -0.0293 -0.2683  0.4088
  259MPD2    C2 3921   2.140   1.112   1.241 -0.0294 -0.3052 -0.0948
  259MPD2    C3 3922   2.157   1.155   1.114 -0.0544 -0.2731  0.7579
  259MPD2    C4 3923   2.124   1.287   1.081 -0.2873 -0.7372 -0.5928
  259MPD2    C5 3924   2.086   1.373   1.180 -0.1177  0.2477  0.0801
  259MPD2     H 3925   2.157   1.008   1.266  2.7015 -0.5489 -2.9689
  259MPD2    H1 3926   2.143   1.329   0.983 -1.4560  0.0945 -0.4656
  259MPD2    H2 3927   2.033   1.398   1.380  1.5491  0.3667  0.7464
  259MPD2    H3 3928   2.043   1.469   1.152  0.3277  0.7559  1.1280
  259MPD2     N 3929   2.185   1.055   1.019  0.0466 -0.3091 -0.6758
  259MPD2    H5 3930   2.198   0.960   1.053 -1.5167 -0.2978 -0.0539
  259MPD2    N1 3931   2.043   1.153   1.469  0.5586  0.1525 -0.0333
  259MPD2    H7 3932   2.020   1.233   1.527 -1.6453 -1.3955  1.2236
  260TMC3    C1 3933   2.226   0.951   0.810 -0.0503 -0.0628 -0.2704
  260TMC3    C2 3934   2.335   0.946   0.723 -0.0645  1.0490  0.6298
  260TMC3    C3 3935   2.374   0.825   0.672  0.6823  0.0457  0.0125
  260TMC3    C4 3936   2.141   0.843   0.827 -0.4198 -0.2541 -0.2101
  260TMC3    C5 3937   2.173   0.726   0.754  0.2626 -0.0271 -0.0803
  260TMC3    C6 3938   2.289   0.720   0.684 -0.4850  0.6123 -0.5077
  260TMC3     C 3939   2.201   1.078   0.882  0.1352  0.4275  0.1894
  260TMC3     O 3940   2.220   1.184   0.828 -0.3371 -0.2463 -0.2721
  260TMC3     H 3941   2.396   1.034   0.708  0.4158  0.6960  0.4944
  260TMC3    H1 3942   2.058   0.856   0.895 -1.1562 -0.8693 -0.9933
  260TMC3    H2 3943   2.314   0.633   0.625  0.3324 -1.5209  2.9344
  260TMC3    C7 3944   2.071   0.638   0.701  0.0459 -0.2373  0.4464
  260TMC3    C8 3945   2.462   0.845   0.562  0.0884 -0.1037  0.6646
  260TMC3    O1 3946   2.109   0.534   0.645 -0.4280 -0.0057  0.3734
  260TMC3    O2 3947   2.543   0.931   0.579 -0.2222 -0.1668 -0.1748
  261MPD2     C 3948   4.565   3.924  11.952 -0.6019  0.3267  0.3542
  261MPD2    C1 3949   4.479   3.980  12.044  0.0373 -1.0196 -0.4615
  261MPD2    C2 3950   4.476   4.117  12.066 -0.0003  0.4365  0.4779
  261MPD2    C3 3951   4.565   4.205  12.001  0.3263 -0.0605 -0.1283
  261MPD2    C4 3952   4.652   4.144  11.911  0.1114  0.4877  0.4654
  261MPD2    C5 3953   4.647   4.013  11.888  0.0687 -0.0409 -0.7241
  261MPD2     H 3954   4.397   4.161  12.126 -1.1134 -1.6061  0.5013
  261MPD2    H1 3955   0.001   4.192  11.849  0.4716 -1.2635 -0.4614
  261MPD2    H2 3956   4.572   3.817  11.935  0.5599 -0.3374  4.9916
  261MPD2    H3 3957   4.719   3.983  11.812  1.0250 -0.1334  0.2233
  261MPD2     N 3958   4.555   4.344  12.019 -0.0831  0.0843 -0.6853
  261MPD2    H5 3959   4.479   4.381  12.076  0.3556 -0.5059  0.2867
  261MPD2    N1 3960   4.372   3.906  12.110  0.5273  0.1755 -0.0921
  261MPD2    H7 3961   4.309   3.958  12.170  0.9751  1.1104 -0.4382
  262TMC3    C1 3962   4.633   4.570  11.988  0.5592 -0.1084  0.5240
  262TMC3    C2 3963   4.507   4.618  11.980 -0.4229 -0.4720 -0.6321
  262TMC3    C3 3964   4.494   0.020  11.937  0.4935  0.6348  1.0191
  262TMC3    C4 3965   0.019   4.645  11.972  0.4685 -0.3943 -0.3377
  262TMC3    C5 3966   0.006   0.044  11.928  0.3531  1.0231  0.6615
  262TMC3    C6 3967   4.606   0.089  11.903 -1.0110 -0.2412  0.3305
  262TMC3     C 3968   4.652   4.431  11.971  0.6658 -0.4454 -0.2987
  262TMC3     O 3969   0.027   4.400  11.904  0.4919 -0.2284 -0.1578
  262TMC3     H 3970   4.422   4.566  12.021  0.7767 -2.8564 -1.1705
  262TMC3    H1 3971   0.117   4.599  11.973  1.4459  1.7033 -0.0113
  262TMC3    H2 3972   4.605   0.178  11.842  0.2356 -0.7008 -0.3675
  262TMC3    C7 3973   0.124   0.086  11.857  0.0001  0.1653 -0.0651
  262TMC3    C8 3974   4.371   0.088  11.942  0.8461  0.0805  0.2667
  262TMC3    O1 3975   0.208   4.725  11.829 -0.3119  0.2212  0.5887
  262TMC3    O2 3976   4.373   0.210  11.946  0.1009  0.1120  0.3505
  263MPD2     C 3977   0.620   4.033  11.736  0.2919 -0.3332  0.0453
  263MPD2    C1 3978   0.683   3.925  11.679  0.1482 -0.1599 -0.3651
  263MPD2    C2 3979   0.708   3.927  11.542  0.0959  0.1638  0.3546
  263MPD2    C3 3980   0.694   4.034  11.459  1.1722 -0.2449 -0.7256
  263MPD2    C4 3981   0.632   4.139  11.516 -0.1792 -0.0035 -0.5192
  263MPD2    C5 3982   0.599   4.137  11.651 -1.1175  0.0685  0.2543
  263MPD2     H 3983   0.755   3.840  11.497 -0.1951 -0.7231  1.7878
  263MPD2    H1 3984   0.631   4.235  11.466  1.7085 -0.0072 -0.5881
  263MPD2    H2 3985   0.593   4.048  11.840 -0.2471  0.1679 -0.1649
  263MPD2    H3 3986   0.567   4.230  11.697  0.9127  0.3369  1.1142
  263MPD2     N 3987   0.729   4.025  11.323 -0.4567 -0.0149 -0.2559
  263MPD2    H5 3988   0.782   3.941  11.301  1.4020  0.8833  0.8242
  263MPD2    N1 3989   0.691   3.809  11.767 -0.2907  0.3308 -0.0254
  263MPD2    H7 3990   0.654   3.820  11.861  0.4551 -0.9249  0.4083
  264TMC3    C1 3991   0.687   4.076  11.090  0.0400 -0.7653 -0.1484
  264TMC3    C2 3992   0.607   4.148  11.008 -0.6721  0.2172 -0.5516
  264TMC3    C3 3993   0.591   4.124  10.871  0.5791 -0.2590  0.1540
  264TMC3    C4 3994   0.756   3.971  11.039 -0.7273  0.0525  0.4483
  264TMC3    C5 3995   0.743   3.945  10.900 -1.1312 -0.1630  0.1674
  264TMC3    C6 3996   0.667   4.027  10.812  0.1023 -0.0714 -0.7399
  264TMC3     C 3997   0.690   4.123  11.227  0.0204 -0.0921 -0.1716
  264TMC3     O 3998   0.635   4.230  11.253  0.1509  0.1559  0.1676
  264TMC3     H 3999   0.542   4.223  11.051 -1.9771 -0.6536 -1.0127
  264TMC3    H1 4000   0.822   3.905  11.094  0.3845  0.5132 -0.3301
  264TMC3    H2 4001   0.648   3.994  10.710 -1.9512 -1.6468  0.1500
  264TMC3    C7 4002   0.851   3.894  10.826 -0.6511 -0.2798 -0.4755
  264TMC3    C8 4003   0.566   4.246  10.794  0.7945  0.1987  0.1518
  264TMC3    O1 4004   0.924   3.810  10.870 -0.0250 -0.1158  0.5159
  264TMC3    O2 4005   0.629   4.261  10.690 -0.0443 -0.6044 -0.6472
  265MPD2     C 4006   1.907   3.830  15.706  0.7046  0.3938  0.0009
  265MPD2    C1 4007   1.930   3.938  15.624  0.3431 -0.2180 -0.2045
  265MPD2    C2 4008   1.964   3.932  15.494  0.3270  0.5236 -0.0232
  265MPD2    C3 4009   1.983   3.808  15.430 -0.2522 -0.0149 -0.0322
  265MPD2    C4 4010   1.955   3.699  15.509  0.0443  0.6965 -0.5841
  265MPD2    C5 4011   1.915   3.709  15.639  0.0236 -0.0307 -0.6664
  265MPD2     H 4012   1.985   4.027  15.448  2.0964  0.9927  1.7799
  265MPD2    H1 4013   1.966   3.599  15.469 -1.5029  1.0739 -1.9089
  265MPD2    H2 4014   1.885   3.835  15.812 -1.4154  0.8980 -0.4666
  265MPD2    H3 4015   1.901   3.612  15.686  2.4395 -0.5292 -0.9334
  265MPD2     N 4016   2.027   3.783  15.298  0.0359 -0.0160 -0.6950
  265MPD2    H5 4017   2.055   3.689  15.271  0.6354 -0.9572  3.1684
  265MPD2    N1 4018   1.912   4.071  15.677 -1.0167  0.3607 -0.2639
  265MPD2    H7 4019   1.924   4.138  15.602  0.1237 -0.6312 -0.9817
  266TMC3    C1 4020   1.904   4.254  15.823  0.0603  0.6404  0.0804
  266TMC3    C2 4021   1.966   4.327  15.917 -0.7491  0.5960  0.3123
  266TMC3    C3 4022   1.948   4.464  15.921 -0.5669 -0.0081 -0.0529
  266TMC3    C4 4023   1.833   4.327  15.727 -0.9907 -0.1637  0.2588
  266TMC3    C5 4024   1.804   4.459  15.739  0.4130 -0.3893  0.0268
  266TMC3    C6 4025   1.865   4.538  15.835  0.0301  0.1176 -0.1122
  266TMC3     C 4026   1.924   4.111  15.806 -0.2185 -0.2141 -0.3575
  266TMC3     O 4027   1.965   4.045  15.905  0.8823 -0.1802  0.1199
  266TMC3     H 4028   2.033   4.272  15.981 -0.4019  0.8633  0.1760
  266TMC3    H1 4029   1.779   4.281  15.644 -1.1650  2.9832 -1.3726
  266TMC3    H2 4030   1.841   4.639  15.865 -0.6752 -0.3291  0.7990
  266TMC3    C7 4031   1.698   4.513  15.667  0.3564  0.0969  0.2676
  266TMC3    C8 4032   2.040   4.532  16.002  0.1885  0.0675  0.0142
  266TMC3    O1 4033   1.617   4.427  15.632  0.8794 -0.5229  0.3951
  266TMC3    O2 4034   2.137   4.467  16.034 -0.0191 -0.5096  0.4842
  267MPD2     C 4035   4.417   0.697  17.291  0.3723 -0.1586 -0.5402
  267MPD2    C1 4036   4.474   0.819  17.265 -0.7555 -0.1246 -0.5924
  267MPD2    C2 4037   4.399   0.908  17.186 -0.2328  0.1534 -0.6309
  267MPD2    C3 4038   4.283   0.870  17.122 -0.1374  0.6760 -0.3761
  267MPD2    C4 4039   4.236   0.744  17.146  0.8188  0.1004 -0.1397
  267MPD2    C5 4040   4.299   0.657  17.229  0.2980 -0.6716  0.2945
  267MPD2     H 4041   4.434   1.010  17.169 -0.4985  0.2796 -0.4058
  267MPD2    H1 4042   4.139   0.719  17.104  1.0766  1.0290 -1.3180
  267MPD2    H2 4043   4.471   0.629  17.355  0.1850 -0.6106 -0.8633
  267MPD2    H3 4044   4.240   0.569  17.253 -1.4357  0.0986 -1.0922
  267MPD2     N 4045   4.211   0.943  17.029  0.0867  0.5640  0.0031
  267MPD2    H5 4046   4.124   0.905  16.994  1.5302 -0.7314 -2.1414
  267MPD2    N1 4047   4.596   0.851  17.325 -0.1792 -0.0120  0.0888
  267MPD2    H7 4048   4.647   0.778  17.374  0.1313  0.2537  0.1539
  268TMC3    C1 4049   0.069   0.983  17.364  0.4330  0.6769 -0.2325
  268TMC3    C2 4050   0.141   1.083  17.308 -0.4878  0.4399  0.4760
  268TMC3    C3 4051   0.258   1.110  17.365 -0.1801 -0.6090  0.0641
  268TMC3    C4 4052   0.115   0.918  17.479 -0.2168  0.1697  0.2098
  268TMC3    C5 4053   0.229   0.954  17.542 -0.2064 -0.4568 -0.7110
  268TMC3    C6 4054   0.296   1.064  17.488  1.0060 -0.5552 -0.8927
  268TMC3     C 4055   4.657   0.970  17.314  0.1301  0.2832 -0.1633
  268TMC3     O 4056   4.613   1.079  17.275  0.2444 -0.0679  0.1579
  268TMC3     H 4057   0.103   1.129  17.219  1.8999 -0.6373 -1.1072
  268TMC3    H1 4058   0.065   0.832  17.521 -1.1861 -0.1758 -1.6690
  268TMC3    H2 4059   0.394   1.086  17.528  0.5641  1.0270 -0.6806
  268TMC3    C7 4060   0.248   0.921  17.682 -1.1373  0.9819 -0.1193
  268TMC3    C8 4061   0.339   1.219  17.314  0.0354  0.2711  0.9948
  268TMC3    O1 4062   0.216   0.812   0.016 -0.2956  0.2937 -0.2244
  268TMC3    O2 4063   0.445   1.239  17.369 -0.0571 -0.4315  0.0460
  269MPD2     C 4064   4.359   4.462  15.682 -0.3784 -0.6187 -0.0417
  269MPD2    C1 4065   4.243   4.514  15.731 -0.3781  0.0048 -0.4156
  269MPD2    C2 4066   4.204   4.642  15.688  0.0775 -0.5477  0.3670
  269MPD2    C3 4067   4.276   4.719  15.593 -0.3438  0.8320 -0.3100
  269MPD2    C4 4068   4.395   4.666  15.551 -0.9055 -0.2634  0.9109
  269MPD2    C5 4069   4.437   4.542  15.602 -0.0738 -0.8458  0.0870
  269MPD2     H 4070   4.117   4.687  15.734 -0.1369 -2.1476  1.5406
  269MPD2    H1 4071   4.467   4.720  15.491 -0.2795 -1.3412  0.6930
  269MPD2    H2 4072   4.397   4.365  15.712 -1.2000  0.0429  3.0888
  269MPD2    H3 4073   4.533   4.506  15.566  0.7019  1.2683  0.0214
  269MPD2     N 4074   4.240   0.125  15.576 -0.7127  0.0619  0.4770
  269MPD2    H5 4075   4.178   0.171  15.642  1.5204 -1.0811  3.3069
  269MPD2    N1 4076   4.170   4.438  15.822 -0.4867  0.0285  1.0232
  269MPD2    H7 4077   4.200   4.341  15.827  1.0832  0.3406 -1.8578
  270TMC3    C1 4078   3.982   4.366  15.928 -0.3071 -0.9042  0.1718
  270TMC3    C2 4079   3.857   4.365  15.877  0.6723 -0.6822  0.2083
  270TMC3    C3 4080   3.793   4.240  15.870 -0.2121 -0.1802  0.0004
  270TMC3    C4 4081   4.051   4.254  15.961 -0.2153  0.8526  0.4137
  270TMC3    C5 4082   3.983   4.136  15.958  0.5374  1.0636  0.4527
  270TMC3    C6 4083   3.861   4.126  15.898  0.4410 -0.1975  0.0211
  270TMC3     C 4084   4.056   4.477  15.875 -0.3056  0.0987 -0.1163
  270TMC3     O 4085   4.004   4.592  15.873  0.3142  0.5035 -0.0131
  270TMC3     H 4086   3.819   4.454  15.828  0.6743 -0.8562 -0.1112
  270TMC3    H1 4087   4.151   4.269  15.998 -0.3349  0.8801  0.7277
  270TMC3    H2 4088   3.813   4.031  15.876 -1.1626  0.7420 -0.5148
  270TMC3    C7 4089   4.079   4.030  15.926 -0.1912 -0.2977  0.2743
  270TMC3    C8 4090   3.717   4.217  15.748 -0.3441  0.3077 -0.6200
  270TMC3    O1 4091   4.199   4.055  15.922  1.0391 -0.1828  0.0199
  270TMC3    O2 4092   3.593   4.217  15.748 -0.0970 -0.1816  0.3282
  271MPD2     C 4093   3.608   4.388  14.055  0.3235 -0.3107 -0.1382
  271MPD2    C1 4094   3.528   4.295  14.115 -0.7860  0.3227  0.3077
  271MPD2    C2 4095   3.393   4.313  14.113 -1.0725  0.1940  0.6443
  271MPD2    C3 4096   3.339   4.406  14.032  0.3321 -0.2529 -0.2005
  271MPD2    C4 4097   3.420   4.501  13.976  0.8551 -0.1284  0.8501
  271MPD2    C5 4098   3.553   4.497  13.990 -0.1830 -0.0674 -0.2214
  271MPD2     H 4099   3.330   4.238  14.161  0.3788 -2.8380 -2.2225
  271MPD2    H1 4100   3.381   4.578  13.909 -0.8161 -1.3273  0.4456
  271MPD2    H2 4101   3.715   4.384  14.071 -0.1224 -1.6912  2.5020
  271MPD2    H3 4102   3.610   4.572  13.935 -1.4166  0.7074 -0.4538
  271MPD2     N 4103   3.201   4.410  14.015 -0.0296  0.8557 -0.2722
  271MPD2    H5 4104   3.163   4.475  13.947  0.6460 -2.0106 -3.3790
  271MPD2    N1 4105   3.568   4.185  14.191 -0.0512  0.0595  0.0078
  271MPD2    H7 4106   3.492   4.138  14.238  0.1942 -0.1921  0.1497
  272TMC3    C1 4107   3.704   4.025  14.300  0.7185  0.7555  0.0427
  272TMC3    C2 4108   3.830   3.969  14.301 -0.4957  0.6955  0.0407
  272TMC3    C3 4109   3.887   3.934  14.414 -0.2851 -0.3714  0.9848
  272TMC3    C4 4110   3.630   4.030  14.412  0.2071 -0.0782  0.2473
  272TMC3    C5 4111   3.694   3.994  14.527  0.3650 -0.1914 -0.4730
  272TMC3    C6 4112   3.826   3.952  14.532  0.1229 -0.7951 -0.3518
  272TMC3     C 4113   3.692   4.128  14.202  0.2209 -0.2106  0.0908
  272TMC3     O 4114   3.796   4.158  14.146  0.5786  0.1285  0.3465
  272TMC3     H 4115   3.877   3.947  14.206 -0.8822  1.2665 -0.2815
  272TMC3    H1 4116   3.539   4.088  14.426  0.9262  0.4476  2.7881
  272TMC3    H2 4117   3.873   3.941  14.628 -0.2560  0.9417  0.0464
  272TMC3    C7 4118   3.621   3.999  14.653 -0.4552 -0.4389  0.5659
  272TMC3    C8 4119   4.035   3.924  14.416  0.1981  0.0152 -1.0989
  272TMC3    O1 4120   3.508   3.956  14.653  0.0472  0.1951 -0.1683
  272TMC3    O2 4121   4.090   3.957  14.314  0.0193  0.4526  0.5720
  273MPD2     C 4122   0.522   2.105  11.925  0.8061  0.7971  0.2178
  273MPD2    C1 4123   0.521   2.228  11.988 -0.1826 -0.2367 -1.0793
  273MPD2    C2 4124   0.456   2.331  11.921  0.3298 -0.5134  0.2567
  273MPD2    C3 4125   0.397   2.314  11.796  0.2870  0.8364  0.2898
  273MPD2    C4 4126   0.384   2.182  11.745 -0.4467 -0.0574  0.2133
  273MPD2    C5 4127   0.458   2.083  11.808  0.0319  0.2098  0.3709
  273MPD2     H 4128   0.480   2.432  11.950  1.1900 -0.0247 -2.1288
  273MPD2    H1 4129   0.332   2.153  11.654 -0.6882  0.0590  0.3134
  273MPD2    H2 4130   0.559   2.016  11.975 -0.1433 -0.8642 -2.0360
  273MPD2    H3 4131   0.460   1.989  11.755  1.6237  1.2073 -1.3472
  273MPD2     N 4132   0.346   2.427  11.717 -0.2352 -0.0878 -0.2813
  273MPD2    H5 4133   0.374   2.517  11.756  0.8255 -1.0894  1.2429
  273MPD2    N1 4134   0.583   2.251  12.113  0.2696  0.1560  0.0311
  273MPD2    H7 4135   0.646   2.177  12.143  0.0418 -0.1580 -0.2675
  274TMC3    C1 4136   0.225   2.562  11.577  0.0937  0.4283 -0.0930
  274TMC3    C2 4137   0.216   2.589  11.436 -0.6619  0.0341 -0.0369
  274TMC3    C3 4138   0.207   2.721  11.413  0.8760  0.1617 -0.3675
  274TMC3    C4 4139   0.220   2.657  11.676  0.3709 -0.8050  0.0922
  274TMC3    C5 4140   0.208   2.787  11.636  0.4054  0.0459  0.1926
  274TMC3    C6 4141   0.213   2.821  11.503 -0.3026  0.3962 -0.2092
  274TMC3     C 4142   0.278   2.428  11.602 -0.4390 -0.5449 -0.2246
  274TMC3     O 4143   0.284   2.344  11.516 -0.4127 -0.4212 -0.8841
  274TMC3     H 4144   0.204   2.512  11.361  0.1337  1.0537 -1.2188
  274TMC3    H1 4145   0.215   2.636  11.783 -3.0563 -0.6066 -0.0194
  274TMC3    H2 4146   0.199   2.924  11.474  0.0293 -0.0113 -1.8205
  274TMC3    C7 4147   0.255   2.890  11.726 -0.2535 -0.2336  0.6478
  274TMC3    C8 4148   0.204   2.772  11.275  0.4642  0.1371 -0.1019
  274TMC3    O1 4149   0.306   2.986  11.671 -0.0451 -0.0854 -0.3055
  274TMC3    O2 4150   0.268   2.874  11.257 -0.0331  0.2038  0.4384
  275MPD2     C 4151   0.329   0.601  14.316 -0.1949 -0.5186  0.6892
  275MPD2    C1 4152   0.302   0.548  14.436  0.8761 -0.0391 -0.6109
  275MPD2    C2 4153   0.215   0.448  14.448  0.4232  0.5652 -0.4890
  275MPD2    C3 4154   0.130   0.407  14.342 -0.1546 -0.1941 -0.1820
  275MPD2    C4 4155   0.160   0.462  14.219  0.1699  0.9210  0.1518
  275MPD2    C5 4156   0.254   0.556  14.208 -0.3534 -0.0642  0.0906
  275MPD2     H 4157   0.200   0.400  14.544  1.0649  1.1499 -0.0942
  275MPD2    H1 4158   0.108   0.434  14.128 -1.3544 -1.8284  1.8824
  275MPD2    H2 4159   0.404   0.677  14.296 -0.4195 -0.2986  0.6741
  275MPD2    H3 4160   0.285   0.588  14.109  0.3998 -1.2742 -0.0662
  275MPD2     N 4161   0.022   0.324  14.361 -0.5722  0.2073  0.0793
  275MPD2    H5 4162   4.699   0.286  14.281  1.6222  0.8525 -1.5931
  275MPD2    N1 4163   0.373   0.589  14.554 -0.3269 -0.2286 -0.1105
  275MPD2    H7 4164   0.344   0.542  14.640 -0.1166 -0.8499 -0.3843
  276TMC3    C1 4165   0.470   0.722  14.720  0.1017 -0.7316  0.0242
  276TMC3    C2 4166   0.375   0.685  14.810  0.1691  0.0191 -0.2299
  276TMC3    C3 4167   0.400   0.725  14.936  0.0125  0.3226 -0.6235
  276TMC3    C4 4168   0.569   0.810  14.753 -0.0509 -0.3358 -0.3386
  276TMC3    C5 4169   0.577   0.860  14.880 -0.5636 -0.3569 -0.4911
  276TMC3    C6 4170   0.494   0.811  14.977  0.3016 -0.4012  0.2520
  276TMC3     C 4171   0.453   0.699  14.579  0.2801  0.4728 -0.5776
  276TMC3     O 4172   0.513   0.766  14.501 -0.8473 -0.4663  0.7534
  276TMC3     H 4173   0.282   0.635  14.789  0.2157 -0.3464  0.4226
  276TMC3    H1 4174   0.649   0.838  14.685 -1.1336  2.1572 -0.5690
  276TMC3    H2 4175   0.519   0.830  15.081 -0.3468  0.9398  0.1575
  276TMC3    C7 4176   0.691   0.936  14.922  0.2322 -0.2897 -0.9730
  276TMC3    C8 4177   0.343   0.641  15.042 -0.3754 -0.0305 -0.2814
  276TMC3    O1 4178   0.674   1.003  15.023  0.4712 -0.4056  0.2614
  276TMC3    O2 4179   0.338   0.697  15.149  0.5487 -0.6301  0.2931
  277MPD2     C 4180   2.313   4.173  13.309 -0.0483 -0.0834 -0.4275
  277MPD2    C1 4181   2.177   4.190  13.290  0.0613 -0.4508  0.0534
  277MPD2    C2 4182   2.090   4.124  13.376  0.5237  0.2742  0.4871
  277MPD2    C3 4183   2.136   4.035  13.473  0.1254 -0.1145 -0.7295
  277MPD2    C4 4184   2.272   4.007  13.486 -0.4186  0.2167  0.9229
  277MPD2    C5 4185   2.355   4.080  13.409 -0.8254 -0.2441  0.4686
  277MPD2     H 4186   1.987   4.127  13.341  1.3531  1.1270 -1.9071
  277MPD2    H1 4187   2.314   3.944  13.563  1.5274  1.5391  0.9376
  277MPD2    H2 4188   2.383   4.224  13.245 -1.5279  2.4127 -0.0480
  277MPD2    H3 4189   2.462   4.070  13.423 -1.2460 -1.4997  2.7109
  277MPD2     N 4190   2.042   3.976  13.569 -0.2340 -0.1735 -0.1661
  277MPD2    H5 4191   2.085   3.906  13.629 -2.5224 -2.1342 -0.7808
  277MPD2    N1 4192   2.139   4.295  13.199 -0.0769 -0.0366  1.1468
  277MPD2    H7 4193   2.207   4.338  13.137  0.3046  0.7705  2.1290
  278TMC3    C1 4194   1.852   3.962  13.708  0.4678  0.1418 -0.2691
  278TMC3    C2 4195   1.829   3.829  13.694 -0.6323 -0.1275  0.6161
  278TMC3    C3 4196   1.721   3.770  13.747  0.1451  0.1428  0.0670
  278TMC3    C4 4197   1.756   4.036  13.762 -0.3131 -0.6250 -0.0681
  278TMC3    C5 4198   1.648   3.980  13.816 -0.4262 -0.5906 -0.1647
  278TMC3    C6 4199   1.620   3.845  13.814  1.0947  0.2198  0.0283
  278TMC3     C 4200   1.919   4.027  13.600  0.4898 -0.0683 -0.5850
  278TMC3     O 4201   1.874   4.134  13.559 -0.4115  0.1229  0.7599
  278TMC3     H 4202   1.901   3.762  13.650 -0.2725  1.0820 -0.6485
  278TMC3    H1 4203   1.768   4.144  13.771 -0.1508 -0.6112 -0.4414
  278TMC3    H2 4204   1.540   3.801  13.873  0.9500 -1.0328 -1.1293
  278TMC3    C7 4205   1.550   4.066  13.869 -0.0423  0.3306 -0.1820
  278TMC3    C8 4206   1.700   3.637  13.706 -0.3638  0.0653 -0.5232
  278TMC3    O1 4207   1.583   4.181  13.901  0.4841  0.1848 -0.3606
  278TMC3    O2 4208   1.790   3.561  13.679  1.0917 -0.2264 -0.0633
  279MPD2     C 4209   1.746   4.447  17.660 -0.0187 -0.4458  0.3760
  279MPD2    C1 4210   1.615   4.476  17.661 -1.2748 -0.3568 -0.2404
  279MPD2    C2 4211   1.559   4.507  17.540  0.6293 -0.8805  0.3822
  279MPD2    C3 4212   1.635   4.507  17.425 -0.5492 -0.4468  0.1815
  279MPD2    C4 4213   1.768   4.493  17.430  0.2741 -0.0037 -0.1049
  279MPD2    C5 4214   1.822   4.457  17.548  0.7198 -0.1626 -0.2113
  279MPD2     H 4215   1.454   4.534  17.535  1.1580  1.0949 -0.0945
  279MPD2    H1 4216   1.831   4.493  17.342  1.8100  1.7674  0.9744
  279MPD2    H2 4217   1.793   4.428   0.051 -1.7298 -1.8314  0.9494
  279MPD2    H3 4218   1.927   4.443  17.568  0.6714  2.0103  1.5480
  279MPD2     N 4219   1.583   4.524  17.299  0.4296  0.0565  0.4946
  279MPD2    H5 4220   1.647   4.548  17.224  0.3717 -1.7904 -0.1549
  279MPD2    N1 4221   1.535   4.476   0.081 -0.3156 -0.4537  0.0338
  279MPD2    H7 4222   1.572   4.438   0.167  0.2757 -0.8111 -0.3764
  280TMC3    C1 4223   1.356   4.502   0.226  0.3501  0.5022 -0.1862
  280TMC3    C2 4224   1.285   4.391   0.222  0.2693  0.1675  0.6088
  280TMC3    C3 4225   1.147   4.391   0.252  0.6582 -0.0803 -0.4308
  280TMC3    C4 4226   1.290   4.611   0.274  0.5450 -0.8692 -0.2115
  280TMC3    C5 4227   1.155   4.611   0.299  0.0372  0.1942 -1.0414
  280TMC3    C6 4228   1.072   4.504   0.291 -0.1780 -0.4933 -0.3913
  280TMC3     C 4229   1.409   4.528   0.089  0.4984 -0.0783  0.5532
  280TMC3     O 4230   1.338   4.605   0.026 -0.4999 -0.6160  0.0962
  280TMC3     H 4231   1.325   4.302   0.175  1.0812  0.3321  0.9878
  280TMC3    H1 4232   1.338   4.707   0.258 -0.3442  0.0108  2.4346
  280TMC3    H2 4233   0.967   4.500   0.317 -0.3021 -0.5555 -0.9072
  280TMC3    C7 4234   1.106   0.019   0.336  0.2611  0.0217 -0.5167
  280TMC3    C8 4235   1.078   4.314   0.146  0.4090 -0.2793  0.0861
  280TMC3    O1 4236   1.192   0.097   0.377 -0.3020  0.0276  0.0874
  280TMC3    O2 4237   1.145   4.288   0.044 -0.2645 -0.0399 -0.7200
  281TMC3    C1 4238   0.182   4.347  13.024 -0.0305 -0.5623 -0.2133
  281TMC3    C2 4239   0.230   4.372  12.900  0.0922 -0.5294 -0.4248
  281TMC3    C3 4240   0.208   4.282  12.807  0.0786  0.4566 -0.0558
  281TMC3    C4 4241   0.095   4.245  13.053 -0.1359 -0.8543 -0.2418
  281TMC3    C5 4242   0.078   4.155  12.949  0.2941 -0.1372  0.1142
  281TMC3    C6 4243   0.138   4.171  12.826 -0.6972  0.6168 -0.0412
  281TMC3     C 4244   0.180   4.460  13.110 -0.2036 -0.1964  0.1006
  281TMC3     O 4245   0.278   4.533  13.114 -0.1961 -0.3733  0.3608
  281TMC3     H 4246   0.285   4.464  12.882 -0.6816  0.0220  0.0053
  281TMC3    H1 4247   0.050   4.238  13.151  2.8608 -0.0337  1.2151
  281TMC3    H2 4248   0.114   4.103  12.745  0.5886  2.4100 -1.9264
  281TMC3    C7 4249   4.692   4.068  12.941 -0.1608 -0.6126 -0.2681
  281TMC3    C8 4250   0.253   4.303  12.667  0.5483 -0.2856 -0.3942
  281TMC3    O1 4251   4.640   4.038  12.833 -0.0633  0.4561  0.0755
  281TMC3    O2 4252   0.307   4.214  12.612 -0.1792 -0.5336 -0.1561
  282MPD2     C 4253   2.010   1.122  15.030 -0.1875  0.0898  0.6331
  282MPD2    C1 4254   1.913   1.213  15.045  0.5009  0.0343  0.2440
  282MPD2    C2 4255   1.856   1.271  14.928  0.5063  0.7889 -0.5287
  282MPD2    C3 4256   1.909   1.252  14.803  0.1911  0.6006 -0.9910
  282MPD2    C4 4257   2.017   1.165  14.792  0.2071  0.4906 -0.5528
  282MPD2    C5 4258   2.059   1.100  14.906  0.0561  0.0092  0.4570
  282MPD2     H 4259   1.768   1.334  14.935  0.1905  0.2500  0.3585
  282MPD2    H1 4260   2.057   1.129  14.697 -1.2116 -0.1512 -0.9139
  282MPD2    H2 4261   2.051   1.062  15.110  0.0848 -1.5987 -0.7908
  282MPD2    H3 4262   2.124   1.016  14.885  1.1001  0.7260  0.8244
  282MPD2     N 4263   1.847   1.318  14.697 -0.3946 -0.5001 -0.1426
  282MPD2    H5 4264   1.764   1.369  14.726 -0.5101 -2.2788  2.7375
  282MPD2    N1 4265   1.853   1.246  15.169 -0.6083  0.4588 -0.6038
  282MPD2    H7 4266   1.775   1.311  15.172 -0.3378  0.8269 -1.5202
  283TMC3    C1 4267   1.829   1.229  15.406 -0.1945  0.4732  0.1911
  283TMC3    C2 4268   1.816   1.363  15.423 -0.0658  0.3592  0.2056
  283TMC3    C3 4269   1.748   1.413  15.534 -0.3015  0.4942  0.0732
  283TMC3    C4 4270   1.781   1.137  15.493  0.1851 -0.2061  0.6892
  283TMC3    C5 4271   1.714   1.184  15.600  0.5013  0.1136  0.9450
  283TMC3    C6 4272   1.703   1.320  15.624  0.8804  0.7201  0.3517
  283TMC3     C 4273   1.889   1.171  15.284 -0.2494 -0.7015 -0.4724
  283TMC3     O 4274   1.936   1.059  15.291  0.0110 -0.4295 -0.3968
  283TMC3     H 4275   1.870   1.428  15.355  0.7462 -2.4875 -1.8565
  283TMC3    H1 4276   1.792   1.031  15.474  1.7332  0.3051 -1.2581
  283TMC3    H2 4277   1.647   1.355  15.710 -0.2995 -2.1830  0.7628
  283TMC3    C7 4278   1.629   1.102  15.691 -0.4299 -0.4859  0.3448
  283TMC3    C8 4279   1.818   1.526  15.594 -0.3601 -0.2646 -0.7062
  283TMC3    O1 4280   1.614   1.155  15.803  0.0371 -0.0124 -0.6442
  283TMC3    O2 4281   1.857   1.507  15.711  0.3600 -0.3236 -0.6062
  284MPD2     C 4282   0.627   0.606  11.680 -0.6205  0.0140 -0.2105
  284MPD2    C1 4283   0.730   0.573  11.589 -0.1011 -0.0194 -0.1636
  284MPD2    C2 4284   0.818   0.476  11.614 -0.0259  0.5142 -0.1117
  284MPD2    C3 4285   0.799   0.388  11.723 -0.4043 -0.3898 -0.3909
  284MPD2    C4 4286   0.687   0.418  11.812 -0.0583  0.3685 -0.5250
  284MPD2    C5 4287   0.618   0.534  11.794  0.6494 -0.5214  0.0892
  284MPD2     H 4288   0.908   0.468  11.554 -1.2999 -0.3155 -1.9126
  284MPD2    H1 4289   0.675   0.364  11.905 -2.6518 -1.4591 -1.9327
  284MPD2    H2 4290   0.569   0.698  11.672 -0.3353  0.2063 -0.1001
  284MPD2    H3 4291   0.540   0.560  11.865  1.1842 -1.2537  0.9339
  284MPD2     N 4292   0.880   0.279  11.757 -0.0789  0.3125  0.0922
  284MPD2    H5 4293   0.863   0.225  11.841  1.2418 -0.2496 -0.0084
  284MPD2    N1 4294   0.772   0.658  11.483  0.4425  0.0414 -0.3177
  284MPD2    H7 4295   0.842   0.623  11.419  1.3544 -1.1277  1.2988
  285TMC3    C1 4296   0.809   0.841  11.355  0.2539  0.1778 -0.1215
  285TMC3    C2 4297   0.810   0.762  11.244 -0.0347  0.4566  0.1957
  285TMC3    C3 4298   0.805   0.828  11.123 -0.2214 -0.0548 -0.0190
  285TMC3    C4 4299   0.800   0.974  11.344 -0.7551  0.0084 -0.2169
  285TMC3    C5 4300   0.808   1.032  11.223  0.2244 -1.0820 -0.0416
  285TMC3    C6 4301   0.802   0.962  11.108  0.6635 -0.1141  1.0124
  285TMC3     C 4302   0.736   0.787  11.467  0.2102  0.2750  0.6663
  285TMC3     O 4303   0.676   0.859  11.543  0.1007  0.6314 -0.3685
  285TMC3     H 4304   0.799   0.654  11.248  2.1723  0.3107  2.2201
  285TMC3    H1 4305   0.798   1.036  11.432 -3.0618 -1.6215  0.8907
  285TMC3    H2 4306   0.797   1.003  11.008  0.0338 -1.6782  0.3923
  285TMC3    C7 4307   0.802   1.180  11.222  0.8980 -0.2901  0.2742
  285TMC3    C8 4308   0.774   0.736  11.016 -0.1636 -0.2352  0.0374
  285TMC3    O1 4309   0.808   1.236  11.331 -0.0716 -0.0173  0.3035
  285TMC3    O2 4310   0.813   0.618  11.019  0.0957  0.0314 -0.3010
  286MPD2     C 4311   0.253   3.643   1.532 -0.0435  0.4011  0.3454
  286MPD2    C1 4312   0.302   3.759   1.477 -0.1358 -0.1332 -0.1504
  286MPD2    C2 4313   0.400   3.744   1.378 -0.4066  0.3158  0.3203
  286MPD2    C3 4314   0.471   3.625   1.366  0.7901  0.3621 -0.0814
  286MPD2    C4 4315   0.431   3.512   1.436  0.0501  0.2898  0.5141
  286MPD2    C5 4316   0.325   3.525   1.522  0.3339  0.3094  0.3231
  286MPD2     H 4317   0.433   3.832   1.325  3.4737 -1.7835 -0.7665
  286MPD2    H1 4318   0.484   3.419   1.426 -2.3710 -1.1073  0.6377
  286MPD2    H2 4319   0.174   3.646   1.606 -1.2758 -0.7077 -0.9366
  286MPD2    H3 4320   0.285   3.444   1.582 -1.3791  1.0906  0.2303
  286MPD2     N 4321   0.587   3.603   1.282 -0.4948  0.4003  0.0357
  286MPD2    H5 4322   0.637   3.515   1.285 -1.3911 -0.0949  0.0570
  286MPD2    N1 4323   0.260   3.889   1.499  0.2003  0.7656  0.5223
  286MPD2    H7 4324   0.310   3.962   1.448 -2.5419  3.2940  1.4454
  287TMC3    C1 4325   0.761   3.644   1.139 -0.3547 -0.5718 -0.7084
  287TMC3    C2 4326   0.769   3.639   1.004  0.4438  0.7306  0.0700
  287TMC3    C3 4327   0.874   3.572   0.952 -1.2306  0.2311 -0.1030
  287TMC3    C4 4328   0.855   3.597   1.219 -0.2073 -0.4981  0.2131
  287TMC3    C5 4329   0.968   3.544   1.169  0.1560  0.4512  0.2576
  287TMC3    C6 4330   0.979   3.538   1.034 -0.0445 -0.0370  0.8577
  287TMC3     C 4331   0.640   3.690   1.192 -0.0681 -0.3920  0.2312
  287TMC3     O 4332   0.605   3.801   1.159  0.0503  0.5458  0.2168
  287TMC3     H 4333   0.676   3.665   0.954  0.0554  1.3111  1.1058
  287TMC3    H1 4334   0.847   3.614   1.326  0.6020  1.8060 -0.1031
  287TMC3    H2 4335   1.060   3.480   0.992 -0.3083 -0.4081  0.8633
  287TMC3    C7 4336   1.078   3.511   1.259  0.5337  0.9257 -0.6012
  287TMC3    C8 4337   0.894   3.556   0.812  0.7719  0.4363 -0.3246
  287TMC3    O1 4338   1.044   3.504   1.377  0.1012 -0.0061 -0.2939
  287TMC3    O2 4339   0.972   3.466   0.778 -0.1092  0.3383  0.0737
  288TMC3    C1 4340   2.425   3.676  14.445  0.0291 -0.5680 -0.4600
  288TMC3    C2 4341   2.297   3.675  14.487 -1.1776 -0.4771  0.1945
  288TMC3    C3 4342   2.207   3.762  14.446 -0.2191 -0.2114  0.4661
  288TMC3    C4 4343   2.450   3.754  14.332  0.4563 -1.0321 -0.2679
  288TMC3    C5 4344   2.358   3.848  14.281  0.2658  0.5597  0.0328
  288TMC3    C6 4345   2.237   3.847  14.343  0.5492 -0.0071  0.3059
  288TMC3     C 4346   2.533   3.638  14.529  0.0259  0.1832 -0.0918
  288TMC3     O 4347   2.508   3.562  14.623  0.7818  0.4102  0.4669
  288TMC3     H 4348   2.285   3.624  14.582 -1.4969  1.1592  1.0268
  288TMC3    H1 4349   2.537   3.725  14.273  0.5786 -0.1427 -0.5169
  288TMC3    H2 4350   2.158   3.918  14.322  0.4748 -0.1688  0.0305
  288TMC3    C7 4351   2.377   3.908  14.148 -0.3521  0.2705  0.1005
  288TMC3    C8 4352   2.097   3.809  14.533  0.8162  0.5259  0.3897
  288TMC3    O1 4353   2.479   3.871  14.090  0.5140  0.5135 -0.0197
  288TMC3    O2 4354   2.077   3.932  14.531  0.3244  0.3380  0.1970
  289MPD2     C 4355   2.146   2.930  14.406  0.4061 -0.2810 -0.5945
  289MPD2    C1 4356   2.138   3.050  14.341  0.4288 -0.6387  0.5169
  289MPD2    C2 4357   2.027   3.078  14.263 -0.8566  0.1340 -0.2870
  289MPD2    C3 4358   1.928   2.991  14.243  0.7463  0.4809 -0.3378
  289MPD2    C4 4359   1.932   2.876  14.312  0.9746  0.2713  0.1489
  289MPD2    C5 4360   2.042   2.844  14.393 -0.0092 -0.2474  0.2937
  289MPD2     H 4361   2.039   3.173  14.212 -0.0476  0.0440 -0.2752
  289MPD2    H1 4362   1.848   2.807  14.309  0.1502  1.1870  1.8755
  289MPD2    H2 4363   2.233   2.903  14.466  0.4660  0.2178 -0.4572
  289MPD2    H3 4364   2.051   2.754  14.452 -1.1182 -1.2778 -1.1136
  289MPD2     N 4365   1.809   3.019  14.169 -1.1146 -0.1902  0.8702
  289MPD2    H5 4366   1.734   2.952  14.173 -0.5335 -0.8275  1.0391
  289MPD2    N1 4367   2.248   3.141  14.357 -0.4279  0.2612  0.3970
  289MPD2    H7 4368   2.323   3.107  14.415  0.2494  1.4912  0.2506
  290TMC3    C1 4369   1.662   3.118  14.020  0.4553  0.1439  0.1938
  290TMC3    C2 4370   1.607   3.239  13.996  0.3101 -0.5159  0.0187
  290TMC3    C3 4371   1.473   3.243  13.961 -0.4094 -0.6079 -0.2538
  290TMC3    C4 4372   1.588   3.000  14.007 -0.2009 -0.0472  0.6111
  290TMC3    C5 4373   1.464   3.008  13.951  0.1056  0.4194  0.2359
  290TMC3    C6 4374   1.408   3.132  13.921 -0.5914  0.0512 -0.1117
  290TMC3     C 4375   1.795   3.126  14.085  0.1970 -0.0145  0.3604
  290TMC3     O 4376   1.855   3.234  14.070  0.7193 -0.3652  0.0153
  290TMC3     H 4377   1.668   3.328  13.998  0.5509 -0.6540 -1.1333
  290TMC3    H1 4378   1.627   2.903  14.035 -1.4949 -1.0560 -1.0539
  290TMC3    H2 4379   1.311   3.148  13.875 -1.3992  2.8800  2.5764
  290TMC3    C7 4380   1.367   2.900  13.968  0.0156 -0.1502  0.0880
  290TMC3    C8 4381   1.381   3.359  13.981 -0.1932  0.2076 -0.1005
  290TMC3    O1 4382   1.252   2.941  13.975  0.3748  0.2422 -0.3262
  290TMC3    O2 4383   1.263   3.345  13.952 -0.3698  0.1350  0.3950
  291MPD2     C 4384   1.586   3.054   0.045 -0.7281  0.2600 -0.3248
  291MPD2    C1 4385   1.594   2.914   0.050  0.8238 -0.1449  0.4033
  291MPD2    C2 4386   1.711   2.855   0.101 -0.0479  0.6125 -0.0574
  291MPD2    C3 4387   1.819   2.933   0.142  0.5040 -0.2198  0.0745
  291MPD2    C4 4388   1.798   3.069   0.136 -0.4428 -0.0302 -0.2726
  291MPD2    C5 4389   1.687   3.139   0.098  0.2698 -0.4033 -0.7559
  291MPD2     H 4390   1.719   2.748   0.113 -0.7779  0.3885 -1.5242
  291MPD2    H1 4391   1.884   3.131   0.161 -0.7421  0.7955 -1.3089
  291MPD2    H2 4392   1.505   3.110   0.000  0.8224  1.8622 -1.1668
  291MPD2    H3 4393   1.669   3.246   0.098  1.6208 -0.1699  0.0818
  291MPD2     N 4394   1.949   2.886   0.186 -0.1103 -0.3329 -0.8668
  291MPD2    H5 4395   2.014   2.951   0.229 -0.8035  0.8185 -1.5596
  291MPD2    N1 4396   1.489   2.826   0.017  0.2910 -0.1522  0.0339
  291MPD2    H7 4397   1.515   2.728   0.025  0.7150 -0.1203 -1.0530
  292TMC3    C1 4398   1.279   2.746   0.012 -0.1272 -0.0926 -0.4380
  292TMC3    C2 4399   1.208   2.734   0.135  0.1452 -0.4428 -0.0235
  292TMC3    C3 4400   1.128   2.625   0.145  0.0631  0.6481  0.4487
  292TMC3    C4 4401   1.283   2.649  17.616 -0.3434 -0.0783 -0.2188
  292TMC3    C5 4402   1.195   2.545  17.632  0.0094  0.9944 -0.5943
  292TMC3    C6 4403   1.120   2.532   0.043  0.0835 -0.6701 -0.1643
  292TMC3     C 4404   1.360   2.866  17.701 -0.4885  0.3075 -0.8394
  292TMC3     O 4405   1.312   2.971   0.031 -0.0902  0.3131  0.4282
  292TMC3     H 4406   1.204   2.809   0.214  1.4482  0.0522 -0.4280
  292TMC3    H1 4407   1.344   2.654  17.527 -1.2244  1.1553 -0.7449
  292TMC3    H2 4408   1.053   2.448   0.053 -1.1358  0.4055  0.6892
  292TMC3    C7 4409   1.204   2.428  17.556  0.0900 -0.7570  0.6606
  292TMC3    C8 4410   1.065   2.602   0.275  0.1879  0.0510 -0.6153
  292TMC3    O1 4411   1.310   2.393  17.505 -0.1224 -0.0829  0.5410
  292TMC3    O2 4412   1.106   2.679   0.361  0.3710 -0.1309 -0.5729
  293MPD2     C 4413   3.601   3.957  12.891 -0.4989  0.3130  0.4080
  293MPD2    C1 4414   3.479   3.946  12.958 -0.6365  0.2382 -0.4725
  293MPD2    C2 4415   3.472   3.974  13.094 -0.2731 -0.3594  0.1966
  293MPD2    C3 4416   3.585   4.020  13.161 -0.9567 -0.2735 -1.0289
  293MPD2    C4 4417   3.706   4.028  13.095 -0.2663 -0.1889  0.2330
  293MPD2    C5 4418   3.712   3.990  12.965  0.3925 -0.2759 -0.2890
  293MPD2     H 4419   3.373   3.978  13.138  0.0449 -0.2244  0.8967
  293MPD2    H1 4420   3.801   4.049  13.142  0.7673  2.1903 -2.9554
  293MPD2    H2 4421   3.611   3.940  12.785  1.1194  0.9820  0.4659
  293MPD2    H3 4422   3.809   3.995  12.919  1.3867 -0.1166  1.7963
  293MPD2     N 4423   3.565   4.054  13.298 -0.0385  0.4790  0.1487
  293MPD2    H5 4424   3.478   4.043  13.349  0.2123  2.3595  1.0185
  293MPD2    N1 4425   3.374   3.925  12.874 -0.4402  0.0289  1.0882
  293MPD2    H7 4426   3.396   3.903  12.777  0.5616  0.2086  1.2772
  294TMC3    C1 4427   3.169   3.889  12.781 -0.5783  0.1994  0.1727
  294TMC3    C2 4428   3.063   3.803  12.787 -0.6244 -0.6927 -0.6191
  294TMC3    C3 4429   2.981   3.788  12.679 -1.3431 -0.6588 -0.3945
  294TMC3    C4 4430   3.198   3.964  12.671 -0.2270 -0.1069 -0.1325
  294TMC3    C5 4431   3.117   3.950  12.565 -0.1679 -0.3233 -0.7583
  294TMC3    C6 4432   3.013   3.854  12.560 -0.3822 -0.0628  0.0726
  294TMC3     C 4433   3.241   3.904  12.904 -0.1053 -0.3752  0.1065
  294TMC3     O 4434   3.179   3.894  13.011  0.3739 -0.4711 -0.3241
  294TMC3     H 4435   3.061   3.758  12.886 -0.7876 -2.6460 -1.4947
  294TMC3    H1 4436   3.268   4.047  12.673 -0.3227 -0.0304  0.0210
  294TMC3    H2 4437   2.948   3.856  12.474  0.3647  0.1517 -0.4898
  294TMC3    C7 4438   3.113   4.053  12.454 -0.1244 -0.0715  0.2001
  294TMC3    C8 4439   2.916   3.667  12.674 -0.5866  0.1489  0.4447
  294TMC3    O1 4440   3.001   4.078  12.407 -0.6675 -0.6399 -0.4814
  294TMC3    O2 4441   2.879   3.608  12.774 -0.0620 -0.0354  0.8861
  295MPD2     C 4442   3.252   1.900   0.825 -0.0207 -0.1740  0.5223
  295MPD2    C1 4443   3.222   2.030   0.790  0.2009 -0.7119 -0.1821
  295MPD2    C2 4444   3.222   2.131   0.884 -0.0111 -0.7626 -0.7305
  295MPD2    C3 4445   3.258   2.107   1.013 -0.3502 -0.3084  0.1370
  295MPD2    C4 4446   3.299   1.980   1.047 -0.5497  0.0528  0.2207
  295MPD2    C5 4447   3.288   1.876   0.955  0.1828  0.2475 -0.7034
  295MPD2     H 4448   3.193   2.230   0.852 -0.4064 -0.4714  0.5245
  295MPD2    H1 4449   3.329   1.957   1.149 -0.1138 -0.9143 -0.1247
  295MPD2    H2 4450   3.260   1.820   0.752  0.0690 -0.1656  0.5239
  295MPD2    H3 4451   3.297   1.774   0.991  2.5369  1.5626  2.4632
  295MPD2     N 4452   3.262   2.206   1.112 -0.1336 -0.6729  0.2234
  295MPD2    H5 4453   3.289   2.177   1.205  0.2075 -1.5238 -0.1427
  295MPD2    N1 4454   3.197   2.069   0.659  0.0686 -0.5513  0.2244
  295MPD2    H7 4455   3.175   2.168   0.654  0.0039 -0.4967  1.6086
  296TMC3    C1 4456   3.234   2.402   1.240 -0.8346 -0.5051 -0.3329
  296TMC3    C2 4457   3.142   2.491   1.292  0.0421  0.4899  0.0048
  296TMC3    C3 4458   3.146   2.546   1.414  0.8929 -0.4396 -0.1412
  296TMC3    C4 4459   3.342   2.364   1.322 -0.9351  0.6670 -0.2940
  296TMC3    C5 4460   3.337   2.407   1.452  0.3406  0.2774  0.3443
  296TMC3    C6 4461   3.252   2.500   1.494  0.3877 -0.1589  0.6099
  296TMC3     C 4462   3.216   2.336   1.107 -0.5981 -0.1665  0.0090
  296TMC3     O 4463   3.171   2.407   1.020  0.2569 -0.7051  0.2353
  296TMC3     H 4464   3.053   2.519   1.237  1.4394 -0.1445 -2.5838
  296TMC3    H1 4465   3.420   2.295   1.292 -1.2515  0.0451  0.3349
  296TMC3    H2 4466   3.270   2.549   1.589 -3.2165  2.5180 -0.1019
  296TMC3    C7 4467   3.444   2.361   1.535 -0.6090  0.0872 -0.1440
  296TMC3    C8 4468   3.029   2.615   1.469 -0.1058 -0.0466 -0.5176
  296TMC3    O1 4469   3.542   2.313   1.481 -0.2917  0.4471 -0.5944
  296TMC3    O2 4470   2.935   2.630   1.392 -0.3928 -0.7424  0.8966
  297MPD2     C 4471   0.947   4.585  16.412  0.7076 -0.0927  0.1508
  297MPD2    C1 4472   0.920   4.693  16.333 -0.4941 -0.5851  0.3845
  297MPD2    C2 4473   1.015   0.060  16.301  0.5567  0.2796 -0.7247
  297MPD2    C3 4474   1.145   0.033  16.346 -0.0003  0.7507  0.8927
  297MPD2    C4 4475   1.171   4.644  16.424 -0.7635 -0.2574 -0.0478
  297MPD2    C5 4476   1.071   4.565  16.464 -0.4114 -0.4653 -0.1957
  297MPD2     H 4477   1.005   0.141  16.229  1.7683 -0.1090 -1.3343
  297MPD2    H1 4478   1.259   4.617  16.481 -1.3416  0.5034  1.2105
  297MPD2    H2 4479   0.867   4.522  16.448 -1.2181  0.1821 -3.6835
  297MPD2    H3 4480   1.106   4.476  16.516 -2.8885  0.1187  2.4467
  297MPD2     N 4481   1.244   0.128  16.307 -0.1049  0.9403  0.4972
  297MPD2    H5 4482   1.206   0.212  16.266 -0.1182  0.2754 -0.8545
  297MPD2    N1 4483   0.788   4.715  16.286  0.0967 -0.2513  0.0390
  297MPD2    H7 4484   0.787   0.068  16.222  1.3062 -2.0700 -2.2241
  298TMC3    C1 4485   0.567   4.693  16.233  0.2031 -0.2840  0.0198
  298TMC3    C2 4486   0.609   0.019  16.112  0.0664  0.3261  0.2156
  298TMC3    C3 4487   0.539   0.114  16.052  0.4513  0.5371 -0.3189
  298TMC3    C4 4488   0.457   0.029  16.298  0.0218  0.3845  0.3932
  298TMC3    C5 4489   0.394   0.123  16.226 -0.5302  0.6261 -0.0755
  298TMC3    C6 4490   0.422   0.168  16.099  0.2967  0.1787 -0.5722
  298TMC3     C 4491   0.670   4.644  16.317  0.9033  0.1442 -0.0355
  298TMC3     O 4492   0.643   4.564  16.406  0.1583  0.3897 -0.2378
  298TMC3     H 4493   0.683   4.689  16.055 -0.4757  0.7539 -0.8809
  298TMC3    H1 4494   0.444   0.003  16.402  1.2038  0.9589  0.6902
  298TMC3    H2 4495   0.379   0.247  16.039  1.8213  0.0113 -1.9085
  298TMC3    C7 4496   0.295   0.194  16.297  0.3421 -0.3867 -1.1474
  298TMC3    C8 4497   0.581   0.127  15.919 -0.1310 -0.2987  0.0955
  298TMC3    O1 4498   0.285   0.186  16.417  0.0400 -0.6241  0.1176
  298TMC3    O2 4499   0.699   0.117  15.902  0.0195 -0.3465  0.0954
  299MPD2     C 4500   2.211   4.253  11.014 -0.7060 -0.3214  0.2309
  299MPD2    C1 4501   2.191   4.342  10.909 -0.3022 -0.2131 -0.3258
  299MPD2    C2 4502   2.099   4.313  10.808  0.2768 -0.2866  0.6495
  299MPD2    C3 4503   2.027   4.195  10.815  0.0266  0.1517  0.5339
  299MPD2    C4 4504   2.032   4.120  10.928 -0.4991  0.0313 -0.0768
  299MPD2    C5 4505   2.134   4.145  11.017 -0.2853 -0.8702  0.3495
  299MPD2     H 4506   2.091   4.383  10.726 -0.6262 -1.5498 -0.3511
  299MPD2    H1 4507   1.976   4.028  10.939 -0.4514  0.0325  0.1660
  299MPD2    H2 4508   2.280   4.272  11.096  0.7089  0.4926 -1.1643
  299MPD2    H3 4509   2.146   4.073  11.097 -0.5840  0.2931  1.4444
  299MPD2     N 4510   1.921   4.172  10.722 -0.3174 -0.1737  0.5047
  299MPD2    H5 4511   1.847   4.107  10.746  0.0379 -0.9556 -0.4591
  299MPD2    N1 4512   2.267   4.464  10.911  0.0803 -0.6841 -0.2929
  299MPD2    H7 4513   2.310   4.492  10.998 -0.9530  0.2421 -0.0898
  300TMC3    C1 4514   1.808   4.190  10.525  0.5860  1.2769  0.1493
  300TMC3    C2 4515   1.800   4.241  10.404  0.1773  0.1914 -0.2688
  300TMC3    C3 4516   1.686   4.273  10.336 -0.0673 -0.5757  0.9701
  300TMC3    C4 4517   1.686   4.161  10.588 -1.2923  0.2576 -0.0206
  300TMC3    C5 4518   1.569   4.202  10.526  0.3058  0.2407  0.5861
  300TMC3    C6 4519   1.563   4.258  10.399  1.3720  0.2126 -0.0192
  300TMC3     C 4520   1.923   4.222  10.593  0.4886 -0.6041  0.1270
  300TMC3     O 4521   2.004   4.294  10.536 -0.5275 -0.3059 -0.2469
  300TMC3     H 4522   1.888   4.270  10.348  0.2515 -1.3471 -0.9691
  300TMC3    H1 4523   1.691   4.121  10.689  0.6305  0.6580  0.0611
  300TMC3    H2 4524   1.475   4.283  10.342 -1.2935 -0.4977  3.8041
  300TMC3    C7 4525   1.484   4.263  10.625 -0.4246  0.4318 -0.3402
  300TMC3    C8 4526   1.698   4.405  10.272  0.2277 -0.4150  0.5919
  300TMC3    O1 4527   1.515   4.256  10.741 -0.5406  0.0007  0.0415
  300TMC3    O2 4528   1.801   4.470  10.296  0.2608  0.8958  0.4078
  301MPD2     C 4529   3.226   0.465   1.392  0.4699 -0.0837 -0.8917
  301MPD2    C1 4530   3.181   0.462   1.260  0.2405 -0.2648  0.1073
  301MPD2    C2 4531   3.237   0.381   1.164  0.5928  0.0928  0.3674
  301MPD2    C3 4532   3.357   0.310   1.185 -0.0514  0.1083 -0.1694
  301MPD2    C4 4533   3.410   0.329   1.310 -1.0887  0.9809 -0.4868
  301MPD2    C5 4534   3.343   0.386   1.418 -0.2141 -0.2761 -0.1902
  301MPD2     H 4535   3.181   0.373   1.071  0.2755  1.3322  0.4620
  301MPD2    H1 4536   3.511   0.302   1.337 -1.1855  0.8745 -0.2255
  301MPD2    H2 4537   3.182   0.524   1.471  2.1039  0.7450 -0.6075
  301MPD2    H3 4538   3.393   0.402   1.513 -0.3566 -0.1631 -0.1338
  301MPD2     N 4539   3.420   0.213   1.100 -0.8693 -0.1044  0.2357
  301MPD2    H5 4540   3.490   0.161   1.151  0.1019 -1.0290 -2.0502
  301MPD2    N1 4541   3.058   0.521   1.220  0.0983  0.6546  0.4584
  301MPD2    H7 4542   3.027   0.503   1.125 -2.1440  0.7934  1.1539
  302TMC3    C1 4543   3.467   0.064   0.930 -0.7603 -0.0965  0.3343
  302TMC3    C2 4544   3.560   0.008   1.018  0.1548 -0.3066 -0.6141
  302TMC3    C3 4545   3.653   4.643   0.959 -0.0137 -0.2258 -0.2223
  302TMC3    C4 4546   3.473   0.054   0.794  0.0393  0.0317 -0.0917
  302TMC3    C5 4547   3.569   4.693   0.742 -0.0673 -0.5264 -0.0519
  302TMC3    C6 4548   3.661   4.630   0.821 -0.4691  1.0552  0.3594
  302TMC3     C 4549   3.385   0.168   0.978 -0.3494  0.2598  0.2960
  302TMC3     O 4550   3.303   0.217   0.900 -0.5388 -0.1443  0.5045
  302TMC3     H 4551   3.560   0.022   1.125 -0.3040 -1.7074 -0.4432
  302TMC3    H1 4552   3.422   0.120   0.725 -0.1891 -1.0396 -0.9508
  302TMC3    H2 4553   3.743   4.578   0.773 -0.7401  0.8348  0.1298
  302TMC3    C7 4554   3.597   4.694   0.601  0.9202  0.4654 -0.3503
  302TMC3    C8 4555   3.776   4.604   1.031  0.1183 -0.1516 -0.1374
  302TMC3    O1 4556   3.716   4.692   0.576  0.0800  0.4043  0.4101
  302TMC3    O2 4557   3.864   4.553   0.963 -0.3673  0.0928 -0.0324
  303MPD2     C 4558   4.191   4.708  10.580 -0.8010 -0.3221 -0.3461
  303MPD2    C1 4559   4.174   4.572  10.591 -0.2424  0.4764  0.2089
  303MPD2    C2 4560   4.176   4.495  10.474  0.2247 -0.1010 -0.1224
  303MPD2    C3 4561   4.201   4.550  10.350  0.4362 -0.5853  0.2338
  303MPD2    C4 4562   4.213   4.689  10.339  0.1610 -0.0208 -0.6960
  303MPD2    C5 4563   4.201   0.037  10.454 -0.3380 -0.3481 -0.7346
  303MPD2     H 4564   4.154   4.389  10.479  1.4505 -0.3365  0.4247
  303MPD2    H1 4565   4.215   0.022  10.248  2.4776 -2.3181 -2.1269
  303MPD2    H2 4566   4.191   0.048  10.667  1.2782 -0.0494 -0.5542
  303MPD2    H3 4567   4.208   0.145  10.449 -0.1707 -0.3868 -1.3944
  303MPD2     N 4568   4.207   4.466  10.240 -0.0388  0.1959  0.6705
  303MPD2    H5 4569   4.188   4.367  10.250  0.1907  0.2997  2.1239
  303MPD2    N1 4570   4.177   4.524  10.724  0.2754  0.8910  0.1336
  303MPD2    H7 4571   4.178   4.586  10.804 -1.7748  1.3896 -0.2499
  304TMC3    C1 4572   4.183   4.381  10.911 -0.1344  0.6542 -1.0764
  304TMC3    C2 4573   4.078   4.454  10.964  0.4750 -0.0119 -0.1723
  304TMC3    C3 4574   4.005   4.406  11.070 -0.5136  0.3198 -0.2016
  304TMC3    C4 4575   4.201   4.251  10.944 -0.0337 -0.7595  0.4085
  304TMC3    C5 4576   4.140   4.204  11.054 -0.9050 -0.7340 -0.5914
  304TMC3    C6 4577   4.047   4.283  11.121 -0.4942  0.2854  0.7716
  304TMC3     C 4578   4.176   4.388  10.768 -0.4791  0.2099 -0.6690
  304TMC3     O 4579   4.173   4.286  10.698 -0.4292 -0.4781  0.1129
  304TMC3     H 4580   4.043   4.551  10.932  2.6243  0.4470 -1.1122
  304TMC3    H1 4581   4.270   4.186  10.891 -1.0102 -1.0180 -0.5613
  304TMC3    H2 4582   3.977   4.233  11.187 -1.2190  1.7210  1.1093
  304TMC3    C7 4583   4.079   4.077  11.009  0.6210 -0.7837 -0.4711
  304TMC3    C8 4584   3.871   4.403  11.031  0.3204 -0.5185  0.2577
  304TMC3    O1 4585   4.051   4.070  10.891  0.3260 -0.2936  0.3872
  304TMC3    O2 4586   3.853   4.415  10.911  0.2883 -0.0755 -0.1882
  305MPD2     C 4587   2.383   1.690  14.065  0.2111 -0.1309  0.8191
  305MPD2    C1 4588   2.283   1.600  14.111  0.3217  0.1758  0.0240
  305MPD2    C2 4589   2.219   1.518  14.017 -0.2556  0.3237 -0.0529
  305MPD2    C3 4590   2.234   1.543  13.884  0.3762  0.3068  0.5545
  305MPD2    C4 4591   2.327   1.632  13.839  0.4915 -0.0491  0.4900
  305MPD2    C5 4592   2.400   1.700  13.931 -0.1381 -0.1145 -0.0141
  305MPD2     H 4593   2.134   1.459  14.048  0.3347  0.2441  1.4104
  305MPD2    H1 4594   2.343   1.653  13.734  0.2426 -1.7370  0.1241
  305MPD2    H2 4595   2.447   1.756  14.122  2.6434 -1.0671 -0.8246
  305MPD2    H3 4596   2.483   1.761  13.897  0.1793 -1.2361 -1.2538
  305MPD2     N 4597   2.157   1.475  13.781  0.2351 -0.7475  0.3885
  305MPD2    H5 4598   2.165   1.518  13.689  0.0588  0.2732  0.8468
  305MPD2    N1 4599   2.244   1.583  14.248  0.4298  0.3856  0.4845
  305MPD2    H7 4600   2.181   1.504  14.258 -0.9975  1.6194  1.2757
  306TMC3    C1 4601   2.242   1.620  14.478 -0.0133  0.7132 -0.4602
  306TMC3    C2 4602   2.257   1.486  14.506  0.1127  1.1356 -0.5744
  306TMC3    C3 4603   2.242   1.453  14.640 -0.2037  0.1685 -0.5230
  306TMC3    C4 4604   2.207   1.710  14.568  0.6421  0.3977 -0.4270
  306TMC3    C5 4605   2.172   1.673  14.695  0.5025  0.2472 -0.4090
  306TMC3    C6 4606   2.195   1.541  14.734 -0.6841 -0.5974 -0.8701
  306TMC3     C 4607   2.280   1.665  14.351  0.1968  0.5154  0.1881
  306TMC3     O 4608   2.339   1.775  14.353  0.1441  0.5486  0.2336
  306TMC3     H 4609   2.298   1.420  14.431 -2.5686 -2.1060  0.8496
  306TMC3    H1 4610   2.197   1.814  14.538 -2.1004 -0.1143 -1.3073
  306TMC3    H2 4611   2.171   1.511  14.836  1.7382 -0.3016 -0.2293
  306TMC3    C7 4612   2.185   1.781  14.787 -0.4264 -0.4661 -0.0191
  306TMC3    C8 4613   2.313   1.335  14.693 -0.1118  0.3207 -0.5428
  306TMC3    O1 4614   2.255   1.875  14.749  0.1818 -0.3222  0.5686
  306TMC3    O2 4615   2.349   1.247  14.613  0.3646 -0.2466 -0.8580
  307MPD2     C 4616   0.003   3.210   0.541 -0.1031  0.5813  0.0201
  307MPD2    C1 4617   4.705   3.346   0.509  0.0619 -0.3154 -0.5378
  307MPD2    C2 4618   4.627   3.419   0.593  0.1117 -0.3979  0.1757
  307MPD2    C3 4619   4.568   3.359   0.703 -0.3965  0.7070 -0.0345
  307MPD2    C4 4620   4.598   3.224   0.730 -0.3497  0.1618  0.0321
  307MPD2    C5 4621   4.681   3.156   0.656  0.4923  0.1718 -0.1288
  307MPD2     H 4622   4.606   3.524   0.577  1.6421 -0.1380 -0.1015
  307MPD2    H1 4623   4.564   3.177   0.822 -1.3313 -0.1212 -0.4742
  307MPD2    H2 4624   0.041   3.135   0.472  0.0909 -0.4449  1.2305
  307MPD2    H3 4625   4.712   3.055   0.678 -0.0452  0.2143  0.8196
  307MPD2     N 4626   4.478   3.431   0.781 -0.3763 -0.0303 -0.4959
  307MPD2    H5 4627   4.484   3.532   0.772 -0.4675  0.0153 -0.0401
  307MPD2    N1 4628   0.025   3.413   0.394  0.1979  0.1129  0.3690
  307MPD2    H7 4629   0.006   3.512   0.389  2.2022  0.4362 -0.9535
  308TMC3    C1 4630   4.096   3.609   0.848  0.2978 -0.0068  0.1139
  308TMC3    C2 4631   4.158   3.728   0.856  0.5473 -0.2036 -0.0310
  308TMC3    C3 4632   4.289   3.714   0.899 -0.4070  0.6659 -0.3556
  308TMC3    C4 4633   4.162   3.486   0.869 -0.0989  0.3241 -0.0030
  308TMC3    C5 4634   4.293   3.485   0.917  0.6126  0.6153 -1.2934
  308TMC3    C6 4635   4.352   3.602   0.943  0.0751  0.5784 -0.0031
  308TMC3     C 4636   3.975   3.595   0.769  0.2036 -0.3780  0.6145
  308TMC3     O 4637   3.938   3.486   0.737 -0.3276  0.2717 -0.0619
  308TMC3     H 4638   4.111   3.824   0.837  2.0784  0.3848 -0.8347
  308TMC3    H1 4639   4.109   3.395   0.843  1.0125 -0.2798 -0.1422
  308TMC3    H2 4640   4.456   3.602   0.975  0.3860 -2.1281 -1.0118
  308TMC3    C7 4641   4.381   3.378   0.860 -0.0367  0.1293 -0.4456
  308TMC3    C8 4642   4.368   3.832   0.898  1.0172 -0.0415 -0.1327
  308TMC3    O1 4643   4.342   3.263   0.878  0.1949 -0.2665  0.1544
  308TMC3    O2 4644   4.473   3.825   0.958 -0.5136 -0.2023  0.0706
  309MPD2     C 4645   3.725   4.492  16.987 -0.7456  0.1390  0.2170
  309MPD2    C1 4646   3.648   4.553  16.884 -0.3778  0.3146  0.8123
  309MPD2    C2 4647   3.529   4.609  16.923  0.1684  0.0502  0.5382
  309MPD2    C3 4648   3.475   4.592  17.052 -0.0319 -0.4584  0.4396
  309MPD2    C4 4649   3.548   4.541  17.157  0.0574 -0.3070 -0.0656
  309MPD2    C5 4650   3.671   4.483  17.116 -0.8680  0.3428  0.2390
  309MPD2     H 4651   3.475   4.656  16.841  0.3954  0.3810  0.5786
  309MPD2    H1 4652   3.517   4.516  17.258 -0.4578  3.3023  0.6862
  309MPD2    H2 4653   3.825   4.456  16.964 -0.6677  0.1450  0.5467
  309MPD2    H3 4654   3.732   4.438  17.193  0.3709 -1.0927 -1.5779
  309MPD2     N 4655   3.344   4.628  17.092  0.4073 -0.0004  0.5249
  309MPD2    H5 4656   3.317   4.621  17.189  0.6914 -0.5350  0.5659
  309MPD2    N1 4657   3.695   4.557  16.749  0.0421 -0.2639  0.3369
  309MPD2    H7 4658   3.638   4.611  16.683 -0.0861 -0.1866  0.5115
  310TMC3    C1 4659   3.865   4.565  16.580  0.6790  0.1935  0.3496
  310TMC3    C2 4660   3.772   4.597  16.485 -0.1438  0.4102  0.1404
  310TMC3    C3 4661   3.816   4.613  16.352  0.5554 -1.4233  0.0300
  310TMC3    C4 4662   3.988   4.527  16.545  0.6755  0.2598 -0.2087
  310TMC3    C5 4663   4.026   4.537  16.415 -0.9186 -0.6406  0.9189
  310TMC3    C6 4664   3.936   4.570  16.315  0.0428 -0.4275  0.5689
  310TMC3     C 4665   3.823   4.514  16.707  0.1556 -0.1201  0.0848
  310TMC3     O 4666   3.886   4.425  16.764 -0.7895  0.4009 -0.1236
  310TMC3     H 4667   3.667   4.614  16.508  0.3919  1.1436  2.0221
  310TMC3    H1 4668   4.053   4.496  16.627  0.4334 -0.1648 -0.1796
  310TMC3    H2 4669   3.961   4.544  16.213 -2.9284  1.6510 -0.6916
  310TMC3    C7 4670   4.142   4.456  16.385  0.3514  0.1613 -0.3522
  310TMC3    C8 4671   3.725   4.628  16.237 -0.7726 -0.1716  0.2888
  310TMC3    O1 4672   4.183   4.379  16.471 -0.2981 -0.7577  0.0926
  310TMC3    O2 4673   3.610   4.605  16.259  0.5648 -0.0660  0.2719
  311MPD2     C 4674   0.864   0.962  12.904  0.2057  0.2945  0.5925
  311MPD2    C1 4675   0.867   1.053  13.001  0.2872  0.0344  0.0899
  311MPD2    C2 4676   0.747   1.090  13.067  0.7169  0.1303  0.1669
  311MPD2    C3 4677   0.628   1.042  13.025  0.6540  0.5093  0.4193
  311MPD2    C4 4678   0.631   0.948  12.930 -0.5041 -1.1204 -0.1080
  311MPD2    C5 4679   0.751   0.902  12.876  0.5866  0.0444  0.7125
  311MPD2     H 4680   0.753   1.174  13.135  1.1530 -1.1024  1.6448
  311MPD2    H1 4681   0.540   0.901  12.893  0.2929 -2.3161 -0.5427
  311MPD2    H2 4682   0.955   0.926  12.858  0.8957  1.5096  0.9938
  311MPD2    H3 4683   0.758   0.822  12.803 -0.1633 -0.2714  0.9792
  311MPD2     N 4684   0.503   1.064  13.078  0.6090 -0.0367  0.4146
  311MPD2    H5 4685   0.437   0.992  13.050  0.8443  0.5102 -1.5021
  311MPD2    N1 4686   0.982   1.119  13.039 -0.1633  0.1861 -0.4712
  311MPD2    H7 4687   0.990   1.161  13.131  0.3910 -0.9776  0.0033
  312TMC3    C1 4688   0.330   1.141  13.208  0.5115  0.0790 -0.2962
  312TMC3    C2 4689   0.242   1.135  13.103  0.2194  0.2155  0.1384
  312TMC3    C3 4690   0.108   1.129  13.130 -0.1216 -1.0793 -0.3548
  312TMC3    C4 4691   0.292   1.165  13.333  0.2663  0.4365 -0.1247
  312TMC3    C5 4692   0.157   1.156  13.361 -0.2716 -0.0249 -0.4073
  312TMC3    C6 4693   0.072   1.119  13.261  0.3759  0.7350 -0.5781
  312TMC3     C 4694   0.468   1.157  13.173 -0.1100 -0.1864 -0.2861
  312TMC3     O 4695   0.531   1.240  13.235 -0.9128  0.3235 -0.0153
  312TMC3     H 4696   0.277   1.137  13.001 -0.0324  1.9319  0.0858
  312TMC3    H1 4697   0.369   1.162  13.410 -1.0340  0.7684  1.1910
  312TMC3    H2 4698   4.696   1.089  13.283  0.8884  1.4511  2.8181
  312TMC3    C7 4699   0.120   1.113  13.493 -0.9209  0.0716  0.3017
  312TMC3    C8 4700   0.007   1.074  13.037 -0.3797 -0.4178 -0.1879
  312TMC3    O1 4701   0.013   1.058  13.497 -0.6542 -0.0800 -0.2460
  312TMC3    O2 4702   4.617   1.056  13.076 -0.3674 -0.2986  0.5355
  313MPD2     C 4703   1.378   0.141  10.444  0.2785  0.4004  0.7608
  313MPD2    C1 4704   1.317   0.235  10.366 -1.3125  0.2455 -0.2000
  313MPD2    C2 4705   1.271   0.205  10.239 -0.0331 -0.1391  0.1998
  313MPD2    C3 4706   1.268   0.076  10.197  0.5036 -0.1595  0.2648
  313MPD2    C4 4707   1.343   4.712  10.264 -0.3634  0.2047 -0.0820
  313MPD2    C5 4708   1.400   0.025  10.382 -0.1682 -0.3182  0.2764
  313MPD2     H 4709   1.234   0.285  10.175 -3.3014 -1.6039  0.2568
  313MPD2    H1 4710   1.363   4.613  10.225  2.5750  0.2282  1.3046
  313MPD2    H2 4711   1.424   0.163  10.539  2.2032  1.7094 -0.4537
  313MPD2    H3 4712   1.459   4.674  10.432  2.8601  0.5879 -1.8696
  313MPD2     N 4713   1.181   0.050  10.092  0.2315 -0.0824  0.2220
  313MPD2    H5 4714   1.133   0.131  10.053 -1.3101 -0.7943  0.6418
  313MPD2    N1 4715   1.285   0.367  10.408 -0.8277 -0.0925  0.5995
  313MPD2    H7 4716   1.215   0.414  10.351 -1.3079 -0.9681  0.4697
  314TMC3    C1 4717   1.158   0.486  10.561 -0.3782  0.4001 -0.1112
  314TMC3    C2 4718   1.154   0.570  10.669  0.5871 -0.1683  0.0308
  314TMC3    C3 4719   1.072   0.685  10.669 -0.4024  0.0936 -0.9928
  314TMC3    C4 4720   1.068   0.494  10.458  0.2400 -0.0550  0.2770
  314TMC3    C5 4721   0.993   0.612  10.457 -0.0009  0.2145 -0.0555
  314TMC3    C6 4722   0.990   0.706  10.556  1.0017  0.5906  0.0235
  314TMC3     C 4723   1.282   0.405  10.537  0.0295 -0.0853  0.3766
  314TMC3     O 4724   1.332   0.341  10.631  0.0870  0.2576  0.6530
  314TMC3     H 4725   1.225   0.556  10.750 -0.4502  0.2654  1.0164
  314TMC3    H1 4726   1.051   0.422  10.379 -0.5543 -1.9943  2.1953
  314TMC3    H2 4727   0.930   0.794  10.538 -0.2766 -0.8222 -2.5209
  314TMC3    C7 4728   0.873   0.601  10.371 -0.2187  0.1488  0.4592
  314TMC3    C8 4729   1.078   0.792  10.763  0.3946  0.0006 -0.0894
  314TMC3    O1 4730   0.831   0.492  10.329 -0.2804  0.5759 -0.3003
  314TMC3    O2 4731   1.044   0.903  10.726 -0.2235  0.0333  0.3885
  315MPD2     C 4732   4.659   4.640   0.225  0.0232  0.3388 -0.4247
  315MPD2    C1 4733   0.062   4.600   0.208 -0.0506 -0.5904 -0.8201
  315MPD2    C2 4734   0.150   4.693   0.165  0.6538  0.3791 -0.5804
  315MPD2    C3 4735   0.115   0.086   0.114 -0.7275 -0.8407  0.0934
  315MPD2    C4 4736   4.703   0.112   0.094 -0.3439  0.4433 -0.0055
  315MPD2    C5 4737   4.618   0.032   0.162 -0.1886  0.2875  0.3796
  315MPD2     H 4738   0.254   4.669   0.180  0.1150 -1.4937  0.1826
  315MPD2    H1 4739   4.665   0.212   0.072 -1.3091  0.2844  0.9146
  315MPD2    H2 4740   4.577   4.581   0.264  1.5554 -1.3166  0.2921
  315MPD2    H3 4741   4.520   0.073   0.183 -0.5758 -0.2881 -0.2779
  315MPD2     N 4742   0.221   0.176   0.073  0.9357 -0.0071  0.1205
  315MPD2    H5 4743   0.318   0.154   0.091  0.4381 -3.0634 -0.7640
  315MPD2    N1 4744   0.110   4.471   0.253 -0.4795 -0.1909 -0.0327
  315MPD2    H7 4745   0.210   4.459   0.246 -0.3869 -0.4600  1.8989
  316TMC3    C1 4746   0.316   0.376  17.685 -0.3954  0.4142  0.1498
  316TMC3    C2 4747   0.407   0.375   0.085  0.1112 -0.3986  0.2740
  316TMC3    C3 4748   0.483   0.486   0.104 -0.1296  0.4710  0.1797
  316TMC3    C4 4749   0.316   0.483  17.596  0.1276 -0.1039  0.0384
  316TMC3    C5 4750   0.405   0.585  17.619 -0.2701 -0.1776  0.0269
  316TMC3    C6 4751   0.481   0.594   0.025  0.1459 -0.4513 -0.4655
  316TMC3     C 4752   0.196   0.290  17.702 -0.0084 -0.0627 -0.6840
  316TMC3     O 4753   0.100   0.326  17.635  0.4314  0.0717  0.3616
  316TMC3     H 4754   0.406   0.294   0.157  0.8912 -1.0655 -0.4582
  316TMC3    H1 4755   0.246   0.481  17.513 -0.9252 -0.1317  0.9271
  316TMC3    H2 4756   0.556   0.672   0.034 -1.0715  0.7365 -0.6931
  316TMC3    C7 4757   0.438   0.683  17.524 -0.0260 -0.2674 -0.4599
  316TMC3    C8 4758   0.593   0.479   0.195  0.1228 -0.1695  0.1243
  316TMC3    O1 4759   0.506   0.779  17.562  0.1825 -0.6012 -0.2720
  316TMC3    O2 4760   0.609   0.580   0.265  0.4123  0.7577 -0.1398
  317MPD2     C 4761   2.064   2.996  12.268 -0.3388 -0.9457  0.6281
  317MPD2    C1 4762   2.158   2.894  12.241 -0.3656 -0.9639 -0.1181
  317MPD2    C2 4763   2.215   2.837  12.354 -0.5202  0.0830  0.0306
  317MPD2    C3 4764   2.189   2.884  12.479 -0.4418  0.0840  0.4631
  317MPD2    C4 4765   2.110   2.999  12.493  0.0880  0.1252 -0.7633
  317MPD2    C5 4766   2.046   3.056  12.392 -0.1476  0.4357  0.8734
  317MPD2     H 4767   2.268   2.743  12.344 -0.2548  0.3587 -1.1528
  317MPD2    H1 4768   2.085   3.031  12.593  1.4242  0.5056 -0.5573
  317MPD2    H2 4769   2.022   3.050  12.184 -1.9834  0.7345  2.5285
  317MPD2    H3 4770   1.964   3.125  12.406 -1.2732 -0.7718  0.1744
  317MPD2     N 4771   2.246   2.819  12.589  0.1750  0.1091 -0.1104
  317MPD2    H5 4772   2.300   2.738  12.562  1.2211  0.3718  1.2062
  317MPD2    N1 4773   2.180   2.833  12.117  0.3310 -0.1674  0.0877
  317MPD2    H7 4774   2.255   2.764  12.113  0.2444 -0.2148 -0.6662
  318TMC3    C1 4775   2.300   2.762  12.798  0.0565  0.3107  0.0354
  318TMC3    C2 4776   2.236   2.697  12.902  0.3595 -0.6717 -0.4077
  318TMC3    C3 4777   2.309   2.604  12.971 -0.0031  0.2057  0.0642
  318TMC3    C4 4778   2.441   2.753  12.774  0.3703 -0.8338  0.1976
  318TMC3    C5 4779   2.505   2.663  12.852  0.7938 -0.3403  0.5310
  318TMC3    C6 4780   2.448   2.589  12.951  0.5550 -0.2833 -0.9474
  318TMC3     C 4781   2.244   2.865  12.722  0.1929  0.0770 -0.1819
  318TMC3     O 4782   2.172   2.946  12.779 -0.0014 -0.2308  0.1292
  318TMC3     H 4783   2.130   2.716  12.916  0.6638  1.9138 -1.4828
  318TMC3    H1 4784   2.488   2.813  12.698 -2.2682  0.1173 -0.6844
  318TMC3    H2 4785   2.505   2.510  12.998 -0.0129 -1.5897 -2.4540
  318TMC3    C7 4786   2.654   2.661  12.838 -0.4568  0.5049 -0.0118
  318TMC3    C8 4787   2.243   2.514  13.062 -0.0330  0.0389 -0.5750
  318TMC3    O1 4788   2.704   2.735  12.754  0.6292  0.7356  0.0322
  318TMC3    O2 4789   2.312   2.453  13.142  0.1471  0.6475  0.2692
  319MPD2     C 4790   3.079   4.314  16.850 -0.0055 -0.0300 -0.5248
  319MPD2    C1 4791   3.023   4.197  16.906 -0.0573  0.0499 -0.0196
  319MPD2    C2 4792   2.936   4.115  16.836 -0.2465 -0.2124  0.2283
  319MPD2    C3 4793   2.900   4.156  16.709 -0.6469  0.2797  1.0964
  319MPD2    C4 4794   2.947   4.273  16.651 -0.1721  0.3518 -0.8039
  319MPD2    C5 4795   3.035   4.343  16.725 -0.0622 -0.2412 -1.0520
  319MPD2     H 4796   2.897   4.021  16.873  0.7052 -0.6620  0.1034
  319MPD2    H1 4797   2.924   4.306  16.551  1.1209  0.4646 -1.0665
  319MPD2    H2 4798   3.158   4.368  16.901 -0.0070 -1.6149  1.1510
  319MPD2    H3 4799   3.091   4.419  16.671  1.4140 -0.6280 -0.0465
  319MPD2     N 4800   2.822   4.083  16.621 -0.2026  0.3506 -0.0915
  319MPD2    H5 4801   2.825   4.115  16.525 -0.0876  3.6398  1.0403
  319MPD2    N1 4802   3.056   4.151  17.036  0.5831  0.3731  0.1381
  319MPD2    H7 4803   3.004   4.071  17.070  0.2708  0.8498  0.7776
  320TMC3    C1 4804   2.633   3.950  16.551 -0.0268  1.1526 -1.1366
  320TMC3    C2 4805   2.595   4.032  16.448  0.7056  0.5432 -0.3269
  320TMC3    C3 4806   2.480   4.002  16.372 -0.3623 -0.2701  0.7348
  320TMC3    C4 4807   2.571   3.833  16.567 -0.6707  0.0501  1.0178
  320TMC3    C5 4808   2.457   3.806  16.497 -0.0146 -0.5037  0.1978
  320TMC3    C6 4809   2.405   3.895  16.404  0.9575  0.5661 -0.1854
  320TMC3     C 4810   2.727   3.986  16.655  0.0932 -0.2550 -0.2543
  320TMC3     O 4811   2.708   3.930  16.761 -0.8626  0.0263 -0.3686
  320TMC3     H 4812   2.634   4.132  16.428  1.8672 -0.1938 -1.7321
  320TMC3    H1 4813   2.617   3.756  16.627 -0.2578 -1.0397 -0.6789
  320TMC3    H2 4814   2.320   3.872  16.340  1.6280 -0.3823 -0.7217
  320TMC3    C7 4815   2.432   3.664  16.485 -0.1933  0.6667  0.2307
  320TMC3    C8 4816   2.455   4.082  16.254 -0.2507 -0.8081 -0.1843
  320TMC3    O1 4817   2.529   3.594  16.488  0.2388 -0.1966 -0.1113
  320TMC3    O2 4818   2.499   4.196  16.248 -0.0972  0.7568  0.4083
  321TMC3    C1 4819   3.158   4.141  17.244  0.0853  0.2824 -0.0435
  321TMC3    C2 4820   3.058   4.051  17.277  0.1447  0.0139 -0.1880
  321TMC3    C3 4821   3.076   3.985  17.395  0.0705  0.2946  0.0407
  321TMC3    C4 4822   3.273   4.158  17.310 -0.0159 -0.0424 -0.5323
  321TMC3    C5 4823   3.291   4.078  17.418  0.5434  0.2346 -0.0058
  321TMC3    C6 4824   3.194   3.996  17.464  0.1122 -0.0685  0.2637
  321TMC3     C 4825   3.154   4.210  17.120  0.3712 -0.5000 -0.7996
  321TMC3     O 4826   3.218   4.317  17.122 -0.7146 -0.1118  0.1451
  321TMC3     H 4827   2.957   4.063  17.241 -0.5253  0.5003  1.8136
  321TMC3    H1 4828   3.362   4.208  17.273  0.4508 -1.1878 -0.9618
  321TMC3    H2 4829   3.213   3.946  17.558 -1.8942  0.1729  0.8025
  321TMC3    C7 4830   3.421   4.016  17.399 -0.0750 -0.8506  0.6284
  321TMC3    C8 4831   2.975   3.882  17.440 -0.0599 -0.4910  0.2532
  321TMC3    O1 4832   3.516   4.092  17.399 -0.1689  0.5433 -0.7964
  321TMC3    O2 4833   2.881   3.869  17.358  0.2588 -0.0779  0.7800
  322MPD2     C 4834   1.737   0.622  13.392 -0.0073  0.5167  0.8640
  322MPD2    C1 4835   1.869   0.597  13.403  0.0720 -0.4584 -0.4244
  322MPD2    C2 4836   1.912   0.468  13.387 -0.5250  0.2538  0.2515
  322MPD2    C3 4837   1.822   0.368  13.371  0.5956 -0.8583  0.3716
  322MPD2    C4 4838   1.685   0.396  13.359 -0.4071  0.1917  0.0700
  322MPD2    C5 4839   1.645   0.528  13.363 -0.6004 -0.1736 -0.0681
  322MPD2     H 4840   2.017   0.448  13.371 -0.5799  1.1601 -1.2697
  322MPD2    H1 4841   1.606   0.323  13.346 -0.3694 -0.2616  2.4842
  322MPD2    H2 4842   1.693   0.720  13.407 -1.4886 -0.2379  1.4760
  322MPD2    H3 4843   1.541   0.551  13.344 -0.4538  0.9448  0.4971
  322MPD2     N 4844   1.873   0.235  13.367 -0.0470 -0.8390 -0.1942
  322MPD2    H5 4845   1.972   0.222  13.381  0.6184  2.1939 -2.2199
  322MPD2    N1 4846   1.956   0.701  13.440 -0.4270  0.3991  0.8410
  322MPD2    H7 4847   1.925   0.797  13.454 -0.0050  0.6932 -0.2706
  323TMC3    C1 4848   2.152   0.802  13.520  0.4317 -0.0796  0.0400
  323TMC3    C2 4849   2.278   0.840  13.479  0.8297  0.1974 -0.6079
  323TMC3    C3 4850   2.342   0.934  13.554  0.1185 -0.2256  0.0166
  323TMC3    C4 4851   2.095   0.857  13.629 -0.3023 -0.2157 -0.3359
  323TMC3    C5 4852   2.174   0.942  13.707  0.3129 -0.0043  0.1906
  323TMC3    C6 4853   2.301   0.967  13.671  0.1652  0.2320  0.0167
  323TMC3     C 4854   2.094   0.690  13.455  0.1092  0.7429 -0.9857
  323TMC3     O 4855   2.166   0.596  13.419 -0.3334  0.0065 -0.1403
  323TMC3     H 4856   2.311   0.792  13.388  0.1478 -0.3487 -0.5696
  323TMC3    H1 4857   2.006   0.811  13.672  0.6034 -0.6527  1.0797
  323TMC3    H2 4858   2.358   1.038  13.730 -1.0825  2.6707 -1.6949
  323TMC3    C7 4859   2.147   0.930  13.852 -0.2609  0.7586  0.1090
  323TMC3    C8 4860   2.470   0.967  13.492 -0.5499  0.4925  0.0067
  323TMC3    O1 4861   2.071   0.843  13.878  0.0153  0.0638  0.6708
  323TMC3    O2 4862   2.553   1.011  13.565 -0.8047 -0.4677  0.1351
  324MPD2     C 4863   3.900   1.728  13.949  0.2750  0.6049 -0.3558
  324MPD2    C1 4864   3.912   1.818  14.057  0.5643 -0.7825 -0.6219
  324MPD2    C2 4865   3.797   1.861  14.113  0.1065 -0.1043  0.0632
  324MPD2    C3 4866   3.679   1.810  14.067  1.0602  0.3897 -0.4699
  324MPD2    C4 4867   3.666   1.729  13.952  0.1081 -0.3434 -0.5836
  324MPD2    C5 4868   3.784   1.688  13.898 -0.2348 -0.1353  0.1717
  324MPD2     H 4869   3.796   1.928  14.198  0.4911  2.8884 -2.3024
  324MPD2    H1 4870   3.575   1.711  13.896 -0.7272  0.7410  0.4155
  324MPD2    H2 4871   3.993   1.702  13.900  0.5689 -0.3424  0.6836
  324MPD2    H3 4872   3.781   1.627  13.808 -0.6348  0.9885 -0.5791
  324MPD2     N 4873   3.553   1.858  14.111  0.0173  0.2869 -0.7171
  324MPD2    H5 4874   3.479   1.803  14.070 -0.1445  1.0060 -1.3960
  324MPD2    N1 4875   4.032   1.869  14.106 -0.4239  1.0784 -0.2726
  324MPD2    H7 4876   4.024   1.950  14.167 -0.9207  0.3819  0.5788
  325TMC3    C1 4877   3.398   1.964  14.246 -0.3115 -0.1342 -0.9993
  325TMC3    C2 4878   3.301   1.872  14.214 -0.1212 -0.3385 -0.1559
  325TMC3    C3 4879   3.171   1.899  14.259  0.2961  0.2880  0.9947
  325TMC3    C4 4880   3.370   2.082  14.302  0.1402  0.3797 -0.2050
  325TMC3    C5 4881   3.238   2.115  14.323  0.1766  0.1482 -0.3283
  325TMC3    C6 4882   3.137   2.020  14.300 -0.6489 -0.2746 -0.4872
  325TMC3     C 4883   3.529   1.965  14.190 -0.1222 -0.2709  0.5013
  325TMC3     O 4884   3.612   2.050  14.219 -0.5765  0.6646 -0.6741
  325TMC3     H 4885   3.333   1.772  14.186  0.5120 -0.7288  1.9118
  325TMC3    H1 4886   3.445   2.159  14.317  0.8001  0.0239 -1.6660
  325TMC3    H2 4887   3.035   2.057  14.305 -1.2615 -1.7625 -2.2225
  325TMC3    C7 4888   3.204   2.250  14.293 -0.1088 -0.3539  0.0112
  325TMC3    C8 4889   3.064   1.808  14.220  0.2447  0.1666  1.4321
  325TMC3    O1 4890   3.257   2.306  14.202 -0.0494 -0.9961 -0.2954
  325TMC3    O2 4891   3.098   1.754  14.113  0.1217  0.3676 -0.1484
  326MPD2     C 4892   0.231   3.588  11.359  0.0484  0.4009  0.6165
  326MPD2    C1 4893   0.270   3.503  11.263 -0.1467 -0.2207 -0.2140
  326MPD2    C2 4894   0.403   3.455  11.257  0.5674 -0.1917 -0.1184
  326MPD2    C3 4895   0.494   3.490  11.359  0.1528 -0.3767 -0.1655
  326MPD2    C4 4896   0.452   3.580  11.456 -0.1411  0.1096 -1.2898
  326MPD2    C5 4897   0.320   3.623  11.456 -1.0973 -0.3661  0.9080
  326MPD2     H 4898   0.437   3.395  11.172 -0.1702  1.1244 -1.3446
  326MPD2    H1 4899   0.510   3.618  11.540 -1.1274  1.7248 -1.3380
  326MPD2    H2 4900   0.127   3.618  11.367 -0.5488 -1.6388  0.7058
  326MPD2    H3 4901   0.285   3.688  11.536 -2.6223 -3.1177  2.5163
  326MPD2     N 4902   0.634   3.474  11.353 -0.3709 -0.0996 -0.7244
  326MPD2    H5 4903   0.692   3.524  11.419 -0.1152 -1.1153 -0.1889
  326MPD2    N1 4904   0.175   3.480  11.158  0.0218 -0.5335  0.3524
  326MPD2    H7 4905   0.198   3.410  11.088  0.6488  0.0418 -0.0161
  327TMC3    C1 4906   4.710   3.515  11.022 -0.7579  0.2427 -0.3796
  327TMC3    C2 4907   4.693   3.604  10.924  0.0983 -0.1739  0.0667
  327TMC3    C3 4908   4.643   3.556  10.803  0.8162  0.1028 -0.0556
  327TMC3    C4 4909   4.699   3.382  11.005  0.8100 -0.1613  0.5976
  327TMC3    C5 4910   4.654   3.331  10.876 -0.5021 -0.1704 -0.4636
  327TMC3    C6 4911   4.635   3.418  10.771  0.3857 -0.7530 -0.0501
  327TMC3     C 4912   0.068   3.563  11.131  0.3706  1.0359 -0.3929
  327TMC3     O 4913   0.047   3.681  11.166 -0.1406  0.2331  0.1810
  327TMC3     H 4914   4.716   3.709  10.938  0.8573 -0.0754 -1.8332
  327TMC3    H1 4915   4.696   3.321  11.095  1.2008 -0.0947  0.6579
  327TMC3    H2 4916   4.597   3.383  10.676 -0.0926  0.5399 -0.3384
  327TMC3    C7 4917   4.648   3.187  10.853 -0.9141 -0.0856  0.5579
  327TMC3    C8 4918   4.619   3.654  10.702  1.0489  0.1933 -0.7272
  327TMC3    O1 4919   4.607   3.149  10.747  0.3344 -0.5619  0.0537
  327TMC3    O2 4920   4.668   3.633  10.593 -0.6251 -0.0216  0.0216
  328MPD2     C 4921   2.246   2.797  16.920  0.2222  0.2540  0.3343
  328MPD2    C1 4922   2.167   2.693  16.881 -0.0683  0.4233  0.0178
  328MPD2    C2 4923   2.048   2.727  16.818  0.4497 -0.1266  0.3070
  328MPD2    C3 4924   2.016   2.864  16.787 -0.2937 -0.4848 -0.4401
  328MPD2    C4 4925   2.108   2.961  16.828 -0.2999 -0.3624  0.0460
  328MPD2    C5 4926   2.227   2.929  16.887  0.2069  0.7241 -0.5143
  328MPD2     H 4927   1.980   2.643  16.807 -0.5362  0.6931  0.1804
  328MPD2    H1 4928   2.080   3.065  16.815 -0.1942 -0.2781  0.4836
  328MPD2    H2 4929   2.337   2.765  16.970  0.6216 -0.1410 -0.6693
  328MPD2    H3 4930   2.293   3.004  16.928 -0.1974  0.8070 -0.0155
  328MPD2     N 4931   1.897   2.903  16.720 -0.8454 -0.4166 -0.0593
  328MPD2    H5 4932   1.877   3.002  16.718 -2.5678 -0.8322 -3.0564
  328MPD2    N1 4933   2.218   2.567  16.906  0.4593  0.5033 -0.0413
  328MPD2    H7 4934   2.299   2.559  16.967 -1.3512  0.9959  2.4303
  329TMC3    C1 4935   2.231   2.328  16.895 -0.2761 -0.9284  0.1636
  329TMC3    C2 4936   2.277   2.319  17.022  0.2588 -0.5035  0.4492
  329TMC3    C3 4937   2.309   2.191  17.076 -0.3020 -0.0021  0.8983
  329TMC3    C4 4938   2.190   2.213  16.825 -0.1528 -0.1037 -0.2438
  329TMC3    C5 4939   2.226   2.087  16.881 -0.0282 -0.0342  0.0947
  329TMC3    C6 4940   2.283   2.082  17.005 -0.3951  0.5754  0.4638
  329TMC3     C 4941   2.166   2.452  16.844  1.2068  0.2144 -0.1742
  329TMC3     O 4942   2.084   2.446  16.753 -0.0857  0.0158  0.2226
  329TMC3     H 4943   2.316   2.408  17.070 -1.7765  0.6826 -0.1384
  329TMC3    H1 4944   2.125   2.214  16.738 -0.9480 -1.5963  0.3291
  329TMC3    H2 4945   2.316   1.990  17.053 -2.3938  0.1176  0.9374
  329TMC3    C7 4946   2.218   1.968  16.805 -0.1969 -0.0131  0.1717
  329TMC3    C8 4947   2.408   2.193  17.182 -0.3591  0.4692  0.9830
  329TMC3    O1 4948   2.272   1.870  16.858  0.0177  0.2289 -0.2211
  329TMC3    O2 4949   2.492   2.104  17.176 -0.3175  0.1006  0.6587
  330TMC3    C1 4950   0.776   2.481   9.986  0.0551 -0.1868 -0.2395
  330TMC3    C2 4951   0.729   2.392   9.893 -0.1890  0.0513 -0.4596
  330TMC3    C3 4952   0.747   2.255   9.912 -0.5699  0.1368  0.3583
  330TMC3    C4 4953   0.837   2.444  10.097 -0.5123  0.6047  0.0701
  330TMC3    C5 4954   0.869   2.310  10.111 -0.1910 -0.5105  0.2509
  330TMC3    C6 4955   0.823   2.214  10.019  1.2644  0.3984  0.6635
  330TMC3     C 4956   0.724   2.620   9.979 -0.4093  0.7781  0.7536
  330TMC3     O 4957   0.759   2.696  10.068  0.4726 -0.4493 -0.9685
  330TMC3     H 4958   0.676   2.418   9.803  0.7205  0.6257 -0.8254
  330TMC3    H1 4959   0.863   2.520  10.169 -0.2159  4.0024 -3.6281
  330TMC3    H2 4960   0.835   2.107  10.031 -1.0833  0.2405  1.4975
  330TMC3    C7 4961   0.965   2.282  10.214 -0.2967 -0.1490  0.4046
  330TMC3    C8 4962   0.711   2.171   9.799 -0.1371 -0.0580 -0.0836
  330TMC3    O1 4963   0.989   2.378  10.286 -0.1388 -0.1405 -0.3338
  330TMC3    O2 4964   0.683   2.226   9.693  0.4627 -0.4088 -0.0078
  331MPD2     C 4965   2.903   1.105  12.475  0.0723  0.0800 -0.2609
  331MPD2    C1 4966   2.945   1.132  12.345 -0.9060 -0.0329 -0.0041
  331MPD2    C2 4967   2.992   1.024  12.268 -0.0999  0.2845 -1.0306
  331MPD2    C3 4968   3.014   0.896  12.319 -0.2776 -0.6277  0.1078
  331MPD2    C4 4969   2.968   0.869  12.445 -0.1091 -0.2854  0.5331
  331MPD2    C5 4970   2.910   0.970  12.519  0.3483 -0.3544  0.9342
  331MPD2     H 4971   3.010   1.042  12.162  0.6211 -2.4597 -1.3622
  331MPD2    H1 4972   2.963   0.770  12.487 -0.1213 -0.0970  0.9770
  331MPD2    H2 4973   2.877   1.183  12.545 -2.0334 -1.7284  0.9781
  331MPD2    H3 4974   2.869   0.950  12.617 -1.0098  0.1587  0.4658
  331MPD2     N 4975   3.071   0.800  12.236 -0.3324 -0.6760  0.2253
  331MPD2    H5 4976   3.124   0.832  12.156  0.2728 -4.8247 -1.0466
  331MPD2    N1 4977   2.925   1.268  12.295 -0.3114  0.0508 -0.0872
  331MPD2    H7 4978   2.894   1.339  12.361  0.4820  0.1904  0.1427
  332TMC3    C1 4979   3.171   0.590  12.216  0.5546 -0.4466  0.1777
  332TMC3    C2 4980   3.238   0.642  12.112  0.0626 -0.0961 -0.1263
  332TMC3    C3 4981   3.357   0.575  12.082 -0.3097  0.0948 -0.2069
  332TMC3    C4 4982   3.219   0.495  12.301  0.2686 -0.1119  0.5096
  332TMC3    C5 4983   3.339   0.433  12.263  0.5497 -0.5038 -0.6405
  332TMC3    C6 4984   3.409   0.477  12.153 -0.0042 -0.2729 -0.2176
  332TMC3     C 4985   3.065   0.665  12.268  0.3734  0.8319  0.7007
  332TMC3     O 4986   2.999   0.604  12.349 -0.8221  0.9519  0.4250
  332TMC3     H 4987   3.199   0.719  12.046 -0.2713  2.1648  2.7172
  332TMC3    H1 4988   3.160   0.463  12.385  1.9846 -0.0133  1.7466
  332TMC3    H2 4989   3.509   0.440  12.132 -0.2108 -1.1281  0.2992
  332TMC3    C7 4990   3.405   0.343  12.359  0.1034  0.9812  0.9484
  332TMC3    C8 4991   3.432   0.610  11.962 -0.1067 -0.3611 -0.2764
  332TMC3    O1 4992   3.338   0.257  12.413  0.8000  0.1639  0.2454
  332TMC3    O2 4993   3.516   0.529  11.918  1.0511  0.7498 -0.1895
  333MPD2     C 4994   3.510   1.627  11.405  0.8133  0.3906  0.0848
  333MPD2    C1 4995   3.597   1.547  11.331 -0.0563  0.2524 -1.0595
  333MPD2    C2 4996   3.593   1.406  11.343  0.0329  1.0551  0.0566
  333MPD2    C3 4997   3.501   1.348  11.427  0.4660 -0.0883 -0.0928
  333MPD2    C4 4998   3.430   1.433  11.510 -0.1280  0.2530  0.4806
  333MPD2    C5 4999   3.427   1.567  11.496 -0.4584  0.9999 -0.4960
  333MPD2     H 5000   3.658   1.345  11.283 -0.2222  0.9799 -0.1427
  333MPD2    H1 5001   3.376   1.397  11.597 -0.1506  1.9804  1.1718
  333MPD2    H2 5002   3.515   1.734  11.393  0.3290  0.0855 -2.8049
  333MPD2    H3 5003   3.358   1.618  11.563 -1.1622 -2.9256  1.7504
  333MPD2     N 5004   3.502   1.209  11.429 -0.2302  0.6555 -0.1518
  333MPD2    H5 5005   3.580   1.164  11.384 -1.8662  0.0670 -2.3976
  333MPD2    N1 5006   3.688   1.617  11.242 -0.5373  0.4219  0.0952
  333MPD2    H7 5007   3.669   1.716  11.239  0.1974  0.5852  0.9628
  334TMC3    C1 5008   3.835   1.659  11.061  0.0783 -0.0650  1.1729
  334TMC3    C2 5009   3.880   1.618  10.940 -0.7432 -0.8518  0.6012
  334TMC3    C3 5010   3.983   1.685  10.879 -0.3216  0.3191  0.5351
  334TMC3    C4 5011   3.874   1.779  11.108 -0.5315 -0.1630 -0.1653
  334TMC3    C5 5012   3.968   1.843  11.038 -0.1403 -0.5238  0.3997
  334TMC3    C6 5013   4.029   1.804  10.928  0.0723  0.1089 -0.0834
  334TMC3     C 5014   3.777   1.562  11.151 -0.0292  0.3510 -0.7279
  334TMC3     O 5015   3.821   1.448  11.139  0.2736 -0.2528  0.2620
  334TMC3     H 5016   3.854   1.518  10.909 -0.1316 -1.5198  2.2118
  334TMC3    H1 5017   3.860   1.796  11.214  2.7000 -0.2066  0.2896
  334TMC3    H2 5018   4.099   1.866  10.874  0.0448 -0.6521 -0.9897
  334TMC3    C7 5019   3.997   1.978  11.075  0.1446  0.4970 -0.4218
  334TMC3    C8 5020   4.067   1.601  10.796 -0.0797 -0.1750  0.1772
  334TMC3    O1 5021   4.112   2.018  11.065 -0.5801 -0.6015 -0.0498
  334TMC3    O2 5022   4.012   1.504  10.749 -0.6864  0.0239 -0.3801
  335TMC3    C1 5023   2.691   2.959  17.082  0.1196 -0.3482  0.0367
  335TMC3    C2 5024   2.615   2.867  17.010  0.2508 -0.2617 -0.3167
  335TMC3    C3 5025   2.657   2.741  17.002  0.7622  0.8582 -0.4966
  335TMC3    C4 5026   2.804   2.918  17.149 -0.4940  0.4121 -0.3665
  335TMC3    C5 5027   2.839   2.780  17.145 -0.1406 -0.1984  0.5543
  335TMC3    C6 5028   2.761   2.692  17.077 -0.1451  0.6945  0.5933
  335TMC3     C 5029   2.653   3.098  17.054  0.1061  0.4386  0.4451
  335TMC3     O 5030   2.536   3.122  17.028  0.7939 -0.9294  0.0411
  335TMC3     H 5031   2.539   2.902  16.942 -1.7967 -1.3245  1.3966
  335TMC3    H1 5032   2.870   2.989  17.197 -0.4679 -1.1944  2.0110
  335TMC3    H2 5033   2.798   2.591  17.069  0.3027  0.9845 -0.9164
  335TMC3    C7 5034   2.948   2.732  17.224 -0.2248 -0.1060  0.7858
  335TMC3    C8 5035   2.595   2.660  16.905  0.6495 -0.0420 -0.3730
  335TMC3    O1 5036   3.035   2.816  17.247 -0.0461 -1.0211  0.6013
  335TMC3    O2 5037   2.564   2.705  16.798 -0.2439  0.0220  0.5754
  336MPD2     C 5038   2.814   0.594  15.967  0.4349 -0.1891  0.4688
  336MPD2    C1 5039   2.769   0.533  15.851  0.2033  0.2464 -0.0347
  336MPD2    C2 5040   2.781   0.394  15.842 -0.0152 -0.2082  0.5263
  336MPD2    C3 5041   2.846   0.319  15.940 -0.0995  0.3575 -0.1193
  336MPD2    C4 5042   2.878   0.381  16.060 -0.1136  0.4461 -0.0923
  336MPD2    C5 5043   2.857   0.521  16.073  0.0446  0.4060  0.0664
  336MPD2     H 5044   2.762   0.349  15.745 -2.0479 -1.2396  1.4065
  336MPD2    H1 5045   2.916   0.332  16.149  0.5816  1.1961  0.0284
  336MPD2    H2 5046   2.805   0.702  15.979  0.2113  0.0410 -1.8947
  336MPD2    H3 5047   2.887   0.576  16.161 -0.9563 -0.0207  0.6708
  336MPD2     N 5048   2.862   0.177  15.932  0.0067 -0.6752 -0.1293
  336MPD2    H5 5049   2.919   0.152  16.012  1.9736 -0.2826 -1.4265
  336MPD2    N1 5050   2.714   0.599  15.741  0.2052 -0.2319  0.2236
  336MPD2    H7 5051   2.710   0.551  15.652 -0.5551  0.6599 -0.2141
  337TMC3    C1 5052   2.636   0.779  15.616 -0.4152 -0.1126  0.0131
  337TMC3    C2 5053   2.544   0.692  15.571  1.0747  0.7498 -0.0315
  337TMC3    C3 5054   2.440   0.733  15.495 -0.3904  0.2566  0.3388
  337TMC3    C4 5055   2.639   0.911  15.577 -0.0652 -0.3436 -0.0208
  337TMC3    C5 5056   2.533   0.954  15.501  0.0021  0.4067 -0.0407
  337TMC3    C6 5057   2.429   0.865  15.467 -0.2518  0.7312  0.1384
  337TMC3     C 5058   2.689   0.732  15.740  0.6032  0.1040  0.2012
  337TMC3     O 5059   2.698   0.820  15.827  0.0969 -0.3455  0.6232
  337TMC3     H 5060   2.541   0.588  15.603 -2.3813  1.3524  1.6202
  337TMC3    H1 5061   2.716   0.975  15.620  0.7763 -0.7475 -0.9283
  337TMC3    H2 5062   2.345   0.901  15.409 -1.3989 -0.3891  1.1101
  337TMC3    C7 5063   2.504   1.087  15.502 -0.3788 -0.3158 -0.5254
  337TMC3    C8 5064   2.332   0.644  15.472 -0.2642  0.5249  0.4784
  337TMC3    O1 5065   2.570   1.155  15.578 -0.6706  0.1402 -0.1904
  337TMC3    O2 5066   2.330   0.549  15.547 -0.5005  0.1772  0.6086
  338MPD2     C 5067   3.254   4.465   0.847  0.3064  0.5616  0.0415
  338MPD2    C1 5068   3.187   4.423   0.732  0.1525 -0.1397 -0.2184
  338MPD2    C2 5069   3.049   4.391   0.748 -0.4239  0.0699  0.6749
  338MPD2    C3 5070   2.981   4.415   0.867  0.5770  0.1422 -0.3180
  338MPD2    C4 5071   3.052   4.450   0.975  0.2244 -0.5560  0.3848
  338MPD2    C5 5072   3.190   4.467   0.968  0.0788 -0.1339  0.6495
  338MPD2     H 5073   2.991   4.374   0.658 -0.3730  1.8480  0.3044
  338MPD2    H1 5074   3.001   4.457   1.071  1.4547 -0.3748  1.0221
  338MPD2    H2 5075   3.361   4.480   0.856  0.2109 -0.2625  2.6403
  338MPD2    H3 5076   3.241   4.502   1.057  1.2675  0.3628 -0.2330
  338MPD2     N 5077   2.846   4.394   0.866 -0.5922  0.1718  0.1477
  338MPD2    H5 5078   2.806   4.391   0.773 -1.8511  1.3790  0.6628
  338MPD2    N1 5079   3.250   4.396   0.607  0.1929  0.0954  0.0451
  338MPD2    H7 5080   3.188   4.367   0.531 -2.3553  1.1339  1.7245
  339TMC3    C1 5081   2.635   4.397   0.922 -0.3252 -0.0288 -0.6491
  339TMC3    C2 5082   2.547   4.299   0.957  0.0126  0.3001  0.1559
  339TMC3    C3 5083   2.425   4.303   0.889  0.1630  0.6112  0.4105
  339TMC3    C4 5084   2.611   4.503   0.832  0.5446  0.8677 -0.6615
  339TMC3    C5 5085   2.488   4.506   0.778 -0.3659 -0.0640  0.1262
  339TMC3    C6 5086   2.398   4.410   0.799  0.5423  0.1872 -0.0172
  339TMC3     C 5087   2.761   4.395   0.975 -0.1519  0.3209  0.3366
  339TMC3     O 5088   2.778   4.409   1.099  0.3281  0.4728 -0.1314
  339TMC3     H 5089   2.580   4.224   1.027  0.3108 -0.1738 -0.4924
  339TMC3    H1 5090   2.672   4.593   0.830  0.3205  1.0345  0.1451
  339TMC3    H2 5091   2.294   4.419   0.770  0.5866  0.2220 -0.1651
  339TMC3    C7 5092   2.483   4.549   0.647  0.3188 -0.1547  0.1166
  339TMC3    C8 5093   2.320   4.212   0.926 -0.6103 -0.3659  0.2317
  339TMC3    O1 5094   2.551   4.645   0.609 -0.1111  0.0082  0.7542
  339TMC3    O2 5095   2.219   4.221   0.856 -0.0112 -0.6011  0.5818
  340MPD2     C 5096   3.796   3.269  10.188 -0.4375 -0.0406  0.0243
  340MPD2    C1 5097   3.759   3.170  10.274  0.2625  0.4499  0.3299
  340MPD2    C2 5098   3.656   3.193  10.362  0.7116  0.0390 -0.0809
  340MPD2    C3 5099   3.621   3.325  10.388  0.9866 -0.0836 -0.1950
  340MPD2    C4 5100   3.653   3.420  10.294 -0.1931  0.4842  0.6274
  340MPD2    C5 5101   3.737   3.388  10.191 -0.2333 -0.4836  0.4309
  340MPD2     H 5102   3.616   3.113  10.422 -1.5813  0.6137 -0.8491
  340MPD2    H1 5103   3.615   3.522  10.301 -2.0993 -0.3852  3.1276
  340MPD2    H2 5104   3.868   3.243  10.112 -1.8659 -3.0463 -0.2879
  340MPD2    H3 5105   3.773   3.464  10.122 -0.5895 -0.0338  0.7428
  340MPD2     N 5106   3.538   3.364  10.498 -0.2987  0.0713 -0.0862
  340MPD2    H5 5107   3.500   3.459  10.500  0.6562  0.4917 -2.5778
  340MPD2    N1 5108   3.830   3.047  10.266 -0.5010 -0.6226  0.3290
  340MPD2    H7 5109   3.917   3.047  10.213 -0.4422 -2.9157  0.4632
  341TMC3    C1 5110   3.885   2.813  10.326  0.0103  0.6037  0.2259
  341TMC3    C2 5111   3.825   2.702  10.365 -0.6076 -0.3304 -0.5728
  341TMC3    C3 5112   3.887   2.584  10.336 -0.0122  0.2504  0.3907
  341TMC3    C4 5113   4.017   2.811  10.288 -0.0197 -0.2917 -0.5791
  341TMC3    C5 5114   4.073   2.690  10.256  0.3754  0.6016 -0.0583
  341TMC3    C6 5115   4.010   2.571  10.283  0.4928  0.3412 -0.0402
  341TMC3     C 5116   3.797   2.934  10.340  0.0399  0.3379  0.3958
  341TMC3     O 5117   3.695   2.908  10.402  0.2076 -0.0594 -0.3249
  341TMC3     H 5118   3.727   2.697  10.412 -1.4156 -0.1845 -2.2730
  341TMC3    H1 5119   4.064   2.908  10.282 -0.2935  0.0248  2.2540
  341TMC3    H2 5120   4.050   2.478  10.243  0.3982 -0.8248  2.5446
  341TMC3    C7 5121   4.201   2.686  10.187  0.0784 -0.0344  0.2492
  341TMC3    C8 5122   3.804   2.463  10.358  0.5670 -0.4345 -0.5817
  341TMC3    O1 5123   4.274   2.587  10.212  0.0280 -0.4590  0.1083
  341TMC3    O2 5124   3.682   2.470  10.343  0.3751  0.4249  0.5497
  342MPD2     C 5125   1.180   0.976  17.429  0.6304  0.1821 -0.0725
  342MPD2    C1 5126   1.273   0.993  17.325 -0.3101 -0.1437 -0.1752
  342MPD2    C2 5127   1.319   1.117  17.292 -0.2670  0.5894 -0.3055
  342MPD2    C3 5128   1.271   1.226  17.354 -0.8776 -0.6540  0.3670
  342MPD2    C4 5129   1.190   1.206  17.466 -0.3757 -0.6662 -0.2127
  342MPD2    C5 5130   1.146   1.084  17.501  0.8067  0.4193 -0.3800
  342MPD2     H 5131   1.393   1.136  17.214 -0.2403  0.9037 -0.2020
  342MPD2    H1 5132   1.161   1.293  17.525  0.0891 -1.3005  0.9603
  342MPD2    H2 5133   1.133   0.886  17.468  0.4668 -0.0084 -0.6897
  342MPD2    H3 5134   1.072   1.083  17.580 -0.3280 -1.5803 -1.4573
  342MPD2     N 5135   1.303   1.360  17.315 -0.0714  0.5412  0.3421
  342MPD2    H5 5136   1.259   1.433  17.370  0.3143  2.5624 -2.0547
  342MPD2    N1 5137   1.307   0.879  17.246  0.4275  0.2812  0.4550
  342MPD2    H7 5138   1.352   0.907  17.160  1.3724  1.2220  1.2582
  343TMC3    C1 5139   1.303   0.650  17.169 -0.6076  0.3937 -1.0377
  343TMC3    C2 5140   1.368   0.687  17.054 -0.0989  0.9797 -0.5218
  343TMC3    C3 5141   1.350   0.599  16.948 -0.1796  0.1375 -0.0301
  343TMC3    C4 5142   1.232   0.537  17.174  0.0966 -0.0649 -0.3415
  343TMC3    C5 5143   1.236   0.449  17.070  0.3134  0.7630  0.1496
  343TMC3    C6 5144   1.291   0.477  16.950  0.4266  0.0414  0.3619
  343TMC3     C 5145   1.275   0.748  17.271 -0.1789  0.4307  0.0262
  343TMC3     O 5146   1.217   0.691  17.363 -0.1864  0.4908  0.4346
  343TMC3     H 5147   1.434   0.772  17.052  0.6902  0.3912  0.7000
  343TMC3    H1 5148   1.172   0.509  17.260  0.1446  1.6347  0.2458
  343TMC3    H2 5149   1.287   0.408  16.866 -0.8241  1.7939 -1.0009
  343TMC3    C7 5150   1.159   0.329  17.084  0.6223 -0.1247 -0.1736
  343TMC3    C8 5151   1.433   0.628  16.833 -0.4498  0.1043 -0.7829
  343TMC3    O1 5152   1.098   0.282  16.987  0.0080 -0.0789  0.3863
  343TMC3    O2 5153   1.486   0.740  16.842  0.8256  0.6591 -0.7109
  344MPD2     C 5154   2.880   0.270  10.752  0.7965 -0.5906 -1.0322
  344MPD2    C1 5155   2.791   0.340  10.823  0.2693 -1.2255  1.1636
  344MPD2    C2 5156   2.818   0.479  10.857 -0.3127  0.3384 -0.4642
  344MPD2    C3 5157   2.932   0.544  10.813 -0.0758  0.3030  0.4128
  344MPD2    C4 5158   3.014   0.466  10.736 -0.3083  0.1694  0.3733
  344MPD2    C5 5159   2.989   0.333  10.708 -0.0644 -0.1185  0.5223
  344MPD2     H 5160   2.742   0.533  10.911  0.6207  1.5029 -0.3230
  344MPD2    H1 5161   3.107   0.507  10.698 -0.7414  0.2846 -0.5659
  344MPD2    H2 5162   2.866   0.166  10.726  0.5220 -1.1596  1.3825
  344MPD2    H3 5163   3.065   0.282  10.649 -1.8074 -2.6889  0.4958
  344MPD2     N 5164   2.961   0.685  10.821  0.5435  0.2170 -0.2366
  344MPD2    H5 5165   3.041   0.727  10.775 -0.0076  0.2867 -1.1426
  344MPD2    N1 5166   2.661   0.291  10.861 -0.2240  0.2697  0.5293
  344MPD2    H7 5167   2.615   0.357  10.922  2.7706  1.0463  1.8994
  345TMC3    C1 5168   2.912   0.910  10.871  0.0322 -0.1347  0.0185
  345TMC3    C2 5169   2.875   0.987  10.980  0.4378  0.0117  0.7815
  345TMC3    C3 5170   2.940   1.114  10.981  0.5017  0.1059 -0.6051
  345TMC3    C4 5171   2.979   0.946  10.761  1.0320 -0.0185 -0.0492
  345TMC3    C5 5172   3.030   1.074  10.770 -0.0995 -0.0125  0.9391
  345TMC3    C6 5173   3.027   1.154  10.879  1.0569 -0.2116  0.5088
  345TMC3     C 5174   2.873   0.770  10.887 -0.0601  0.0427 -0.4784
  345TMC3     O 5175   2.780   0.743  10.963  0.0547 -0.6354  1.0460
  345TMC3     H 5176   2.810   0.957  11.062 -0.5793 -1.9008 -0.7216
  345TMC3    H1 5177   2.985   0.875  10.679  0.2814 -2.2990  1.8624
  345TMC3    H2 5178   3.067   1.254  10.880  2.5052 -0.8175  3.3112
  345TMC3    C7 5179   3.030   1.145  10.649  0.1605  0.2099  0.0423
  345TMC3    C8 5180   2.847   1.226  10.994  0.0580 -0.1432  0.7152
  345TMC3    O1 5181   3.053   1.265  10.649  0.4867 -0.2069  0.4179
  345TMC3    O2 5182   2.845   1.304  10.902 -0.2673 -1.2033 -0.1393
  346MPD2     C 5183   2.098   2.379  14.105 -0.9739 -0.6863 -0.0071
  346MPD2    C1 5184   2.224   2.438  14.077 -0.3842  0.6542  0.9422
  346MPD2    C2 5185   2.286   2.494  14.188 -0.7866 -0.3551 -0.4098
  346MPD2    C3 5186   2.227   2.507  14.311  0.7974  0.3783  0.7718
  346MPD2    C4 5187   2.099   2.467  14.327  0.6941 -0.4220  0.3747
  346MPD2    C5 5188   2.035   2.412  14.221  0.4516  0.6447  0.2505
  346MPD2     H 5189   2.388   2.530  14.180 -1.0289  0.4146 -0.0291
  346MPD2    H1 5190   2.033   2.487  14.411  1.7076  0.1070  1.0433
  346MPD2    H2 5191   2.031   2.340  14.029  0.5383  0.7906 -2.0957
  346MPD2    H3 5192   1.931   2.382  14.235  0.1497  1.7372  0.3210
  346MPD2     N 5193   2.304   2.566  14.421  0.3066 -0.2057 -0.7522
  346MPD2    H5 5194   2.401   2.592  14.407  0.1457  1.3655  0.9626
  346MPD2    N1 5195   2.284   2.436  13.950 -0.2412  0.2799 -0.8679
  346MPD2    H7 5196   2.380   2.467  13.936  0.5321 -1.2671  1.1196
  347TMC3    C1 5197   2.363   2.573  14.652 -0.2959  0.1805 -0.1306
  347TMC3    C2 5198   2.494   2.594  14.617 -0.4467  0.6971 -0.6303
  347TMC3    C3 5199   2.591   2.560  14.700 -0.4887 -0.5507  0.5861
  347TMC3    C4 5200   2.325   2.535  14.775 -0.6632  0.1001 -0.1140
  347TMC3    C5 5201   2.425   2.484  14.851  0.3348  0.1404  0.7212
  347TMC3    C6 5202   2.558   2.495  14.813  0.1936  0.9956  0.5592
  347TMC3     C 5203   2.259   2.578  14.556  0.1339  0.0049  0.2747
  347TMC3     O 5204   2.144   2.552  14.596  0.2285  0.0408  0.2470
  347TMC3     H 5205   2.514   2.650  14.527  1.0688  1.2130  0.0353
  347TMC3    H1 5206   2.219   2.525  14.797 -0.9086  0.8474 -0.9513
  347TMC3    H2 5207   2.638   2.463  14.879  1.6165 -0.5716 -1.9321
  347TMC3    C7 5208   2.377   2.412  14.963 -0.2129 -0.1250  0.3472
  347TMC3    C8 5209   2.710   2.513  14.634  0.1043  0.1941 -0.0022
  347TMC3    O1 5210   2.261   2.429  15.000 -1.4544  0.0969  0.7479
  347TMC3    O2 5211   2.765   2.421  14.690 -0.5187  0.5456 -0.1237
  348MPD2     C 5212   0.891   1.823  12.407 -0.2149  1.1531  0.5737
  348MPD2    C1 5213   0.871   1.767  12.279  0.2487  0.1827 -0.1409
  348MPD2    C2 5214   0.875   1.850  12.176  0.2204 -0.0723  0.2427
  348MPD2    C3 5215   0.893   1.988  12.186 -0.6249 -0.4445 -0.5672
  348MPD2    C4 5216   0.923   2.041  12.312  0.2983 -0.2193  0.1730
  348MPD2    C5 5217   0.922   1.957  12.418 -0.0045  0.6465 -0.6176
  348MPD2     H 5218   0.839   1.817  12.080 -0.9927  1.4121  0.1824
  348MPD2    H1 5219   0.932   2.149  12.319  0.2892 -0.3315  1.7558
  348MPD2    H2 5220   0.885   1.761  12.497  0.0239 -1.1006 -0.9503
  348MPD2    H3 5221   0.949   1.997  12.515  0.1563 -0.1376 -0.3396
  348MPD2     N 5222   0.886   2.057  12.066  0.2944 -0.3016 -0.0587
  348MPD2    H5 5223   0.873   2.007  11.978  1.0903  1.5995 -1.2735
  348MPD2    N1 5224   0.848   1.636  12.252 -0.2535  0.2356 -0.1744
  348MPD2    H7 5225   0.828   1.605  12.158 -0.1599  0.3863 -0.2446
  349TMC3    C1 5226   0.901   1.421  12.275 -0.0857 -0.4815  0.2028
  349TMC3    C2 5227   0.951   1.320  12.355 -0.2920  0.4256 -0.3470
  349TMC3    C3 5228   1.071   1.261  12.331  0.0001 -0.1815  0.0855
  349TMC3    C4 5229   0.969   1.444  12.160  1.1712 -0.1044  0.3967
  349TMC3    C5 5230   1.081   1.382  12.136 -0.0976  0.6221  0.2156
  349TMC3    C6 5231   1.136   1.287  12.214  0.0418 -0.1526  0.3449
  349TMC3     C 5232   0.857   1.533  12.345 -0.3407  0.7080  0.9646
  349TMC3     O 5233   0.865   1.535  12.464  0.2276  0.2714  0.0614
  349TMC3     H 5234   0.908   1.298  12.452  0.6007 -2.0998 -0.5253
  349TMC3    H1 5235   0.937   1.514  12.084  2.9235  2.2268  1.7753
  349TMC3    H2 5236   1.239   1.259  12.195 -0.1525 -0.3430 -0.4115
  349TMC3    C7 5237   1.163   1.452  12.044 -0.2746  0.1824 -0.0786
  349TMC3    C8 5238   1.122   1.162  12.422  0.4383 -0.5733 -0.1408
  349TMC3    O1 5239   1.206   1.394  11.947 -0.2061 -0.3976 -0.7940
  349TMC3    O2 5240   1.037   1.108  12.493 -0.0063  0.0395  0.5823
  350MPD2     C 5241   0.562   0.141   9.293 -0.1116 -0.1009  0.2196
  350MPD2    C1 5242   0.530   0.028   9.361 -0.4471 -0.0135 -0.2910
  350MPD2    C2 5243   0.594   0.005   9.482  0.2337 -0.1967 -0.2590
  350MPD2    C3 5244   0.688   0.091   9.534  0.1626 -0.6303  0.7641
  350MPD2    C4 5245   0.711   0.212   9.469  0.1487  0.1688  0.7261
  350MPD2    C5 5246   0.651   0.235   9.347 -0.3063  0.5857 -0.2679
  350MPD2     H 5247   0.571   4.639   9.534 -0.4443 -0.6369 -1.3208
  350MPD2    H1 5248   0.779   0.284   9.511 -0.3192  1.8724 -1.4217
  350MPD2    H2 5249   0.505   0.165   9.204 -2.1694  0.4349  1.6782
  350MPD2    H3 5250   0.682   0.313   9.279  1.3558 -0.0115 -0.1975
  350MPD2     N 5251   0.749   0.056   9.654 -0.0126  0.6975 -0.0005
  350MPD2    H5 5252   0.716   4.692   9.688 -1.7447  1.0076 -0.8450
  350MPD2    N1 5253   0.437   4.654   9.321  0.1931  0.4569  1.2946
  350MPD2    H7 5254   0.417   4.583   9.390 -1.8028 -1.3139 -1.1042
  351TMC3    C1 5255   0.325   4.513   9.177 -0.4166 -0.6560 -0.1428
  351TMC3    C2 5256   0.355   4.409   9.260 -0.1946  0.2480 -0.1701
  351TMC3    C3 5257   0.263   4.310   9.272 -0.3492  0.1587 -0.2319
  351TMC3    C4 5258   0.220   4.504   9.088  0.1366 -0.5818  0.2934
  351TMC3    C5 5259   0.146   4.393   9.090 -0.3367  0.3439 -0.5083
  351TMC3    C6 5260   0.155   4.297   9.183  0.1672  0.2265  0.7174
  351TMC3     C 5261   0.386   4.641   9.195 -0.1806 -0.8491 -0.0248
  351TMC3     O 5262   0.376   4.716   9.100  0.2501  0.3625  0.2368
  351TMC3     H 5263   0.438   4.414   9.330 -0.5992  1.1160  0.2477
  351TMC3    H1 5264   0.206   4.578   9.010 -1.8764  0.0090  1.2108
  351TMC3    H2 5265   0.085   4.214   9.186  0.1602  0.1621 -1.2901
  351TMC3    C7 5266   0.053   4.387   8.978  0.5739  0.5648  0.0356
  351TMC3    C8 5267   0.296   4.196   9.366 -0.5429  0.5605 -0.3617
  351TMC3    O1 5268   0.011   4.495   8.939  0.2172 -0.5233  0.4621
  351TMC3    O2 5269   0.354   4.236   9.462 -0.2176 -0.2244 -0.0262
  352MPD2     C 5270   2.954   1.321   0.690  0.0567 -0.6936  0.0348
  352MPD2    C1 5271   2.919   1.344   0.820 -0.4889 -0.8548  0.1233
  352MPD2    C2 5272   2.904   1.235   0.902  0.1930  0.8662  0.1268
  352MPD2    C3 5273   2.903   1.110   0.854  0.6016  0.7552  0.2672
  352MPD2    C4 5274   2.948   1.086   0.721  0.1095 -0.3654 -0.0317
  352MPD2    C5 5275   2.985   1.195   0.646  1.0541  0.4057 -0.1061
  352MPD2     H 5276   2.863   1.250   1.002  0.5777 -0.4513  0.4877
  352MPD2    H1 5277   2.962   0.982   0.692 -2.7937 -0.6829 -0.3166
  352MPD2    H2 5278   2.978   1.407   0.628 -0.0247 -1.3491 -0.9025
  352MPD2    H3 5279   3.013   1.191   0.542  1.4231 -0.5526  0.0290
  352MPD2     N 5280   2.859   0.998   0.928  0.3444 -0.2221  0.3339
  352MPD2    H5 5281   2.839   0.920   0.867  1.6547 -1.0578  0.9605
  352MPD2    N1 5282   2.912   1.484   0.851 -0.3728  0.0072 -0.2848
  352MPD2    H7 5283   2.936   1.560   0.789 -0.8940  0.2093 -0.2444
  353TMC3    C1 5284   2.822   0.847   1.097  0.4746 -0.3996 -0.2304
  353TMC3    C2 5285   2.884   0.796   1.210  0.3682  0.2938 -0.3470
  353TMC3    C3 5286   2.875   0.657   1.224 -0.7895 -0.6254 -0.4120
  353TMC3    C4 5287   2.750   0.773   1.010  1.1175  0.0650  0.4669
  353TMC3    C5 5288   2.742   0.630   1.037 -0.2769 -0.4228  0.0445
  353TMC3    C6 5289   2.801   0.571   1.141  0.1540 -0.5644 -0.9486
  353TMC3     C 5290   2.845   0.985   1.069 -0.3365  0.0611  0.1512
  353TMC3     O 5291   2.883   1.066   1.155  0.2459  0.2973 -0.5292
  353TMC3     H 5292   2.944   0.858   1.274  0.6413  0.7984 -1.0946
  353TMC3    H1 5293   2.681   0.822   0.942  0.5640 -3.0784 -1.2541
  353TMC3    H2 5294   2.807   0.463   1.148 -0.0854 -0.5066  0.0412
  353TMC3    C7 5295   2.652   0.547   0.955 -0.4805 -0.0261 -0.5081
  353TMC3    C8 5296   2.986   0.604   1.298 -0.3494  0.6670 -0.5359
  353TMC3    O1 5297   2.589   0.452   1.006 -0.1688 -0.2049  0.4617
  353TMC3    O2 5298   3.000   0.664   1.406  0.3514 -0.2914  0.3325
  354TMC3    C1 5299   4.607   3.453  13.412 -0.4089  0.0450 -0.3973
  354TMC3    C2 5300   4.689   3.570  13.395  0.0394  0.3649  0.1003
  354TMC3    C3 5301   4.687   3.619  13.264  0.6073  0.1161 -0.0956
  354TMC3    C4 5302   4.533   3.391  13.310  0.4990  0.6786 -0.1386
  354TMC3    C5 5303   4.555   3.443  13.183 -0.2015 -0.4164 -0.3339
  354TMC3    C6 5304   4.622   3.555  13.159 -0.4765 -1.1547 -0.4357
  354TMC3     C 5305   4.613   3.375  13.532 -0.3481  0.5897 -0.4738
  354TMC3     O 5306   4.513   3.317  13.568  0.0201 -0.0218  0.3098
  354TMC3     H 5307   4.726   3.621  13.483 -3.1142  2.0534  0.4200
  354TMC3    H1 5308   4.494   3.294  13.339  1.0834 -0.1639 -2.1714
  354TMC3    H2 5309   4.633   3.603  13.063 -1.5747 -1.2846 -0.6218
  354TMC3    C7 5310   4.580   3.341  13.080 -0.2469 -0.0048  0.1532
  354TMC3    C8 5311   0.059   3.717  13.222 -0.2780  0.1429  0.0979
  354TMC3    O1 5312   4.514   3.237  13.096 -0.5753  0.2336 -0.0395
  354TMC3    O2 5313   0.083   3.720  13.104 -0.2385 -0.1632  0.2090
  355MPD2     C 5314   0.749   4.344  11.934  0.5832  0.5305  0.1513
  355MPD2    C1 5315   0.838   4.307  11.833 -0.1306 -0.3193  0.0163
  355MPD2    C2 5316   0.911   4.184  11.850  0.4462 -0.7198 -0.2318
  355MPD2    C3 5317   0.896   4.109  11.966 -0.2100  0.3832  0.3183
  355MPD2    C4 5318   0.805   4.150  12.061 -0.0534 -0.0868  0.3142
  355MPD2    C5 5319   0.737   4.264  12.045  0.3472 -0.0731 -0.1204
  355MPD2     H 5320   0.986   4.152  11.780  1.2106  0.2993  0.1145
  355MPD2    H1 5321   0.811   4.110  12.161 -0.0315 -3.0889 -0.8901
  355MPD2    H2 5322   0.687   4.432  11.922  0.7197  0.5139 -0.6748
  355MPD2    H3 5323   0.676   4.297  12.129  1.0862 -0.0119  0.3984
  355MPD2     N 5324   0.982   3.997  12.005 -0.0432  0.6595  0.3896
  355MPD2    H5 5325   0.979   3.973  12.103  2.4655 -1.9352 -0.1636
  355MPD2    N1 5326   0.847   4.396  11.727  0.8001  0.5483 -0.2350
  355MPD2    H7 5327   0.805   4.488  11.737  1.1472  0.7032 -0.2138
  356TMC3    C1 5328   1.188   3.884  11.986 -0.2376 -0.5195  0.4845
  356TMC3    C2 5329   1.287   3.856  11.894  0.0224  0.5656 -0.1119
  356TMC3    C3 5330   1.415   3.897  11.922 -0.6101  1.0108 -0.1816
  356TMC3    C4 5331   1.224   3.938  12.110 -0.2805 -0.1336 -0.3586
  356TMC3    C5 5332   1.354   3.967  12.137  0.3005  0.1534  1.0535
  356TMC3    C6 5333   1.451   3.948  12.044 -0.2976  0.6232 -0.7631
  356TMC3     C 5334   1.072   3.939  11.922  0.3911  0.3178  0.1209
  356TMC3     O 5335   1.065   3.918  11.800  0.2163 -0.2290 -1.0867
  356TMC3     H 5336   1.267   3.831  11.790 -1.8319  0.1958  0.3453
  356TMC3    H1 5337   1.147   3.950  12.185  1.6806  0.9141  1.4585
  356TMC3    H2 5338   1.554   3.942  12.078  0.0532  0.1694 -1.9033
  356TMC3    C7 5339   1.377   4.024  12.270  1.3941  0.0039  0.6612
  356TMC3    C8 5340   1.519   3.877  11.827 -0.0813 -0.1732 -0.0247
  356TMC3    O1 5341   1.358   3.948  12.365 -0.0957  0.6823  0.1102
  356TMC3    O2 5342   1.514   3.773  11.765 -0.8875 -0.1593  0.2030
  357MPD2     C 5343   0.186   3.759   0.480  0.1040  0.7079  0.4377
  357MPD2    C1 5344   0.238   3.667   0.574  0.8404  0.2066  0.0102
  357MPD2    C2 5345   0.186   3.665   0.698 -0.1156  0.1558  0.4343
  357MPD2    C3 5346   0.070   3.738   0.727 -1.1942  0.4081 -1.0442
  357MPD2    C4 5347   0.028   3.832   0.636  0.0092 -0.1250 -0.3760
  357MPD2    C5 5348   0.079   3.836   0.510  0.3410 -0.2648  0.2013
  357MPD2     H 5349   0.242   3.604   0.767  1.4480  0.7476 -0.3157
  357MPD2    H1 5350   4.668   3.893   0.659 -0.1877  0.1787 -1.9135
  357MPD2    H2 5351   0.209   3.769   0.375 -1.9399  0.2417 -0.0600
  357MPD2    H3 5352   0.035   3.904   0.437  1.2944  0.1102 -0.0207
  357MPD2     N 5353   0.015   3.730   0.855  0.8534  0.2272 -0.1789
  357MPD2    H5 5354   4.666   3.793   0.882 -0.8713 -1.3553 -1.2580
  357MPD2    N1 5355   0.339   3.565   0.546 -0.0577 -0.4815 -0.2511
  357MPD2    H7 5356   0.352   3.502   0.625  2.2786  0.6362  0.2508
  358TMC3    C1 5357   0.478   3.418   0.436 -0.1826 -0.2535  0.3203
  358TMC3    C2 5358   0.513   3.349   0.321  0.2194 -0.1801  0.0512
  358TMC3    C3 5359   0.600   3.246   0.324  0.4325 -0.6599  1.0212
  358TMC3    C4 5360   0.525   3.385   0.561 -0.2236 -0.5453  0.5167
  358TMC3    C5 5361   0.619   3.289   0.559 -0.3950  0.7532  0.3462
  358TMC3    C6 5362   0.640   3.209   0.451 -0.9618 -0.5519 -0.6811
  358TMC3     C 5363   0.395   3.537   0.420 -0.3994  0.2922  0.0970
  358TMC3     O 5364   0.374   3.590   0.314 -0.1412  0.5807 -0.1893
  358TMC3     H 5365   0.459   3.368   0.229  0.5292  0.9535  0.1070
  358TMC3    H1 5366   0.518   3.456   0.643  1.3771  0.5233 -0.2790
  358TMC3    H2 5367   0.727   3.145   0.461  1.4647  2.8018 -0.0268
  358TMC3    C7 5368   0.691   3.249   0.682 -0.5625 -0.4559  1.0248
  358TMC3    C8 5369   0.597   3.145   0.225  0.3947 -0.4050 -0.8821
  358TMC3    O1 5370   0.790   3.173   0.677 -0.2679  0.7417  0.4428
  358TMC3    O2 5371   0.555   3.182   0.119 -0.2191 -0.0450 -0.4248
  359MPD2     C 5372   0.396   2.407  12.899  0.4081 -0.3555 -0.1361
  359MPD2    C1 5373   0.423   2.319  12.795 -0.3767 -0.2946 -0.0510
  359MPD2    C2 5374   0.396   2.183  12.824  0.5057  0.2185  0.3594
  359MPD2    C3 5375   0.354   2.128  12.949  0.2721 -0.4297  0.5771
  359MPD2    C4 5376   0.335   2.223  13.047 -0.1926 -0.5026 -0.1270
  359MPD2    C5 5377   0.352   2.358  13.021 -0.3054  0.5998 -0.4122
  359MPD2     H 5378   0.417   2.112  12.745 -1.6518  1.1071 -0.9970
  359MPD2    H1 5379   0.314   2.190  13.148 -0.4614 -0.4117 -0.1526
  359MPD2    H2 5380   0.411   2.514  12.894 -2.1106 -0.0478 -1.2467
  359MPD2    H3 5381   0.349   2.426  13.106  5.6272  2.1823 -1.4343
  359MPD2     N 5382   0.327   1.989  12.974  0.1714  0.7423 -0.4766
  359MPD2    H5 5383   0.300   1.966  13.069  1.5172  0.0938 -0.2622
  359MPD2    N1 5384   0.476   2.359  12.678 -0.0106 -0.1752  0.2154
  359MPD2    H7 5385   0.478   2.296  12.599 -1.1003  2.7973 -2.1477
  360TMC3    C1 5386   0.619   2.472  12.529 -0.0210 -0.0287  0.4576
  360TMC3    C2 5387   0.749   2.508  12.517  0.5302  0.6838  0.7621
  360TMC3    C3 5388   0.824   2.476  12.402 -0.6543 -0.3898 -0.3729
  360TMC3    C4 5389   0.560   2.395  12.427 -0.3367 -0.9072 -1.0272
  360TMC3    C5 5390   0.638   2.356  12.319  0.6556 -0.1929 -0.0918
  360TMC3    C6 5391   0.764   2.404  12.300 -0.0186 -0.0984 -0.2470
  360TMC3     C 5392   0.551   2.472  12.661 -0.7456  0.2561  0.2897
  360TMC3     O 5393   0.593   2.547  12.744 -0.2395 -0.3024 -0.7990
  360TMC3     H 5394   0.776   2.586  12.587  1.1727 -0.9909  2.3767
  360TMC3    H1 5395   0.458   2.359  12.431 -0.7789  0.6844  1.5389
  360TMC3    H2 5396   0.816   2.385  12.207 -2.7344  1.3497 -2.0492
  360TMC3    C7 5397   0.557   2.352  12.198  0.5708  0.3869 -0.1625
  360TMC3    C8 5398   0.929   2.567  12.367 -0.2424 -0.4695  0.1904
  360TMC3    O1 5399   0.470   2.438  12.189 -0.4393 -0.0456 -0.3290
  360TMC3    O2 5400   0.929   2.675  12.426  0.3996  0.2180  0.4318
  361MPD2     C 5401   2.096   1.127  16.236  0.3698 -0.2824 -0.9310
  361MPD2    C1 5402   2.103   1.206  16.347 -0.1744 -0.2073 -0.2126
  361MPD2    C2 5403   2.216   1.193  16.426  0.2114  0.3502 -0.7057
  361MPD2    C3 5404   2.318   1.109  16.382  0.6940 -0.0303 -0.1580
  361MPD2    C4 5405   2.310   1.049  16.257 -0.1000  0.1440 -0.5903
  361MPD2    C5 5406   2.197   1.059  16.180 -0.5434  0.1232 -0.2524
  361MPD2     H 5407   2.218   1.252  16.518 -1.2651 -2.7419  1.3057
  361MPD2    H1 5408   2.381   0.978  16.216 -0.7257  0.0632 -1.5425
  361MPD2    H2 5409   2.005   1.128  16.177  0.2756  1.8328 -0.7683
  361MPD2    H3 5410   2.186   1.007  16.085  1.9147 -0.4677 -0.2254
  361MPD2     N 5411   2.430   1.073  16.466  0.0976  0.0714 -0.0156
  361MPD2    H5 5412   2.496   1.008  16.424 -1.0055 -1.5591  0.7449
  361MPD2    N1 5413   2.002   1.293  16.397 -0.5580  0.4489 -0.5213
  361MPD2    H7 5414   2.025   1.360  16.469 -2.5140  1.0252 -0.4266
  362TMC3    C1 5415   1.777   1.383  16.416 -0.2965 -0.0392 -0.3839
  362TMC3    C2 5416   1.822   1.446  16.528 -0.0369 -0.3715  0.1484
  362TMC3    C3 5417   1.772   1.566  16.564  0.0548  0.1916 -0.6187
  362TMC3    C4 5418   1.675   1.433  16.340 -0.7031 -0.1867 -0.3748
  362TMC3    C5 5419   1.647   1.563  16.370  0.2600  1.3751  0.1748
  362TMC3    C6 5420   1.685   1.629  16.482 -0.1813  0.4227 -0.5766
  362TMC3     C 5421   1.869   1.291  16.355 -0.4916 -0.1528  0.0422
  362TMC3     O 5422   1.819   1.206  16.282 -0.1035 -0.5833 -0.3812
  362TMC3     H 5423   1.891   1.393  16.593 -0.5280 -1.8040 -0.4935
  362TMC3    H1 5424   1.648   1.368  16.257 -0.1199  0.8099 -1.3387
  362TMC3    H2 5425   1.658   1.733  16.494  0.2917  0.3437  1.1937
  362TMC3    C7 5426   1.549   1.632  16.294 -0.0969  0.6621 -0.1937
  362TMC3    C8 5427   1.823   1.632  16.684 -0.5033  0.0530  0.0091
  362TMC3    O1 5428   1.493   1.739  16.326 -0.1212  0.5017 -0.4780
  362TMC3    O2 5429   1.913   1.574  16.737  0.6101 -0.0809 -0.0911
  363TMC3    C1 5430   1.343   4.064  10.076  0.7624  0.3617 -0.3581
  363TMC3    C2 5431   1.300   3.949  10.142  0.3498 -0.4271 -0.5502
  363TMC3    C3 5432   1.165   3.938  10.157  0.4290  0.6809  0.2131
  363TMC3    C4 5433   1.252   4.149  10.017 -0.5332 -0.0161  0.2043
  363TMC3    C5 5434   1.119   4.132  10.028 -0.2065  0.4659  0.6691
  363TMC3    C6 5435   1.078   4.031  10.119 -0.2713 -0.2867  0.4160
  363TMC3     C 5436   1.481   4.102  10.078 -0.1514 -0.0520 -0.1496
  363TMC3     O 5437   1.502   4.212  10.030  0.8039 -0.6969  0.2274
  363TMC3     H 5438   1.357   3.870  10.188 -1.1756 -0.0285  2.0007
  363TMC3    H1 5439   1.286   4.242   9.973 -1.6543  1.0993  1.6405
  363TMC3    H2 5440   0.972   4.022  10.142 -0.0823 -0.3509  1.2702
  363TMC3    C7 5441   1.018   4.193   9.943 -0.4139 -0.4133  0.9286
  363TMC3    C8 5442   1.112   3.821  10.227  0.0726 -0.4008  0.0252
  363TMC3    O1 5443   0.904   4.147   9.950 -0.3319 -0.5872 -0.2528
  363TMC3    O2 5444   1.006   3.838  10.285 -0.0062 -0.0792 -0.0718
  364MPD2     C 5445   4.500   4.109  10.511 -0.3102  0.0178  0.2232
  364MPD2    C1 5446   4.575   4.007  10.459  0.1373 -0.3156  0.1597
  364MPD2    C2 5447   4.597   3.899  10.533  0.3570 -0.2209  1.2041
  364MPD2    C3 5448   4.535   3.882  10.654 -0.1672 -0.2108  0.5664
  364MPD2    C4 5449   4.453   3.977  10.701 -0.1529 -0.1714  0.3790
  364MPD2    C5 5450   4.451   4.092  10.637  0.1515  0.4415  0.4913
  364MPD2     H 5451   4.673   3.829  10.499  0.7637  0.8428 -0.1003
  364MPD2    H1 5452   4.394   3.963  10.791 -2.4487  0.9626 -0.9357
  364MPD2    H2 5453   4.486   4.204  10.461  0.3008 -0.9657 -1.8201
  364MPD2    H3 5454   4.387   4.171  10.676  1.3019  1.1361  0.9511
  364MPD2     N 5455   4.548   3.768  10.739 -0.4582  1.1413  0.3519
  364MPD2    H5 5456   4.494   3.763  10.825 -1.9022  3.5416 -0.4222
  364MPD2    N1 5457   4.649   4.030  10.339 -0.2655 -0.3100 -0.3152
  364MPD2    H7 5458   4.659   4.122  10.296 -0.1409  0.7557  1.9762
  365TMC3    C1 5459   0.099   3.994  10.202 -0.2645  0.1064 -0.2375
  365TMC3    C2 5460   0.139   3.931  10.087  0.2164  0.5783 -0.3464
  365TMC3    C3 5461   0.270   3.891  10.079  0.3560  0.3393 -0.6854
  365TMC3    C4 5462   0.188   4.020  10.303 -0.0151 -0.5764  0.0828
  365TMC3    C5 5463   0.318   3.969  10.287 -0.8781 -0.4717  0.6682
  365TMC3    C6 5464   0.367   3.915  10.171 -0.3757 -0.5344 -0.4188
  365TMC3     C 5465   4.716   3.933  10.268 -0.6217  0.7643 -0.3888
  365TMC3     O 5466   4.718   3.811  10.270  0.1905  0.3410 -0.2939
  365TMC3     H 5467   0.064   3.906  10.013  0.6901  0.9792 -0.9652
  365TMC3    H1 5468   0.152   4.043  10.403  0.5975  0.2328  0.1142
  365TMC3    H2 5469   0.468   3.880  10.158  0.5572  1.9148  0.2017
  365TMC3    C7 5470   0.367   3.902  10.408 -0.2609 -0.1689  0.5265
  365TMC3    C8 5471   0.311   3.796   9.980  0.6924 -0.3230 -0.2091
  365TMC3    O1 5472   0.422   3.797  10.380  0.1714 -0.1171  0.2975
  365TMC3    O2 5473   0.432   3.792   9.948 -0.4153 -0.1441  0.1898
  366MPD2     C 5474   2.208   4.398  15.283  0.7893  0.5534  0.1727
  366MPD2    C1 5475   2.259   4.501  15.207 -0.3476 -0.4184  0.5471
  366MPD2    C2 5476   2.350   4.471  15.107 -0.3648 -0.1221  0.8236
  366MPD2    C3 5477   2.388   4.343  15.084 -0.3703  0.5942  0.6423
  366MPD2    C4 5478   2.332   4.242  15.151 -0.5548 -0.2656 -0.2525
  366MPD2    C5 5479   2.248   4.267  15.257  0.9016 -0.7722 -0.4437
  366MPD2     H 5480   2.396   4.553  15.053  0.5089  0.2475  2.1174
  366MPD2    H1 5481   2.338   4.141  15.113  0.8061  0.3254 -1.6087
  366MPD2    H2 5482   2.136   4.407  15.363  0.3647  0.0342 -0.1520
  366MPD2    H3 5483   2.219   4.179  15.313  1.9858 -2.3863 -2.4017
  366MPD2     N 5484   2.476   4.319  14.974 -0.1198 -0.4103  0.1529
  366MPD2    H5 5485   2.493   4.394  14.908 -0.3588  1.4988  2.2548
  366MPD2    N1 5486   2.234   4.638  15.234  0.2193  0.1617  0.1206
  366MPD2    H7 5487   2.278   4.707  15.175 -0.0124  0.1852 -0.0264
  367TMC3    C1 5488   2.137   0.103  15.313  0.6574  0.4331 -0.5016
  367TMC3    C2 5489   2.248   0.151  15.379  0.0193  0.0364  0.3281
  367TMC3    C3 5490   2.305   0.270  15.350  0.2018  0.1000 -0.1082
  367TMC3    C4 5491   2.089   0.173  15.206  0.7258  0.2830  0.2123
  367TMC3    C5 5492   2.149   0.286  15.172 -0.7053 -0.6023 -0.2643
  367TMC3    C6 5493   2.252   0.340  15.245  0.2518 -0.0682 -0.4160
  367TMC3     C 5494   2.125   4.688  15.305 -0.0074 -0.6651  0.2209
  367TMC3     O 5495   2.027   4.632  15.360 -0.2753 -0.8009  0.0515
  367TMC3     H 5496   2.287   0.095  15.462 -4.0832 -2.2720  0.6874
  367TMC3    H1 5497   2.018   0.122  15.142  0.1975  2.4561 -0.9287
  367TMC3    H2 5498   2.289   0.435  15.208 -0.7034  0.1923 -0.7037
  367TMC3    C7 5499   2.080   0.381  15.084 -0.2773  0.4587  0.2238
  367TMC3    C8 5500   2.445   0.283  15.397 -0.2876 -0.2716  0.2957
  367TMC3    O1 5501   2.099   0.500  15.103 -0.7593  0.2091  0.2589
  367TMC3    O2 5502   2.479   0.213  15.491 -0.4356  0.2079 -0.2516
  368MPD2     C 5503   3.461   1.094  12.781  0.2030 -0.2303 -0.7668
  368MPD2    C1 5504   3.509   1.200  12.857 -0.3249 -0.0075  0.4524
  368MPD2    C2 5505   3.647   1.207  12.892 -0.1589  0.1681 -1.3657
  368MPD2    C3 5506   3.733   1.099  12.841  0.1374 -0.5146 -0.1763
  368MPD2    C4 5507   3.677   0.993  12.770  0.5655 -0.4966 -0.1806
  368MPD2    C5 5508   3.542   0.997  12.739  0.0319  0.0856  0.3660
  368MPD2     H 5509   3.677   1.298  12.942 -0.3016 -1.4157  1.6418
  368MPD2    H1 5510   3.725   0.908  12.723 -1.8651 -2.1143  0.2397
  368MPD2    H2 5511   3.356   1.093  12.754  0.1661 -0.2172 -0.6242
  368MPD2    H3 5512   3.491   0.921  12.680  0.2659 -1.1178  1.7199
  368MPD2     N 5513   3.873   1.104  12.858 -0.4007 -0.6548 -0.2404
  368MPD2    H5 5514   3.932   1.040  12.805  0.0888  1.6328 -2.4466
  368MPD2    N1 5515   3.419   1.295  12.904 -0.3119 -0.5198  0.6975
  368MPD2    H7 5516   3.322   1.276  12.882 -0.6212 -2.1650  3.6206
  369TMC3    C1 5517   3.334   1.506  12.983  0.3011 -0.2406 -0.1919
  369TMC3    C2 5518   3.355   1.635  12.956 -0.4658  0.5014 -0.5911
  369TMC3    C3 5519   3.257   1.727  12.985 -0.3169  0.0674 -0.4974
  369TMC3    C4 5520   3.217   1.459  13.034 -0.0584 -0.1035 -0.6614
  369TMC3    C5 5521   3.118   1.550  13.063 -0.4992  0.3845  0.0376
  369TMC3    C6 5522   3.143   1.684  13.045  0.1626 -0.5203  0.4042
  369TMC3     C 5523   3.450   1.421  12.962  0.0931  0.1938 -0.0171
  369TMC3     O 5524   3.559   1.469  13.004  0.0423  0.1130 -0.6523
  369TMC3     H 5525   3.453   1.675  12.931  0.0615 -0.8452 -0.6879
  369TMC3    H1 5526   3.188   1.355  13.029 -0.9887  0.0620  1.3705
  369TMC3    H2 5527   3.067   1.758  13.068 -0.8757 -0.5704 -2.8852
  369TMC3    C7 5528   3.001   1.494  13.115 -0.1153  0.1913  0.0743
  369TMC3    C8 5529   3.274   1.874  12.977 -0.4001  0.1119 -0.0139
  369TMC3    O1 5530   3.020   1.380  13.158 -0.8120  0.1928  0.2796
  369TMC3    O2 5531   3.207   1.951  13.038 -0.2204 -0.3610  0.1088
  370TMC3    C1 5532   3.164   2.332  16.131 -0.2379 -1.0114  0.0747
  370TMC3    C2 5533   3.117   2.241  16.225  0.0959  0.3078  0.7577
  370TMC3    C3 5534   3.065   2.123  16.169  0.3115  0.6453 -0.0072
  370TMC3    C4 5535   3.165   2.318  15.996  0.0015 -0.3769  0.2522
  370TMC3    C5 5536   3.139   2.189  15.952 -0.3502 -0.1405 -0.3412
  370TMC3    C6 5537   3.083   2.092  16.034 -0.4325  0.5570  0.1023
  370TMC3     C 5538   3.130   2.465  16.168 -0.1266 -0.1902 -0.4022
  370TMC3     O 5539   3.042   2.472  16.250  0.1199  0.2229  0.2049
  370TMC3     H 5540   3.117   2.258  16.332 -1.5819  0.8280  0.6740
  370TMC3    H1 5541   3.183   2.396  15.923  1.3323 -3.0468 -2.3221
  370TMC3    H2 5542   3.031   2.008  15.990  1.4454 -1.6469  2.0667
  370TMC3    C7 5543   3.190   2.154  15.814 -0.6978  0.7979 -0.2993
  370TMC3    C8 5544   3.018   2.011  16.249 -0.2723  1.1988  0.4003
  370TMC3    O1 5545   3.209   2.246  15.738  0.3607  0.0211 -0.0781
  370TMC3    O2 5546   3.017   1.902  16.196 -0.4926 -0.2505  0.0507
  371TMC3    C1 5547   4.258   0.345  15.485 -0.4204  0.0267 -0.1635
  371TMC3    C2 5548   4.129   0.377  15.518 -0.2685  0.2423  0.3816
  371TMC3    C3 5549   4.084   0.506  15.506  0.4180  0.3588 -0.7229
  371TMC3    C4 5550   4.340   0.440  15.446 -0.0554 -0.3486 -0.1797
  371TMC3    C5 5551   4.294   0.566  15.429 -0.4980 -0.0570  0.0577
  371TMC3    C6 5552   4.165   0.607  15.454 -1.4364  1.0347 -0.3405
  371TMC3     C 5553   4.291   0.204  15.474  0.0765 -0.1379  0.1446
  371TMC3     O 5554   4.368   0.174  15.382  0.5216 -0.1715  0.3774
  371TMC3     H 5555   4.062   0.303  15.561  0.8695 -0.1538  1.5008
  371TMC3    H1 5556   4.438   0.407  15.413 -0.9794  0.1750 -3.4298
  371TMC3    H2 5557   4.137   0.707  15.422 -2.0345  1.4944  1.6574
  371TMC3    C7 5558   4.384   0.662  15.375 -0.0681 -0.4803  0.3810
  371TMC3    C8 5559   3.945   0.538  15.531  0.6889 -0.3659 -0.3166
  371TMC3    O1 5560   4.361   0.779  15.401  0.2041 -0.8254  0.9102
  371TMC3    O2 5561   3.860   0.453  15.510  0.3750  0.1292  0.7310
  372MPD2     C 5562   4.152   1.648  13.062 -0.2765  0.1362  0.4183
  372MPD2    C1 5563   4.235   1.630  13.180 -0.1792 -1.4181  0.1923
  372MPD2    C2 5564   4.183   1.549  13.274  0.4528  0.2865  0.0386
  372MPD2    C3 5565   4.058   1.495  13.263 -0.6993  0.0394 -0.3387
  372MPD2    C4 5566   3.986   1.513  13.156 -0.4358 -0.3473  0.7264
  372MPD2    C5 5567   4.033   1.589  13.052 -0.0593  0.1569 -0.0546
  372MPD2     H 5568   4.238   1.534  13.366  1.8010  0.8481 -0.6848
  372MPD2    H1 5569   3.893   1.463  13.134  0.1183 -1.1472  0.2193
  372MPD2    H2 5570   4.187   1.713  12.983  2.7897 -1.9546  0.0327
  372MPD2    H3 5571   3.976   1.597  12.960 -2.6211 -0.6503  1.4698
  372MPD2     N 5572   4.014   1.411  13.369 -0.0597  0.2055 -0.7422
  372MPD2    H5 5573   4.086   1.381  13.434  1.9772  1.2393 -2.5578
  372MPD2    N1 5574   4.359   1.694  13.198 -0.3930 -0.2904 -0.2204
  372MPD2    H7 5575   4.410   1.684  13.285 -0.7964 -0.1124  0.0391
  373TMC3    C1 5576   3.860   1.281  13.490  0.4802 -0.0800 -0.1731
  373TMC3    C2 5577   3.757   1.308  13.584  0.3108 -0.5100 -0.1229
  373TMC3    C3 5578   3.730   1.198  13.661 -0.3154  0.4062  0.3966
  373TMC3    C4 5579   3.920   1.159  13.467  0.2692  0.3641 -0.3601
  373TMC3    C5 5580   3.881   1.054  13.547  0.6689 -0.6297 -0.2188
  373TMC3    C6 5581   3.787   1.077  13.647 -0.8526  0.1684  0.2516
  373TMC3     C 5582   3.882   1.382  13.397  0.1422 -0.4231  0.4792
  373TMC3     O 5583   3.783   1.440  13.359 -0.5208 -0.2556 -0.1239
  373TMC3     H 5584   3.717   1.408  13.596  1.9025  0.0723  0.3233
  373TMC3    H1 5585   3.994   1.141  13.389 -0.7167  0.9191 -1.4267
  373TMC3    H2 5586   3.756   0.997  13.712 -0.6931 -0.8961 -0.9857
  373TMC3    C7 5587   3.926   0.921  13.531  0.3674  0.4378  0.3996
  373TMC3    C8 5588   3.629   1.228  13.765 -0.7521  0.0922  0.0289
  373TMC3    O1 5589   3.940   0.880  13.415 -0.3827  0.1848 -0.4722
  373TMC3    O2 5590   3.541   1.306  13.724 -0.4307  0.0551 -0.7920
  374TMC3    C1 5591   0.244   1.986   9.767 -0.0966 -0.1964 -0.1286
  374TMC3    C2 5592   0.277   2.091   9.842 -0.4763 -0.1515  0.3854
  374TMC3    C3 5593   0.341   2.193   9.780  0.4669  0.3891  0.5297
  374TMC3    C4 5594   0.279   1.968   9.634 -0.0563  0.0909  0.2683
  374TMC3    C5 5595   0.354   2.068   9.588  0.2377 -0.0106 -0.3195
  374TMC3    C6 5596   0.369   2.188   9.645  0.1985  0.0239  0.3290
  374TMC3     C 5597   0.172   1.883   9.834  0.6113  0.3044 -0.4568
  374TMC3     O 5598   0.155   1.881   9.955 -0.3542 -0.4220  0.4666
  374TMC3     H 5599   0.226   2.113   9.935  4.2177 -0.8273  3.1437
  374TMC3    H1 5600   0.251   1.877   9.583 -1.0498  0.3611  0.3306
  374TMC3    H2 5601   0.400   2.274   9.587 -0.5664  0.2985  0.3321
  374TMC3    C7 5602   0.376   2.070   9.441  0.1907 -0.3617 -0.5457
  374TMC3    C8 5603   0.382   2.308   9.855 -0.5430  0.1517 -0.2286
  374TMC3    O1 5604   0.308   1.994   9.375 -0.5563 -0.0048 -0.0233
  374TMC3    O2 5605   0.415   2.417   9.803 -0.0843 -0.0068 -0.1927
  375MPD2     C 5606   4.267   2.299  17.135  0.0607 -0.2028 -0.4638
  375MPD2    C1 5607   4.211   2.373  17.033  0.2005 -0.7764 -0.5034
  375MPD2    C2 5608   4.279   2.391  16.919  0.3068  0.1894  0.0508
  375MPD2    C3 5609   4.394   2.325  16.889 -0.2589  0.2215  0.0040
  375MPD2    C4 5610   4.457   2.262  16.990  0.9200  1.2784  0.3450
  375MPD2    C5 5611   4.391   2.250  17.110 -0.8580 -0.9620  0.1793
  375MPD2     H 5612   4.251   2.469  16.849 -4.0728 -1.5023 -0.1360
  375MPD2    H1 5613   4.555   2.224  16.964  0.1314 -0.7985  0.4007
  375MPD2    H2 5614   4.220   2.287  17.232 -0.5847  3.1226 -0.3740
  375MPD2    H3 5615   4.433   2.195  17.194 -2.2896 -0.1791  1.4123
  375MPD2     N 5616   4.465   2.344  16.759 -0.1698 -0.6386  0.2267
  375MPD2    H5 5617   4.563   2.320  16.758 -0.1504 -0.5327 -0.9887
  375MPD2    N1 5618   4.082   2.440  17.039  0.4388 -0.6673 -0.0708
  375MPD2    H7 5619   4.047   2.499  16.964 -0.4222 -1.0712  0.0071
  376TMC3    C1 5620   4.508   2.415  16.552  0.1061  1.7557  0.0034
  376TMC3    C2 5621   4.586   2.510  16.601 -0.3999 -0.2931 -0.3318
  376TMC3    C3 5622   4.642   2.593  16.499 -0.3548 -0.0121  0.0453
  376TMC3    C4 5623   4.465   2.405  16.425  0.4325 -0.0405  0.0628
  376TMC3    C5 5624   4.514   2.497  16.341  0.1331  0.4847  0.6027
  376TMC3    C6 5625   4.596   2.588  16.371 -0.4751 -0.2786  0.3210
  376TMC3     C 5626   4.403   2.385  16.644 -0.3447 -0.2637  0.4510
  376TMC3     O 5627   4.287   2.395  16.607 -0.1835 -0.5966 -0.4087
  376TMC3     H 5628   4.602   2.531  16.707 -1.7360  0.5243 -0.2916
  376TMC3    H1 5629   4.382   2.338  16.412  0.9733 -0.0917 -2.9523
  376TMC3    H2 5630   4.649   2.637  16.290 -1.7055 -2.2149 -1.6586
  376TMC3    C7 5631   4.500   2.468  16.201  0.0364 -1.3029 -0.3703
  376TMC3    C8 5632   0.044   2.657  16.529 -0.1467  0.1403 -0.7538
  376TMC3    O1 5633   4.518   2.566  16.130  0.0453 -0.3507  0.2518
  376TMC3    O2 5634   0.067   2.746  16.447 -0.9114 -0.1778  0.3927
  377MPD2     C 5635   2.836   1.943  12.340 -0.0225 -0.5229 -0.0563
  377MPD2    C1 5636   2.869   1.947  12.474 -0.1662  0.0111 -0.2619
  377MPD2    C2 5637   2.771   1.973  12.564 -0.4398  0.0288 -0.3048
  377MPD2    C3 5638   2.644   2.006  12.527  0.2018 -0.3542 -0.0643
  377MPD2    C4 5639   2.614   2.011  12.392 -0.5232  0.1101  0.6874
  377MPD2    C5 5640   2.712   1.981  12.301 -0.7153 -0.2493 -0.1639
  377MPD2     H 5641   2.803   1.980  12.667 -0.2807  0.8820 -0.4160
  377MPD2    H1 5642   2.515   2.040  12.358 -1.7598  0.2132  4.4118
  377MPD2    H2 5643   2.909   1.913  12.266 -0.6600  0.5370 -1.0997
  377MPD2    H3 5644   2.700   1.976  12.194 -0.6576  0.4166 -0.1992
  377MPD2     N 5645   2.532   2.032  12.620  0.5922 -0.2661 -0.9978
  377MPD2    H5 5646   2.451   2.071  12.572 -0.3671  1.2941  1.8788
  377MPD2    N1 5647   3.007   1.926  12.494  0.1111 -0.0589 -0.0450
  377MPD2    H7 5648   3.067   1.925  12.412 -0.7462 -1.9769 -0.6597
  378TMC3    C1 5649   3.351   1.988  12.421 -1.1827  0.1466  0.9955
  378TMC3    C2 5650   3.239   2.013  12.498 -0.2024  0.3733 -0.8223
  378TMC3    C3 5651   3.202   1.911  12.577  0.2334  0.2391  0.4981
  378TMC3    C4 5652   3.430   1.881  12.451 -0.3450  0.1342  0.3943
  378TMC3    C5 5653   3.388   1.781  12.535 -0.4031  0.1279 -0.0660
  378TMC3    C6 5654   3.267   1.791  12.598  0.1150 -0.3495  0.8052
  378TMC3     C 5655   3.302   1.987  12.289 -0.0892  0.6257 -0.5615
  378TMC3     O 5656   3.184   1.960  12.288  0.0693  0.4738  0.3225
  378TMC3     H 5657   3.173   2.097  12.482 -1.6684 -0.7992 -0.9986
  378TMC3    H1 5658   3.530   1.877  12.408 -0.0768 -3.5516  1.3927
  378TMC3    H2 5659   3.248   1.718  12.675 -0.3118 -1.7827 -0.6576
  378TMC3    C7 5660   3.479   1.694  12.604  0.4154  0.5789 -0.3881
  378TMC3    C8 5661   3.066   1.916  12.617 -0.4091  0.1564 -0.0061
  378TMC3    O1 5662   3.434   1.597  12.663  0.1072 -0.2026  0.3967
  378TMC3    O2 5663   3.022   1.863  12.720  0.2645  0.2553  0.1414
  379MPD2     C 5664   3.621   0.214  15.857  0.3912 -0.4860 -0.3884
  379MPD2    C1 5665   3.535   0.135  15.929 -0.1286  0.2892 -0.5010
  379MPD2    C2 5666   3.587   0.039  16.021  0.4398  0.4553 -0.5058
  379MPD2    C3 5667   3.723   0.046  16.033 -0.7658  0.1180 -0.0187
  379MPD2    C4 5668   3.810   0.132  15.971 -1.0320  0.1211  0.2560
  379MPD2    C5 5669   3.757   0.213  15.877 -0.0475 -0.3052  0.4473
  379MPD2     H 5670   3.522   4.693  16.070 -1.1695  1.3182 -1.3341
  379MPD2    H1 5671   3.918   0.133  15.983 -1.1519  1.7827  1.0736
  379MPD2    H2 5672   3.580   0.293  15.795 -1.9258 -0.6104  0.9787
  379MPD2    H3 5673   3.827   0.273  15.821 -1.0185  0.2461 -0.1768
  379MPD2     N 5674   3.788   4.700  16.139  0.5160 -0.7297 -0.5437
  379MPD2    H5 5675   3.889   4.711  16.144  0.6839 -1.4873 -2.3731
  379MPD2    N1 5676   3.399   0.150  15.906  0.0391 -0.8937  0.2908
  379MPD2    H7 5677   3.376   0.227  15.843 -0.1500 -2.0777 -1.0757
  380TMC3    C1 5678   3.207   0.067  15.836  0.3212 -0.5925 -0.2198
  380TMC3    C2 5679   3.229   4.689  15.746 -0.7473  0.0445 -0.0345
  380TMC3    C3 5680   3.214   4.707  15.614 -0.2536 -0.3233  0.0193
  380TMC3    C4 5681   3.172   0.195  15.792  0.8740  0.4364 -0.2685
  380TMC3    C5 5682   3.137   0.201  15.659  0.9564 -0.1391 -0.0654
  380TMC3    C6 5683   3.152   0.096  15.573  0.4774  0.1970  0.3669
  380TMC3     C 5684   3.299   0.064  15.942 -0.2418  0.0865  0.1524
  380TMC3     O 5685   3.299   4.684  16.004  0.4229  0.3159  0.4124
  380TMC3     H 5686   3.266   4.593  15.779 -0.8814  0.1342  0.3771
  380TMC3    H1 5687   3.149   0.276  15.860 -1.6256  0.1019 -0.7318
  380TMC3    H2 5688   3.132   0.115  15.469 -0.3665  2.3653  0.9318
  380TMC3    C7 5689   3.075   0.322  15.611 -0.1594  0.1822  0.3363
  380TMC3    C8 5690   3.333   4.690  15.531  0.8461  0.6123  0.4058
  380TMC3    O1 5691   3.106   0.436  15.647 -0.2233 -0.4232 -0.3862
  380TMC3    O2 5692   3.324   4.706  15.409  0.0677 -0.0606 -0.4472
  381TMC3    C1 5693   3.103   1.309  15.850  0.1232  0.2023 -0.1344
  381TMC3    C2 5694   3.214   1.381  15.886 -0.1911  0.2564  0.3303
  381TMC3    C3 5695   3.203   1.466  15.992 -0.0856  0.3260  0.0259
  381TMC3    C4 5696   2.984   1.316  15.920 -0.6440  0.0958 -0.5353
  381TMC3    C5 5697   2.987   1.387  16.038  0.1886  0.5503  0.1170
  381TMC3    C6 5698   3.091   1.466  16.080  0.3891  0.2207 -0.1059
  381TMC3     C 5699   3.104   1.214  15.743 -1.0516 -0.0309  0.7187
  381TMC3     O 5700   3.218   1.184  15.706  0.1961 -0.7366  0.0869
  381TMC3     H 5701   3.294   1.385  15.814 -1.0639 -0.2023 -0.6637
  381TMC3    H1 5702   2.893   1.268  15.887 -0.3133 -0.9427  0.0647
  381TMC3    H2 5703   3.102   1.504  16.181  0.9826  0.4844 -0.2673
  381TMC3    C7 5704   2.917   1.321  16.144 -0.3177  0.6582  0.3695
  381TMC3    C8 5705   3.317   1.552  16.007  0.4476 -0.5800 -0.2297
  381TMC3    O1 5706   2.880   1.207  16.120 -0.1527  0.1941  0.2006
  381TMC3    O2 5707   3.406   1.542  15.924 -0.1537 -0.2656  0.1932
  382MPD2     C 5708   2.274   3.865  16.891 -0.2676  0.0386 -0.2237
  382MPD2    C1 5709   2.295   3.851  17.029 -0.3113 -0.5861 -0.3041
  382MPD2    C2 5710   2.250   3.730  17.089  0.5079  0.6622  0.2303
  382MPD2    C3 5711   2.187   3.632  17.016  0.2917 -0.2659 -0.0124
  382MPD2    C4 5712   2.157   3.659  16.886 -0.4352  0.7105 -0.5366
  382MPD2    C5 5713   2.203   3.769  16.823  0.2823 -0.4249 -0.2437
  382MPD2     H 5714   2.270   3.714  17.195  0.3498  2.6449  0.5602
  382MPD2    H1 5715   2.094   3.586  16.837 -0.2207 -0.1995  0.5364
  382MPD2    H2 5716   2.311   3.953  16.840  0.9857 -0.7841 -0.7461
  382MPD2    H3 5717   2.186   3.774  16.717  1.9671  1.7473 -0.4277
  382MPD2     N 5718   2.164   3.502  17.068  0.2831  0.2314  0.2201
  382MPD2    H5 5719   2.115   3.437  17.007 -1.2006  1.7219 -0.1534
  382MPD2    N1 5720   2.352   3.951  17.113 -0.1909 -0.1264 -0.3475
  382MPD2    H7 5721   2.351   3.949  17.215  2.9071  0.9482 -0.3085
  383TMC3    C1 5722   2.194   3.311  17.185 -0.7259 -0.1855  0.4838
  383TMC3    C2 5723   2.068   3.278  17.158  0.2659  0.1010 -0.2123
  383TMC3    C3 5724   2.029   3.145  17.149 -0.4949  0.3412 -0.2850
  383TMC3    C4 5725   2.295   3.221  17.219 -0.3746  0.9064 -0.8899
  383TMC3    C5 5726   2.248   3.090  17.222 -0.0368  0.1913  0.2338
  383TMC3    C6 5727   2.121   3.051  17.186 -0.3932 -0.1179 -0.2210
  383TMC3     C 5728   2.227   3.445  17.173 -0.7175 -0.1531 -0.5176
  383TMC3     O 5729   2.326   3.481  17.233 -0.1816  0.1282 -0.3281
  383TMC3     H 5730   1.994   3.355  17.140  0.6864  0.6549  0.4145
  383TMC3    H1 5731   2.397   3.250  17.241  0.1006 -2.1653  1.0383
  383TMC3    H2 5732   2.096   2.949  17.161 -1.2388 -0.2490  1.1531
  383TMC3    C7 5733   2.333   2.990  17.273  0.1952  0.3944 -0.2398
  383TMC3    C8 5734   1.888   3.121  17.109 -0.2333 -0.0219  0.0438
  383TMC3    O1 5735   2.306   2.871  17.244  0.1681 -0.1139 -0.4360
  383TMC3    O2 5736   1.818   3.216  17.081  0.0036 -0.0526  0.2023
  384MPD2     C 5737   4.560   0.480  12.224 -1.2650  0.0111  0.4788
  384MPD2    C1 5738   4.554   0.343  12.231  0.6470 -0.2643 -0.1272
  384MPD2    C2 5739   4.667   0.268  12.201  0.4137  0.7409  0.2144
  384MPD2    C3 5740   0.066   0.338  12.178 -0.5459  0.4023  0.6283
  384MPD2    C4 5741   0.062   0.475  12.156 -0.0501 -0.2104  0.8132
  384MPD2    C5 5742   4.670   0.547  12.182  0.1663 -0.1124  1.2553
  384MPD2     H 5743   4.669   0.160  12.213 -3.5061  0.5301 -1.0189
  384MPD2    H1 5744   0.156   0.517  12.123  0.0447 -1.0619 -0.0151
  384MPD2    H2 5745   4.476   0.540  12.257 -0.1063  0.7689  2.0546
  384MPD2    H3 5746   4.682   0.654  12.171 -3.2344  0.0877 -0.4752
  384MPD2     N 5747   0.184   0.265  12.162  0.5125  0.0316  0.2583
  384MPD2    H5 5748   0.171   0.169  12.194 -0.6265  0.6982  1.7844
  384MPD2    N1 5749   4.442   0.265  12.264  0.3965 -0.1219 -0.3139
  384MPD2    H7 5750   4.462   0.166  12.278 -1.2728 -0.6153 -1.5063
  385TMC3    C1 5751   0.397   0.202  12.157  0.1021  0.1960 -0.2599
  385TMC3    C2 5752   0.458   0.163  12.041  0.4881 -0.3927 -0.4482
  385TMC3    C3 5753   0.448   0.038  12.000 -0.5356  0.4813 -0.4052
  385TMC3    C4 5754   0.336   0.111  12.233  0.4574 -0.1135  0.6380
  385TMC3    C5 5755   0.338   4.705  12.200  0.3877 -0.4438  0.7051
  385TMC3    C6 5756   0.401   4.663  12.081  0.6374  0.7113 -0.4285
  385TMC3     C 5757   0.313   0.309  12.130 -0.4864  0.5094  0.0992
  385TMC3     O 5758   0.362   0.403  12.066 -0.5621  0.2412 -0.1826
  385TMC3     H 5759   0.485   0.243  11.973  0.3859 -0.8827 -1.0594
  385TMC3    H1 5760   0.288   0.146  12.323  1.1259  0.7175  0.6686
  385TMC3    H2 5761   0.400   4.559  12.054  1.2508  0.6664 -0.2640
  385TMC3    C7 5762   0.209   4.648  12.229  0.6172  1.1385 -0.1325
  385TMC3    C8 5763   0.545   4.725  11.897  0.0232  0.3868  0.5905
  385TMC3    O1 5764   0.121   0.001  12.262  0.0535 -0.0077  0.3445
  385TMC3    O2 5765   0.641   0.073  11.885 -0.3263  0.6160  0.0668
  386TMC3    C1 5766   0.184   2.321  12.264 -0.2588  0.2871 -0.0479
  386TMC3    C2 5767   0.177   2.336  12.129 -0.1095  0.3008  0.4711
  386TMC3    C3 5768   0.100   2.436  12.074  0.0315 -0.3767  0.0314
  386TMC3    C4 5769   0.111   2.392  12.353 -0.8103  0.2101  0.4073
  386TMC3    C5 5770   0.025   2.478  12.298  0.3187 -0.0686 -1.0219
  386TMC3    C6 5771   0.020   2.507  12.165  0.3185  0.0707 -0.3638
  386TMC3     C 5772   0.258   2.203  12.310  0.4111  0.7876  0.6755
  386TMC3     O 5773   0.292   2.189  12.433  0.4034 -0.8896  0.4448
  386TMC3     H 5774   0.244   2.282  12.063 -0.5027  0.6261 -0.1962
  386TMC3    H1 5775   0.112   2.363  12.457 -1.0367  0.3684  0.4525
  386TMC3    H2 5776   4.668   2.567  12.119  0.4614  1.5665  1.3454
  386TMC3    C7 5777   4.628   2.507  12.371  0.7514 -0.1640 -0.2309
  386TMC3    C8 5778   0.060   2.438  11.935  0.1703 -0.1421  0.1732
  386TMC3    O1 5779   4.538   2.565  12.314  0.3165  0.5723  0.2518
  386TMC3    O2 5780   0.029   2.545  11.886 -0.5294  1.0211  0.0748
  387MPD2     C 5781   2.614   2.447   9.901 -0.3882 -0.0302  0.2728
  387MPD2    C1 5782   2.732   2.441   9.962 -0.2473 -0.2358 -0.4639
  387MPD2    C2 5783   2.787   2.316   9.996 -0.3020 -0.2401  0.3825
  387MPD2    C3 5784   2.727   2.199   9.959  0.3992  0.2917 -0.1420
  387MPD2    C4 5785   2.605   2.208   9.894  0.2374 -0.5386  0.5928
  387MPD2    C5 5786   2.548   2.328   9.864  1.0644  0.0182  0.4885
  387MPD2     H 5787   2.877   2.311  10.056 -2.0511  0.3011  3.0973
  387MPD2    H1 5788   2.540   2.122   9.882 -0.2182 -0.2897  1.2431
  387MPD2    H2 5789   2.551   2.534   9.887  0.1068  0.3404  0.3081
  387MPD2    H3 5790   2.450   2.326   9.817  0.7660  0.7054  1.0795
  387MPD2     N 5791   2.778   2.076  10.007  0.0357 -0.4964  0.3091
  387MPD2    H5 5792   2.851   2.090  10.076 -0.0870 -2.2786  0.7897
  387MPD2    N1 5793   2.796   2.550  10.020  0.2046 -0.0329 -0.1115
  387MPD2    H7 5794   2.879   2.529  10.075  0.4764 -0.4804 -0.6886
  388TMC3    C1 5795   2.788   2.744  10.150 -0.1016  0.2953  0.8067
  388TMC3    C2 5796   2.768   2.883  10.158 -0.4239  0.6979  0.1990
  388TMC3    C3 5797   2.796   2.950  10.271  0.1366  0.4410  0.4693
  388TMC3    C4 5798   2.806   2.665  10.259 -0.9596  0.0773 -0.0805
  388TMC3    C5 5799   2.835   2.734  10.371  0.1875 -0.2448  0.3158
  388TMC3    C6 5800   2.835   2.871  10.377  0.1459 -0.5148  0.5583
  388TMC3     C 5801   2.740   2.674  10.030  0.3318 -0.0894 -0.3962
  388TMC3     O 5802   2.668   2.738   9.955 -0.5670 -0.2414 -0.1387
  388TMC3     H 5803   2.740   2.929  10.064  1.5848  0.9177 -0.2752
  388TMC3    H1 5804   2.803   2.557  10.258  1.5734 -0.0354  2.2034
  388TMC3    H2 5805   2.849   2.915  10.475  1.6554 -0.2265  0.2186
  388TMC3    C7 5806   2.858   2.652  10.487  0.4097  0.3361 -0.2148
  388TMC3    C8 5807   2.833   3.093  10.268 -0.3845 -0.6444 -0.2772
  388TMC3    O1 5808   2.833   2.697  10.597 -0.4161  0.3687 -0.1239
  388TMC3    O2 5809   2.901   3.137  10.360 -0.1286 -0.3825 -0.1959
  389MPD2     C 5810   1.462   0.744  10.655 -0.3832 -0.2128 -0.2880
  389MPD2    C1 5811   1.542   0.627  10.654  0.8549  0.2619  0.4360
  389MPD2    C2 5812   1.588   0.580  10.774 -0.0762 -0.2287 -0.1735
  389MPD2    C3 5813   1.555   0.640  10.897  0.0236 -0.4042  0.1573
  389MPD2    C4 5814   1.470   0.751  10.895 -0.2836  0.1518 -0.4664
  389MPD2    C5 5815   1.422   0.805  10.773  0.4079 -0.0567  0.2836
  389MPD2     H 5816   1.657   0.497  10.770 -1.3780 -1.3819  1.9205
  389MPD2    H1 5817   1.434   0.789  10.990 -0.4737 -0.9869 -0.0776
  389MPD2    H2 5818   1.442   0.791  10.559 -0.6024  2.4157  1.0344
  389MPD2    H3 5819   1.354   0.889  10.766  0.7813 -0.0483 -3.1881
  389MPD2     N 5820   1.614   0.588  11.015 -0.6881  0.4333 -0.0979
  389MPD2    H5 5821   1.653   0.494  11.012 -1.1573  0.3056 -2.4930
  389MPD2    N1 5822   1.590   0.576  10.533 -0.4769 -0.0857  0.6057
  389MPD2    H7 5823   1.574   0.628  10.447 -0.1301 -0.3445  0.3806
  390TMC3    C1 5824   1.718   0.601  11.228  0.3362 -0.3820 -0.3984
  390TMC3    C2 5825   1.763   0.471  11.206 -0.4401  0.2059 -0.1975
  390TMC3    C3 5826   1.869   0.439  11.281 -0.3754 -0.3860 -0.3158
  390TMC3    C4 5827   1.767   0.688  11.322 -0.1072  0.2141  0.0671
  390TMC3    C5 5828   1.882   0.650  11.385 -0.4402 -0.2129 -0.1472
  390TMC3    C6 5829   1.943   0.538  11.338 -0.2631 -0.4646  0.3752
  390TMC3     C 5830   1.631   0.665  11.131 -1.2271 -0.3662 -0.1576
  390TMC3     O 5831   1.600   0.777  11.155  0.2272  0.0988  0.1643
  390TMC3     H 5832   1.697   0.407  11.148  1.4464 -1.7304 -0.1825
  390TMC3    H1 5833   1.714   0.779  11.350 -1.4287 -0.4526 -0.2432
  390TMC3    H2 5834   2.024   0.494  11.395 -1.6705 -1.1476  1.8590
  390TMC3    C7 5835   1.878   0.650  11.532 -0.8184 -0.0148 -0.9853
  390TMC3    C8 5836   1.844   0.323  11.366 -0.0548  0.7079  0.0769
  390TMC3    O1 5837   1.975   0.689  11.597  0.0097 -0.0100 -0.4510
  390TMC3    O2 5838   1.944   0.285  11.433 -0.2251  1.0694  0.5362
  391MPD2     C 5839   0.683   1.943  11.370  0.4254 -0.2801  0.0976
  391MPD2    C1 5840   0.769   2.049  11.355  0.4117 -0.5828 -0.4489
  391MPD2    C2 5841   0.782   2.092  11.226 -0.0018 -0.1694 -0.3142
  391MPD2    C3 5842   0.720   2.032  11.112  0.5441 -0.6155 -0.3765
  391MPD2    C4 5843   0.640   1.925  11.137 -0.5497 -0.6095 -0.1896
  391MPD2    C5 5844   0.621   1.879  11.267 -0.2369 -0.4907 -0.0914
  391MPD2     H 5845   0.826   2.189  11.207 -3.4950  1.2550 -1.2240
  391MPD2    H1 5846   0.594   1.866  11.058 -0.8536 -0.0429 -0.4335
  391MPD2    H2 5847   0.655   1.913  11.470 -0.5593  0.8149  0.1502
  391MPD2    H3 5848   0.546   1.802  11.278  1.7643 -2.3773  0.3415
  391MPD2     N 5849   0.755   2.079  10.985 -0.2726  0.7280 -0.1753
  391MPD2    H5 5850   0.818   2.158  10.987  1.3322 -0.4859 -2.2802
  391MPD2    N1 5851   0.820   2.130  11.461 -0.0750 -0.6513 -0.8593
  391MPD2    H7 5852   0.868   2.215  11.435 -0.2563  0.1644  1.4992
  392TMC3    C1 5853   0.758   2.110  10.756  0.5685  0.4226  0.0700
  392TMC3    C2 5854   0.681   2.130  10.649  0.2969 -0.0146  0.1241
  392TMC3    C3 5855   0.722   2.227  10.561 -0.4371  0.3534 -0.0125
  392TMC3    C4 5856   0.889   2.165  10.757  0.7070 -0.2215 -0.5565
  392TMC3    C5 5857   0.917   2.268  10.669  0.4545  0.5496  0.1931
  392TMC3    C6 5858   0.832   2.306  10.575 -0.6877  0.0800 -0.6002
  392TMC3     C 5859   0.709   2.029  10.869 -0.3292  0.3977 -0.2555
  392TMC3     O 5860   0.628   1.946  10.847 -0.3742 -0.4926 -0.2063
  392TMC3     H 5861   0.583   2.085  10.655  1.0163 -1.7260 -1.1732
  392TMC3    H1 5862   0.952   2.137  10.841  1.6810  3.2035 -0.1724
  392TMC3    H2 5863   0.868   2.367  10.493  0.5291 -0.6252 -0.5867
  392TMC3    C7 5864   1.030   2.348  10.700  0.5704  0.5045 -0.3343
  392TMC3    C8 5865   0.656   2.233  10.437  0.1363 -0.2732  0.5293
  392TMC3    O1 5866   1.081   2.336  10.815  0.2046  0.4747  0.1463
  392TMC3    O2 5867   0.586   2.134  10.413 -0.1622  0.8436 -0.5479
  393TMC3    C1 5868   4.601   4.505  10.342 -0.0182  0.1488  0.6827
  393TMC3    C2 5869   4.532   4.504  10.464 -0.4203 -0.8357  0.2733
  393TMC3    C3 5870   4.601   4.459  10.570  0.8410 -0.6207  0.2101
  393TMC3    C4 5871   0.004   4.472  10.329  0.3337 -0.4420 -0.1307
  393TMC3    C5 5872   0.061   4.416  10.441 -0.0164 -0.4698 -0.3578
  393TMC3    C6 5873   4.726   4.407  10.560  0.0215 -0.4026 -0.7852
  393TMC3     C 5874   4.556   4.598  10.246 -0.2689 -0.1884 -0.5254
  393TMC3     O 5875   4.556   4.562  10.128  0.0506  0.1647  0.0963
  393TMC3     H 5876   4.437   4.555  10.473 -0.8792 -1.3411 -1.9218
  393TMC3    H1 5877   0.060   4.463  10.237  0.1172  1.0312 -0.4142
  393TMC3    H2 5878   0.051   4.365  10.646  1.2638 -1.4078 -2.0143
  393TMC3    C7 5879   0.189   4.352  10.447  0.7239  0.8240 -0.1775
  393TMC3    C8 5880   4.574   4.535  10.690 -0.5383 -0.3508 -0.0458
  393TMC3    O1 5881   0.210   4.266  10.529  0.1918 -0.1761 -0.6819
  393TMC3    O2 5882   4.513   4.644  10.676  0.0352  1.3810  0.1254
  394TMC3    C1 5883   1.714   0.458  10.380 -0.1122 -0.3245 -0.0860
  394TMC3    C2 5884   1.658   0.368  10.297  0.2043  0.0821 -0.6147
  394TMC3    C3 5885   1.671   0.392  10.158  0.3551 -0.1701 -0.0177
  394TMC3    C4 5886   1.757   0.580  10.336  0.5395  0.1191  0.0572
  394TMC3    C5 5887   1.759   0.603  10.202  0.3008 -0.1677 -0.3840
  394TMC3    C6 5888   1.727   0.509  10.113 -0.1006 -0.3000 -0.2126
  394TMC3     C 5889   1.657   0.457  10.511  0.5137 -0.4691  0.2791
  394TMC3     O 5890   1.666   0.355  10.582 -0.4148  0.0962 -0.3914
  394TMC3     H 5891   1.615   0.279  10.342 -1.7759  0.4862 -1.7102
  394TMC3    H1 5892   1.819   0.638  10.404  0.6784  0.0048  0.0256
  394TMC3    H2 5893   1.743   0.532  10.008 -0.4725 -2.4903 -0.7436
  394TMC3    C7 5894   1.862   0.701  10.159  0.3361  0.3234 -0.0055
  394TMC3    C8 5895   1.645   0.288  10.071  0.0002 -0.5479  0.4482
  394TMC3    O1 5896   1.836   0.780  10.073 -0.2543 -0.4836  0.0024
  394TMC3    O2 5897   1.622   0.333   9.957 -0.3946 -0.2150 -0.3141
  395TMC3    C1 5898   1.161   2.157  14.500 -0.1724 -0.4399 -1.1520
  395TMC3    C2 5899   1.033   2.187  14.472 -0.3082  0.1071 -0.2737
  395TMC3    C3 5900   0.990   2.311  14.430 -0.2570  0.3370  0.3605
  395TMC3    C4 5901   1.262   2.247  14.483 -0.7174  0.5216 -0.0038
  395TMC3    C5 5902   1.224   2.377  14.451  0.0364 -0.0308  0.4405
  395TMC3    C6 5903   1.094   2.403  14.420  0.6418  0.2745  0.3898
  395TMC3     C 5904   1.182   2.067  14.612 -0.2029  0.3302 -0.5550
  395TMC3     O 5905   1.291   2.023  14.632 -0.3240 -0.0468 -0.8055
  395TMC3     H 5906   0.960   2.108  14.483 -0.7108  0.4080 -0.8165
  395TMC3    H1 5907   1.356   2.218  14.528 -1.2981 -0.3155  0.6546
  395TMC3    H2 5908   1.061   2.503  14.394 -1.5483 -0.4844  0.1968
  395TMC3    C7 5909   1.307   2.495  14.473 -0.2947  0.6830 -0.1552
  395TMC3    C8 5910   0.850   2.345  14.443 -0.3440 -0.1585  0.3930
  395TMC3    O1 5911   1.248   2.600  14.481 -0.6154  0.4072  0.1889
  395TMC3    O2 5912   0.829   2.459  14.413  0.0634 -0.0766  0.2184
  396MPD2     C 5913   0.022   3.761  16.825  0.0827  0.0235 -0.3336
  396MPD2    C1 5914   0.151   3.712  16.822  0.6263 -0.0234  0.5631
  396MPD2    C2 5915   0.251   3.771  16.756 -0.0903  0.3677  0.2498
  396MPD2    C3 5916   0.232   3.893  16.692  0.4702 -0.5328  0.2180
  396MPD2    C4 5917   0.102   3.937  16.677  0.3223 -0.9150  0.0077
  396MPD2    C5 5918   4.724   3.872  16.750 -0.3214 -0.4347 -0.4075
  396MPD2     H 5919   0.347   3.720  16.754 -0.0349  0.5437 -1.9946
  396MPD2    H1 5920   0.075   4.007  16.599  2.6641 -0.1573 -0.1312
  396MPD2    H2 5921   4.666   3.722  16.885 -0.1462  2.6982  1.1350
  396MPD2    H3 5922   4.624   3.913  16.751 -0.3201 -0.4255 -0.7096
  396MPD2     N 5923   0.345   3.944  16.627  0.3946  0.2366 -0.7652
  396MPD2    H5 5924   0.430   3.892  16.641  0.0682 -0.0975 -0.0269
  396MPD2    N1 5925   0.161   3.589  16.887  0.3899  0.3070  0.0910
  396MPD2    H7 5926   0.072   3.546  16.911  1.2214 -1.9255 -0.8569
  397TMC3    C1 5927   0.251   3.377  16.943  0.5964  0.6539 -0.2127
  397TMC3    C2 5928   0.191   3.308  16.844 -0.1451  0.7071 -0.3309
  397TMC3    C3 5929   0.209   3.171  16.828  0.4030  0.2203  0.5607
  397TMC3    C4 5930   0.354   3.308  17.005 -0.0372 -0.1687 -0.0546
  397TMC3    C5 5931   0.363   3.176  16.993  0.3541  0.4499 -0.3461
  397TMC3    C6 5932   0.284   3.103  16.917 -0.1201 -0.6420  0.0790
  397TMC3     C 5933   0.275   3.519  16.908 -0.1812 -0.0650  0.1389
  397TMC3     O 5934   0.392   3.563  16.922 -0.4737  0.3517 -1.0099
  397TMC3     H 5935   0.164   3.376  16.763  0.6887  0.1907 -1.0417
  397TMC3    H1 5936   0.423   3.366  17.066 -0.2686 -1.4263  1.4130
  397TMC3    H2 5937   0.291   2.995  16.905 -2.1565 -0.7385 -0.2786
  397TMC3    C7 5938   0.487   3.105  17.014 -0.2337  0.6747 -0.1994
  397TMC3    C8 5939   0.261   3.156  16.692 -1.2927  1.1019  0.1058
  397TMC3    O1 5940   0.506   3.017  16.929 -0.7088  0.4115  0.3151
  397TMC3    O2 5941   0.183   3.186  16.604  0.1729 -0.0723 -0.0645
  398MPD2     C 5942   3.600   4.026   0.043  0.1333 -0.3207  0.5660
  398MPD2    C1 5943   3.710   3.952   0.089 -0.1924  0.0427  0.4201
  398MPD2    C2 5944   3.824   4.031   0.106  0.2743  0.3446 -0.4314
  398MPD2    C3 5945   3.822   4.171   0.081  0.6674 -0.2198  0.7253
  398MPD2    C4 5946   3.708   4.234   0.033  0.4362  0.1830 -0.8536
  398MPD2    C5 5947   3.601   4.156   0.004 -0.0453 -0.3672  0.5193
  398MPD2     H 5948   3.913   3.984   0.145  0.1039  0.5975  0.2623
  398MPD2    H1 5949   3.700   4.341   0.024 -0.5013  0.1289 -0.6859
  398MPD2    H2 5950   3.509   3.974   0.014  1.6953 -2.2709 -0.8391
  398MPD2    H3 5951   3.518   4.201  17.656  2.0408  0.5640 -1.9703
  398MPD2     N 5952   3.950   4.238   0.107  0.3163 -0.1724 -0.1605
  398MPD2    H5 5953   4.034   4.181   0.116 -0.2560 -1.1349 -0.8099
  398MPD2    N1 5954   3.721   3.811   0.099 -0.3427 -0.4175 -0.2832
  398MPD2    H7 5955   3.814   3.772   0.109 -0.8295 -1.2716  0.9145
  399TMC3    C1 5956   3.668   3.587   0.118 -0.8191 -0.3227  0.6893
  399TMC3    C2 5957   3.784   3.555   0.053  0.2404 -0.4077 -0.5432
  399TMC3    C3 5958   3.828   3.425   0.068  0.2678 -0.3955 -0.1514
  399TMC3    C4 5959   3.605   3.501   0.200 -0.0681  0.5512  0.1140
  399TMC3    C5 5960   3.652   3.379   0.218 -0.6014 -0.3335  0.1469
  399TMC3    C6 5961   3.769   3.341   0.157  0.6629 -0.1910  0.3192
  399TMC3     C 5962   3.614   3.726   0.114  0.5976  0.3284 -0.0686
  399TMC3     O 5963   3.493   3.749   0.125  0.2210  0.4176  0.2327
  399TMC3     H 5964   3.818   3.626  17.682 -2.6967  1.3277 -0.2073
  399TMC3    H1 5965   3.520   3.542   0.252 -1.1656 -1.5136 -0.0628
  399TMC3    H2 5966   3.818   3.247   0.183  0.3796 -0.4421 -0.0519
  399TMC3    C7 5967   3.603   3.294   0.318 -0.5356 -0.3255  0.0256
  399TMC3    C8 5968   3.929   3.379  17.687 -0.3136  0.0693  0.7935
  399TMC3    O1 5969   3.678   3.210   0.367 -0.2585  0.2057  0.2741
  399TMC3    O2 5970   3.952   3.259  17.685  0.2507 -0.1272  0.0858
  400TMC3    C1 5971   1.681   2.872  16.636 -0.2176 -0.6120 -0.2793
  400TMC3    C2 5972   1.573   2.788  16.636  0.2169  0.3513 -0.7388
  400TMC3    C3 5973   1.469   2.822  16.552 -0.7962  0.4095  1.2065
  400TMC3    C4 5974   1.697   2.965  16.539 -0.2114 -0.2393 -0.5208
  400TMC3    C5 5975   1.597   2.984  16.444  0.1417  0.9167 -0.1237
  400TMC3    C6 5976   1.483   2.907  16.448  0.3701 -0.0057  0.0351
  400TMC3     C 5977   1.805   2.811  16.676 -0.2022  0.1786  0.2094
  400TMC3     O 5978   1.810   2.692  16.661 -0.1320  0.0156  0.3354
  400TMC3     H 5979   1.581   2.711  16.713 -0.6533  0.2976 -0.7032
  400TMC3    H1 5980   1.794   3.013  16.531  0.3809 -1.1903  0.9470
  400TMC3    H2 5981   1.400   2.934  16.383 -0.6221 -1.2762  0.7924
  400TMC3    C7 5982   1.579   3.114  16.399  0.1941  0.5079 -0.3560
  400TMC3    C8 5983   1.351   2.737  16.568  0.3778  0.0649  0.8257
  400TMC3    O1 5984   1.495   3.127  16.314 -0.0924  0.6497  0.4684
  400TMC3    O2 5985   1.324   2.700  16.679  0.1860 -0.0714 -0.1112
  401MPD2     C 5986   0.487   1.500   0.036 -0.2881 -0.0462 -0.3097
  401MPD2    C1 5987   0.546   1.486   0.161  0.1359  0.1270 -0.1313
  401MPD2    C2 5988   0.602   1.365   0.201  0.1730  0.1301  0.1193
  401MPD2    C3 5989   0.606   1.256   0.120  0.0105 -0.0775 -0.0840
  401MPD2    C4 5990   0.541   1.275  17.703  0.2061  0.1366 -1.0407
  401MPD2    C5 5991   0.484   1.389  17.658 -0.3055  0.6713 -0.0165
  401MPD2     H 5992   0.640   1.349   0.301 -0.0635 -0.1494  0.1635
  401MPD2    H1 5993   0.534   1.195  17.631  1.0250  0.8051 -1.8645
  401MPD2    H2 5994   0.439   1.591   0.000 -1.1463  0.4625  2.1376
  401MPD2    H3 5995   0.443   1.387  17.558 -1.1430 -0.0516  0.3333
  401MPD2     N 5996   0.660   1.130   0.163 -0.3071 -0.7168  0.2405
  401MPD2    H5 5997   0.721   1.113   0.242  0.6114  0.9243 -0.1069
  401MPD2    N1 5998   0.540   1.585   0.260  0.6719  0.1726  0.1003
  401MPD2    H7 5999   0.595   1.578   0.345  0.7644  1.3207  0.1361
  402TMC3    C1 6000   0.743   0.922   0.144 -0.0988 -0.0016 -0.9833
  402TMC3    C2 6001   0.766   0.933   0.280  0.1075  0.1611  0.5769
  402TMC3    C3 6002   0.840   0.825   0.333  0.9625  0.6112 -0.5436
  402TMC3    C4 6003   0.794   0.824   0.065  0.0263  0.0992 -0.0255
  402TMC3    C5 6004   0.877   0.732   0.123 -0.1117  0.1871  0.0203
  402TMC3    C6 6005   0.890   0.726   0.256  0.4122  0.1498 -0.8723
  402TMC3     C 6006   0.663   1.021   0.079  0.0567  1.1135 -0.4949
  402TMC3     O 6007   0.641   1.009  17.663 -0.5325  0.1430  0.5541
  402TMC3     H 6008   0.731   1.012   0.345 -0.1899  2.3404 -2.2153
  402TMC3    H1 6009   0.759   0.815  17.667  0.6541 -0.4873 -0.1892
  402TMC3    H2 6010   0.941   0.641   0.299  0.7089  0.7624 -0.0235
  402TMC3    C7 6011   0.876   0.601   0.055 -0.4410  0.0545  0.3617
  402TMC3    C8 6012   0.874   0.804   0.478  0.4829  0.1114 -0.0763
  402TMC3    O1 6013   0.821   0.583  17.654 -0.9846  0.8667  0.0519
  402TMC3    O2 6014   0.927   0.700   0.503  0.9666  0.4768 -0.2277
  403MPD2     C 6015   3.429   0.089  13.699  0.4782  0.3761 -0.6107
  403MPD2    C1 6016   3.529   4.721  13.715 -0.7115 -0.6174  0.0417
  403MPD2    C2 6017   3.641   0.038  13.793  0.0003 -1.3892  0.1145
  403MPD2    C3 6018   3.654   0.167  13.844  0.3221  0.2141  0.9600
  403MPD2    C4 6019   3.552   0.258  13.817 -0.3047 -0.3359  1.0406
  403MPD2    C5 6020   3.438   0.213  13.760 -0.5482 -0.4970 -0.4341
  403MPD2     H 6021   3.720   4.698  13.827  2.3164  0.9403 -0.7905
  403MPD2    H1 6022   3.541   0.362  13.847  0.1045  0.5992 -2.0116
  403MPD2    H2 6023   3.336   0.066  13.647 -0.0653 -0.1118  0.5770
  403MPD2    H3 6024   3.359   0.285  13.747  1.5831  1.4644 -2.5690
  403MPD2     N 6025   3.761   0.204  13.922 -0.3309  0.5915 -0.5285
  403MPD2    H5 6026   3.833   0.137  13.949  0.4353 -0.1282 -4.4078
  403MPD2    N1 6027   3.510   4.589  13.659 -0.0810  0.1711  0.0471
  403MPD2    H7 6028   3.418   4.567  13.623 -1.0330 -0.9044  3.0715
  404TMC3    C1 6029   3.548   4.368  13.592 -0.0021 -0.0517  0.2276
  404TMC3    C2 6030   3.445   4.306  13.660  0.2137 -0.0303  0.1419
  404TMC3    C3 6031   3.415   4.180  13.627 -0.3009  0.2291  0.1378
  404TMC3    C4 6032   3.637   4.292  13.519  0.0685 -0.5780  0.4888
  404TMC3    C5 6033   3.612   4.160  13.499 -0.0998  0.5902  0.0124
  404TMC3    C6 6034   3.503   4.099  13.552 -0.2447  0.1402 -0.0731
  404TMC3     C 6035   3.605   4.486  13.646  0.0420  0.1818 -0.4765
  404TMC3     O 6036   3.723   4.496  13.666 -0.0492 -0.5455 -0.1324
  404TMC3     H 6037   3.383   4.360  13.730 -1.1068 -1.9342  0.4580
  404TMC3    H1 6038   3.733   4.336  13.492  0.7598 -1.7901  0.9394
  404TMC3    H2 6039   3.484   3.998  13.521  2.4103 -1.0737  2.2289
  404TMC3    C7 6040   3.669   4.110  13.380 -0.3421  0.0305 -0.2970
  404TMC3    C8 6041   3.347   4.111  13.735  0.6661 -0.1334  0.0242
  404TMC3    O1 6042   3.781   4.146  13.348  0.3490  0.2063 -0.0647
  404TMC3    O2 6043   3.252   4.169  13.785 -0.1711  0.0882  0.6145
  405MPD2     C 6044   3.602   0.390  14.323  0.6558  0.2459 -0.6023
  405MPD2    C1 6045   3.603   0.254  14.298  0.0491 -0.7592  0.8478
  405MPD2    C2 6046   3.511   0.203  14.206  0.5299  0.1234  0.1089
  405MPD2    C3 6047   3.419   0.288  14.152 -0.3273 -0.0530 -0.5707
  405MPD2    C4 6048   3.415   0.425  14.174  0.0317  0.4898  0.2463
  405MPD2    C5 6049   3.512   0.470  14.262 -0.0715 -0.4923  0.4830
  405MPD2     H 6050   3.508   0.101  14.167 -1.2106 -1.1441  3.4868
  405MPD2    H1 6051   3.335   0.484  14.131  0.1264  0.5444  0.1430
  405MPD2    H2 6052   3.674   0.425  14.396 -0.1301 -0.4694  0.5157
  405MPD2    H3 6053   3.526   0.576  14.276 -2.5399 -0.3732  1.9172
  405MPD2     N 6054   3.327   0.216  14.071  0.1495  0.2611 -0.6732
  405MPD2    H5 6055   3.361   0.121  14.057 -0.3727  0.1906 -1.4661
  405MPD2    N1 6056   3.707   0.183  14.363  0.2525  0.5281 -0.4149
  405MPD2    H7 6057   3.754   0.242  14.431 -0.7861  0.4818  0.3318
  406TMC3    C1 6058   2.891   0.158  14.047  0.4063  0.1412  0.0253
  406TMC3    C2 6059   2.925   0.061  14.144 -0.0198 -0.2812  0.3867
  406TMC3    C3 6060   3.045   0.008  14.147  0.1363  0.5956  0.2734
  406TMC3    C4 6061   2.987   0.209  13.971  1.2425 -0.4526 -0.5383
  406TMC3    C5 6062   3.119   0.157  13.978 -0.8415  0.0626  0.3088
  406TMC3    C6 6063   3.147   0.048  14.065 -0.3669 -0.8316  0.3483
  406TMC3     C 6064   2.781   0.247  14.070 -0.2238  0.1418 -0.2939
  406TMC3     O 6065   2.730   0.306  13.972  0.6081  0.8558 -0.6391
  406TMC3     H 6066   2.850   0.030  14.216 -0.7560  3.0063  1.0801
  406TMC3    H1 6067   2.972   0.303  13.919  2.3639  0.1387  0.2079
  406TMC3    H2 6068   3.239   4.717  14.056  0.1003  0.0598 -0.5537
  406TMC3    C7 6069   3.212   0.262  14.010  0.4297  0.1011 -0.3420
  406TMC3    C8 6070   3.086   4.651  14.263 -0.6864  0.6643 -0.2854
  406TMC3    O1 6071   3.170   0.375  14.006  0.0779 -0.0595  0.2521
  406TMC3    O2 6072   2.993   4.598  14.321 -0.1854  0.1285  0.0343
  407MPD2     C 6073   2.304   2.400   9.433 -0.6154 -0.5001  0.3218
  407MPD2    C1 6074   2.384   2.331   9.524 -0.2500  0.3960  0.6569
  407MPD2    C2 6075   2.324   2.247   9.613 -0.2726 -0.7007  0.3034
  407MPD2    C3 6076   2.181   2.240   9.630  0.1226 -0.4915 -0.7317
  407MPD2    C4 6077   2.110   2.317   9.538  0.4020 -0.2170 -0.1427
  407MPD2    C5 6078   2.173   2.376   9.433  0.5857  0.8297  0.1282
  407MPD2     H 6079   2.380   2.188   9.685  1.0221  1.4451  1.0676
  407MPD2    H1 6080   2.004   2.338   9.541  0.5136  0.2730  0.4142
  407MPD2    H2 6081   2.344   2.474   9.365  1.4688 -2.4755 -0.5941
  407MPD2    H3 6082   2.107   2.424   9.362 -1.6696 -1.5825  0.5811
  407MPD2     N 6083   2.112   2.181   9.733  0.0551 -1.2628 -0.4697
  407MPD2    H5 6084   2.012   2.199   9.739  0.3886 -0.3666  2.3441
  407MPD2    N1 6085   2.525   2.349   9.535  0.1396 -0.0038  0.0609
  407MPD2    H7 6086   2.565   2.300   9.614  0.8844 -0.6428 -0.7194
  408TMC3    C1 6087   2.719   2.472   9.536 -0.0551 -0.2323  0.5299
  408TMC3    C2 6088   2.802   2.373   9.566  0.1154  0.1124  0.0661
  408TMC3    C3 6089   2.916   2.393   9.631 -0.0285 -0.1480 -0.4553
  408TMC3    C4 6090   2.755   2.606   9.563  0.3261 -0.4472  0.3430
  408TMC3    C5 6091   2.864   2.616   9.642  0.4905  0.4178  0.0619
  408TMC3    C6 6092   2.957   2.520   9.671 -0.6107  0.5467 -0.4383
  408TMC3     C 6093   2.596   2.443   9.467 -0.4788 -0.4635 -1.1870
  408TMC3     O 6094   2.561   2.541   9.402 -0.4791  0.4737 -0.2252
  408TMC3     H 6095   2.774   2.276   9.526  1.8589  0.1301 -1.1750
  408TMC3    H1 6096   2.680   2.682   9.542  1.7373  1.5077  2.4159
  408TMC3    H2 6097   3.046   2.552   9.724 -0.2999 -1.5309  0.2705
  408TMC3    C7 6098   2.887   2.752   9.683  0.0456  0.5327 -0.2306
  408TMC3    C8 6099   2.975   2.273   9.689  0.2296  0.2932  0.0816
  408TMC3    O1 6100   2.844   2.839   9.610 -0.1919 -0.2691 -0.1610
  408TMC3    O2 6101   2.929   2.164   9.675  0.0846 -0.4704 -0.1886
  409MPD2     C 6102   0.846   2.506  16.934 -0.0434  0.5112 -0.3265
  409MPD2    C1 6103   0.979   2.536  16.926 -0.2507 -0.3276  0.2901
  409MPD2    C2 6104   1.022   2.659  16.875  0.1678  0.7621  0.0926
  409MPD2    C3 6105   0.928   2.762  16.846 -0.0387  0.6963 -0.3210
  409MPD2    C4 6106   0.792   2.725  16.866 -0.0187  0.2190 -0.4163
  409MPD2    C5 6107   0.759   2.606  16.911 -0.5294  0.1756  0.0402
  409MPD2     H 6108   1.129   2.679  16.876  0.6364 -1.6947 -0.2881
  409MPD2    H1 6109   0.711   2.793  16.843 -1.9603 -1.7045  0.6499
  409MPD2    H2 6110   0.806   2.411  16.966 -0.9928  0.9382 -0.2505
  409MPD2    H3 6111   0.654   2.586  16.927  0.2007 -2.0045  2.1983
  409MPD2     N 6112   0.960   2.892  16.803  0.3548  0.0162 -0.2757
  409MPD2    H5 6113   0.887   2.959  16.778  1.0809  0.8681 -0.1271
  409MPD2    N1 6114   1.077   2.447  16.969  0.0186  0.6643 -0.7754
  409MPD2    H7 6115   1.170   2.487  16.969  0.4297 -0.2809  0.7636
  410TMC3    C1 6116   1.099   3.084  16.771  0.1416 -0.1470  0.3499
  410TMC3    C2 6117   1.196   3.139  16.838  0.3860  0.1509  0.0546
  410TMC3    C3 6118   1.293   3.212  16.788  0.8530 -0.1683 -0.0229
  410TMC3    C4 6119   1.099   3.098  16.635  0.4131  0.3482 -1.0009
  410TMC3    C5 6120   1.202   3.172  16.580 -0.2138 -0.1593 -0.1341
  410TMC3    C6 6121   1.301   3.231  16.655 -0.4606 -0.0452  0.2682
  410TMC3     C 6122   1.081   2.948  16.814  0.8780  0.4093  0.0903
  410TMC3     O 6123   1.186   2.895  16.847 -0.2132  0.6674  0.2160
  410TMC3     H 6124   1.193   3.123  16.945 -1.6259  0.5321  0.0651
  410TMC3    H1 6125   1.025   3.042  16.578 -1.1441 -0.0775  1.4076
  410TMC3    H2 6126   1.382   3.291  16.614 -1.3725  1.2925  0.4280
  410TMC3    C7 6127   1.188   3.200  16.439 -0.4523 -0.0210 -0.1732
  410TMC3    C8 6128   1.425   3.187  16.846 -0.0411  1.3096  0.2111
  410TMC3    O1 6129   1.113   3.134  16.370 -0.4709  0.0295  0.0606
  410TMC3    O2 6130   1.516   3.271  16.840  0.0563  0.1474  0.5867
  411MPD2     C 6131   1.589   3.368  14.412 -0.0002  0.1272  0.4765
  411MPD2    C1 6132   1.478   3.384  14.483 -0.1634  0.3724  0.2943
  411MPD2    C2 6133   1.373   3.288  14.469 -0.5125  0.4355  0.0879
  411MPD2    C3 6134   1.396   3.168  14.405  0.7884  0.1975 -0.2289
  411MPD2    C4 6135   1.520   3.150  14.346 -0.4370  0.7137  0.5607
  411MPD2    C5 6136   1.613   3.250  14.350  0.3002 -0.0736  0.2391
  411MPD2     H 6137   1.274   3.308  14.509 -0.5539 -0.7697  0.5821
  411MPD2    H1 6138   1.540   3.065  14.282 -2.7928 -0.6368  1.6153
  411MPD2    H2 6139   1.675   3.434  14.418 -0.0733  0.3193 -0.6951
  411MPD2    H3 6140   1.698   3.238  14.283  0.0361 -0.3508 -0.0495
  411MPD2     N 6141   1.288   3.072  14.385 -0.1548 -0.3453 -0.4315
  411MPD2    H5 6142   1.302   3.000  14.315  2.3709 -0.1481 -0.1286
  411MPD2    N1 6143   1.436   3.516  14.509 -0.4458  0.2536 -0.2260
  411MPD2    H7 6144   1.494   3.589  14.469  0.1235  0.2495  0.5940
  412TMC3    C1 6145   1.071   2.984  14.389  0.3866 -0.2968  0.4063
  412TMC3    C2 6146   0.992   2.917  14.479  0.1113 -0.0514 -0.3442
  412TMC3    C3 6147   0.908   2.827  14.419 -0.4152  0.0070 -0.3137
  412TMC3    C4 6148   1.076   2.961  14.253  0.5974  0.3904 -1.1130
  412TMC3    C5 6149   0.996   2.865  14.200  0.3509 -0.2321  0.3139
  412TMC3    C6 6150   0.907   2.797  14.283 -0.2706 -0.1230  0.1832
  412TMC3     C 6151   1.170   3.068  14.455 -0.5915  0.1058 -0.2814
  412TMC3     O 6152   1.139   3.096  14.572 -0.0796  0.0557 -0.2106
  412TMC3     H 6153   0.981   2.944  14.583  0.3292 -0.7750 -0.1342
  412TMC3    H1 6154   1.146   3.019  14.193  2.9425  0.2502  1.4670
  412TMC3    H2 6155   0.849   2.718  14.236  0.5609 -1.3040  1.1635
  412TMC3    C7 6156   0.932   2.912  14.077 -0.0034 -0.1124 -0.8866
  412TMC3    C8 6157   0.769   2.833  14.462  0.1804  0.2922 -0.4213
  412TMC3    O1 6158   0.826   2.863  14.040  0.1592 -0.7260  0.0375
  412TMC3    O2 6159   0.729   2.945  14.486 -0.6118 -0.3266 -0.1911
  413MPD2     C 6160   2.867   1.653  15.671 -0.0804 -0.0536 -0.5531
  413MPD2    C1 6161   2.785   1.608  15.570  0.0299  0.0951  0.0712
  413MPD2    C2 6162   2.847   1.556  15.453 -0.0703  0.2090  0.0387
  413MPD2    C3 6163   2.989   1.546  15.437  0.2316 -0.0923 -0.5688
  413MPD2    C4 6164   3.062   1.603  15.539 -0.2874 -0.4439 -0.3511
  413MPD2    C5 6165   3.006   1.649  15.649 -0.1438  0.1374 -0.0307
  413MPD2     H 6166   2.786   1.513  15.375 -0.7405  0.0384  0.6479
  413MPD2    H1 6167   3.170   1.607  15.534 -0.3102 -0.5336 -0.9073
  413MPD2    H2 6168   2.835   1.697  15.765 -0.7874  0.9358 -1.2527
  413MPD2    H3 6169   3.071   1.689  15.727  0.1709 -1.8284  0.7209
  413MPD2     N 6170   3.050   1.495  15.325 -0.5697  0.1534 -0.5379
  413MPD2    H5 6171   2.979   1.470  15.256 -0.8254  0.4653 -0.3878
  413MPD2    N1 6172   2.640   1.625  15.573 -0.4189 -0.5242  0.4658
  413MPD2    H7 6173   2.597   1.586  15.490 -2.5583  1.8977  0.4539
  414TMC3    C1 6174   3.208   1.407  15.179 -0.4218  0.2488 -0.4109
  414TMC3    C2 6175   3.298   1.304  15.187 -0.2880 -0.5449  0.1813
  414TMC3    C3 6176   3.299   1.215  15.082 -0.4013 -0.3099 -0.9983
  414TMC3    C4 6177   3.123   1.419  15.078 -0.1574  0.2131 -0.3011
  414TMC3    C5 6178   3.139   1.342  14.967 -0.4214 -0.3902  0.4665
  414TMC3    C6 6179   3.214   1.232  14.975 -1.2581 -0.6480 -0.9041
  414TMC3     C 6180   3.182   1.470  15.300  0.1145 -0.1200 -0.2152
  414TMC3     O 6181   3.275   1.464  15.381  0.1171 -0.2654  0.3886
  414TMC3     H 6182   3.359   1.284  15.275 -2.5699  0.5553  2.0349
  414TMC3    H1 6183   3.061   1.507  15.066  0.4043  0.2758 -2.8010
  414TMC3    H2 6184   3.201   1.152  14.904 -0.2903 -1.1022 -0.5638
  414TMC3    C7 6185   3.041   1.360  14.864  0.3961 -0.1977  0.1193
  414TMC3    C8 6186   3.413   1.130  15.059  0.2449  0.2834 -0.0529
  414TMC3    O1 6187   2.940   1.412  14.904  0.6935  0.6105  0.3204
  414TMC3    O2 6188   3.395   1.038  14.981  0.2821 -0.2016  0.1343
  415TMC3    C1 6189   4.224   4.411  10.009 -0.1150 -0.2927 -0.6949
  415TMC3    C2 6190   4.329   4.403   9.919 -0.5438 -0.2468 -0.5426
  415TMC3    C3 6191   4.339   4.293   9.836  0.0908 -0.3823 -0.9006
  415TMC3    C4 6192   4.131   4.316  10.020 -0.2232  0.0065  1.2368
  415TMC3    C5 6193   4.154   4.207   9.939 -0.4330  0.1209 -0.0642
  415TMC3    C6 6194   4.250   4.189   9.845  0.0915 -0.0121  0.0850
  415TMC3     C 6195   4.223   4.517  10.110  0.0183 -0.3355 -0.4731
  415TMC3     O 6196   4.234   4.628  10.061 -0.2574  0.0186 -0.5783
  415TMC3     H 6197   4.407   4.478   9.924 -0.2701 -0.5695  0.0200
  415TMC3    H1 6198   4.043   4.326  10.081 -0.6971  0.9423  0.4108
  415TMC3    H2 6199   4.240   4.117   9.765 -0.3811  1.2353 -0.9784
  415TMC3    C7 6200   4.047   4.106   9.939  0.7694 -0.0334  0.3930
  415TMC3    C8 6201   4.412   4.305   9.707  0.3026  0.1625 -0.0744
  415TMC3    O1 6202   4.034   4.047   9.836  0.0954  0.0961 -0.2988
  415TMC3    O2 6203   4.409   4.207   9.634  0.1914 -0.1934 -0.1641
  416MPD2     C 6204   0.401   3.053  12.180 -0.1706  0.1801 -0.1077
  416MPD2    C1 6205   0.433   3.102  12.060 -0.6805 -0.0185  0.3464
  416MPD2    C2 6206   0.374   3.037  11.952  0.1983  0.2440  0.1417
  416MPD2    C3 6207   0.286   2.926  11.966 -0.4308 -0.1378 -0.4445
  416MPD2    C4 6208   0.256   2.881  12.096 -0.3838  0.6637  0.2247
  416MPD2    C5 6209   0.315   2.950  12.203 -0.4074  0.6026 -0.2121
  416MPD2     H 6210   0.396   3.077  11.854  0.4545  0.7905  0.4262
  416MPD2    H1 6211   0.203   2.789  12.118  2.6348 -1.2445 -0.5908
  416MPD2    H2 6212   0.440   3.111  12.263 -3.2481  0.9724  0.7698
  416MPD2    H3 6213   0.296   2.922  12.306 -1.1954  2.8394  0.2639
  416MPD2     N 6214   0.235   2.860  11.856  0.0508 -0.6745  0.6885
  416MPD2    H5 6215   0.173   2.784  11.881  0.2230 -0.2478  2.3844
  416MPD2    N1 6216   0.528   3.211  12.046 -0.1473  0.1647  0.1916
  416MPD2    H7 6217   0.556   3.252  12.135 -3.1917  1.4298  0.5541
  417TMC3    C1 6218   0.641   3.395  11.944 -0.0237 -0.3537  0.7899
  417TMC3    C2 6219   0.673   3.437  12.071  0.9235 -1.0162  0.4693
  417TMC3    C3 6220   0.733   3.559  12.081 -0.2751 -0.3830  0.3454
  417TMC3    C4 6221   0.663   3.471  11.830 -0.3634  0.3891  0.3711
  417TMC3    C5 6222   0.727   3.591  11.850  0.3511  0.1725 -0.1325
  417TMC3    C6 6223   0.755   3.643  11.974 -0.1992 -0.3025  0.4581
  417TMC3     C 6224   0.571   3.264  11.924  0.3037 -0.3700  0.1546
  417TMC3     O 6225   0.546   3.234  11.809 -0.0516 -0.7048 -0.1019
  417TMC3     H 6226   0.658   3.374  12.157  1.4371 -1.7474  0.0199
  417TMC3    H1 6227   0.641   3.442  11.728 -0.5325  0.6231  0.3389
  417TMC3    H2 6228   0.811   3.736  11.973  1.5274 -1.3301  0.2876
  417TMC3    C7 6229   0.731   3.681  11.732 -0.2725 -0.2370  0.5343
  417TMC3    C8 6230   0.780   3.608  12.212 -0.6869 -0.1553 -0.2420
  417TMC3    O1 6231   0.749   3.641  11.620 -0.6633  0.4219 -0.2017
  417TMC3    O2 6232   0.827   3.720  12.211 -0.8957  0.3402  0.2474
  418TMC3    C1 6233   4.312   4.339   0.073  0.4717 -0.3674 -0.2200
  418TMC3    C2 6234   4.198   4.399   0.031 -0.3574  0.3840  0.6187
  418TMC3    C3 6235   4.104   4.405   0.130 -0.4975  0.1914  0.2928
  418TMC3    C4 6236   4.345   4.327   0.207  0.4715 -0.1129 -0.1118
  418TMC3    C5 6237   4.243   4.339   0.299  0.3569  0.0635  0.6805
  418TMC3    C6 6238   4.120   4.376   0.258  0.2760  0.1226  0.1958
  418TMC3     C 6239   4.412   4.311  17.675 -0.0254 -0.6184  0.1158
  418TMC3     O 6240   4.406   4.362  17.567  0.0213  0.5630 -0.1201
  418TMC3     H 6241   4.171   4.395  17.631  0.7291  1.5480  0.2889
  418TMC3    H1 6242   4.435   4.274   0.235  1.7279  2.5784  0.9801
  418TMC3    H2 6243   4.029   4.375   0.317 -0.1000  1.6066 -0.3535
  418TMC3    C7 6244   4.249   4.276   0.426  0.5662  0.1786  1.0158
  418TMC3    C8 6245   3.975   4.375   0.091 -0.4125 -0.0528  0.4090
  418TMC3    O1 6246   4.149   4.236   0.482  0.7231 -0.7154  0.0217
  418TMC3    O2 6247   3.911   4.464   0.029  0.3586  0.0190 -0.6030
  419MPD2     C 6248   3.348   2.812  12.306 -0.3744  0.0887  0.2783
  419MPD2    C1 6249   3.237   2.893  12.316 -0.0596  0.2466 -0.5847
  419MPD2    C2 6250   3.203   2.931  12.448 -0.3717  0.1952  0.3089
  419MPD2    C3 6251   3.270   2.890  12.561 -0.1597  0.2841  0.4196
  419MPD2    C4 6252   3.381   2.813  12.543  0.2742 -0.4477 -0.0598
  419MPD2    C5 6253   3.420   2.785  12.417 -0.1961 -0.0597 -0.3461
  419MPD2     H 6254   3.113   2.991  12.453  1.3481  2.8271 -0.4990
  419MPD2    H1 6255   3.456   2.785  12.616 -0.3644  1.5901  1.3591
  419MPD2    H2 6256   3.389   2.787  12.209 -1.7806  0.9660 -0.5425
  419MPD2    H3 6257   3.514   2.733  12.404 -0.5438 -0.6190 -0.6241
  419MPD2     N 6258   3.227   2.938  12.687 -0.6939  0.2276  0.0694
  419MPD2    H5 6259   3.163   3.016  12.689  0.0508  0.9104 -3.0800
  419MPD2    N1 6260   3.149   2.934  12.217 -0.1019 -0.0208 -0.7085
  419MPD2    H7 6261   3.074   2.997  12.245 -0.2057 -0.5746  0.2184
  420TMC3    C1 6262   3.188   2.927  12.926  0.6897  0.2785 -0.3726
  420TMC3    C2 6263   3.055   2.940  12.903  0.2695  0.5660  0.4355
  420TMC3    C3 6264   2.964   2.925  13.002  0.1121  0.4288 -0.2036
  420TMC3    C4 6265   3.231   2.902  13.057 -0.0738  0.3796  0.2910
  420TMC3    C5 6266   3.132   2.895  13.154  0.1391 -0.4526 -0.3352
  420TMC3    C6 6267   2.997   2.897  13.130 -0.0398  0.3738  0.9245
  420TMC3     C 6268   3.265   2.887  12.812  0.3188  0.2599  0.2886
  420TMC3     O 6269   3.340   2.796  12.845  0.2786  0.3227  0.2076
  420TMC3     H 6270   3.016   2.954  12.802 -0.2977  0.4727  0.6433
  420TMC3    H1 6271   3.319   2.840  13.066  0.8593  1.5250 -0.9680
  420TMC3    H2 6272   2.930   2.902  13.215 -0.5147 -0.1775  0.5846
  420TMC3    C7 6273   3.173   2.900  13.293  0.8478  0.0943 -0.0546
  420TMC3    C8 6274   2.834   2.984  12.983  0.0608 -0.0172 -0.0435
  420TMC3    O1 6275   3.099   2.852  13.374  0.4430  0.0148 -0.2720
  420TMC3    O2 6276   2.832   3.062  12.888 -0.5392 -0.1035 -0.0031
  421TMC3    C1 6277   3.894   0.316  14.073  0.3312 -0.3478  0.3601
  421TMC3    C2 6278   3.905   0.415  14.160 -0.1283  0.0465  0.1602
  421TMC3    C3 6279   4.026   0.442  14.214  0.4600  0.0153 -0.6025
  421TMC3    C4 6280   4.005   0.251  14.024 -0.8682 -0.0546  0.2049
  421TMC3    C5 6281   4.127   0.286  14.078  0.1141 -0.1150 -0.2624
  421TMC3    C6 6282   4.143   0.376  14.180  0.4522  0.0109  0.3703
  421TMC3     C 6283   3.776   0.324  13.988 -0.2699  0.0800  0.3882
  421TMC3     O 6284   3.701   0.416  14.014  0.1073  0.2609 -0.3146
  421TMC3     H 6285   3.821   0.460  14.211 -0.3516  1.3830 -1.4140
  421TMC3    H1 6286   4.013   0.197  13.930 -0.4201 -1.7191  1.1996
  421TMC3    H2 6287   4.239   0.388  14.230  3.1338 -0.1868 -4.7288
  421TMC3    C7 6288   4.237   0.201  14.056 -0.1103  0.7338  0.1559
  421TMC3    C8 6289   4.029   0.524  14.335 -0.4303  0.6122  0.1458
  421TMC3    O1 6290   4.343   0.233  14.111  0.1836  0.2225  0.4947
  421TMC3    O2 6291   3.927   0.546  14.391 -0.4808  0.0042  0.1521
  422TMC3    C1 6292   1.415   1.268  12.966  0.4186 -0.7363 -0.2079
  422TMC3    C2 6293   1.390   1.387  13.021  0.6078 -0.0399 -0.3457
  422TMC3    C3 6294   1.267   1.413  13.071 -0.2480 -0.2741 -0.2326
  422TMC3    C4 6295   1.324   1.170  12.964  0.4568  0.3834 -0.3679
  422TMC3    C5 6296   1.201   1.197  13.012 -0.1453  0.5718 -0.2438
  422TMC3    C6 6297   1.172   1.316  13.079  0.1516 -0.3965 -0.6858
  422TMC3     C 6298   1.523   1.260  12.868  0.5013  0.3922  0.4569
  422TMC3     O 6299   1.564   1.365  12.823 -0.5817  0.3864 -0.7931
  422TMC3     H 6300   1.465   1.464  13.008 -0.4738  1.0921  0.0923
  422TMC3    H1 6301   1.333   1.081  12.902  0.0171  0.9667 -1.2830
  422TMC3    H2 6302   1.073   1.339  13.117 -0.0532 -1.7011 -0.4454
  422TMC3    C7 6303   1.091   1.124  12.954 -0.4536 -1.1294 -0.3333
  422TMC3    C8 6304   1.235   1.548  13.083 -0.0614  0.4183  0.1262
  422TMC3    O1 6305   1.112   1.088  12.836 -0.0974  0.5647 -0.8250
  422TMC3    O2 6306   1.307   1.623  13.014  0.1462 -0.8381 -0.0514
  423MPD2     C 6307   2.777   2.088   0.510  0.4860  0.3858 -0.2175
  423MPD2    C1 6308   2.825   1.962   0.522 -0.1895  0.1496  0.8751
  423MPD2    C2 6309   2.829   1.887   0.407  0.0246  0.3904 -0.5121
  423MPD2    C3 6310   2.805   1.944   0.281  0.3779  0.2378 -0.2299
  423MPD2    C4 6311   2.759   2.074   0.273  0.0729  1.1436 -0.3130
  423MPD2    C5 6312   2.748   2.143   0.392  0.3533 -0.1404 -0.3612
  423MPD2     H 6313   2.847   1.781   0.418 -1.2678  0.4079  1.9305
  423MPD2    H1 6314   2.748   2.131   0.182  0.0178  0.4201 -0.7646
  423MPD2    H2 6315   2.776   2.168   0.583  1.0774  1.0166 -0.8954
  423MPD2    H3 6316   2.733   2.250   0.386 -0.4837 -0.2538 -0.2938
  423MPD2     N 6317   2.821   1.884   0.157  0.3970 -0.2497  0.2940
  423MPD2    H5 6318   2.794   1.938   0.075 -1.8541 -0.9060  0.5787
  423MPD2    N1 6319   2.856   1.900   0.646  0.2917  0.2497  0.1681
  423MPD2    H7 6320   2.884   1.803   0.647  1.1015  0.5001  1.1097
  424TMC3    C1 6321   2.886   1.878   0.872  0.0088 -0.4059  0.0440
  424TMC3    C2 6322   2.858   1.748   0.868 -0.2954  0.6859  0.0368
  424TMC3    C3 6323   2.902   1.671   0.983  0.1396  0.6280  0.0322
  424TMC3    C4 6324   2.937   1.939   0.992  1.3134  0.2708  0.4759
  424TMC3    C5 6325   2.956   1.864   1.104  0.1149  0.3306  0.2504
  424TMC3    C6 6326   2.951   1.732   1.098 -0.3787 -0.1620  0.3313
  424TMC3     C 6327   2.838   1.966   0.769 -0.0334  0.2023  0.2088
  424TMC3     O 6328   2.814   2.081   0.800  0.7694  0.0197 -0.4188
  424TMC3     H 6329   2.797   1.708   0.788 -0.2300 -0.1040  0.3801
  424TMC3    H1 6330   2.982   2.038   0.990  1.2089  0.3226  0.6831
  424TMC3    H2 6331   2.988   1.679   1.186  2.2521 -0.7349 -1.1194
  424TMC3    C7 6332   3.036   1.903   1.222  0.3510  0.0583  0.7414
  424TMC3    C8 6333   2.894   1.524   0.978 -0.4634  0.6001 -1.0772
  424TMC3    O1 6334   3.124   1.828   1.260  0.3847  0.5113 -0.2371
  424TMC3    O2 6335   2.899   1.458   1.082  0.0609 -0.1780  0.2295
  425MPD2     C 6336   2.158   1.627  17.459  0.6210  0.0727  0.1764
  425MPD2    C1 6337   2.113   1.538  17.362 -0.5617  0.0218 -0.0365
  425MPD2    C2 6338   1.991   1.560  17.308 -0.2019  0.0933  0.2728
  425MPD2    C3 6339   1.918   1.669  17.346  0.6006  0.4436 -0.1092
  425MPD2    C4 6340   1.965   1.756  17.441  0.7130  0.3028 -0.7519
  425MPD2    C5 6341   2.092   1.741  17.493 -0.2074 -0.3412  0.0179
  425MPD2     H 6342   1.940   1.495  17.238  1.7082 -1.9740  0.7950
  425MPD2    H1 6343   1.903   1.840  17.469  0.2045 -0.4958  0.5066
  425MPD2    H2 6344   2.246   1.596  17.513 -1.8747 -1.1626  3.5587
  425MPD2    H3 6345   2.116   1.804  17.578  0.3841 -0.1932 -0.2633
  425MPD2     N 6346   1.792   1.683  17.281 -0.0787  0.0336 -0.3347
  425MPD2    H5 6347   1.780   1.627  17.198  1.6705 -0.2726 -0.3808
  425MPD2    N1 6348   2.199   1.430  17.327 -0.0049 -0.3889 -0.5438
  425MPD2    H7 6349   2.285   1.424  17.381 -1.5796 -0.1963  2.0015
  426TMC3    C1 6350   2.284   1.245  17.189  0.4994 -0.7139  0.0586
  426TMC3    C2 6351   2.278   1.202  17.060 -0.1018  0.7982 -0.1572
  426TMC3    C3 6352   2.310   1.073  17.032  0.2204 -0.2949 -0.6741
  426TMC3    C4 6353   2.299   1.154  17.288  0.3140 -0.8364  0.1154
  426TMC3    C5 6354   2.316   1.022  17.256 -0.3591 -0.0341 -0.0381
  426TMC3    C6 6355   2.329   0.977  17.128  0.7745  0.1464  1.2524
  426TMC3     C 6356   2.193   1.359  17.211 -1.1652  0.5812 -0.2081
  426TMC3     O 6357   2.110   1.368  17.125  0.3391  0.0219 -0.6033
  426TMC3     H 6358   2.256   1.264  16.975 -1.4378 -1.4263 -1.4342
  426TMC3    H1 6359   2.285   1.187  17.390 -3.1479  0.6476 -0.8299
  426TMC3    H2 6360   2.330   0.872  17.100 -2.1095 -0.0618  1.8712
  426TMC3    C7 6361   2.312   0.919  17.358  0.1880  0.5655  0.0867
  426TMC3    C8 6362   2.252   1.019  16.913 -0.4352 -0.2281 -1.0490
  426TMC3    O1 6363   2.389   0.823  17.346  0.2245  0.1963 -0.3735
  426TMC3    O2 6364   2.306   0.916  16.877  0.7344  0.6903  0.1896
  427MPD2     C 6365   0.515   3.429  14.860  0.5552 -0.3411 -0.1164
  427MPD2    C1 6366   0.485   3.423  14.992  0.0797  0.0865  0.7197
  427MPD2    C2 6367   0.356   3.464  15.032  0.0499 -0.5701  0.4578
  427MPD2    C3 6368   0.262   3.514  14.950  0.4934  0.2782 -0.1437
  427MPD2    C4 6369   0.306   3.540  14.819  0.1883 -0.7159  0.3061
  427MPD2    C5 6370   0.432   3.497  14.774  0.3871 -0.2117  0.5267
  427MPD2     H 6371   0.341   3.457  15.139 -1.5162  2.2823  0.4009
  427MPD2    H1 6372   0.234   3.590  14.756  1.1361 -1.2724 -1.2111
  427MPD2    H2 6373   0.616   3.415  14.824 -0.1335 -0.6809 -1.8892
  427MPD2    H3 6374   0.448   3.509  14.667 -1.0686 -0.3689  0.2905
  427MPD2     N 6375   0.132   3.556  14.986 -0.1466  0.3658 -0.7047
  427MPD2    H5 6376   0.080   3.582  14.903 -0.0406 -1.0959 -1.2412
  427MPD2    N1 6377   0.571   3.365  15.090  0.4005  0.1719 -0.3910
  427MPD2    H7 6378   0.535   3.384  15.183 -2.2182 -0.3290 -1.2962
  428TMC3    C1 6379   0.759   3.288  15.204 -0.3484 -0.3064  0.3638
  428TMC3    C2 6380   0.704   3.191  15.278  0.0672 -0.4243  0.9446
  428TMC3    C3 6381   0.760   3.164  15.401 -0.6619 -0.5890 -0.1521
  428TMC3    C4 6382   0.873   3.356  15.245  0.0867 -0.2491  0.1547
  428TMC3    C5 6383   0.936   3.315  15.355 -0.3134  0.0214 -0.1595
  428TMC3    C6 6384   0.879   3.219  15.429 -0.0754  0.9081  0.2672
  428TMC3     C 6385   0.702   3.330  15.078 -0.4713  0.0453 -0.0766
  428TMC3     O 6386   0.777   3.337  14.982 -0.4084  0.3741 -0.3082
  428TMC3     H 6387   0.621   3.134  15.239  1.2018 -0.6098 -1.2110
  428TMC3    H1 6388   0.900   3.442  15.185  0.2747 -0.3729  0.0606
  428TMC3    H2 6389   0.936   3.185  15.515  0.2003  1.6998  0.3951
  428TMC3    C7 6390   1.067   3.357  15.394  0.9723 -0.1865  0.0538
  428TMC3    C8 6391   0.712   3.056  15.483 -0.3944  0.2479  1.1897
  428TMC3    O1 6392   1.109   3.323  15.508 -0.0881 -0.0913 -0.1366
  428TMC3    O2 6393   0.768   3.051  15.596 -0.1498  0.0296  0.2078
  429MPD2     C 6394   2.086   3.539  17.530  0.6745  0.4372 -0.8040
  429MPD2    C1 6395   2.006   3.461  17.450 -0.0646 -0.3251 -0.6585
  429MPD2    C2 6396   1.931   3.523  17.355 -0.2809  0.5679  0.5237
  429MPD2    C3 6397   1.942   3.656  17.321 -0.9028 -0.1438 -0.0737
  429MPD2    C4 6398   2.017   3.732  17.408 -0.6128  0.2511 -0.7704
  429MPD2    C5 6399   2.088   3.676  17.511 -0.6137  0.8567  0.6197
  429MPD2     H 6400   1.874   3.468  17.281 -0.6244 -0.4149  1.5326
  429MPD2    H1 6401   2.029   3.838  17.390 -0.2835  0.0174 -1.9229
  429MPD2    H2 6402   2.149   3.497  17.608  1.4237  1.7835 -0.6855
  429MPD2    H3 6403   2.150   3.737  17.577 -1.9244  1.1204  1.6170
  429MPD2     N 6404   1.880   3.699  17.202  0.2210 -0.0948 -0.7502
  429MPD2    H5 6405   1.817   3.631  17.160 -0.2652 -0.5696  0.7443
  429MPD2    N1 6406   1.996   3.323  17.468 -0.0731  0.3734  0.0498
  429MPD2    H7 6407   1.919   3.278  17.420  0.6048  0.4678 -1.1111
  430TMC3    C1 6408   1.830   3.831  17.010 -0.2606 -0.4202 -0.4886
  430TMC3    C2 6409   1.819   3.959  16.959  0.7530  0.4647  0.0740
  430TMC3    C3 6410   1.830   3.962  16.820  0.5766  0.2710 -0.5570
  430TMC3    C4 6411   1.846   3.722  16.931 -0.2649 -0.6134  0.8275
  430TMC3    C5 6412   1.854   3.737  16.793 -0.3682 -0.4742 -0.5714
  430TMC3    C6 6413   1.832   3.850  16.739  0.2119  0.0127 -0.2001
  430TMC3     C 6414   1.901   3.824  17.136 -0.2858 -0.1002  0.3591
  430TMC3     O 6415   1.950   3.928  17.175  0.5770 -0.6945  0.5190
  430TMC3     H 6416   1.819   4.046  17.024  2.7084  0.0526  0.6045
  430TMC3    H1 6417   1.870   3.626  16.975  0.2947 -1.2711 -0.9332
  430TMC3    H2 6418   1.875   3.874  16.642  1.1569 -0.1999  0.1635
  430TMC3    C7 6419   1.859   3.618  16.719  0.3036  0.1022 -0.3934
  430TMC3    C8 6420   1.825   4.089  16.755  0.2575  0.0557  0.1448
  430TMC3    O1 6421   1.876   3.509  16.776  0.4437 -0.1442 -0.0436
  430TMC3    O2 6422   1.902   4.101  16.664  0.1531 -0.4253  0.4476
  431MPD2     C 6423   2.779   3.408  12.600  0.2770  0.4737  0.4530
  431MPD2    C1 6424   2.843   3.489  12.508 -0.2276 -0.2596 -0.7960
  431MPD2    C2 6425   2.865   3.450  12.384  0.0738  1.2191  0.6823
  431MPD2    C3 6426   2.836   3.315  12.351 -0.0056  0.2272  0.9059
  431MPD2    C4 6427   2.774   3.235  12.438  1.2592  0.4429 -0.1590
  431MPD2    C5 6428   2.749   3.281  12.559  0.4652  0.4872 -0.8259
  431MPD2     H 6429   2.919   3.516  12.317  0.3839  1.7011  1.4033
  431MPD2    H1 6430   2.748   3.132  12.414  1.0624  0.4381  0.0701
  431MPD2    H2 6431   2.759   3.438  12.702  0.1582 -4.0119  1.7216
  431MPD2    H3 6432   2.709   3.206  12.626  0.0678  0.0231 -1.5876
  431MPD2     N 6433   2.857   3.256  12.226  0.2247 -0.9981  0.0656
  431MPD2    H5 6434   2.827   3.159  12.219 -0.8389 -0.8742  3.0615
  431MPD2    N1 6435   2.909   3.612  12.546 -0.3447 -0.0973  0.4824
  431MPD2    H7 6436   2.944   3.668  12.468 -0.2411 -3.2356 -1.7491
  432TMC3    C1 6437   2.951   3.186  12.024  0.1250  0.0155 -0.3762
  432TMC3    C2 6438   3.008   3.231  11.909  0.0043  0.2437  0.4878
  432TMC3    C3 6439   3.090   3.140  11.847 -0.7091  0.5906 -0.5997
  432TMC3    C4 6440   2.973   3.064  12.078  0.0473  0.0399  0.9162
  432TMC3    C5 6441   3.059   2.978  12.016 -0.1864 -0.0945 -0.4353
  432TMC3    C6 6442   3.111   3.016  11.900  0.4451 -0.1539 -0.8723
  432TMC3     C 6443   2.918   3.297  12.116  0.1227  0.2309 -0.5957
  432TMC3     O 6444   2.957   3.410  12.091 -0.2296 -0.6854  0.0654
  432TMC3     H 6445   2.989   3.325  11.858  0.2047  0.0948  0.1406
  432TMC3    H1 6446   2.930   3.047  12.176  0.0726 -2.9751  0.3888
  432TMC3    H2 6447   3.191   2.960  11.853  2.5329  1.7697  0.3694
  432TMC3    C7 6448   3.152   2.899  12.084 -0.4609 -0.0847 -0.2155
  432TMC3    C8 6449   3.166   3.166  11.724 -0.2217  1.1981  0.2535
  432TMC3    O1 6450   3.234   2.825  12.026  0.6764 -0.4439 -0.0077
  432TMC3    O2 6451   3.170   3.071  11.649  0.1029  0.3283 -0.0364
  433MPD2     C 6452   1.876   2.441  11.130 -0.4715  0.7557 -0.1169
  433MPD2    C1 6453   1.777   2.350  11.148 -0.5127 -0.4586 -0.1956
  433MPD2    C2 6454   1.723   2.336  11.272  0.3268  0.1954  0.8139
  433MPD2    C3 6455   1.778   2.395  11.381  0.7679  0.4530 -0.3368
  433MPD2    C4 6456   1.880   2.488  11.367  0.1080  0.1821  0.1169
  433MPD2    C5 6457   1.924   2.520  11.239 -0.0620  0.0643  0.0655
  433MPD2     H 6458   1.640   2.269  11.294 -0.1565  1.1173  1.8456
  433MPD2    H1 6459   1.930   2.541  11.447 -1.4294  1.1487  0.4359
  433MPD2    H2 6460   1.910   2.463  11.030  0.3585 -1.4367 -0.3290
  433MPD2    H3 6461   2.003   2.592  11.225  0.0788 -0.6788 -2.9332
  433MPD2     N 6462   1.720   2.360  11.503 -0.5317  0.1279 -0.1697
  433MPD2    H5 6463   1.647   2.290  11.513 -0.8377  0.3775 -0.6827
  433MPD2    N1 6464   1.729   2.270  11.040  0.3343 -0.1720 -0.2551
  433MPD2    H7 6465   1.658   2.198  11.053 -1.3250  1.2837 -1.2957
  434TMC3    C1 6466   1.752   2.152  10.851 -0.2466  0.0094  0.6376
  434TMC3    C2 6467   1.750   2.039  10.924 -0.3585  0.1215 -0.1225
  434TMC3    C3 6468   1.781   1.923  10.864 -0.1395  0.4428 -0.0729
  434TMC3    C4 6469   1.766   2.151  10.709 -0.1486 -0.1446 -0.3955
  434TMC3    C5 6470   1.778   2.026  10.646 -0.3834 -0.2656 -0.8261
  434TMC3    C6 6471   1.784   1.911  10.728 -0.2612  0.0083 -0.4165
  434TMC3     C 6472   1.774   2.282  10.914  0.1706 -0.1171  0.4715
  434TMC3     O 6473   1.807   2.378  10.849 -0.5855 -0.2094  0.0021
  434TMC3     H 6474   1.747   2.039  11.032 -0.5896 -0.7760 -0.1291
  434TMC3    H1 6475   1.744   2.239  10.649  1.4214  2.0520  2.2412
  434TMC3    H2 6476   1.798   1.814  10.683 -1.5111 -0.9834  1.3351
  434TMC3    C7 6477   1.722   2.014  10.513 -0.7321 -0.6317  0.2915
  434TMC3    C8 6478   1.840   1.823  10.948 -0.1406 -0.7618 -0.5695
  434TMC3    O1 6479   1.660   2.112  10.472  0.6593  0.5482  0.1148
  434TMC3    O2 6480   1.856   1.847  11.065  0.2999  0.2856  0.6087
  435MPD2     C 6481   3.408   2.423  15.301 -0.2144  0.2189 -0.8394
  435MPD2    C1 6482   3.358   2.376  15.423 -0.5569 -0.3790 -0.7353
  435MPD2    C2 6483   3.438   2.297  15.501 -0.6386  0.1226  0.6254
  435MPD2    C3 6484   3.568   2.272  15.465 -0.3666  0.3267 -0.1357
  435MPD2    C4 6485   3.607   2.311  15.339 -0.9850 -0.1123 -0.2470
  435MPD2    C5 6486   3.531   2.388  15.261 -0.0036 -0.3139  0.6484
  435MPD2     H 6487   3.407   2.272  15.601 -0.7070 -0.8204  0.3655
  435MPD2    H1 6488   3.707   2.297  15.298 -1.6316  0.5627 -2.0699
  435MPD2    H2 6489   3.351   2.484  15.232 -0.0478  1.1633 -0.1549
  435MPD2    H3 6490   3.565   2.435  15.169 -1.3401 -0.7729 -0.0802
  435MPD2     N 6491   3.654   2.192  15.553  0.6515  0.5557 -0.2562
  435MPD2    H5 6492   3.616   2.171  15.645  2.0644  0.9429  0.4153
  435MPD2    N1 6493   3.231   2.394  15.480 -0.4553 -0.6295  0.5114
  435MPD2    H7 6494   3.220   2.358  15.574  1.8704  0.0677  1.0538
  436TMC3    C1 6495   2.827   2.599  15.593  0.6943  0.0271 -0.5156
  436TMC3    C2 6496   2.944   2.597  15.514 -0.1440 -0.2728 -0.9230
  436TMC3    C3 6497   3.013   2.477  15.496  0.0445 -0.2305  0.0962
  436TMC3    C4 6498   2.794   2.485  15.661 -0.0636  1.0610  0.5979
  436TMC3    C5 6499   2.865   2.376  15.645 -0.0804 -0.3478  0.3497
  436TMC3    C6 6500   2.981   2.368  15.569  0.6921  0.0360 -0.6898
  436TMC3     C 6501   2.802   2.734  15.655 -0.8526  0.2148 -0.2771
  436TMC3     O 6502   2.875   2.816  15.610 -0.3997  0.1789 -0.0200
  436TMC3     H 6503   2.974   2.683  15.455  0.1946  1.0991  1.2376
  436TMC3    H1 6504   2.702   2.491  15.717 -2.0080  1.1830 -2.6324
  436TMC3    H2 6505   3.027   2.273  15.545  0.6791  0.1449 -1.1527
  436TMC3    C7 6506   2.836   2.260  15.729  0.0930  0.3628 -0.6840
  436TMC3    C8 6507   3.137   2.482  15.426 -0.0675 -0.1040  0.7473
  436TMC3    O1 6508   2.874   2.152  15.684 -0.1408  0.3210  0.5447
  436TMC3    O2 6509   3.146   2.545  15.321  0.4811  0.3434 -0.2102
  437TMC3    C1 6510   2.172   4.646  12.525  0.1451 -0.0457  0.5887
  437TMC3    C2 6511   2.119   0.041  12.553  0.2298  0.4335  0.4108
  437TMC3    C3 6512   2.105   0.125  12.444  0.2241 -0.4215  0.5749
  437TMC3    C4 6513   2.248   4.619  12.419  0.4602 -0.2296  0.1309
  437TMC3    C5 6514   2.247   4.711  12.314 -0.0600  0.1863  0.5418
  437TMC3    C6 6515   2.165   0.096  12.324 -0.1172 -0.4456  0.1714
  437TMC3     C 6516   2.176   4.553  12.639 -0.2647 -0.9750 -0.5048
  437TMC3     O 6517   2.279   4.497  12.676  0.0349 -0.3118 -0.0654
  437TMC3     H 6518   2.065   0.068  12.643  0.5014 -1.3600  1.1185
  437TMC3    H1 6519   2.290   4.520  12.408 -1.6938 -0.8661 -2.3021
  437TMC3    H2 6520   2.156   0.161  12.238 -2.9091  0.3601  1.0828
  437TMC3    C7 6521   2.350   4.712  12.220  0.4732 -0.6246 -0.7148
  437TMC3    C8 6522   2.046   0.251  12.478 -0.0814 -0.3057 -0.7196
  437TMC3    O1 6523   2.321   0.041  12.118  0.2140 -0.1259  0.2183
  437TMC3    O2 6524   2.046   0.294  12.590 -0.2332  0.3810  0.0370
  438MPD2     C 6525   3.948   0.183  16.595 -0.7440 -0.3972  0.1681
  438MPD2    C1 6526   4.069   0.148  16.652  0.0907 -0.1255 -0.0128
  438MPD2    C2 6527   4.081   0.118  16.787 -0.5777 -0.7609 -0.0476
  438MPD2    C3 6528   3.965   0.105  16.856 -0.0470  0.2057 -0.1114
  438MPD2    C4 6529   3.840   0.140  16.801 -0.0099  0.0230 -0.4725
  438MPD2    C5 6530   3.834   0.178  16.671 -0.4572 -0.0959 -0.9823
  438MPD2     H 6531   4.177   0.100  16.835 -0.1934 -2.8622 -1.5753
  438MPD2    H1 6532   3.752   0.141  16.864 -0.0480  1.7148 -0.5539
  438MPD2    H2 6533   3.931   0.192  16.489  0.1625 -1.8392 -0.1031
  438MPD2    H3 6534   3.734   0.191  16.631 -0.7391  0.3541 -0.1390
  438MPD2     N 6535   3.980   0.051  16.990  0.0488 -0.2597 -0.2010
  438MPD2    H5 6536   4.066   0.003  17.014 -0.2961 -1.0949 -0.6587
  438MPD2    N1 6537   4.190   0.145  16.586  0.3128 -0.2932 -0.2813
  438MPD2    H7 6538   4.264   0.094  16.633 -0.0495  1.1230  1.8543
  439TMC3    C1 6539   4.354   0.158  16.428  0.5569  1.2137  1.4680
  439TMC3    C2 6540   4.387   0.096  16.310 -0.1335  0.3639  0.2636
  439TMC3    C3 6541   4.519   0.044  16.298  0.2539  0.7525  0.9886
  439TMC3    C4 6542   4.449   0.181  16.529 -0.3252 -1.7111  0.2283
  439TMC3    C5 6543   4.574   0.122  16.511  0.1241  0.0739  0.2382
  439TMC3    C6 6544   4.616   0.059  16.396 -0.0274  0.3336  0.0412
  439TMC3     C 6545   4.212   0.176  16.452 -1.7086 -0.2558 -0.3197
  439TMC3     O 6546   4.135   0.194  16.356  0.3211  0.2799  0.1398
  439TMC3     H 6547   4.308   0.054  16.250  0.4555  0.2655 -0.4313
  439TMC3    H1 6548   4.428   0.238  16.619  4.0724  0.3919 -0.0930
  439TMC3    H2 6549   4.714   0.017  16.377  1.3285  3.6128 -0.2085
  439TMC3    C7 6550   4.657   0.112  16.625  0.4163  0.0644  0.1115
  439TMC3    C8 6551   4.565   0.005  16.163  0.2368 -0.4804 -0.5489
  439TMC3    O1 6552   0.052   0.111  16.608 -0.5300 -0.0883  0.4416
  439TMC3    O2 6553   4.652   4.647  16.151 -0.2703  0.2495 -0.1388
  440MPD2     C 6554   3.268   0.194  14.483  0.6653  0.5330  0.1251
  440MPD2    C1 6555   3.297   0.331  14.512  0.2034  0.2192  0.5597
  440MPD2    C2 6556   3.401   0.365  14.597 -0.2081  0.0052 -0.6647
  440MPD2    C3 6557   3.477   0.273  14.662  0.0635  0.0044  0.7855
  440MPD2    C4 6558   3.455   0.144  14.636 -0.3984 -0.0839 -0.2147
  440MPD2    C5 6559   3.348   0.108  14.554  0.2481 -0.0917 -0.0263
  440MPD2     H 6560   3.427   0.469  14.616  1.6632 -0.8178  1.2712
  440MPD2    H1 6561   3.512   0.063  14.681 -0.4145  0.3248  0.5445
  440MPD2    H2 6562   3.191   0.159  14.416 -0.5741  1.4621  1.0696
  440MPD2    H3 6563   3.327   0.002  14.547 -0.2113  0.0429 -0.6744
  440MPD2     N 6564   3.578   0.304  14.761  0.0963 -0.4460  0.5067
  440MPD2    H5 6565   3.632   0.230  14.805  2.3652  0.3826 -0.8808
  440MPD2    N1 6566   3.211   0.428  14.468 -0.2145 -0.2377 -0.3591
  440MPD2    H7 6567   3.232   0.522  14.499 -2.8971  0.0498  0.5755
  441TMC3    C1 6568   3.708   0.421  14.910 -0.3620 -0.0176 -0.0489
  441TMC3    C2 6569   3.796   0.523  14.936  0.2835 -0.2915 -0.8737
  441TMC3    C3 6570   3.855   0.534  15.062 -0.1882 -0.2118  0.0247
  441TMC3    C4 6571   3.670   0.324  15.004 -0.1529 -0.3845 -0.3293
  441TMC3    C5 6572   3.728   0.337  15.124  0.5424  0.3058  0.0017
  441TMC3    C6 6573   3.825   0.437  15.155 -0.0060 -0.4079 -1.1146
  441TMC3     C 6574   3.627   0.428  14.793  0.3159 -0.0842 -0.0866
  441TMC3     O 6575   3.609   0.540  14.743  0.0553 -0.1777  0.0349
  441TMC3     H 6576   3.814   0.599  14.860  1.8778 -0.7991 -1.0138
  441TMC3    H1 6577   3.583   0.260  14.993  0.2527 -1.0100  0.0671
  441TMC3    H2 6578   3.851   0.446  15.260  1.9116  1.4848 -1.7467
  441TMC3    C7 6579   3.675   0.244  15.222 -0.1288  0.0877 -0.1403
  441TMC3    C8 6580   3.879   0.660  15.127 -0.0447 -0.8514  0.1994
  441TMC3    O1 6581   3.572   0.187  15.192  0.0834  0.0370  0.4728
  441TMC3    O2 6582   3.967   0.669  15.211  0.6894 -0.8638 -0.4676
  442MPD2     C 6583   1.518   1.064  16.458 -0.5043  0.3420  0.0411
  442MPD2    C1 6584   1.443   0.970  16.522  0.1815 -0.3801  0.1960
  442MPD2    C2 6585   1.420   0.842  16.463 -0.5425 -0.0473 -0.6211
  442MPD2    C3 6586   1.487   0.801  16.349  0.4137 -0.2603 -0.1983
  442MPD2    C4 6587   1.559   0.901  16.286 -0.1492 -0.2292 -0.7177
  442MPD2    C5 6588   1.571   1.031  16.334  0.2137 -0.5286  0.6454
  442MPD2     H 6589   1.346   0.781  16.515  0.9067 -0.4861  0.9195
  442MPD2    H1 6590   1.619   0.893  16.196  2.6831 -0.3420  1.2073
  442MPD2    H2 6591   1.522   1.166  16.493 -1.4127 -0.0536  1.3116
  442MPD2    H3 6592   1.620   1.106  16.273 -1.4881  0.3561  0.3622
  442MPD2     N 6593   1.472   0.680  16.274  0.1010 -0.3801  0.3829
  442MPD2    H5 6594   1.536   0.670  16.196  1.3223  2.0536  1.0839
  442MPD2    N1 6595   1.388   0.998  16.644  0.3799  0.4382  0.0515
  442MPD2    H7 6596   1.329   0.924  16.682  0.9102 -0.9800 -1.8847
  443TMC3    C1 6597   1.314   1.103  16.832  0.5668  0.2687 -0.0773
  443TMC3    C2 6598   1.291   1.224  16.889  0.1492  0.5262  0.5333
  443TMC3    C3 6599   1.165   1.249  16.931 -0.0813 -0.1177  0.3956
  443TMC3    C4 6600   1.229   0.998  16.855 -0.6442  0.0697  0.5070
  443TMC3    C5 6601   1.113   1.026  16.921 -0.0260 -0.3128  0.0145
  443TMC3    C6 6602   1.082   1.151  16.974 -0.1878  0.4072 -0.2775
  443TMC3     C 6603   1.419   1.096  16.732  0.4505  0.2344  0.2444
  443TMC3     O 6604   1.503   1.188  16.729 -0.8994 -0.0547  0.6121
  443TMC3     H 6605   1.342   1.317  16.865  0.7641  0.0886  0.1140
  443TMC3    H1 6606   1.253   0.897  16.822 -1.3914 -0.4312  1.5192
  443TMC3    H2 6607   0.983   1.177  17.009  0.3854 -0.2479  1.8156
  443TMC3    C7 6608   1.044   0.915  16.977 -0.2549 -0.3895  0.0976
  443TMC3    C8 6609   1.132   1.384  16.941  0.3563 -0.1827 -0.4270
  443TMC3    O1 6610   1.065   0.804  16.931 -0.3478  0.0923  0.0685
  443TMC3    O2 6611   1.090   1.419  17.051  0.9722 -0.0042  0.0268
  444MPD2     C 6612   1.659   0.629  16.637  0.2505 -0.0132  0.8661
  444MPD2    C1 6613   1.585   0.518  16.664  0.7722 -0.0100  0.0381
  444MPD2    C2 6614   1.631   0.400  16.613 -0.3980 -0.1938 -0.1980
  444MPD2    C3 6615   1.754   0.388  16.551  1.1744  0.4107 -0.3860
  444MPD2    C4 6616   1.831   0.501  16.525  0.7546  0.5710  0.1742
  444MPD2    C5 6617   1.778   0.622  16.565  0.2135 -0.0891  0.0300
  444MPD2     H 6618   1.577   0.311  16.644 -1.8214  0.4094 -0.9497
  444MPD2    H1 6619   1.925   0.497  16.471  0.0354  0.3104 -1.0594
  444MPD2    H2 6620   1.627   0.731  16.654 -1.7799 -0.3602 -0.7001
  444MPD2    H3 6621   1.840   0.704  16.531 -1.0157  0.5709 -0.6579
  444MPD2     N 6622   1.814   0.258  16.532 -0.0586 -0.0652  0.1340
  444MPD2    H5 6623   1.757   0.174  16.543 -0.6920  0.3122 -0.2214
  444MPD2    N1 6624   1.473   0.515  16.757  0.1800  0.1485  0.0514
  444MPD2    H7 6625   1.425   0.429  16.782  3.0855 -1.3363  0.5108
  445TMC3    C1 6626   1.986   0.096  16.513 -0.5216 -0.4501  0.1078
  445TMC3    C2 6627   1.900   0.024  16.436  0.4369  0.1800  0.4390
  445TMC3    C3 6628   1.942   4.622  16.405  0.2175  0.6960  0.8356
  445TMC3    C4 6629   2.102   0.051  16.564  0.2607  0.6406  0.3058
  445TMC3    C5 6630   2.132   4.645  16.540  0.6330 -0.6801  0.2559
  445TMC3    C6 6631   2.061   4.570  16.449  0.0836  0.0526 -0.0760
  445TMC3     C 6632   1.954   0.239  16.538 -0.0469 -0.1901 -0.5492
  445TMC3     O 6633   2.042   0.318  16.568  0.1857  0.0051 -0.0721
  445TMC3     H 6634   1.819   0.076  16.387  1.7370  1.3216 -0.5005
  445TMC3    H1 6635   2.154   0.115  16.634 -0.0575  2.3578 -1.0484
  445TMC3    H2 6636   2.092   4.466  16.440 -1.4152 -0.6032  2.6028
  445TMC3    C7 6637   2.264   4.603  16.595 -0.7022  0.6014  0.4905
  445TMC3    C8 6638   1.855   4.552  16.324  0.4018 -0.3517  0.1398
  445TMC3    O1 6639   2.308   4.650  16.699  0.1999 -0.7096  0.4338
  445TMC3    O2 6640   1.767   4.610  16.256 -0.4789 -0.1364 -0.6655
  446MPD2     C 6641   1.493   1.781  11.438  0.0728 -0.1337  0.2547
  446MPD2    C1 6642   1.518   1.791  11.296  0.0789  0.7018  0.8637
  446MPD2    C2 6643   1.627   1.864  11.257  0.1880  0.0933  0.3674
  446MPD2    C3 6644   1.713   1.928  11.346  0.5103 -0.9929  0.0093
  446MPD2    C4 6645   1.682   1.936  11.477 -0.0862  0.6705  0.8898
  446MPD2    C5 6646   1.575   1.858  11.524 -0.0226 -0.1742 -0.4433
  446MPD2     H 6647   1.648   1.863  11.150  3.0220 -0.5867  0.9387
  446MPD2    H1 6648   1.752   1.982  11.546  0.0554  0.0249  1.1771
  446MPD2    H2 6649   1.411   1.726  11.484  1.6902 -2.2301  0.6187
  446MPD2    H3 6650   1.555   1.861  11.631  0.1883 -0.8762 -0.3834
  446MPD2     N 6651   1.821   2.003  11.297  0.6567 -0.3305 -0.5354
  446MPD2    H5 6652   1.830   1.988  11.197 -4.3558  0.9745 -1.1342
  446MPD2    N1 6653   1.437   1.725  11.197 -0.3005  0.1602  0.3388
  446MPD2    H7 6654   1.465   1.750  11.102 -0.8556 -1.8063 -0.3311
  447TMC3    C1 6655   2.032   2.077  11.275  0.1760  0.2029 -0.4939
  447TMC3    C2 6656   2.033   2.081  11.137  0.5522  0.0286  0.5327
  447TMC3    C3 6657   2.149   2.049  11.075 -0.6126  0.2276  0.0490
  447TMC3    C4 6658   2.138   2.020  11.343  0.3535 -0.5831  0.4347
  447TMC3    C5 6659   2.249   1.978  11.272  0.0744 -0.3914  0.6654
  447TMC3    C6 6660   2.263   2.002  11.140  0.1372  0.2486 -0.8336
  447TMC3     C 6661   1.917   2.073  11.363 -0.3772  0.3395  0.1009
  447TMC3     O 6662   1.929   2.088  11.482  0.7655 -0.2214 -0.1705
  447TMC3     H 6663   1.952   2.134  11.089  1.9034  2.1359  0.6154
  447TMC3    H1 6664   2.137   2.012  11.451  0.5355  0.4379  0.5130
  447TMC3    H2 6665   2.354   1.981  11.085  0.6543  0.8865 -0.2326
  447TMC3    C7 6666   2.351   1.897  11.329 -0.1840 -0.3257 -0.0451
  447TMC3    C8 6667   2.139   2.038  10.929 -0.7151 -0.1485 -0.0845
  447TMC3    O1 6668   2.444   1.869  11.257  0.0758  0.4336  0.4918
  447TMC3    O2 6669   2.087   2.127  10.860  0.5289 -0.1368  0.5920
  448TMC3    C1 6670   0.000   1.877  16.597  0.6540  0.3098 -0.0920
  448TMC3    C2 6671   4.633   1.777  16.587 -0.2639  0.1885 -0.3844
  448TMC3    C3 6672   4.626   1.701  16.706 -0.7283  0.0281 -0.3589
  448TMC3    C4 6673   0.082   1.908  16.701  0.0170 -0.6390  0.6565
  448TMC3    C5 6674   0.063   1.836  16.821  0.1837  0.2251  0.2387
  448TMC3    C6 6675   4.700   1.732  16.812 -0.3421  0.4275  0.0179
  448TMC3     C 6676   0.007   1.959  16.480  0.7140  0.3829  0.1088
  448TMC3     O 6677   4.673   1.925  16.378  0.8705  0.5863  0.5528
  448TMC3     H 6678   4.591   1.749  16.491 -0.2536  2.0162 -0.9260
  448TMC3    H1 6679   0.169   1.973  16.693  0.1435 -0.9566 -0.4736
  448TMC3    H2 6680   4.675   1.685  16.907 -2.6367 -0.1899 -0.8768
  448TMC3    C7 6681   0.187   1.800  16.884 -0.1421  0.7908 -0.6237
  448TMC3    C8 6682   4.572   1.570  16.712 -0.0473 -0.2371  0.6336
  448TMC3    O1 6683   0.290   1.868  16.872 -0.2408 -0.2347  0.1157
  448TMC3    O2 6684   4.609   1.498  16.808  0.6224  0.3606 -0.5033
  449MPD2     C 6685   1.369   4.689  13.872  0.1588 -0.1774 -0.1195
  449MPD2    C1 6686   1.273   0.066  13.869 -0.2603 -1.4151  0.0102
  449MPD2    C2 6687   1.162   0.049  13.944  0.1584  0.0550  0.5104
  449MPD2    C3 6688   1.146   4.672  14.037  0.5848 -0.7556  0.3726
  449MPD2    C4 6689   1.247   4.581  14.051  0.0118  0.5379 -0.5276
  449MPD2    C5 6690   1.363   4.597  13.975  0.8952  0.4102  0.8550
  449MPD2     H 6691   1.088   0.128  13.947  1.7971  1.6367 -0.2455
  449MPD2    H1 6692   1.236   4.493  14.114 -0.2405  1.0026  0.0866
  449MPD2    H2 6693   1.461   4.703  13.815  0.4445 -2.1149 -0.1287
  449MPD2    H3 6694   1.446   4.530  13.996  0.0733 -0.9084 -0.0849
  449MPD2     N 6695   1.020   4.663  14.100  0.3335 -0.7546 -0.1209
  449MPD2    H5 6696   0.955   0.013  14.086  0.4730 -0.6324 -0.1093
  449MPD2    N1 6697   1.279   0.182  13.793  0.0022  0.4641 -0.2210
  449MPD2    H7 6698   1.195   0.239  13.797 -0.3324 -0.1158  0.8649
  450TMC3    C1 6699   1.309   0.327  13.615 -0.7243  0.1302 -0.6831
  450TMC3    C2 6700   1.318   0.297  13.485 -0.1483 -0.2675 -0.8682
  450TMC3    C3 6701   1.195   0.287  13.417  0.3806  0.2559 -0.3576
  450TMC3    C4 6702   1.202   0.390  13.666 -0.9938  0.1721  1.0504
  450TMC3    C5 6703   1.082   0.393  13.606 -0.7300 -0.7179 -0.2027
  450TMC3    C6 6704   1.079   0.333  13.477  0.4053  0.4416  0.3211
  450TMC3     C 6705   1.370   0.223  13.700  0.3495 -0.7976 -0.4890
  450TMC3     O 6706   1.461   0.160  13.654  0.0618 -0.3431  0.4062
  450TMC3     H 6707   1.400   0.241  13.443  0.4097 -0.0364 -0.0780
  450TMC3    H1 6708   1.207   0.424  13.769  1.6528  1.7457  0.4147
  450TMC3    H2 6709   0.992   0.317  13.414  0.7844 -0.3522  0.0045
  450TMC3    C7 6710   0.967   0.354  13.688  0.3081 -0.8694  1.1245
  450TMC3    C8 6711   1.182   0.181  13.316 -0.1919 -0.4010 -1.0361
  450TMC3    O1 6712   0.978   0.347  13.814 -0.1824 -0.2735 -0.0047
  450TMC3    O2 6713   1.076   0.124  13.311 -0.2648  0.1942 -0.2702
  451MPD2     C 6714   2.271   3.139   1.909 -0.0375 -0.9525 -0.2768
  451MPD2    C1 6715   2.291   3.190   1.780 -0.1381  0.2170 -0.1858
  451MPD2    C2 6716   2.420   3.215   1.734  0.6679 -0.6857 -0.2920
  451MPD2    C3 6717   2.529   3.207   1.820  0.2599  0.0531 -0.0433
  451MPD2    C4 6718   2.504   3.161   1.950 -0.3919  0.1804 -0.2497
  451MPD2    C5 6719   2.377   3.128   1.991 -0.0989  0.5429 -0.6440
  451MPD2     H 6720   2.428   3.269   1.640  1.8228 -0.6291 -0.1652
  451MPD2    H1 6721   2.587   3.152   2.019  0.6304  0.4891 -1.4304
  451MPD2    H2 6722   2.170   3.120   1.944  0.0377  0.6985  0.8689
  451MPD2    H3 6723   2.366   3.084   2.090  0.3738 -0.3546 -0.9914
  451MPD2     N 6724   2.662   3.230   1.784 -0.1619  0.0195 -0.2652
  451MPD2    H5 6725   2.731   3.225   1.858 -2.6884 -0.3445  2.0219
  451MPD2    N1 6726   2.175   3.213   1.695  0.4477 -0.4566  0.8833
  451MPD2    H7 6727   2.085   3.188   1.735  0.0730 -1.3931 -0.5604
  452TMC3    C1 6728   2.855   3.276   1.655 -0.0330 -0.3689 -0.2031
  452TMC3    C2 6729   2.907   3.341   1.762  0.0275 -0.0148 -0.3442
  452TMC3    C3 6730   3.038   3.316   1.802  0.1636  0.3946  0.1937
  452TMC3    C4 6731   2.931   3.179   1.591 -0.5697 -0.1176  0.0797
  452TMC3    C5 6732   3.061   3.160   1.635  0.1234 -0.4203  0.7333
  452TMC3    C6 6733   3.120   3.228   1.737 -1.2954  0.1627 -0.8940
  452TMC3     C 6734   2.709   3.249   1.653 -0.4144  0.4548 -0.5204
  452TMC3     O 6735   2.653   3.238   1.546 -0.4869  0.3035 -0.3226
  452TMC3     H 6736   2.844   3.415   1.809 -0.5653 -0.2418 -0.7729
  452TMC3    H1 6737   2.886   3.127   1.506  2.1958 -3.1915  0.4898
  452TMC3    H2 6738   3.216   3.200   1.779 -0.1490  2.4527 -1.9999
  452TMC3    C7 6739   3.133   3.074   1.549  0.2353 -0.6037 -0.4767
  452TMC3    C8 6740   3.048   3.337   1.944  0.3514 -0.1785  0.2036
  452TMC3    O1 6741   3.085   3.061   1.437  0.6548  0.6638 -0.0634
  452TMC3    O2 6742   2.944   3.338   2.010 -0.2058 -0.2063 -0.3063
  453TMC3    C1 6743   3.990   0.659  11.583  0.9014  0.2220  1.0860
  453TMC3    C2 6744   3.927   0.553  11.644  0.1430 -0.1706 -0.0245
  453TMC3    C3 6745   3.867   0.458  11.570 -0.0394  0.7269  0.7140
  453TMC3    C4 6746   4.013   0.654  11.452 -0.6874 -0.1182 -0.0594
  453TMC3    C5 6747   3.942   0.563  11.378 -0.4739  0.1158 -0.3698
  453TMC3    C6 6748   3.857   0.469  11.432 -0.3381 -0.0655  0.0644
  453TMC3     C 6749   4.061   0.756  11.665 -0.2394 -0.1697  0.2923
  453TMC3     O 6750   4.154   0.807  11.606 -0.0108 -0.3618 -0.4907
  453TMC3     H 6751   3.944   0.531  11.749 -2.4627  0.7351  0.5924
  453TMC3    H1 6752   4.073   0.730  11.404  0.1389 -0.5955  0.2066
  453TMC3    H2 6753   3.817   0.384  11.377  1.8083  0.8001 -2.8686
  453TMC3    C7 6754   3.998   0.525  11.254 -0.0320 -0.5681  0.0125
  453TMC3    C8 6755   3.853   0.323  11.618 -0.0787 -0.6304  0.6988
  453TMC3    O1 6756   3.926   0.458  11.182  0.3856 -0.0512  0.0456
  453TMC3    O2 6757   3.774   0.247  11.564  0.0359 -0.3209 -0.2004
  454MPD2     C 6758   2.593   0.128  16.200 -0.4617  0.5462  0.1654
  454MPD2    C1 6759   2.549   0.185  16.086  0.4304 -0.3633  0.0256
  454MPD2    C2 6760   2.529   0.327  16.091 -0.0496 -0.3357  0.5823
  454MPD2    C3 6761   2.543   0.410  16.205  0.1229 -0.0095 -0.0007
  454MPD2    C4 6762   2.603   0.352  16.316 -0.7948 -0.4160  0.4132
  454MPD2    C5 6763   2.626   0.214  16.307 -0.0527 -0.4041 -0.2204
  454MPD2     H 6764   2.474   0.364  16.005 -0.0625 -0.3072  0.6028
  454MPD2    H1 6765   2.628   0.414  16.402 -1.8819  0.3993  0.1447
  454MPD2    H2 6766   2.618   0.023  16.201 -0.3806  0.5705  0.5792
  454MPD2    H3 6767   2.668   0.171  16.398 -2.4562  2.1165  2.0698
  454MPD2     N 6768   2.510   0.550  16.191 -0.2157  0.3617 -0.0585
  454MPD2    H5 6769   2.488   0.597  16.278 -2.1525 -3.4038  1.4869
  454MPD2    N1 6770   2.520   0.121  15.964  0.1759  0.6371 -0.0180
  454MPD2    H7 6771   2.499   0.185  15.888  2.0477 -2.1591 -2.9497
  455TMC3    C1 6772   2.321   0.674  16.131  0.6486  0.3499  0.5034
  455TMC3    C2 6773   2.311   0.717  16.261  0.5140 -0.1749  0.8584
  455TMC3    C3 6774   2.188   0.727  16.313  0.6448  0.0827 -0.4361
  455TMC3    C4 6775   2.212   0.618  16.075 -0.0641  0.4725 -0.4487
  455TMC3    C5 6776   2.097   0.603  16.146  0.5373  0.3214 -0.2643
  455TMC3    C6 6777   2.074   0.674  16.261  0.9625  0.9626 -0.1910
  455TMC3     C 6778   2.443   0.614  16.086  0.3800 -0.7544 -0.2058
  455TMC3     O 6779   2.442   0.586  15.967 -0.7030  0.1842 -0.0541
  455TMC3     H 6780   2.399   0.761  16.307  0.8893 -0.6204  0.5737
  455TMC3    H1 6781   2.216   0.555  15.986  1.8343 -0.0871  0.0394
  455TMC3    H2 6782   1.983   0.661  16.319  0.1752  0.9850 -1.4257
  455TMC3    C7 6783   2.048   0.468  16.150  0.1418  0.5970 -0.3529
  455TMC3    C8 6784   2.175   0.783  16.442 -0.3935 -0.0077 -0.9722
  455TMC3    O1 6785   1.933   0.440  16.122  1.0299 -0.4353  0.1869
  455TMC3    O2 6786   2.269   0.770  16.517  0.1127  0.0173  0.2798
  456MPD2     C 6787   4.720   0.340  16.150 -0.0087  0.0579 -0.7145
  456MPD2    C1 6788   0.080   0.311  16.247  0.5513 -0.1258  0.2903
  456MPD2    C2 6789   0.058   0.358  16.373 -0.8035  1.0224 -0.3903
  456MPD2    C3 6790   4.682   0.445  16.391  0.0741 -0.1508  0.3513
  456MPD2    C4 6791   4.595   0.470  16.290 -0.0960  0.3969 -0.7188
  456MPD2    C5 6792   4.607   0.412  16.169  0.4471  0.0708  0.8291
  456MPD2     H 6793   0.124   0.346  16.458 -0.5673  0.7141 -0.6197
  456MPD2    H1 6794   4.517   0.545  16.299 -0.7211 -0.3422  0.0707
  456MPD2    H2 6795   0.017   0.309  16.049 -3.5579  0.0833 -1.5392
  456MPD2    H3 6796   4.537   0.436  16.089  0.5757 -1.4767  0.2415
  456MPD2     N 6797   4.671   0.510  16.514 -0.7223 -0.8149 -0.0104
  456MPD2    H5 6798   0.020   0.489  16.579 -0.5686 -3.0531 -0.9091
  456MPD2    N1 6799   0.201   0.240  16.212  0.2491 -0.4472 -0.1212
  456MPD2    H7 6800   0.205   0.206  16.117  1.3254 -3.2424  0.9122
  457TMC3    C1 6801   4.597   0.680  16.680 -0.3619 -1.0227  0.7030
  457TMC3    C2 6802   4.534   0.803  16.695 -0.4387 -0.2350  0.0682
  457TMC3    C3 6803   4.584   0.899  16.783 -0.2734  1.2875 -0.3010
  457TMC3    C4 6804   4.704   0.647  16.765  0.2800 -0.1807  0.9561
  457TMC3    C5 6805   0.029   0.751  16.843 -0.3125  0.7096  0.9378
  457TMC3    C6 6806   4.701   0.878  16.857 -0.4900 -0.2050 -0.0229
  457TMC3     C 6807   4.581   0.615  16.552  0.7538 -0.6616 -0.3715
  457TMC3     O 6808   4.497   0.669  16.481 -0.3195  0.2685  0.6288
  457TMC3     H 6809   4.445   0.814  16.635 -1.4469 -0.6012  1.5086
  457TMC3    H1 6810   0.024   0.550  16.752  2.2376  0.8160  0.5638
  457TMC3    H2 6811   0.008   0.956  16.924 -0.6574 -1.2914  1.3051
  457TMC3    C7 6812   0.139   0.724  16.932  0.6518 -0.1526 -0.2309
  457TMC3    C8 6813   4.544   1.037  16.767  0.3428  0.1147  0.1532
  457TMC3    O1 6814   0.171   0.607  16.955 -0.0688 -0.2688  0.6001
  457TMC3    O2 6815   4.598   1.118  16.842  0.3380 -0.0164 -0.2892
  458MPD2     C 6816   2.834   4.659  12.069 -0.0350  0.5227 -0.6781
  458MPD2    C1 6817   2.819   4.599  12.193  0.1666 -0.1594  0.5361
  458MPD2    C2 6818   2.695   4.600  12.254  0.1085  0.4918 -0.4210
  458MPD2    C3 6819   2.589   4.661  12.194 -0.5983  0.0249 -0.3162
  458MPD2    C4 6820   2.605   4.704  12.064  0.1884  0.3159  0.3223
  458MPD2    C5 6821   2.727   4.704  12.002  0.0285  0.2497  0.2544
  458MPD2     H 6822   2.686   4.555  12.352 -0.7794 -2.4313 -1.8348
  458MPD2    H1 6823   2.519   0.016  12.010  0.8204 -0.0719 -0.9534
  458MPD2    H2 6824   2.929   4.652  12.017  0.4368 -1.8906  0.5051
  458MPD2    H3 6825   2.740   0.018  11.902  0.4633 -1.8182 -0.5192
  458MPD2     N 6826   2.472   4.666  12.268 -0.1967 -0.4093 -0.1647
  458MPD2    H5 6827   2.475   4.639  12.366  1.4580 -2.3008 -0.7406
  458MPD2    N1 6828   2.937   4.555  12.254  0.5427  0.5872  0.7524
  458MPD2    H7 6829   3.020   4.573  12.197 -0.8209 -3.3923 -2.5039
  459TMC3    C1 6830   3.085   4.478  12.419  0.2568 -0.0035  0.7033
  459TMC3    C2 6831   3.195   4.536  12.359  0.0245 -0.2998  0.2239
  459TMC3    C3 6832   3.314   4.509  12.427  0.8323  0.3206 -0.1147
  459TMC3    C4 6833   3.089   4.390  12.526  0.2652 -0.3063 -0.5876
  459TMC3    C5 6834   3.210   4.368  12.582  0.4758  0.2522  0.0079
  459TMC3    C6 6835   3.325   4.425  12.537 -0.5118  0.0352  0.4934
  459TMC3     C 6836   2.951   4.501  12.380 -0.4433 -0.2873  0.1178
  459TMC3     O 6837   2.863   4.452  12.445 -0.0230  0.4190 -0.3276
  459TMC3     H 6838   3.187   4.597  12.270  0.3402 -1.8308 -0.8634
  459TMC3    H1 6839   2.999   4.355  12.574  1.8153 -1.6127  1.3492
  459TMC3    H2 6840   3.420   4.411  12.587  0.1507 -1.9268 -1.3052
  459TMC3    C7 6841   3.200   4.315  12.714  0.7626 -0.2991  0.6533
  459TMC3    C8 6842   3.441   4.569  12.376 -0.0130  0.2249  0.2457
  459TMC3    O1 6843   3.091   4.261  12.743 -0.5018  0.7352  0.7125
  459TMC3    O2 6844   3.545   4.540  12.438 -0.3238 -0.5769  0.5091
  460MPD2     C 6845   2.182   1.728  10.734 -1.0262  0.2769 -0.8596
  460MPD2    C1 6846   2.161   1.864  10.748  0.6327  0.1179  0.4160
  460MPD2    C2 6847   2.123   1.945  10.636 -0.3486 -0.6843 -0.6389
  460MPD2    C3 6848   2.106   1.881  10.512 -0.5008  0.3461 -0.0864
  460MPD2    C4 6849   2.118   1.737  10.501  0.4580  0.1334 -0.0156
  460MPD2    C5 6850   2.153   1.667  10.613 -0.4743 -0.3527  0.5996
  460MPD2     H 6851   2.120   2.053  10.638 -2.9537 -0.7872  1.1014
  460MPD2    H1 6852   2.108   1.685  10.407 -1.1244 -0.9726  0.7679
  460MPD2    H2 6853   2.198   1.676  10.828  0.4488 -0.3761 -1.4812
  460MPD2    H3 6854   2.169   1.560  10.615 -2.1701 -0.6277 -0.1605
  460MPD2     N 6855   2.072   1.966  10.400 -0.3304  0.1577 -0.3517
  460MPD2    H5 6856   2.073   2.067  10.412  0.0355  0.1714 -0.4856
  460MPD2    N1 6857   2.181   1.917  10.877  0.4179 -0.8453  0.1305
  460MPD2    H7 6858   2.218   1.858  10.951 -0.7546 -0.2305  1.2019
  461TMC3    C1 6859   2.049   2.023  10.159  0.1014 -0.0444 -0.0697
  461TMC3    C2 6860   2.109   2.005  10.037  0.6128 -0.2903 -0.3098
  461TMC3    C3 6861   2.079   2.102   9.945 -0.7610  0.3393 -0.4513
  461TMC3    C4 6862   1.966   2.114  10.192  0.6708 -0.3080  0.2453
  461TMC3    C5 6863   1.927   2.200  10.098  0.1331  0.7469 -0.1701
  461TMC3    C6 6864   1.989   2.201   9.978 -0.2037  0.1435 -0.5949
  461TMC3     C 6865   2.076   1.921  10.265  0.4501 -0.4295 -0.2607
  461TMC3     O 6866   2.073   1.804  10.226  0.6451 -0.5155 -0.2285
  461TMC3     H 6867   2.189   1.934  10.023  1.5836  0.4619  1.2935
  461TMC3    H1 6868   1.906   2.108  10.283  1.9172  2.0582  1.2218
  461TMC3    H2 6869   1.965   2.276   9.903 -0.4043  0.5884 -0.0861
  461TMC3    C7 6870   1.838   2.310  10.137 -0.2133  0.2188  0.0577
  461TMC3    C8 6871   2.171   2.112   9.836 -0.1802  0.0158  0.3951
  461TMC3    O1 6872   1.754   2.343  10.058  0.6046  0.0504  0.1498
  461TMC3    O2 6873   2.276   2.052   9.831  0.3671 -0.3375  0.2868
  462TMC3    C1 6874   2.333   2.805   0.340  0.2474 -0.1741 -0.0890
  462TMC3    C2 6875   2.395   2.696   0.296  0.1690 -0.0437  0.1794
  462TMC3    C3 6876   2.328   2.620   0.202 -0.1598  0.2335 -0.5009
  462TMC3    C4 6877   2.198   2.823   0.316  0.3373 -0.3406  0.0923
  462TMC3    C5 6878   2.137   2.735   0.225  0.0999 -0.9606 -0.1139
  462TMC3    C6 6879   2.199   2.628   0.173  0.9627  0.4365  1.0790
  462TMC3     C 6880   2.406   2.902   0.424  0.3262  0.0043  0.1727
  462TMC3     O 6881   2.498   2.856   0.490  0.4221 -0.1700  0.3836
  462TMC3     H 6882   2.501   2.679   0.305  0.0087 -1.0381  0.1674
  462TMC3    H1 6883   2.145   2.906   0.361 -0.7751  0.1255 -2.0448
  462TMC3    H2 6884   2.169   2.585   0.078  0.8078  1.7342  0.5421
  462TMC3    C7 6885   1.993   2.753   0.186 -0.3706  0.4957 -0.5756
  462TMC3    C8 6886   2.402   2.505   0.149  0.4300 -0.6058 -0.4908
  462TMC3    O1 6887   1.936   2.659   0.133  0.4272 -0.2871 -0.5352
  462TMC3    O2 6888   2.503   2.466   0.213  0.0487 -0.0665  0.1959
  463MPD2     C 6889   2.663   2.279   2.629 -0.0140 -0.0665  0.5194
  463MPD2    C1 6890   2.704   2.198   2.521 -1.0525  0.0902 -0.8392
  463MPD2    C2 6891   2.837   2.190   2.491 -0.0866 -0.0222 -0.1913
  463MPD2    C3 6892   2.932   2.259   2.560  0.3862 -0.2378  0.5202
  463MPD2    C4 6893   2.889   2.338   2.670  0.2281  0.1107  0.1050
  463MPD2    C5 6894   2.755   2.355   2.696  0.1873 -0.0522 -0.1857
  463MPD2     H 6895   2.856   2.119   2.412 -0.5204 -1.5997  1.1168
  463MPD2    H1 6896   2.969   2.389   2.723  0.9358 -2.6248  1.7087
  463MPD2    H2 6897   2.556   2.288   2.645 -0.0289 -0.6023  0.7239
  463MPD2    H3 6898   2.716   2.428   2.766 -1.8645  0.2051 -1.5688
  463MPD2     N 6899   3.074   2.260   2.538  0.2527  0.7259  0.3505
  463MPD2    H5 6900   3.127   2.313   2.606 -0.2758 -0.6991  1.8991
  463MPD2    N1 6901   2.611   2.126   2.443 -0.1354 -0.3456 -0.0238
  463MPD2    H7 6902   2.643   2.084   2.356 -0.7785  0.2464 -0.5381
  464TMC3    C1 6903   2.400   2.024   2.384  0.6247 -0.2860 -0.6422
  464TMC3    C2 6904   2.415   2.055   2.255 -0.3502  0.6897 -0.1610
  464TMC3    C3 6905   2.339   1.986   2.166  0.1384  0.2977 -0.8056
  464TMC3    C4 6906   2.316   1.929   2.437  0.0879  0.1017  0.1555
  464TMC3    C5 6907   2.238   1.859   2.344  0.3769 -0.3482  0.4206
  464TMC3    C6 6908   2.246   1.892   2.208 -0.1759  0.0259  0.1752
  464TMC3     C 6909   2.474   2.111   2.481  0.2349 -0.6707  0.2503
  464TMC3     O 6910   2.413   2.131   2.585  0.7210  0.7506  0.0407
  464TMC3     H 6911   2.477   2.139   2.227 -0.6368  0.4329 -1.5556
  464TMC3    H1 6912   2.310   1.911   2.544  0.0212 -0.0811  0.1215
  464TMC3    H2 6913   2.198   1.829   2.135  0.5986 -0.9529  0.5185
  464TMC3    C7 6914   2.176   1.735   2.385  0.1257  0.3378 -0.3264
  464TMC3    C8 6915   2.384   1.976   2.029  0.4341 -0.1011 -0.4680
  464TMC3    O1 6916   2.185   1.701   2.504 -0.0152 -0.3999 -0.0318
  464TMC3    O2 6917   2.323   1.883   1.964 -0.5112  0.3321 -0.0837
  465MPD2     C 6918   4.180   0.537  16.534 -0.3222 -0.5691 -0.1509
  465MPD2    C1 6919   4.052   0.515  16.581 -1.4158  0.4195 -0.2984
  465MPD2    C2 6920   3.955   0.498  16.481 -0.3717 -0.5025 -0.1759
  465MPD2    C3 6921   3.983   0.507  16.342  0.0510 -0.3144  0.3009
  465MPD2    C4 6922   4.110   0.540  16.307 -0.5982  0.1499 -0.0648
  465MPD2    C5 6923   4.207   0.557  16.404 -0.0244 -0.1346  0.1385
  465MPD2     H 6924   3.852   0.476  16.504  0.0195 -1.3323  0.7889
  465MPD2    H1 6925   4.136   0.549  16.202 -0.6852  2.0484  0.0909
  465MPD2    H2 6926   4.269   0.554  16.594 -0.1443 -0.3453 -0.4768
  465MPD2    H3 6927   4.310   0.566  16.373  0.0450 -0.8766  0.1601
  465MPD2     N 6928   3.876   0.489  16.250 -0.1569  0.8986 -0.3326
  465MPD2    H5 6929   3.787   0.469  16.296  0.3659  0.8873  0.6794
  465MPD2    N1 6930   4.022   0.487  16.717 -0.3529 -0.1599 -0.1535
  465MPD2    H7 6931   3.925   0.466  16.740 -0.0101  0.2338  1.5818
  466TMC3    C1 6932   3.547   0.433  16.159 -1.0984 -0.3936 -0.1638
  466TMC3    C2 6933   3.486   0.529  16.079 -0.3078  0.5071 -0.5132
  466TMC3    C3 6934   3.573   0.587  15.987  0.1777 -0.3441  0.2774
  466TMC3    C4 6935   3.678   0.400  16.149 -0.3036 -0.3384  0.3937
  466TMC3    C5 6936   3.760   0.464  16.060 -0.0095  0.6334 -0.0770
  466TMC3    C6 6937   3.705   0.552  15.974  0.0690  0.0222  0.3273
  466TMC3     C 6938   3.475   0.375  16.267 -0.4542  0.1262 -0.4775
  466TMC3     O 6939   3.530   0.291  16.336 -0.3404 -0.3040  0.6198
  466TMC3     H 6940   3.384   0.564  16.077 -0.1597  0.9029 -1.3805
  466TMC3    H1 6941   3.722   0.326  16.215 -0.9118 -0.5632  0.5476
  466TMC3    H2 6942   3.772   0.598  15.902 -0.1485  1.0210  0.7542
  466TMC3    C7 6943   3.888   0.511  16.112  0.7466  0.3423 -0.4359
  466TMC3    C8 6944   3.545   0.723  15.941  0.8775  0.3542 -0.4817
  466TMC3    O1 6945   3.959   0.591  16.046 -0.1845 -0.1908  0.0948
  466TMC3    O2 6946   3.610   0.756  15.841  0.9374  0.0874  0.2770
  467TMC3    C1 6947   4.402   4.171  13.757  0.7367  0.9532  0.0000
  467TMC3    C2 6948   4.337   4.138  13.645  0.2737 -0.0470  0.9043
  467TMC3    C3 6949   4.265   4.017  13.635 -0.5783  0.2888  0.2383
  467TMC3    C4 6950   4.382   4.080  13.867  0.3205 -0.4313  0.0162
  467TMC3    C5 6951   4.298   3.978  13.857  0.3112  0.4189  1.0454
  467TMC3    C6 6952   4.249   3.932  13.739 -0.2611 -0.4167  0.8571
  467TMC3     C 6953   4.533   4.198  13.732 -0.2536 -0.3163 -0.2545
  467TMC3     O 6954   4.590   4.139  13.641  0.0066 -0.7273  0.0684
  467TMC3     H 6955   4.358   4.193  13.554 -0.2945 -1.0291  0.1833
  467TMC3    H1 6956   4.446   4.094  13.953  1.8457  1.5203 -1.4608
  467TMC3    H2 6957   4.189   3.841  13.733 -0.5181  0.0648 -3.7364
  467TMC3    C7 6958   4.281   3.897  13.985  0.0999  0.2608  0.4312
  467TMC3    C8 6959   4.251   3.959  13.506 -0.2299  1.3402  0.1049
  467TMC3    O1 6960   4.349   3.941  14.079 -0.0923 -0.1007 -0.4160
  467TMC3    O2 6961   4.168   3.872  13.487  0.1596  0.3539 -0.5917
  468MPD2     C 6962   3.876   2.451  11.220  0.0645 -0.5521 -0.3950
  468MPD2    C1 6963   3.998   2.392  11.203  0.1775 -0.5049  0.0289
  468MPD2    C2 6964   4.004   2.258  11.175  0.2762  0.0191 -0.0313
  468MPD2    C3 6965   3.889   2.186  11.152  0.6553 -0.4104 -0.4886
  468MPD2    C4 6966   3.764   2.248  11.164  0.1795  0.0372 -0.1250
  468MPD2    C5 6967   3.763   2.382  11.199  0.0148  0.0077  0.0668
  468MPD2     H 6968   4.098   2.204  11.176  1.0374  1.3396 -0.2324
  468MPD2    H1 6969   3.674   2.190  11.148  0.5282 -0.4819 -0.2325
  468MPD2    H2 6970   3.864   2.553  11.255 -1.8970 -1.1228  0.5909
  468MPD2    H3 6971   3.671   2.436  11.216 -0.4185  0.1366 -2.7343
  468MPD2     N 6972   3.885   2.051  11.109 -0.4835 -0.0893  0.1324
  468MPD2    H5 6973   3.794   2.006  11.103 -0.0266 -1.1257  1.0935
  468MPD2    N1 6974   4.123   2.454  11.228 -0.4970  0.3017  0.9184
  468MPD2    H7 6975   4.203   2.392  11.237 -0.5938 -0.3454 -2.4028
  469TMC3    C1 6976   4.261   2.646  11.250  0.6743  0.3715 -0.2518
  469TMC3    C2 6977   4.339   2.570  11.333 -0.6754 -0.7764  0.1374
  469TMC3    C3 6978   4.467   2.616  11.350  1.0283 -0.1001  0.6582
  469TMC3    C4 6979   4.294   2.773  11.212 -0.1504  0.2220  0.3781
  469TMC3    C5 6980   4.418   2.815  11.241 -0.4469 -1.1690 -0.3035
  469TMC3    C6 6981   4.507   2.739  11.308 -0.0935 -0.2615 -0.5628
  469TMC3     C 6982   4.133   2.589  11.211  0.5750  0.1471  0.2107
  469TMC3     O 6983   4.055   2.670  11.163 -0.0131  0.3127 -0.0330
  469TMC3     H 6984   4.305   2.495  11.403 -2.6400 -0.4894 -0.4973
  469TMC3    H1 6985   4.231   2.832  11.146 -0.0344  0.4275  0.4530
  469TMC3    H2 6986   4.609   2.776  11.312 -0.6329  1.1899 -0.3414
  469TMC3    C7 6987   4.425   2.965  11.252 -0.2168 -0.3328 -0.5791
  469TMC3    C8 6988   4.560   2.550  11.447 -0.5758  0.4800  0.0374
  469TMC3    O1 6989   4.366   3.022  11.163  0.0613 -0.2464 -0.0673
  469TMC3    O2 6990   4.637   2.620  11.506  0.5094  0.1381  0.1837
  470TMC3    C1 6991   1.392   3.385   0.502 -0.6203 -0.2463  0.9393
  470TMC3    C2 6992   1.317   3.469   0.578 -0.3341  0.1828 -0.8629
  470TMC3    C3 6993   1.342   3.470   0.710 -0.1242  0.1462 -0.0039
  470TMC3    C4 6994   1.487   3.302   0.562 -0.0834  0.6374 -0.1076
  470TMC3    C5 6995   1.498   3.304   0.706 -0.1609  0.1602 -0.2151
  470TMC3    C6 6996   1.426   3.386   0.780 -0.7498  0.3709  0.5069
  470TMC3     C 6997   1.374   3.366   0.360 -0.5251 -0.0970  1.1420
  470TMC3     O 6998   1.410   3.255   0.319 -0.6622 -0.5424 -0.1245
  470TMC3     H 6999   1.249   3.535   0.526  2.1808  2.6353 -1.0666
  470TMC3    H1 7000   1.548   3.235   0.503  0.4739  0.8754  0.1998
  470TMC3    H2 7001   1.428   3.396   0.888 -0.9591  1.9077  0.3804
  470TMC3    C7 7002   1.621   3.260   0.759 -0.5673  0.0926 -0.1955
  470TMC3    C8 7003   1.283   3.580   0.783 -0.3457  0.4556  0.0959
  470TMC3    O1 7004   1.712   3.238   0.684 -0.7272  0.5841 -0.1282
  470TMC3    O2 7005   1.303   3.569   0.906  0.0577 -0.1121 -0.1732
  471MPD2     C 7006   1.442   4.359  16.585 -0.3259 -0.0140 -0.2240
  471MPD2    C1 7007   1.530   4.271  16.525 -0.0560  0.0140 -0.2282
  471MPD2    C2 7008   1.640   4.227  16.596  1.0394  0.1649 -0.2496
  471MPD2    C3 7009   1.660   4.261  16.730  0.1286 -1.0654 -0.3297
  471MPD2    C4 7010   1.568   4.336  16.791 -0.8192 -1.0980  0.1516
  471MPD2    C5 7011   1.476   4.400  16.711  0.5626 -0.5673 -0.0474
  471MPD2     H 7012   1.705   4.164  16.535  0.0556 -0.6172 -0.4961
  471MPD2    H1 7013   1.578   4.361  16.896  0.2984 -1.3561  0.1042
  471MPD2    H2 7014   1.361   4.399  16.525 -0.9636 -1.4170 -0.2911
  471MPD2    H3 7015   1.409   4.470  16.761  0.6888  1.9732 -3.4552
  471MPD2     N 7016   1.748   4.184  16.811 -0.0426 -0.2814 -0.2533
  471MPD2    H5 7017   1.721   4.168  16.908  1.7171 -2.0944 -0.0735
  471MPD2    N1 7018   1.498   4.206  16.405  1.3657  0.3986  0.1202
  471MPD2    H7 7019   1.559   4.129  16.380  2.4675  0.7789  1.6101
  472TMC3    C1 7020   1.382   4.146  16.206 -0.5165 -0.1820 -0.3385
  472TMC3    C2 7021   1.290   4.169  16.111 -0.9996  0.3501  0.1566
  472TMC3    C3 7022   1.251   4.064  16.035 -0.7197  0.3554 -0.0758
  472TMC3    C4 7023   1.433   4.022  16.223 -1.2591  0.2870 -0.5011
  472TMC3    C5 7024   1.377   3.922  16.151 -0.3670  0.2686 -0.2943
  472TMC3    C6 7025   1.288   3.936  16.053 -0.8963 -0.0293  0.4452
  472TMC3     C 7026   1.398   4.242  16.314 -0.0359  0.4434  0.0725
  472TMC3     O 7027   1.322   4.335  16.308 -0.6101 -0.5415  0.4144
  472TMC3     H 7028   1.250   4.268  16.092  1.7118  1.1771 -1.1713
  472TMC3    H1 7029   1.518   4.002  16.288 -1.0784  2.1506 -0.1762
  472TMC3    H2 7030   1.254   3.855  15.990  0.9483  0.2201 -0.8706
  472TMC3    C7 7031   1.381   3.780  16.209 -0.5663 -0.1430 -0.6025
  472TMC3    C8 7032   1.127   4.105  15.960 -0.0694 -0.1267  0.3816
  472TMC3    O1 7033   1.368   3.768  16.330  0.1737  0.0061  0.6898
  472TMC3    O2 7034   1.141   4.202  15.886  0.3881 -0.1885  0.2920
  473MPD2     C 7035   1.177   1.412  13.981  0.2367  0.7721  0.2497
  473MPD2    C1 7036   1.311   1.418  13.935 -0.3102  0.3502 -0.3798
  473MPD2    C2 7037   1.397   1.509  13.994 -0.2642  0.4698 -0.4795
  473MPD2    C3 7038   1.346   1.597  14.092  0.9754 -0.1306 -0.1594
  473MPD2    C4 7039   1.215   1.598  14.119  0.3497 -0.0082  0.4344
  473MPD2    C5 7040   1.130   1.504  14.071  0.1848 -0.1740 -0.0495
  473MPD2     H 7041   1.502   1.496  13.971  0.0019  1.0454  0.4006
  473MPD2    H1 7042   1.167   1.677  14.175  0.5245  0.9164 -0.6957
  473MPD2    H2 7043   1.103   1.337  13.956  0.6581  1.0099 -1.7227
  473MPD2    H3 7044   1.023   1.511  14.091  0.1587  2.6694 -1.2437
  473MPD2     N 7045   1.424   1.698  14.151  0.5076 -0.1855  0.0320
  473MPD2    H5 7046   1.373   1.764  14.209  2.0409  0.3647  0.7551
  473MPD2    N1 7047   1.356   1.334  13.830 -0.2010  0.6221  0.1723
  473MPD2    H7 7048   1.456   1.330  13.813  0.3756  1.1685  3.4251
  474TMC3    C1 7049   1.575   1.874  14.161 -0.8105  0.3658  0.2849
  474TMC3    C2 7050   1.469   1.959  14.157 -0.0587 -0.1896 -0.1817
  474TMC3    C3 7051   1.503   2.089  14.181  0.0666 -0.0063 -0.4784
  474TMC3    C4 7052   1.697   1.910  14.208 -0.3196 -0.3468  0.5163
  474TMC3    C5 7053   1.726   2.037  14.229  0.0724 -0.1336  0.8224
  474TMC3    C6 7054   1.630   2.131  14.230 -0.3958 -0.1803  0.0403
  474TMC3     C 7055   1.556   1.737  14.133  0.0744 -0.4628 -0.0983
  474TMC3     O 7056   1.650   1.665  14.101 -0.2915 -0.1891 -0.0459
  474TMC3     H 7057   1.377   1.935  14.105 -0.6804  1.4110  0.1857
  474TMC3    H1 7058   1.777   1.838  14.222  0.4992  0.4357 -0.1369
  474TMC3    H2 7059   1.650   2.235  14.254 -0.1890  0.1512 -1.5899
  474TMC3    C7 7060   1.848   2.061  14.302 -0.3135 -0.3148 -1.0762
  474TMC3    C8 7061   1.399   2.188  14.165  0.2205  0.9960 -0.3701
  474TMC3    O1 7062   1.943   1.984  14.280  0.1831 -0.3251 -0.4344
  474TMC3    O2 7063   1.279   2.163  14.197 -0.0265 -0.2496 -0.0676
  475MPD2     C 7064   0.662   4.280  10.274  0.8087 -0.4124 -0.1728
  475MPD2    C1 7065   0.613   4.391  10.209 -0.1886  0.0887 -0.4713
  475MPD2    C2 7066   0.479   4.420  10.235 -0.3501 -0.1290  0.3547
  475MPD2    C3 7067   0.408   4.352  10.327 -0.4686  0.3673 -0.4317
  475MPD2    C4 7068   0.464   4.253  10.404  0.0986 -0.0340  0.2265
  475MPD2    C5 7069   0.588   4.211  10.372  0.5514  0.3168 -0.7749
  475MPD2     H 7070   0.427   4.497  10.178 -0.0366  0.7782  1.2919
  475MPD2    H1 7071   0.420   4.201  10.489 -0.0538  1.4478  1.0576
  475MPD2    H2 7072   0.763   4.246  10.251  0.0491 -1.8521 -1.3868
  475MPD2    H3 7073   0.629   4.130  10.431 -3.0254  0.0425  1.3213
  475MPD2     N 7074   0.278   4.399  10.354 -0.1190  0.1356 -0.1098
  475MPD2    H5 7075   0.245   4.479  10.300  0.9757 -0.3100 -1.4327
  475MPD2    N1 7076   0.706   4.461  10.126  0.9046  0.3650 -0.1374
  475MPD2    H7 7077   0.794   4.411  10.137  0.8363  0.5177  1.1348
  476TMC3    C1 7078   0.805   4.628   9.991  0.0227 -0.1780 -1.1903
  476TMC3    C2 7079   0.780   0.007   9.905 -0.5111  0.1725  0.1055
  476TMC3    C3 7080   0.888   0.063   9.849 -0.0010  0.0327  0.1746
  476TMC3    C4 7081   0.931   4.577  10.025 -0.0448  0.3553  0.1075
  476TMC3    C5 7082   1.031   4.655   9.971  0.1045  0.6640 -0.0911
  476TMC3    C6 7083   1.015   0.028   9.877  0.4771 -0.4573 -0.4199
  476TMC3     C 7084   0.684   4.573  10.054  0.5731  0.9892 -0.0909
  476TMC3     O 7085   0.587   4.646  10.053  0.0171  0.2852 -0.1090
  476TMC3     H 7086   0.680   0.040   9.878  0.5751  2.7345 -0.8493
  476TMC3    H1 7087   0.950   4.493  10.091 -0.0320 -0.9567 -1.5715
  476TMC3    H2 7088   1.094   0.076   9.822  0.9467 -0.4272  0.2793
  476TMC3    C7 7089   1.161   4.658  10.037 -0.2728 -0.0197  0.0174
  476TMC3    C8 7090   0.855   0.117   9.716 -0.4320 -0.0467  0.3541
  476TMC3    O1 7091   1.200   4.543  10.066  0.4722 -0.4903 -0.2207
  476TMC3    O2 7092   0.943   0.187   9.664  0.5941  0.3240 -0.3727
  477MPD2     C 7093   2.318   1.470  12.036 -0.3788  0.3937  0.1500
  477MPD2    C1 7094   2.295   1.354  11.970  0.1843 -0.9249 -0.0878
  477MPD2    C2 7095   2.368   1.244  12.015 -1.1029 -0.2976  0.2818
  477MPD2    C3 7096   2.457   1.244  12.120 -0.1883  0.2133  0.2329
  477MPD2    C4 7097   2.478   1.365  12.188  0.3606 -0.0918  0.5116
  477MPD2    C5 7098   2.407   1.473  12.139  0.1410 -0.4481  0.3693
  477MPD2     H 7099   2.346   1.149  11.967  2.1173 -0.8250 -0.1613
  477MPD2    H1 7100   2.544   1.382  12.272 -0.3417  0.1175  1.0284
  477MPD2    H2 7101   2.267   1.557  11.996 -0.6644  0.2993  0.3083
  477MPD2    H3 7102   2.427   1.573  12.177  0.0024  0.3907 -1.7592
  477MPD2     N 7103   2.512   1.127  12.164  0.0668  0.1841  0.1903
  477MPD2    H5 7104   2.504   1.050  12.099 -0.8458 -0.4329  1.0269
  477MPD2    N1 7105   2.192   1.350  11.877  0.8105  0.7156  0.0595
  477MPD2    H7 7106   2.145   1.435  11.846 -0.9425  0.6524  2.4770
  478TMC3    C1 7107   2.037   1.272  11.706  0.5014 -0.5280  0.4529
  478TMC3    C2 7108   1.934   1.345  11.756  0.2528  0.6028  0.0747
  478TMC3    C3 7109   1.853   1.394  11.656 -0.2905 -0.4629 -0.3214
  478TMC3    C4 7110   2.068   1.244  11.573  0.0084  0.0077 -0.0735
  478TMC3    C5 7111   1.977   1.299  11.483  0.3676  0.1666 -0.1841
  478TMC3    C6 7112   1.870   1.366  11.522  0.3666 -0.6449 -0.0721
  478TMC3     C 7113   2.147   1.238  11.805  0.2157  0.5141  0.5648
  478TMC3     O 7114   2.200   1.131  11.780  0.2184  0.1912 -0.5708
  478TMC3     H 7115   1.921   1.362  11.863  1.6465 -1.4840  0.5799
  478TMC3    H1 7116   2.159   1.199  11.535  0.4806 -0.6666  1.8803
  478TMC3    H2 7117   1.799   1.403  11.448 -0.8212  0.1922  1.4776
  478TMC3    C7 7118   2.031   1.314  11.343  0.2073 -0.5889  0.2282
  478TMC3    C8 7119   1.756   1.496  11.691 -0.3171  0.7546  0.8184
  478TMC3    O1 7120   2.117   1.240  11.302  0.5283 -0.3492  0.3969
  478TMC3    O2 7121   1.725   1.572  11.602 -0.0920 -0.4026 -0.5535
  479MPD2     C 7122   1.284   3.600  15.203  0.7375 -0.7577  0.2990
  479MPD2    C1 7123   1.218   3.540  15.308 -0.0990  0.6215  0.5664
  479MPD2    C2 7124   1.249   3.589  15.435 -0.5275 -0.3893 -0.2395
  479MPD2    C3 7125   1.338   3.693  15.457 -0.3297  1.1287  0.1537
  479MPD2    C4 7126   1.400   3.752  15.353  0.2833 -0.3499  0.3501
  479MPD2    C5 7127   1.372   3.702  15.230 -0.8591 -0.5168 -0.4752
  479MPD2     H 7128   1.215   3.531  15.520 -1.7400 -0.6929 -0.9318
  479MPD2    H1 7129   1.471   3.834  15.364 -0.8137  0.3916  1.8757
  479MPD2    H2 7130   1.246   3.572  15.105 -1.8768 -0.2553  1.1844
  479MPD2    H3 7131   1.427   3.740  15.145  1.5587 -1.5807  0.6312
  479MPD2     N 7132   1.367   3.749  15.579 -0.2759 -0.2558  0.0439
  479MPD2    H5 7133   1.451   3.807  15.583  0.1927 -0.9964  1.2065
  479MPD2    N1 7134   1.121   3.437  15.297  0.0606 -0.4474 -0.3438
  479MPD2    H7 7135   1.080   3.421  15.206 -1.8645  2.0133  0.1048
  480TMC3    C1 7136   0.968   3.585  15.755 -0.3233  0.0872  0.1741
  480TMC3    C2 7137   0.894   3.677  15.690  0.5438 -0.2080 -0.1041
  480TMC3    C3 7138   0.957   3.781  15.617  0.1364  0.4074  0.8560
  480TMC3    C4 7139   1.105   3.597  15.757 -0.3574  0.0318  0.4691
  480TMC3    C5 7140   1.161   3.705  15.687  0.0331  0.3204  0.0234
  480TMC3    C6 7141   1.092   3.798  15.619 -0.5583 -0.2324 -0.2019
  480TMC3     C 7142   0.909   3.463  15.808  0.7241 -0.4128 -0.0771
  480TMC3     O 7143   0.971   3.399  15.893 -0.0325 -0.4580  0.5521
  480TMC3     H 7144   0.785   3.673  15.687  0.5604 -0.0576 -0.9907
  480TMC3    H1 7145   1.168   3.516  15.792 -0.7796 -0.1966  0.7022
  480TMC3    H2 7146   1.140   3.868  15.552  2.6138  0.6117  2.9524
  480TMC3    C7 7147   1.308   3.722  15.697 -0.6470  0.2766  0.1341
  480TMC3    C8 7148   0.867   3.829  15.513 -0.5501 -0.2138 -0.0754
  480TMC3    O1 7149   1.360   3.711  15.806 -0.2410  0.0225 -0.1814
  480TMC3    O2 7150   0.747   3.828  15.528 -0.0267 -0.1745  0.0900
  481MPD2     C 7151   3.317   2.982  14.493  0.1893  0.2323  0.2772
  481MPD2    C1 7152   3.186   2.993  14.482 -0.1511 -0.2422 -0.4440
  481MPD2    C2 7153   3.103   2.925  14.568 -0.4563  0.0629 -0.4309
  481MPD2    C3 7154   3.157   2.860  14.682 -0.8198 -0.1605  0.0044
  481MPD2    C4 7155   3.295   2.859  14.695 -0.9114  0.2917 -0.1719
  481MPD2    C5 7156   3.379   2.915  14.600 -0.1935 -0.2072  0.2450
  481MPD2     H 7157   2.996   2.927  14.555 -0.7095 -1.8521  1.3549
  481MPD2    H1 7158   3.337   2.809  14.781  2.0760 -0.6341 -2.1749
  481MPD2    H2 7159   3.376   3.026  14.413 -2.1873  0.3256 -1.4377
  481MPD2    H3 7160   3.487   2.914  14.610 -0.2116  1.6797  0.6685
  481MPD2     N 7161   3.079   2.786  14.774 -0.3694  0.3426  0.1920
  481MPD2    H5 7162   3.125   2.741  14.852  1.0424  0.7965 -0.3844
  481MPD2    N1 7163   3.146   3.053  14.361  0.3280 -0.2828 -0.3128
  481MPD2    H7 7164   3.219   3.091  14.301 -1.2189  0.5734 -1.6264
  482TMC3    C1 7165   3.011   3.109  14.178  0.5165  0.5600  0.7610
  482TMC3    C2 7166   2.890   3.106  14.117  0.1784  0.2409 -0.8631
  482TMC3    C3 7167   2.887   3.104  13.985  0.0827  0.3034 -0.3468
  482TMC3    C4 7168   3.126   3.126  14.109 -0.3240  0.8505  0.4644
  482TMC3    C5 7169   3.115   3.114  13.973  0.4335  0.6908 -0.0145
  482TMC3    C6 7170   3.000   3.105  13.909 -0.5397 -0.2693  0.1034
  482TMC3     C 7171   3.018   3.070  14.318  0.1099 -0.9202  0.0155
  482TMC3     O 7172   2.908   3.045  14.368  0.1581 -0.2112 -0.4783
  482TMC3     H 7173   2.797   3.100  14.173 -1.0950  1.9967 -2.7847
  482TMC3    H1 7174   3.223   3.148  14.154  1.1577  0.6174 -2.6656
  482TMC3    H2 7175   2.987   3.091  13.803  2.5353  1.6205 -0.5152
  482TMC3    C7 7176   3.247   3.104  13.898  0.6786  0.7670 -0.2651
  482TMC3    C8 7177   2.762   3.058  13.929 -0.3448  0.4471 -0.1730
  482TMC3    O1 7178   3.346   3.120  13.966 -0.8937  0.1294 -0.6452
  482TMC3    O2 7179   2.693   2.981  13.999 -0.7304 -0.0444 -0.1274
  483TMC3    C1 7180   0.515   1.789   0.354 -0.1206 -0.7847  0.1543
  483TMC3    C2 7181   0.590   1.904   0.341  0.0904 -0.6962  0.4512
  483TMC3    C3 7182   0.647   1.962   0.455  0.5653  0.6856 -0.0158
  483TMC3    C4 7183   0.504   1.727   0.479  0.2598  0.0174 -0.3141
  483TMC3    C5 7184   0.575   1.783   0.583 -0.2455  0.3381 -0.7051
  483TMC3    C6 7185   0.642   1.898   0.576 -0.5751 -0.7419  0.0157
  483TMC3     C 7186   0.485   1.711   0.243  0.7091  0.1466 -0.8035
  483TMC3     O 7187   0.445   1.766   0.146 -0.0078 -0.2953 -0.0570
  483TMC3     H 7188   0.601   1.961   0.250 -3.0371 -2.2638 -0.8780
  483TMC3    H1 7189   0.437   1.643   0.492  1.7488 -1.4162 -1.8982
  483TMC3    H2 7190   0.703   1.941   0.655 -0.5300 -0.6583 -0.0642
  483TMC3    C7 7191   0.573   1.708   0.704  0.0689  0.0405  0.5649
  483TMC3    C8 7192   0.711   2.094   0.427 -0.1053 -0.2698  0.3770
  483TMC3    O1 7193   0.596   1.589   0.693 -0.3847  0.9675 -0.3316
  483TMC3    O2 7194   0.704   2.135   0.311 -0.2341 -0.3239  0.1760
  484MPD2     C 7195   3.477   0.094  12.113 -0.6844 -0.0186 -0.9146
  484MPD2    C1 7196   3.520   4.724  12.202 -0.4902 -0.0822  0.2074
  484MPD2    C2 7197   3.655   4.712  12.222 -1.0579  0.0723 -0.1694
  484MPD2    C3 7198   3.746   0.064  12.159  0.0399  0.5884 -0.8091
  484MPD2    C4 7199   3.706   0.150  12.056  0.4077 -0.5388 -0.1062
  484MPD2    C5 7200   3.571   0.163  12.041  0.5192 -0.1146 -0.0711
  484MPD2     H 7201   3.695   4.647  12.300 -0.4738 -0.6358 -1.0684
  484MPD2    H1 7202   3.769   0.213  11.995  0.0278  0.3228  0.3873
  484MPD2    H2 7203   3.372   0.114  12.094 -0.9122 -2.1472 -1.8650
  484MPD2    H3 7204   3.527   0.232  11.969  0.3878 -1.5069 -1.3148
  484MPD2     N 7205   3.885   0.069  12.186  0.3440 -0.7483 -0.1252
  484MPD2    H5 7206   3.949   0.128  12.135  0.1565 -0.7491 -0.3607
  484MPD2    N1 7207   3.423   4.646  12.266  0.6829  0.2386 -0.3899
  484MPD2    H7 7208   3.328   4.652  12.230  0.3147  1.7229  0.8185
  485TMC3    C1 7209   4.090   0.016  12.291  0.7905  0.0182 -0.1915
  485TMC3    C2 7210   4.173   4.644  12.335 -0.1200 -0.3789 -0.1696
  485TMC3    C3 7211   4.284   4.691  12.395  0.2781 -0.0673 -0.0563
  485TMC3    C4 7212   4.121   0.149  12.272 -0.0311  0.1858  0.0658
  485TMC3    C5 7213   4.241   0.184  12.330 -0.7967  0.3851 -0.1757
  485TMC3    C6 7214   4.321   0.100  12.405 -0.1983  0.2208 -0.4054
  485TMC3     C 7215   3.946   4.711  12.279 -0.7263  0.1729  0.1053
  485TMC3     O 7216   3.926   4.593  12.302  0.0191 -0.1313 -0.1219
  485TMC3     H 7217   4.153   4.537  12.338  1.0381 -0.5656  0.8319
  485TMC3    H1 7218   4.061   0.234  12.240  2.6624  0.7509 -3.5119
  485TMC3    H2 7219   4.417   0.130  12.445 -0.3863  0.5421 -0.1944
  485TMC3    C7 7220   4.311   0.306  12.280  0.1408  0.0590 -0.6192
  485TMC3    C8 7221   4.405   4.642  12.336  0.8743 -0.0556 -0.2349
  485TMC3    O1 7222   4.262   0.409  12.236 -0.4731  0.0622 -0.6019
  485TMC3    O2 7223   4.478   4.725  12.285 -0.7489 -0.1721 -0.3841
  486MPD2     C 7224   0.668   3.942  13.353 -0.0824  0.1988 -0.3154
  486MPD2    C1 7225   0.705   3.898  13.223  0.0228 -0.1706 -0.3128
  486MPD2    C2 7226   0.775   3.987  13.143 -0.4853 -0.0835  0.8870
  486MPD2    C3 7227   0.799   4.117  13.192 -0.9929 -0.5524  0.7312
  486MPD2    C4 7228   0.761   4.159  13.322 -0.5666 -0.1643  0.3175
  486MPD2    C5 7229   0.700   4.068  13.397  0.3930  0.5069  0.5213
  486MPD2     H 7230   0.806   3.961  13.043 -0.6422  0.6988  0.6343
  486MPD2    H1 7231   0.787   4.258  13.359  0.3214 -0.0946 -0.5077
  486MPD2    H2 7232   0.622   3.872  13.422 -0.1754 -0.7478 -1.3384
  486MPD2    H3 7233   0.682   4.105  13.498 -0.2415 -0.0134  0.5951
  486MPD2     N 7234   0.842   4.212  13.095 -0.8837 -0.4796  0.8206
  486MPD2    H5 7235   0.854   4.178  13.000  1.7824 -2.5234  1.9037
  486MPD2    N1 7236   0.668   3.762  13.180  0.3501 -0.0777 -1.1237
  486MPD2    H7 7237   0.600   3.709  13.233  0.8534  0.7879  0.3679
  487TMC3    C1 7238   0.663   3.564  13.054 -0.4187 -0.1406 -0.4108
  487TMC3    C2 7239   0.631   3.528  12.927 -0.6091  0.2381  0.5055
  487TMC3    C3 7240   0.586   3.394  12.908 -0.2952  0.3850 -0.2251
  487TMC3    C4 7241   0.671   3.483  13.165  0.2648  0.1575  0.1284
  487TMC3    C5 7242   0.632   3.361  13.141  0.2851 -1.0364 -0.0792
  487TMC3    C6 7243   0.589   3.316  13.023 -0.6478  0.0163 -0.5878
  487TMC3     C 7244   0.709   3.700  13.065  0.7108  0.1721 -0.1735
  487TMC3     O 7245   0.761   3.740  12.962  0.6613  0.3903 -0.0297
  487TMC3     H 7246   0.629   3.607  12.853  2.0830 -0.2545 -0.1003
  487TMC3    H1 7247   0.699   3.514  13.264 -1.2358 -0.9502  0.8981
  487TMC3    H2 7248   0.609   3.210  13.018 -3.8256 -0.5863 -0.6843
  487TMC3    C7 7249   0.565   3.308  13.255 -0.1934 -0.6818  0.3876
  487TMC3    C8 7250   0.461   3.387  12.838 -0.6463 -0.0023 -0.6240
  487TMC3    O1 7251   0.616   3.316  13.364  0.4505 -0.4769  0.0990
  487TMC3    O2 7252   0.413   3.497  12.814  0.2907  0.2031  0.5431
  488MPD2     C 7253   0.706   0.490  16.316 -0.3991 -0.1665  0.1693
  488MPD2    C1 7254   0.771   0.559  16.416  0.5531 -0.2665  0.3511
  488MPD2    C2 7255   0.727   0.547  16.546 -0.3384  0.1645 -0.8113
  488MPD2    C3 7256   0.624   0.451  16.580  0.1986  0.4059  0.6655
  488MPD2    C4 7257   0.555   0.385  16.475  0.6327 -0.4293 -0.7010
  488MPD2    C5 7258   0.605   0.410  16.347  0.3301  0.0867 -0.5059
  488MPD2     H 7259   0.787   0.601  16.618 -0.1278 -1.5255  0.2791
  488MPD2    H1 7260   0.467   0.323  16.488  0.2480  0.2340 -0.1953
  488MPD2    H2 7261   0.743   0.484  16.214 -0.9425 -1.4071  0.0453
  488MPD2    H3 7262   0.550   0.357  16.270 -0.1085 -1.8476  1.1063
  488MPD2     N 7263   0.594   0.435  16.720  0.0621  0.2163  0.2666
  488MPD2    H5 7264   0.642   0.493  16.789  0.8588 -1.0899  0.8168
  488MPD2    N1 7265   0.877   0.643  16.400 -0.1857 -0.3523  0.1688
  488MPD2    H7 7266   0.926   0.684  16.479  2.3933  0.3426 -1.8083
  489TMC3    C1 7267   0.510   0.338  16.921  0.0724 -0.3344 -0.3709
  489TMC3    C2 7268   0.631   0.352  16.980 -0.4799 -0.3740  0.1170
  489TMC3    C3 7269   0.642   0.382  17.110 -0.8306 -0.1278  0.5077
  489TMC3    C4 7270   0.392   0.344  16.989 -0.3678 -0.0998 -0.0906
  489TMC3    C5 7271   0.406   0.382  17.118 -0.3062 -0.4107 -0.3799
  489TMC3    C6 7272   0.526   0.399  17.183  0.8347 -0.8047 -0.0105
  489TMC3     C 7273   0.506   0.346  16.773  0.1594  0.5520  0.0350
  489TMC3     O 7274   0.434   0.271  16.710  0.2845  0.0600  0.3435
  489TMC3     H 7275   0.716   0.346  16.914  0.7639  3.1458  1.4008
  489TMC3    H1 7276   0.300   0.338  16.933 -0.6432  0.5833  0.2879
  489TMC3    H2 7277   0.523   0.429  17.287  2.1198  0.5460 -0.3684
  489TMC3    C7 7278   0.288   0.369  17.202  0.6245 -0.0633 -0.3575
  489TMC3    C8 7279   0.743   0.489  17.119  0.2848  0.4842  0.2562
  489TMC3    O1 7280   0.305   0.361  17.321 -0.0559  0.5152  0.2749
  489TMC3    O2 7281   0.797   0.509  17.010  0.1618 -0.3639 -0.4404
  490MPD2     C 7282   1.676   0.396  17.002  0.6410 -0.3886 -0.1550
  490MPD2    C1 7283   1.596   0.355  17.110 -0.6140  0.1841  0.8316
  490MPD2    C2 7284   1.621   0.406  17.238  0.4929 -0.2276 -0.1919
  490MPD2    C3 7285   1.724   0.499  17.251 -0.5609  0.4325  0.8749
  490MPD2    C4 7286   1.784   0.557  17.141  0.2415 -0.0491  0.1736
  490MPD2    C5 7287   1.765   0.495  17.022 -0.1106 -0.1828  0.2279
  490MPD2     H 7288   1.573   0.359  17.323  1.3556  0.5362  0.7254
  490MPD2    H1 7289   1.849   0.643  17.153  1.2424 -0.8623  0.5988
  490MPD2    H2 7290   1.683   0.339  16.910 -1.7987  1.2398 -1.3608
  490MPD2    H3 7291   1.820   0.533  16.937 -3.3434  1.0181 -1.2987
  490MPD2     N 7292   1.779   0.532  17.375 -0.2769  0.4280 -0.1254
  490MPD2    H5 7293   1.860   0.592  17.384 -0.5396  0.7205  0.3254
  490MPD2    N1 7294   1.519   0.238  17.098 -0.1075  0.1913  0.3541
  490MPD2    H7 7295   1.494   0.199  17.189 -0.9199 -1.1164 -0.4404
  491TMC3    C1 7296   1.425   0.042  17.010 -0.0755 -0.1087 -0.0827
  491TMC3    C2 7297   1.479   4.691  17.110  0.5682 -0.4855 -0.1980
  491TMC3    C3 7298   1.423   4.566  17.129  0.2081  0.1286 -0.3252
  491TMC3    C4 7299   1.310   0.009  16.951  0.2617  0.4805 -0.2534
  491TMC3    C5 7300   1.252   4.619  16.981 -0.0658  0.8689  0.5797
  491TMC3    C6 7301   1.314   4.524  17.061  0.6909 -0.1061 -0.2085
  491TMC3     C 7302   1.480   0.175  16.981  0.1387 -0.0789  0.7476
  491TMC3     O 7303   1.472   0.224  16.869  0.1228  0.6624  0.2503
  491TMC3     H 7304   1.572   4.716  17.160  0.2573 -0.5735  0.4157
  491TMC3    H1 7305   1.259   0.077  16.883 -0.8064  1.9328  2.0299
  491TMC3    H2 7306   1.266   4.434  17.096 -1.4371  1.0679 -0.0957
  491TMC3    C7 7307   1.125   4.578  16.923 -1.1557 -0.2599 -0.1338
  491TMC3    C8 7308   1.453   4.508  17.260 -0.2035  0.3311 -0.3903
  491TMC3    O1 7309   1.104   4.458  16.909  0.4247 -0.2818  0.2892
  491TMC3    O2 7310   1.366   4.438  17.307 -0.2548 -0.2973 -0.0791
  492MPD2     C 7311   2.513   0.207  11.476  0.2469  0.9137 -0.3557
  492MPD2    C1 7312   2.468   0.094  11.414 -0.1052 -0.4275  0.0195
  492MPD2    C2 7313   2.419   4.716  11.494  0.2943 -0.0046 -0.6204
  492MPD2    C3 7314   2.435   4.713  11.632 -0.0108 -0.1301  0.3186
  492MPD2    C4 7315   2.494   0.097  11.692 -0.2498  0.3604  0.2547
  492MPD2    C5 7316   2.528   0.207  11.614 -0.2407  0.6395 -0.0355
  492MPD2     H 7317   2.371   4.627  11.454 -0.7359 -0.1913  1.0581
  492MPD2    H1 7318   2.499   0.095  11.800 -1.4848  0.1294  0.3124
  492MPD2    H2 7319   2.533   0.299  11.422  0.2577  2.4337  2.2524
  492MPD2    H3 7320   2.562   0.300  11.658  0.0510 -0.1933  1.5245
  492MPD2     N 7321   2.392   4.607  11.718  0.6392 -0.0879  0.2126
  492MPD2    H5 7322   2.412   4.618  11.817  1.3147 -0.5857  0.1345
  492MPD2    N1 7323   2.442   0.107  11.284 -0.0538 -0.0021  0.1760
  492MPD2    H7 7324   2.466   0.198  11.245  1.8564 -0.7779 -0.4530
  493TMC3    C1 7325   2.366   0.073  11.068  0.2385  0.7251  0.2596
  493TMC3    C2 7326   2.476   0.134  11.009  0.3326 -0.2284  0.2185
  493TMC3    C3 7327   2.480   0.127  10.869 -0.5052  0.0637  0.0562
  493TMC3    C4 7328   2.285   4.713  11.004 -0.6648 -0.0516  0.2098
  493TMC3    C5 7329   2.303   4.688  10.869 -0.2603  0.0755 -1.1466
  493TMC3    C6 7330   2.403   0.026  10.802 -0.0260  0.0856  0.0211
  493TMC3     C 7331   2.383   0.018  11.201 -0.3250  0.0701  0.2251
  493TMC3     O 7332   2.349   4.627  11.226 -0.3428  0.3254 -0.1529
  493TMC3     H 7333   2.544   0.197  11.065  1.3821  0.6822 -2.0865
  493TMC3    H1 7334   2.203   4.666  11.056 -2.3369 -0.3079 -2.6367
  493TMC3    H2 7335   2.416   0.018  10.694 -0.6020  2.0880 -0.2115
  493TMC3    C7 7336   2.270   4.556  10.817  0.4918  0.2324 -0.5695
  493TMC3    C8 7337   2.600   0.176  10.807  0.7185 -0.1768 -0.5322
  493TMC3    O1 7338   2.269   4.543  10.695  0.0981  0.3046 -0.0999
  493TMC3    O2 7339   2.633   0.124  10.699 -0.1944 -0.3508 -0.3487
  494TMC3    C1 7340   2.700   1.429   0.374 -0.0698 -0.4988  0.0735
  494TMC3    C2 7341   2.762   1.301   0.363 -0.1837  0.2281  0.0599
  494TMC3    C3 7342   2.773   1.260   0.234 -0.0182 -0.4927  0.3040
  494TMC3    C4 7343   2.650   1.499   0.270  0.3904  0.4457  0.1458
  494TMC3    C5 7344   2.667   1.449   0.142 -1.0114 -0.1685 -0.8553
  494TMC3    C6 7345   2.726   1.331   0.125 -0.5380 -0.0330  0.1836
  494TMC3     C 7346   2.680   1.473   0.509  0.0905  0.5958  0.0537
  494TMC3     O 7347   2.668   1.592   0.531  0.0288 -0.5383 -0.2367
  494TMC3     H 7348   2.811   1.240   0.438  0.9225  2.6258  1.2612
  494TMC3    H1 7349   2.606   1.594   0.297 -0.5241 -0.0001  0.2143
  494TMC3    H2 7350   2.735   1.290   0.025 -1.4528  0.8304 -0.2551
  494TMC3    C7 7351   2.601   1.509   0.023  0.5300 -0.2695 -0.1140
  494TMC3    C8 7352   2.849   1.132   0.211 -0.2674  0.1862  0.2446
  494TMC3    O1 7353   2.619   1.449  17.622  0.0845 -0.5458 -0.0297
  494TMC3    O2 7354   2.856   1.050   0.306 -0.1148 -0.4688  0.3842
  495TMC3    C1 7355   1.304   3.687  14.621 -0.0872 -0.1643  0.2599
  495TMC3    C2 7356   1.210   3.719  14.527  0.1425 -0.1258  0.2238
  495TMC3    C3 7357   1.101   3.801  14.564  0.2215  0.4691  0.1137
  495TMC3    C4 7358   1.283   3.718  14.754  0.9744 -1.2624 -0.1304
  495TMC3    C5 7359   1.181   3.796  14.787 -0.4188  0.1461 -0.0882
  495TMC3    C6 7360   1.088   3.848  14.694 -0.1191 -1.1543  0.4845
  495TMC3     C 7361   1.349   3.549  14.606 -0.5218  0.2643  0.6049
  495TMC3     O 7362   1.311   3.473  14.695 -0.7196  0.2515 -0.2389
  495TMC3     H 7363   1.224   3.690  14.423  0.7765  2.2625 -0.3574
  495TMC3    H1 7364   1.356   3.676  14.824 -0.7397 -0.1748  2.2960
  495TMC3    H2 7365   1.003   3.905  14.729  0.8163 -0.4943  1.6821
  495TMC3    C7 7366   1.138   3.788  14.925 -0.3634  0.0130  0.0896
  495TMC3    C8 7367   0.990   3.817  14.464 -0.7496  0.4338  0.1404
  495TMC3    O1 7368   1.194   3.854  15.013 -0.1744 -0.4998  0.0509
  495TMC3    O2 7369   0.896   3.891  14.488 -1.2529  0.1064 -0.6631
  496MPD2     C 7370   2.928   3.809  15.347  0.5127  0.3027  0.0199
  496MPD2    C1 7371   2.989   3.729  15.441 -0.6520 -0.2736  0.4442
  496MPD2    C2 7372   3.011   3.775  15.569  0.0566 -1.0050 -0.4478
  496MPD2    C3 7373   2.947   3.894  15.603  0.7217 -0.2426 -0.5742
  496MPD2    C4 7374   2.871   3.967  15.509  0.3025  0.5100  0.0669
  496MPD2    C5 7375   2.868   3.924  15.382  0.6208 -0.2640 -0.4677
  496MPD2     H 7376   3.057   3.705  15.637  0.4596  0.5554  0.8851
  496MPD2    H1 7377   2.803   4.043  15.546 -1.8048 -1.9637  1.3421
  496MPD2    H2 7378   2.917   3.771  15.246  1.3929 -0.3728  0.1749
  496MPD2    H3 7379   2.822   3.983  15.304 -0.8191  0.2614  0.7932
  496MPD2     N 7380   2.936   3.935  15.737 -0.0421  0.6495  0.1812
  496MPD2    H5 7381   2.865   4.004  15.758 -1.5396 -1.4333  1.8743
  496MPD2    N1 7382   3.033   3.607  15.395 -0.2967  0.5488 -0.1280
  496MPD2    H7 7383   3.002   3.583  15.301  1.5987  1.3060 -0.9672
  497TMC3    C1 7384   2.903   3.881  15.972  0.2491  0.1985  0.2003
  497TMC3    C2 7385   2.770   3.845  15.952 -0.2457 -0.5778 -0.6705
  497TMC3    C3 7386   2.701   3.807  16.060  0.1026  0.0246 -0.1392
  497TMC3    C4 7387   2.964   3.884  16.095 -0.0790  0.1225 -0.4883
  497TMC3    C5 7388   2.883   3.854  16.206  0.3574  0.0256 -0.0804
  497TMC3    C6 7389   2.755   3.804  16.187 -0.7671 -0.4127  0.3587
  497TMC3     C 7390   2.985   3.862  15.847 -0.6957  1.1999 -0.3509
  497TMC3     O 7391   3.101   3.821  15.858  0.1123  0.1951  0.0693
  497TMC3     H 7392   2.726   3.864  15.855 -1.5144  0.9255  0.1928
  497TMC3    H1 7393   3.070   3.903  16.101  0.2721 -1.4904 -1.6526
  497TMC3    H2 7394   2.692   3.783  16.273 -1.4743  0.1267 -0.0246
  497TMC3    C7 7395   2.947   3.826  16.331 -0.2745  0.4683  0.8992
  497TMC3    C8 7396   2.567   3.748  16.044  0.1552 -0.6003 -0.2407
  497TMC3    O1 7397   2.890   3.747  16.403 -0.3291 -0.9232  0.1985
  497TMC3    O2 7398   2.505   3.749  16.153 -0.5531  0.6082  0.1490
  498MPD2     C 7399   4.723   4.552   9.391  0.2137  0.2145 -0.2199
  498MPD2    C1 7400   4.724   4.627   9.506 -0.3077  0.4497  0.3486
  498MPD2    C2 7401   4.660   4.571   9.615  0.3682 -0.4866 -0.5957
  498MPD2    C3 7402   4.586   4.452   9.599  0.3934 -0.5078 -0.0856
  498MPD2    C4 7403   4.580   4.385   9.474 -0.4660  0.4345 -0.0251
  498MPD2    C5 7404   4.651   4.442   9.371 -0.0436  0.2142 -0.5010
  498MPD2     H 7405   4.645   4.637   9.700  0.9932 -0.2463 -0.6663
  498MPD2    H1 7406   4.512   4.308   9.438 -2.1932  1.8263  0.2775
  498MPD2    H2 7407   0.056   4.589   9.308 -1.1804 -1.0626 -1.7911
  498MPD2    H3 7408   4.655   4.402   9.271  0.6845 -3.0004  0.8248
  498MPD2     N 7409   4.495   4.422   9.703 -0.4594  0.2820  0.2119
  498MPD2    H5 7410   4.508   4.470   9.792  1.0095 -0.7480  0.5592
  498MPD2    N1 7411   0.071   0.023   9.518 -0.0899  0.1426  0.5021
  498MPD2    H7 7412   0.097   0.052   9.612  0.2407  1.7635 -0.0941
  499TMC3    C1 7413   0.185   0.215   9.446 -0.3282 -0.8775 -0.2196
  499TMC3    C2 7414   0.271   0.214   9.547  0.2432 -0.0579  0.4940
  499TMC3    C3 7415   0.348   0.325   9.577 -0.4165 -0.0217  0.1071
  499TMC3    C4 7416   0.171   0.324   9.373 -0.2665  0.1644 -0.1888
  499TMC3    C5 7417   0.238   0.435   9.410  0.0941 -0.6098  0.1037
  499TMC3    C6 7418   0.327   0.441   9.511  1.2128 -0.2953 -1.2951
  499TMC3     C 7419   0.107   0.095   9.409  0.9709  0.2127 -0.4018
  499TMC3     O 7420   0.057   0.082   9.299  0.7200  0.1524  0.1005
  499TMC3     H 7421   0.299   0.120   9.593 -3.0829 -1.3124 -0.0637
  499TMC3    H1 7422   0.087   0.337   9.305  0.0181 -0.8305 -0.7412
  499TMC3    H2 7423   0.371   0.535   9.543  0.5842  0.0661 -1.4948
  499TMC3    C7 7424   0.224   0.559   9.332  0.0281  0.2083 -0.1899
  499TMC3    C8 7425   0.436   0.314   9.690  0.2854  0.4043  0.1603
  499TMC3    O1 7426   0.250   0.665   9.386 -0.4477 -0.2012 -0.7420
  499TMC3    O2 7427   0.407   0.224   9.770  0.5083  0.1669  0.1981
  500MPD2     C 7428   1.127   1.292  10.515  0.5850  0.3010 -0.4892
  500MPD2    C1 7429   1.154   1.299  10.379  0.6790  0.3765  0.4955
  500MPD2    C2 7430   1.066   1.360  10.296  0.7291  0.1086 -0.0997
  500MPD2    C3 7431   0.938   1.397  10.335  0.7614 -0.0741 -0.3545
  500MPD2    C4 7432   0.906   1.388  10.469  0.2342 -0.5224  0.5348
  500MPD2    C5 7433   1.000   1.336  10.561  0.0972 -0.3893  0.6487
  500MPD2     H 7434   1.098   1.372  10.193  1.2587 -0.1505  0.0304
  500MPD2    H1 7435   0.803   1.416  10.491  0.5866 -0.1530  1.7362
  500MPD2    H2 7436   1.201   1.266  10.590 -0.1804 -0.7938 -0.1206
  500MPD2    H3 7437   0.969   1.300  10.659 -0.7298 -1.8031 -0.1341
  500MPD2     N 7438   0.841   1.440  10.242  0.8407  0.5696 -0.4237
  500MPD2    H5 7439   0.751   1.448  10.288  1.3945 -2.0175  1.0970
  500MPD2    N1 7440   1.280   1.272  10.323  0.3923  0.7412 -0.2738
  500MPD2    H7 7441   1.297   1.314  10.232 -2.0274  0.1888 -0.9772
  501TMC3    C1 7442   1.511   1.185  10.313  0.4830 -0.2177 -0.1346
  501TMC3    C2 7443   1.551   1.285  10.238  0.0927 -1.1430  0.6259
  501TMC3    C3 7444   1.678   1.294  10.195 -0.2314  0.3698  0.7116
  501TMC3    C4 7445   1.587   1.081  10.358  0.1817  0.1401  0.1807
  501TMC3    C5 7446   1.724   1.096  10.327 -0.7020 -0.1032  0.6891
  501TMC3    C6 7447   1.767   1.205  10.252 -0.3136 -0.3266 -0.6214
  501TMC3     C 7448   1.378   1.192  10.385 -0.5562  0.1250  0.4771
  501TMC3     O 7449   1.355   1.109  10.472 -0.3430  0.2430  0.0593
  501TMC3     H 7450   1.478   1.356  10.201 -1.3073 -1.5429  2.6032
  501TMC3    H1 7451   1.540   0.997  10.408 -0.0924  0.5579  0.6276
  501TMC3    H2 7452   1.873   1.210  10.230 -0.0640  0.8371  0.8807
  501TMC3    C7 7453   1.816   1.007  10.397  0.5886 -0.3293  0.3139
  501TMC3    C8 7454   1.710   1.433  10.223 -0.2964  0.0306  0.3244
  501TMC3    O1 7455   1.761   0.909  10.449 -0.1615  0.9587  0.1902
  501TMC3    O2 7456   1.816   1.441  10.282  0.6742  0.4906 -0.2517
  502TMC3    C1 7457   0.332   4.370  14.873  0.2564  0.1771 -0.2734
  502TMC3    C2 7458   0.328   4.510  14.872  0.1996  0.3143  0.3159
  502TMC3    C3 7459   0.224   4.568  14.937  0.3061  0.1491 -0.8839
  502TMC3    C4 7460   0.224   4.298  14.914 -0.8506  0.3671 -0.4320
  502TMC3    C5 7461   0.114   4.361  14.963  0.5067  0.2364  0.5124
  502TMC3    C6 7462   0.112   4.497  14.977  0.0862  0.0032 -0.5010
  502TMC3     C 7463   0.434   4.307  14.793 -0.1199 -0.3296  0.6664
  502TMC3     O 7464   0.387   4.223  14.715  0.5997  0.1468 -0.4403
  502TMC3     H 7465   0.418   4.566  14.850  0.4566 -0.0313  0.4955
  502TMC3    H1 7466   0.223   4.190  14.902 -0.9160  0.2313  0.8809
  502TMC3    H2 7467   0.031   4.555  15.021 -1.0229 -2.4091  0.6355
  502TMC3    C7 7468   0.041   4.284  15.059  0.6439  0.4207 -0.0741
  502TMC3    C8 7469   0.246   4.710  14.957 -0.2331 -0.1416  1.0463
  502TMC3    O1 7470   0.104   4.199  15.117 -0.5886  0.4487 -0.6454
  502TMC3    O2 7471   0.325   0.045  14.886  0.0224 -0.3655  0.1950
  503MPD2     C 7472   2.549   0.379  16.659 -0.4187 -0.5119 -0.8218
  503MPD2    C1 7473   2.652   0.439  16.727 -0.4232 -0.3982 -0.1725
  503MPD2    C2 7474   2.730   0.365  16.812 -0.4601  0.1862 -0.8001
  503MPD2    C3 7475   2.701   0.233  16.830  1.1289  0.2326 -0.4229
  503MPD2    C4 7476   2.602   0.172  16.751  0.0090  0.6804  0.2383
  503MPD2    C5 7477   2.523   0.250  16.667 -0.0334  0.2227 -0.0847
  503MPD2     H 7478   2.812   0.415  16.861 -1.4212  0.4893  0.5146
  503MPD2    H1 7479   2.592   0.064  16.752 -0.4929  0.7289  0.4736
  503MPD2    H2 7480   2.480   0.438  16.599  0.2566  2.5239  1.4117
  503MPD2    H3 7481   2.448   0.207  16.602 -0.2624 -0.3951  0.5901
  503MPD2     N 7482   2.794   0.160  16.911 -0.7024 -0.3624  0.1897
  503MPD2    H5 7483   2.872   0.209  16.954 -3.0043  1.8328  1.9129
  503MPD2    N1 7484   2.678   0.574  16.717 -0.0732  0.3960 -0.6440
  503MPD2    H7 7485   2.750   0.620  16.772 -0.0291  0.3048 -0.6241
  504TMC3    C1 7486   2.888   4.714  17.035  0.1022 -0.3755 -0.0855
  504TMC3    C2 7487   2.851   4.607  17.123  0.2918 -0.3291 -0.4150
  504TMC3    C3 7488   2.955   4.550  17.188  0.9629  0.0061  0.2440
  504TMC3    C4 7489   3.015   0.018  17.004  0.5556  0.3893 -0.5652
  504TMC3    C5 7490   3.116   4.678  17.070 -0.5407  0.4914 -0.0382
  504TMC3    C6 7491   3.084   4.582  17.166  0.1551 -0.1516 -0.1518
  504TMC3     C 7492   2.787   0.027  16.940 -0.6925  0.1438 -0.1056
  504TMC3     O 7493   2.705   4.665  16.915 -0.0342 -0.4445  0.1819
  504TMC3     H 7494   2.746   4.589  17.140  0.7109 -1.1971  1.2159
  504TMC3    H1 7495   3.033   0.082  16.918  1.2450  0.6380 -0.2341
  504TMC3    H2 7496   3.160   4.551  17.237  1.3989 -0.6496 -1.6959
  504TMC3    C7 7497   3.244   4.664  17.006  0.1694 -0.4078  0.2501
  504TMC3    C8 7498   2.913   4.438  17.281 -0.7120 -0.1906 -0.2401
  504TMC3    O1 7499   3.249   4.675  16.887 -0.0428  0.0127 -0.1248
  504TMC3    O2 7500   2.799   4.390  17.276 -0.9630 -0.3020  0.2780
  505MPD2     C 7501   3.400   4.223  11.126  0.0158  0.5172  0.5595
  505MPD2    C1 7502   3.474   4.217  11.014 -0.1811  0.2421 -0.0254
  505MPD2    C2 7503   3.598   4.283  11.013  0.8769  0.0593 -0.4319
  505MPD2    C3 7504   3.649   4.344  11.130  0.3075  0.4692 -0.0303
  505MPD2    C4 7505   3.566   4.347  11.242  0.3503  1.2345 -0.1495
  505MPD2    C5 7506   3.445   4.283  11.238  0.3139 -0.0686 -0.1594
  505MPD2     H 7507   3.661   4.286  10.925  0.1601  0.7068 -0.9220
  505MPD2    H1 7508   3.596   4.391  11.337  0.2097 -1.4259  1.1133
  505MPD2    H2 7509   3.303   4.176  11.118 -0.3573  1.4285 -0.3684
  505MPD2    H3 7510   3.383   4.281  11.326 -2.2160  0.0532 -1.9204
  505MPD2     N 7511   3.785   4.381  11.136 -0.3792  0.4523 -0.2927
  505MPD2    H5 7512   3.834   4.389  11.225 -0.9368 -1.5371  0.1852
  505MPD2    N1 7513   3.435   4.129  10.911  0.0325 -0.4107 -0.2944
  505MPD2    H7 7514   3.346   4.079  10.917  0.7993 -1.6440  0.8869
  506TMC3    C1 7515   3.465   3.972  10.739 -0.4244 -0.2270  0.0994
  506TMC3    C2 7516   3.499   3.955  10.608  0.6949  0.7337  1.1910
  506TMC3    C3 7517   3.520   3.831  10.552  0.4262 -0.6291 -0.1047
  506TMC3    C4 7518   3.474   3.864  10.816 -0.2026 -0.3406 -0.1895
  506TMC3    C5 7519   3.512   3.745  10.771 -0.3455 -0.3199 -0.1675
  506TMC3    C6 7520   3.506   3.724  10.636  0.5147 -0.7920 -0.2126
  506TMC3     C 7521   3.516   4.084  10.810  0.1774  0.0264  0.4101
  506TMC3     O 7522   3.635   4.107  10.795 -0.2746 -1.0629  0.0351
  506TMC3     H 7523   3.516   4.045  10.549 -2.0895 -0.2616 -1.1050
  506TMC3    H1 7524   3.464   3.876  10.924  1.6564  0.3042 -0.0849
  506TMC3    H2 7525   3.537   3.628  10.597 -0.5795 -1.1793 -0.1251
  506TMC3    C7 7526   3.610   3.670  10.846 -0.2836  0.0544 -0.2707
  506TMC3    C8 7527   3.543   3.820  10.415  1.1358 -0.0531 -0.4435
  506TMC3    O1 7528   3.628   3.549  10.828 -0.4665 -0.3105  0.3928
  506TMC3    O2 7529   3.490   3.720  10.366  0.4764 -0.0574 -0.1776
  507TMC3    C1 7530   3.829   4.676  14.672 -0.2076  0.0255  0.4093
  507TMC3    C2 7531   3.856   4.542  14.639  0.2391 -0.6290  0.0339
  507TMC3    C3 7532   3.846   4.501  14.513 -0.0291 -0.8454  0.2975
  507TMC3    C4 7533   3.820   0.042  14.568 -0.1000  0.1754 -0.0386
  507TMC3    C5 7534   3.833   0.002  14.438  0.9904  0.0246 -0.0962
  507TMC3    C6 7535   3.850   4.596  14.413  0.4090 -0.3930  0.5116
  507TMC3     C 7536   3.740   4.693  14.786 -0.1116 -0.0269 -0.4030
  507TMC3     O 7537   3.731   0.078  14.832  0.6017 -1.1670  0.0569
  507TMC3     H 7538   3.859   4.475  14.723 -0.7879 -2.4114 -1.3525
  507TMC3    H1 7539   3.789   0.142  14.597 -2.7059 -1.1578  1.6400
  507TMC3    H2 7540   3.859   4.563  14.310 -0.2371  1.0273  0.0030
  507TMC3    C7 7541   3.736   0.058  14.341  0.3419  0.1168  0.0048
  507TMC3    C8 7542   3.720   4.427  14.508 -0.2989 -0.1158 -1.1792
  507TMC3    O1 7543   3.696   4.702  14.256 -0.1029  0.2875 -0.2501
  507TMC3    O2 7544   3.694   4.350  14.599  0.0050  0.0765  0.5684
  508MPD2     C 7545   4.528   2.142  16.023  1.2459  0.3672 -0.2300
  508MPD2    C1 7546   4.505   2.280  16.040 -0.0883 -0.4659  0.2354
  508MPD2    C2 7547   4.482   2.368  15.929 -0.9309  0.2388  0.0269
  508MPD2    C3 7548   4.508   2.326  15.803 -0.0175  0.1655  0.3048
  508MPD2    C4 7549   4.525   2.187  15.782  0.0821  0.7335  0.0160
  508MPD2    C5 7550   4.540   2.102  15.889 -0.2846  0.0049  1.9201
  508MPD2     H 7551   4.452   2.472  15.931  0.2873  0.5931  0.0634
  508MPD2    H1 7552   4.539   2.130  15.691  0.7855  1.4534 -0.3354
  508MPD2    H2 7553   4.531   2.068  16.102 -2.6095  0.2487 -0.1874
  508MPD2    H3 7554   4.538   1.995  15.871  1.4806  0.6552 -2.0064
  508MPD2     N 7555   4.497   2.418  15.697  0.1292 -0.5128  0.5099
  508MPD2    H5 7556   4.462   2.511  15.721  0.9231 -0.4119  1.2950
  508MPD2    N1 7557   4.500   2.327  16.169  0.1666 -0.1566  0.0974
  508MPD2    H7 7558   4.502   2.259  16.245  0.7326  0.5376  0.7002
  509TMC3    C1 7559   4.361   2.675  15.420  0.0909  0.0674  0.6452
  509TMC3    C2 7560   4.452   2.718  15.325  0.9230  0.4189 -0.0661
  509TMC3    C3 7561   4.562   2.636  15.309 -0.1441  1.0132 -0.0479
  509TMC3    C4 7562   4.382   2.558  15.500  1.4579  0.2106 -0.0334
  509TMC3    C5 7563   4.489   2.490  15.474 -0.2759  0.4835  0.3352
  509TMC3    C6 7564   4.578   2.518  15.374 -0.0608  0.6078 -0.2353
  509TMC3     C 7565   4.273   2.781  15.469  0.2962 -0.1458 -0.1160
  509TMC3     O 7566   4.219   2.756  15.576  0.3347 -0.2369 -0.1212
  509TMC3     H 7567   4.443   2.803  15.258 -2.1796  1.6938  1.9593
  509TMC3    H1 7568   4.306   2.527  15.571  0.0756 -0.3846 -1.7523
  509TMC3    H2 7569   4.672   2.465  15.368  0.1987  0.8584  1.9086
  509TMC3    C7 7570   4.520   2.389  15.567  0.3363  0.2961 -0.3477
  509TMC3    C8 7571   4.687   2.713  15.296  0.5921 -0.0678 -0.3227
  509TMC3    O1 7572   4.585   2.296  15.518 -0.1150  0.4835  0.5920
  509TMC3    O2 7573   0.061   2.649  15.316 -0.2069  0.3154  0.8200
  510MPD2     C 7574   2.310   4.124  14.558 -0.1477 -0.3812  0.2585
  510MPD2    C1 7575   2.372   4.039  14.645 -0.1043 -0.3301 -0.7125
  510MPD2    C2 7576   2.508   4.015  14.630  0.9526  0.7246  0.0102
  510MPD2    C3 7577   2.583   4.084  14.534 -0.7501 -0.0297 -0.4988
  510MPD2    C4 7578   2.514   4.167  14.445  0.1073  0.0029 -0.2637
  510MPD2    C5 7579   2.379   4.181  14.455 -0.0196  0.8574 -0.6201
  510MPD2     H 7580   2.557   3.966  14.713 -1.8109  1.3132  1.9572
  510MPD2    H1 7581   2.564   4.222  14.366 -2.1679 -0.3921 -1.9450
  510MPD2    H2 7582   2.202   4.127  14.566 -0.3118 -0.1072 -2.0571
  510MPD2    H3 7583   2.326   4.231  14.375 -0.8393 -2.8030 -2.4094
  510MPD2     N 7584   2.718   4.062  14.540 -0.0885 -0.1322  0.2055
  510MPD2    H5 7585   2.761   4.013  14.618  0.4669 -0.7981 -0.5204
  510MPD2    N1 7586   2.299   3.979  14.747  0.1492 -0.1386  0.5037
  510MPD2    H7 7587   2.205   4.017  14.758 -0.3487 -1.5770  1.1448
  511TMC3    C1 7588   2.216   3.824  14.884  0.1816  0.0629  0.2878
  511TMC3    C2 7589   2.170   3.895  14.993 -0.3146 -0.1971  0.6520
  511TMC3    C3 7590   2.083   3.821  15.070  0.2959  0.4267  0.3218
  511TMC3    C4 7591   2.190   3.689  14.867 -0.4860 -0.3575 -0.0022
  511TMC3    C5 7592   2.095   3.627  14.939  0.1457  0.4820  0.1070
  511TMC3    C6 7593   2.031   3.696  15.043 -0.1510 -0.0298  0.3020
  511TMC3     C 7594   2.337   3.872  14.815  0.4197 -0.5576  0.0560
  511TMC3     O 7595   2.431   3.792  14.799  0.6835  0.3463 -0.3492
  511TMC3     H 7596   2.227   3.982  15.024  0.0652  0.4507 -1.8725
  511TMC3    H1 7597   2.256   3.640  14.797  0.0473 -1.3760  1.2086
  511TMC3    H2 7598   1.954   3.638  15.094  2.2217 -2.2905  1.3447
  511TMC3    C7 7599   2.078   3.491  14.907  0.0595 -0.2314 -0.3984
  511TMC3    C8 7600   2.056   3.885  15.204  0.0777  0.0215  0.3071
  511TMC3    O1 7601   2.138   3.451  14.806 -0.3103  0.5269  0.1175
  511TMC3    O2 7602   2.059   4.003  15.215 -0.8304 -0.5615  0.0404
  512TMC3    C1 7603   1.011   3.494  13.230 -0.7204 -0.1422  0.2238
  512TMC3    C2 7604   1.037   3.434  13.351  0.8450 -0.8390 -0.0956
  512TMC3    C3 7605   1.062   3.303  13.357  0.2041  0.1416  0.7819
  512TMC3    C4 7606   0.989   3.423  13.121 -0.6938 -0.3544  0.0079
  512TMC3    C5 7607   0.998   3.283  13.133  0.3293  0.8136  0.0704
  512TMC3    C6 7608   1.021   3.224  13.253 -0.1457 -0.1225 -0.5886
  512TMC3     C 7609   1.036   3.635  13.218 -0.3633  0.0640 -0.2415
  512TMC3     O 7610   1.043   3.692  13.326 -0.1927  0.0243  0.3670
  512TMC3     H 7611   1.054   3.504  13.432  0.2334 -4.7300  3.3580
  512TMC3    H1 7612   0.972   3.460  13.020 -0.8855 -1.2751 -0.3033
  512TMC3    H2 7613   1.043   3.119  13.264 -0.7521 -0.0598  1.2472
  512TMC3    C7 7614   0.962   3.202  13.017 -0.3855  0.0108 -0.0692
  512TMC3    C8 7615   1.154   3.248  13.450  0.0850 -0.3114 -0.6052
  512TMC3    O1 7616   0.891   3.251  12.931 -0.1905  0.1986  0.1254
  512TMC3    O2 7617   1.191   3.136  13.426 -0.2199 -0.0638  0.5712
  513MPD2     C 7618   3.547   3.682  13.222  0.2227 -0.1326  0.2393
  513MPD2    C1 7619   3.563   3.574  13.135 -0.3721  0.0865  0.3485
  513MPD2    C2 7620   3.686   3.512  13.123 -0.9367 -0.1851  0.0218
  513MPD2    C3 7621   3.787   3.550  13.205  0.1021  0.2359  0.3403
  513MPD2    C4 7622   3.780   3.654  13.285 -0.2930 -0.0274  0.2269
  513MPD2    C5 7623   3.655   3.717  13.296 -0.2771 -0.1763 -0.1078
  513MPD2     H 7624   3.702   3.439  13.045 -3.7724 -0.0058 -0.7249
  513MPD2    H1 7625   3.856   3.696  13.351 -2.3883  2.0159  1.3334
  513MPD2    H2 7626   3.454   3.738  13.229  0.8137  1.0138 -0.9806
  513MPD2    H3 7627   3.639   3.801  13.362 -0.4468  0.2912 -0.7450
  513MPD2     N 7628   3.912   3.489  13.184 -0.6413 -0.5877  1.4243
  513MPD2    H5 7629   3.914   3.422  13.108 -0.9033  0.0619  0.8428
  513MPD2    N1 7630   3.450   3.533  13.056  0.4466 -0.1583  0.4699
  513MPD2    H7 7631   3.366   3.591  13.051  2.7041  3.2270  1.7324
  514TMC3    C1 7632   3.363   3.441  12.849 -0.2761 -0.4603 -0.5643
  514TMC3    C2 7633   3.378   3.559  12.774  0.5981 -0.1697  0.0852
  514TMC3    C3 7634   3.406   3.553  12.641 -0.6780 -0.3603  0.3444
  514TMC3    C4 7635   3.360   3.326  12.784  0.0512  0.8493  0.5245
  514TMC3    C5 7636   3.395   3.320  12.656 -0.6443  0.0848  0.3806
  514TMC3    C6 7637   3.420   3.435  12.586 -0.3678  0.2250  0.1793
  514TMC3     C 7638   3.444   3.430  12.964 -0.3332  0.7853  0.2913
  514TMC3     O 7639   3.506   3.326  12.973  0.2898  0.3524  0.1669
  514TMC3     H 7640   3.400   3.651  12.828  2.2112 -0.8759  0.6305
  514TMC3    H1 7641   3.347   3.231  12.835  1.3091  0.7338  0.6372
  514TMC3    H2 7642   3.441   3.423  12.480 -2.1727 -3.1603  0.1862
  514TMC3    C7 7643   3.470   3.206  12.611  0.3262  0.7028  0.7467
  514TMC3    C8 7644   3.484   3.663  12.588  0.7080 -0.2340 -0.3123
  514TMC3    O1 7645   3.486   3.190  12.492  0.8871  0.5337  0.0917
  514TMC3    O2 7646   3.494   3.760  12.660 -0.0924 -0.1022 -0.2236
  515MPD2     C 7647   1.665   0.105  14.913  0.2181  0.2202  0.2644
  515MPD2    C1 7648   1.586   0.164  14.812  0.7496  0.2898  0.4926
  515MPD2    C2 7649   1.529   0.288  14.830 -0.5828 -0.5740 -0.4509
  515MPD2    C3 7650   1.562   0.354  14.943 -0.1970 -0.7246  0.8457
  515MPD2    C4 7651   1.652   0.311  15.031 -0.7919  0.6016 -0.3911
  515MPD2    C5 7652   1.712   0.187  15.014 -0.3692  0.2505 -0.3029
  515MPD2     H 7653   1.460   0.324  14.755 -1.6953 -1.6606  0.0597
  515MPD2    H1 7654   1.682   0.366  15.120 -2.2586 -0.1855  0.5939
  515MPD2    H2 7655   1.703   0.003  14.908  0.6801  0.4159 -0.2002
  515MPD2    H3 7656   1.784   0.151  15.088 -0.2689  1.8715  0.3961
  515MPD2     N 7657   1.511   0.478  14.973  0.7769  0.4852  0.2552
  515MPD2    H5 7658   1.543   0.527  15.056  0.7020  1.5134 -0.3187
  515MPD2    N1 7659   1.533   0.089  14.696  0.1543 -0.0185  0.0861
  515MPD2    H7 7660   1.458   0.134  14.644  0.3815 -0.3660 -0.5388
  516TMC3    C1 7661   1.522   4.667  14.528  0.5566  0.1008  0.3274
  516TMC3    C2 7662   1.484   0.028  14.435  0.8633 -0.6263  0.3994
  516TMC3    C3 7663   1.366   4.723  14.365 -0.1262 -0.1950 -0.5545
  516TMC3    C4 7664   1.455   4.548  14.554 -0.2152  0.4192  0.5151
  516TMC3    C5 7665   1.327   4.535  14.500 -0.3246 -1.7240  0.0794
  516TMC3    C6 7666   1.279   4.623  14.406 -0.6368 -0.6118 -0.2077
  516TMC3     C 7667   1.601   4.716  14.636 -0.0840 -0.0304  0.6605
  516TMC3     O 7668   1.689   4.636  14.678 -0.1214  0.1400 -0.1001
  516TMC3     H 7669   1.531   0.124  14.423 -0.5381 -0.2438 -2.1047
  516TMC3    H1 7670   1.483   4.502  14.648  0.5457 -0.0161  0.0724
  516TMC3    H2 7671   1.183   4.620  14.356  0.3562 -0.6264 -2.1056
  516TMC3    C7 7672   1.231   4.459  14.577  1.1424  0.0516 -0.4464
  516TMC3    C8 7673   1.325   0.100  14.274 -0.2189 -0.1467  0.0378
  516TMC3    O1 7674   1.275   4.406  14.681 -0.4860 -0.2217  0.2142
  516TMC3    O2 7675   1.205   0.120  14.268  0.0820  0.2646 -0.5853
  517MPD2     C 7676   0.979   2.012  17.334  0.4503 -0.5118  0.1084
  517MPD2    C1 7677   1.107   2.042  17.363 -0.3111  0.2499 -0.2024
  517MPD2    C2 7678   1.148   2.168  17.411 -0.1697 -0.3275  1.0517
  517MPD2    C3 7679   1.050   2.258  17.450 -0.5484  0.3503 -0.0639
  517MPD2    C4 7680   0.915   2.222  17.434 -0.0273  0.0618  0.2480
  517MPD2    C5 7681   0.881   2.100  17.375  0.4231 -0.5804  0.3263
  517MPD2     H 7682   1.253   2.191  17.425 -0.7794  1.6689  2.3239
  517MPD2    H1 7683   0.837   2.294  17.456 -1.0314 -0.8032 -0.5094
  517MPD2    H2 7684   0.941   1.914  17.308  0.9991 -0.5949 -0.3904
  517MPD2    H3 7685   0.783   2.067  17.345  0.5411  0.7238 -1.4686
  517MPD2     N 7686   1.080   2.374  17.530 -0.8818  0.1906 -0.6585
  517MPD2    H5 7687   1.002   2.424  17.573 -1.5409 -2.0699  0.7893
  517MPD2    N1 7688   1.215   1.949  17.363 -0.5334 -0.5864  0.0511
  517MPD2    H7 7689   1.307   1.980  17.396 -0.8165  0.3933 -0.0921
  518TMC3    C1 7690   1.335   1.748  17.304 -0.2729  0.2485  0.4213
  518TMC3    C2 7691   1.313   1.616  17.263  0.2183 -0.5921  0.6511
  518TMC3    C3 7692   1.422   1.539  17.224  0.1764 -0.0513 -0.2663
  518TMC3    C4 7693   1.456   1.808  17.314 -0.5760 -0.0613  0.3023
  518TMC3    C5 7694   1.562   1.728  17.267 -0.5560 -0.2095  0.3979
  518TMC3    C6 7695   1.548   1.594  17.228  0.1358 -0.1292 -0.2373
  518TMC3     C 7696   1.208   1.821  17.306 -0.2846 -0.3684  0.2645
  518TMC3     O 7697   1.106   1.773  17.258 -0.4433 -0.6662 -0.0425
  518TMC3     H 7698   1.214   1.582  17.234  0.1782 -0.6526  0.8573
  518TMC3    H1 7699   1.469   1.916  17.321 -0.2820 -0.1163  0.6064
  518TMC3    H2 7700   1.631   1.525  17.216 -1.4806 -2.0700 -0.3473
  518TMC3    C7 7701   1.695   1.775  17.310  0.4590 -0.3938  0.2553
  518TMC3    C8 7702   1.410   1.400  17.241 -0.3694 -0.7611  0.1125
  518TMC3    O1 7703   1.698   1.881  17.370 -0.4850  0.2018 -0.2228
  518TMC3    O2 7704   1.512   1.342  17.208 -0.2127 -0.0731 -0.1333
  519MPD2     C 7705   2.519   0.126  14.343 -0.9896 -0.4902  0.5328
  519MPD2    C1 7706   2.486   0.076  14.218 -0.4563  0.1762 -0.4558
  519MPD2    C2 7707   2.529   4.672  14.181  0.8053  0.4818  0.6317
  519MPD2    C3 7708   2.610   4.601  14.265 -0.0518 -0.3149 -0.7339
  519MPD2    C4 7709   2.639   4.650  14.389  0.4146  0.2352 -1.0121
  519MPD2    C5 7710   2.595   0.046  14.424  0.4166  0.0250  0.4078
  519MPD2     H 7711   2.502   4.640  14.081  2.0405 -0.8544  0.7176
  519MPD2    H1 7712   2.684   4.594  14.470 -0.4719  0.3439 -0.4432
  519MPD2    H2 7713   2.493   0.222  14.385 -1.0199  0.5379 -1.8027
  519MPD2    H3 7714   2.633   0.088  14.516  0.7097 -1.7178  1.0820
  519MPD2     N 7715   2.668   4.480  14.223  0.5266 -0.0572 -0.6389
  519MPD2    H5 7716   2.717   4.425  14.293 -1.9924  1.1994  2.0577
  519MPD2    N1 7717   2.424   0.165  14.128 -0.2400  0.2098 -0.3088
  519MPD2    H7 7718   2.382   0.246  14.171 -0.3820 -0.0396  0.0159
  520TMC3    C1 7719   2.754   4.317  14.067  0.1378  0.8609 -0.1426
  520TMC3    C2 7720   2.735   4.282  13.938  0.5335  0.0559  0.1655
  520TMC3    C3 7721   2.836   4.279  13.849 -0.3453 -0.4909  0.3762
  520TMC3    C4 7722   2.881   4.352  14.107  0.2118  0.1443  0.5571
  520TMC3    C5 7723   2.982   4.350  14.017 -0.6518 -0.2598  0.0816
  520TMC3    C6 7724   2.960   4.313  13.890  0.0042 -0.2395  0.3630
  520TMC3     C 7725   2.646   4.416  14.103  0.0587  0.0624  0.9551
  520TMC3     O 7726   2.574   4.447  14.010  0.0467 -0.4569 -0.2543
  520TMC3     H 7727   2.635   4.258  13.906  1.5009 -0.3580 -2.5654
  520TMC3    H1 7728   2.898   4.376  14.211  2.0314 -1.3397  0.5829
  520TMC3    H2 7729   3.041   4.298  13.820 -0.7526  0.6128 -0.6971
  520TMC3    C7 7730   3.111   4.333  14.078  0.0651 -0.3951  0.6724
  520TMC3    C8 7731   2.806   4.323  13.715  0.4781 -0.4508  0.3849
  520TMC3    O1 7732   3.114   4.260  14.176  0.1389 -1.1433  0.3003
  520TMC3    O2 7733   2.893   4.312  13.632  0.1825  0.1342  0.3539
  521MPD2     C 7734   3.029   2.377  17.293 -0.8293 -0.4852  0.1985
  521MPD2    C1 7735   3.045   2.510  17.278  0.3030  0.7633  0.2174
  521MPD2    C2 7736   3.177   2.548  17.240 -0.6336  0.2335 -0.0764
  521MPD2    C3 7737   3.276   2.453  17.227 -0.3613 -0.4280 -0.1058
  521MPD2    C4 7738   3.257   2.320  17.262  0.6393 -0.2050 -0.2669
  521MPD2    C5 7739   3.131   2.284  17.294 -0.0803 -0.4143 -0.0404
  521MPD2     H 7740   3.196   2.650  17.211  0.4535  0.1038  0.1670
  521MPD2    H1 7741   3.332   2.243  17.250 -0.7313 -1.6696  0.4994
  521MPD2    H2 7742   2.929   2.341  17.315 -0.9015 -2.2197 -2.9907
  521MPD2    H3 7743   3.109   2.180  17.317 -1.9328 -0.5097 -2.2461
  521MPD2     N 7744   3.401   2.501  17.178  0.3173 -0.4412  0.1682
  521MPD2    H5 7745   3.409   2.602  17.174  2.5190 -0.5958  0.7804
  521MPD2    N1 7746   2.930   2.602  17.266  0.1656 -0.5981 -0.4200
  521MPD2    H7 7747   2.841   2.557  17.252 -0.3783  0.0500  0.9315
  522TMC3    C1 7748   3.633   2.493  17.111  0.2665 -0.1984 -0.2255
  522TMC3    C2 7749   3.748   2.426  17.138  0.2245 -0.5440  0.3076
  522TMC3    C3 7750   3.869   2.490  17.115 -0.5395 -0.6095 -0.6240
  522TMC3    C4 7751   3.635   2.618  17.043  0.0187  0.2776 -0.8101
  522TMC3    C5 7752   3.755   2.682  17.025 -0.3122  0.0519 -0.2754
  522TMC3    C6 7753   3.876   2.615  17.054  0.4853 -0.3592 -0.6202
  522TMC3     C 7754   3.514   2.420  17.153 -0.1917  0.8458 -0.1612
  522TMC3     O 7755   3.529   2.301  17.184 -0.4554  0.3186  0.2578
  522TMC3     H 7756   3.745   2.335  17.197 -1.1463  0.9234  2.5055
  522TMC3    H1 7757   3.535   2.639  17.008 -0.2917 -0.2953 -0.2759
  522TMC3    H2 7758   3.969   2.669  17.042  0.9863 -0.4529  2.8312
  522TMC3    C7 7759   3.774   2.763  16.907  0.1589 -0.2467 -0.6811
  522TMC3    C8 7760   3.991   2.418  17.135  0.4886 -0.3057  0.1601
  522TMC3    O1 7761   3.880   2.757  16.851  0.0235  0.1563 -0.7329
  522TMC3    O2 7762   3.983   2.330  17.222  0.0423  0.1112 -0.1945
  523MPD2     C 7763   1.873   2.503  10.451 -0.5407 -0.0736 -0.6927
  523MPD2    C1 7764   1.818   2.464  10.331  0.0263  1.0821 -0.0441
  523MPD2    C2 7765   1.710   2.530  10.278  0.1913 -0.2938  0.0256
  523MPD2    C3 7766   1.673   2.650  10.339  0.0586 -0.0744 -0.0126
  523MPD2    C4 7767   1.728   2.696  10.459 -0.3425 -0.1987 -0.3620
  523MPD2    C5 7768   1.831   2.621  10.506 -0.2383  0.6940  0.0344
  523MPD2     H 7769   1.648   2.487  10.200 -0.4587 -1.0189  0.9315
  523MPD2    H1 7770   1.706   2.788  10.512  1.1038 -0.3058  0.4158
  523MPD2    H2 7771   1.938   2.441  10.510 -0.4613  0.6547 -0.0106
  523MPD2    H3 7772   1.887   2.645  10.596  1.1923 -2.3083 -0.0867
  523MPD2     N 7773   1.573   2.727  10.284 -0.3831  0.5784 -0.0924
  523MPD2    H5 7774   1.549   2.815  10.329 -1.4379 -0.5289  1.5303
  523MPD2    N1 7775   1.873   2.353  10.261  0.0647  0.5301  0.3990
  523MPD2    H7 7776   1.951   2.304  10.304 -0.1897  0.1488  0.4264
  524TMC3    C1 7777   1.450   2.833  10.112 -0.4992 -0.1994  0.8757
  524TMC3    C2 7778   1.409   2.845   9.985 -0.3821  0.0297 -0.7435
  524TMC3    C3 7779   1.359   2.960   9.936  0.3293 -0.1416 -0.8986
  524TMC3    C4 7780   1.422   2.927  10.203 -0.2184  0.6364 -0.5362
  524TMC3    C5 7781   1.369   3.045  10.156 -0.0422  0.1663  0.4938
  524TMC3    C6 7782   1.332   3.057  10.029  0.0558  0.6551  0.8212
  524TMC3     C 7783   1.540   2.724  10.151 -0.5690 -0.2022  0.2666
  524TMC3     O 7784   1.570   2.644  10.066 -0.2397  0.1217  0.1836
  524TMC3     H 7785   1.424   2.764   9.915 -0.9590  1.2438 -2.2624
  524TMC3    H1 7786   1.434   2.922  10.310  2.1274  1.2135 -0.7706
  524TMC3    H2 7787   1.283   3.148   9.995 -0.8617 -0.7507 -1.6905
  524TMC3    C7 7788   1.300   3.128  10.255  0.4789 -0.1451  0.2273
  524TMC3    C8 7789   1.334   2.970   9.793 -0.2377 -0.2016 -0.2471
  524TMC3    O1 7790   1.264   3.076  10.359  0.0223  0.0066 -0.0508
  524TMC3    O2 7791   1.343   2.871   9.718 -0.3919  0.3271 -0.6525
  525MPD2     C 7792   4.058   4.268  14.499 -0.5449 -0.0882 -0.3274
  525MPD2    C1 7793   4.156   4.309  14.581 -0.0775 -0.0333 -0.2586
  525MPD2    C2 7794   4.247   4.399  14.536  0.5081 -0.6456  0.1850
  525MPD2    C3 7795   4.244   4.465  14.411  0.0685  0.1750  0.2477
  525MPD2    C4 7796   4.145   4.417  14.326  0.0136  0.1818  0.3002
  525MPD2    C5 7797   4.053   4.324  14.371  0.0002  1.5561 -0.2459
  525MPD2     H 7798   4.319   4.430  14.611 -0.6433  1.1610  0.5614
  525MPD2    H1 7799   4.157   4.445  14.222 -1.4202 -0.1808  0.0355
  525MPD2    H2 7800   3.975   4.201  14.517 -0.8797  0.0054 -1.5051
  525MPD2    H3 7801   3.976   4.294  14.301  1.3211 -1.7641 -0.2725
  525MPD2     N 7802   4.334   4.572  14.367  0.2203  0.0647 -0.4449
  525MPD2    H5 7803   4.312   4.613  14.277 -0.2077  0.7428 -0.0353
  525MPD2    N1 7804   4.166   4.239  14.703  0.0109 -0.5778  0.0077
  525MPD2    H7 7805   4.251   4.260  14.755 -0.8146  2.9751 -0.1229
  526TMC3    C1 7806   4.136   4.096  14.870  0.9381 -0.6099  0.3203
  526TMC3    C2 7807   4.070   4.067  14.983  0.3907 -0.0771  0.1728
  526TMC3    C3 7808   4.144   4.036  15.095  0.3448 -0.0902  0.3965
  526TMC3    C4 7809   4.270   4.090  14.861 -0.0580  0.6056  0.3819
  526TMC3    C5 7810   4.347   4.059  14.976  0.2697 -0.3977 -0.4010
  526TMC3    C6 7811   4.283   4.027  15.095 -0.4603 -0.7931  0.1663
  526TMC3     C 7812   4.069   4.162  14.767  0.9129  0.0435 -0.0220
  526TMC3     O 7813   3.952   4.137  14.738  0.0660 -0.8228 -0.8670
  526TMC3     H 7814   3.963   4.081  14.980  0.7719  2.2801 -2.2430
  526TMC3    H1 7815   4.328   4.097  14.770  0.1661 -1.2746  0.3805
  526TMC3    H2 7816   4.340   4.009  15.186 -0.7063  4.1548  1.3010
  526TMC3    C7 7817   4.482   4.006  14.969  0.0178  0.2838  0.4277
  526TMC3    C8 7818   4.071   4.030  15.223 -0.3584  0.9442 -1.0699
  526TMC3    O1 7819   4.521   3.935  15.057  0.1907  0.0717 -0.0238
  526TMC3    O2 7820   4.139   4.011  15.326 -0.1339  0.6713  0.2920
  527MPD2     C 7821   3.086   2.220   1.630  0.3603  0.4282 -0.8145
  527MPD2    C1 7822   2.967   2.244   1.566 -0.4729  0.1765 -0.3868
  527MPD2    C2 7823   2.935   2.178   1.450  0.1930 -0.5574  0.5404
  527MPD2    C3 7824   3.019   2.082   1.398 -0.6835  0.4893 -0.0975
  527MPD2    C4 7825   3.144   2.072   1.446 -0.3832  0.1774  0.0162
  527MPD2    C5 7826   3.165   2.126   1.569  0.0311  0.5192  0.4845
  527MPD2     H 7827   2.847   2.204   1.394  0.2190 -0.8949  0.3459
  527MPD2    H1 7828   3.213   1.994   1.417  0.0125 -0.2810  2.1816
  527MPD2    H2 7829   3.110   2.259   1.728 -0.4975  0.5350 -0.6503
  527MPD2    H3 7830   3.255   2.095   1.620 -0.1026  1.1979  1.1398
  527MPD2     N 7831   2.982   2.022   1.273  0.0800 -0.9456 -0.0138
  527MPD2    H5 7832   2.893   2.050   1.235  1.1193  1.4974 -0.6398
  527MPD2    N1 7833   2.862   2.322   1.615  0.4951 -0.4729 -0.2226
  527MPD2    H7 7834   2.776   2.328   1.562  1.1304 -0.3228 -1.2348
  528TMC3    C1 7835   2.738   2.456   1.773  0.6166 -0.4129 -0.3719
  528TMC3    C2 7836   2.754   2.547   1.869 -0.1055  0.1547  0.1409
  528TMC3    C3 7837   2.635   2.587   1.942  0.1128 -1.1544 -0.0671
  528TMC3    C4 7838   2.619   2.386   1.740 -0.2731  0.4222 -1.0172
  528TMC3    C5 7839   2.516   2.409   1.829  0.1543 -0.1550  0.2419
  528TMC3    C6 7840   2.524   2.505   1.925  0.3458  0.5690 -1.1599
  528TMC3     C 7841   2.867   2.390   1.742  0.4865 -0.1423  0.4466
  528TMC3     O 7842   2.958   2.401   1.829 -0.3293 -0.6294 -0.6599
  528TMC3     H 7843   2.848   2.595   1.890 -1.2513  1.1613  2.9301
  528TMC3    H1 7844   2.607   2.300   1.675  1.5717 -0.6168  0.0053
  528TMC3    H2 7845   2.432   2.534   1.975 -0.5467 -0.1454 -2.3710
  528TMC3    C7 7846   2.389   2.339   1.821  0.2703  0.7199  0.1319
  528TMC3    C8 7847   2.660   2.642   2.073 -0.2388  0.2288  0.5299
  528TMC3    O1 7848   2.312   2.351   1.916 -0.1340  0.2527  0.1335
  528TMC3    O2 7849   2.754   2.723   2.079  0.4435 -0.2035 -0.1883
  529MPD2     C 7850   0.408   1.034   0.451 -0.6006 -0.0698  0.0017
  529MPD2    C1 7851   0.417   0.911   0.378  0.9412  0.1322 -0.0927
  529MPD2    C2 7852   0.358   0.908   0.253 -0.3735 -0.0688 -0.2581
  529MPD2    C3 7853   0.309   1.021   0.188  0.2213  0.3962 -0.2630
  529MPD2    C4 7854   0.323   1.141   0.255 -1.0035 -0.0754 -0.6198
  529MPD2    C5 7855   0.362   1.146   0.384 -0.0092 -0.0599  0.5792
  529MPD2     H 7856   0.334   0.809   0.216 -1.1720  0.5695 -1.4415
  529MPD2    H1 7857   0.315   1.230   0.194 -1.5087  0.1070 -0.2870
  529MPD2    H2 7858   0.447   1.049   0.551  1.8419  0.9255 -1.1032
  529MPD2    H3 7859   0.372   1.237   0.443 -1.7382  1.0672 -0.8865
  529MPD2     N 7860   0.271   1.031   0.049 -0.1318 -0.0786  0.0621
  529MPD2    H5 7861   0.259   1.126   0.014  0.0535 -0.2884 -0.5611
  529MPD2    N1 7862   0.469   0.798   0.437  0.2015 -0.4223 -0.1031
  529MPD2    H7 7863   0.476   0.714   0.380 -0.5091 -0.5204 -0.0388
  530TMC3    C1 7864   0.560   0.657   0.610  0.0665  0.0553 -0.1091
  530TMC3    C2 7865   0.622   0.649   0.735  0.4956  0.4646  0.7759
  530TMC3    C3 7866   0.633   0.528   0.790  0.3624  0.4976 -0.5934
  530TMC3    C4 7867   0.526   0.549   0.536 -0.2562  0.5861 -0.0870
  530TMC3    C5 7868   0.539   0.430   0.600 -0.0372 -0.2736  0.7250
  530TMC3    C6 7869   0.587   0.413   0.731 -0.1888 -0.0253 -1.0614
  530TMC3     C 7870   0.510   0.787   0.571  0.3054  0.3524  0.4784
  530TMC3     O 7871   0.516   0.862   0.674  0.2287  0.2539  0.6367
  530TMC3     H 7872   0.673   0.737   0.773 -1.2030  2.3186 -1.2008
  530TMC3    H1 7873   0.464   0.560   0.447  1.2129 -1.7656 -1.3817
  530TMC3    H2 7874   0.592   0.317   0.781  1.3449  1.6356  1.9267
  530TMC3    C7 7875   0.437   0.336   0.552  0.3458  0.4890  0.2644
  530TMC3    C8 7876   0.699   0.512   0.919 -0.4229  0.1271 -0.0533
  530TMC3    O1 7877   0.398   0.348   0.435  0.0746 -0.1576  0.4356
  530TMC3    O2 7878   0.771   0.415   0.921  0.4117 -0.9247 -0.6555
  531MPD2     C 7879   3.926   3.003  12.658  0.3508 -0.8761  0.0197
  531MPD2    C1 7880   3.912   3.095  12.756  0.5103 -0.1098 -0.9877
  531MPD2    C2 7881   3.785   3.139  12.785 -0.1923  0.5440 -0.4329
  531MPD2    C3 7882   3.682   3.113  12.697  1.1497  0.1763 -0.2781
  531MPD2    C4 7883   3.701   3.026  12.590  0.8040 -0.1445 -0.1714
  531MPD2    C5 7884   3.823   2.968  12.574  0.1039  0.2473 -0.3624
  531MPD2     H 7885   3.754   3.199  12.870  1.6116  1.6493 -0.5323
  531MPD2    H1 7886   3.617   2.997  12.527 -1.2658 -0.3338  2.6782
  531MPD2    H2 7887   4.021   2.954  12.641  0.2968 -0.1788 -2.2979
  531MPD2    H3 7888   3.836   2.893  12.497  0.4828  0.4978 -0.5398
  531MPD2     N 7889   3.556   3.175  12.718  0.0174  0.4879 -0.1530
  531MPD2    H5 7890   3.540   3.228  12.803  1.4909  2.1904 -0.9240
  531MPD2    N1 7891   4.019   3.132  12.844  0.4780 -0.5675 -0.2169
  531MPD2    H7 7892   4.107   3.083  12.836  1.1243  0.3507  1.3798
  532TMC3    C1 7893   4.130   3.277  13.001  0.4220  0.5234 -0.2691
  532TMC3    C2 7894   4.108   3.404  13.050 -0.1807 -0.8981  0.1659
  532TMC3    C3 7895   4.139   3.435  13.179 -0.2190  0.1483 -0.4627
  532TMC3    C4 7896   4.178   3.178  13.084 -0.2650  0.1505 -0.1168
  532TMC3    C5 7897   4.195   3.209  13.215 -0.2445 -0.5963  0.1147
  532TMC3    C6 7898   4.178   3.337  13.263  0.5743 -0.0869 -0.0539
  532TMC3     C 7899   4.014   3.243  12.924  0.6925  0.7332 -0.4232
  532TMC3     O 7900   3.929   3.327  12.941 -0.5134  0.2780 -0.3033
  532TMC3     H 7901   4.079   3.480  12.978  0.2592 -0.2409  0.6822
  532TMC3    H1 7902   4.193   3.080  13.040 -0.1181  2.2095 -4.5782
  532TMC3    H2 7903   4.183   3.359  13.369 -0.8396 -0.6311  0.1346
  532TMC3    C7 7904   4.248   3.107  13.302  0.4125 -0.7439 -0.6045
  532TMC3    C8 7905   4.033   3.521  13.234 -0.2252 -0.6112 -0.7462
  532TMC3    O1 7906   4.296   3.145  13.407 -0.2551  0.1850 -0.1410
  532TMC3    O2 7907   4.062   3.591  13.330  0.2392  0.1963 -0.4242
  533TMC3    C1 7908   4.445   0.047  14.410 -0.0966 -0.0721  0.8272
  533TMC3    C2 7909   4.566   0.107  14.440  0.3049  0.0502  0.0698
  533TMC3    C3 7910   4.555   0.242  14.473 -0.4621 -0.6010  0.4808
  533TMC3    C4 7911   4.323   0.108  14.426 -0.0676 -0.4494 -0.4273
  533TMC3    C5 7912   4.320   0.242  14.474 -0.3508  0.7591 -0.6645
  533TMC3    C6 7913   4.436   0.304  14.490  0.2250  0.0366  0.0157
  533TMC3     C 7914   4.433   4.631  14.449 -0.3799 -0.5124  0.6507
  533TMC3     O 7915   4.493   4.592  14.544  0.1921  0.2715 -0.1342
  533TMC3     H 7916   4.657   0.048  14.447  0.5947  0.3867 -0.8770
  533TMC3    H1 7917   4.232   0.061  14.392  0.5089 -2.1558  0.3703
  533TMC3    H2 7918   4.437   0.398  14.544 -1.2161 -0.9337  1.7121
  533TMC3    C7 7919   4.198   0.272  14.545  0.1559 -0.5094 -0.1469
  533TMC3    C8 7920   4.681   0.313  14.485  0.3732 -0.2798  0.5828
  533TMC3    O1 7921   4.103   0.200  14.533 -0.1871 -0.3451 -0.0603
  533TMC3    O2 7922   4.681   0.387  14.586  0.5398 -0.3778  0.4246
  534MPD2     C 7923   2.022   1.479   2.408  0.4019 -0.5458 -0.4218
  534MPD2    C1 7924   2.073   1.530   2.291 -0.6469 -0.3175 -0.1673
  534MPD2    C2 7925   2.052   1.449   2.181  0.3519 -0.3043  0.3227
  534MPD2    C3 7926   1.997   1.318   2.190 -0.3064 -0.7464  0.3614
  534MPD2    C4 7927   1.961   1.271   2.312  0.4202  0.0110  0.4003
  534MPD2    C5 7928   1.984   1.349   2.421 -0.3703 -0.4323  0.2364
  534MPD2     H 7929   2.090   1.484   2.086  0.0744 -0.0623  0.3011
  534MPD2    H1 7930   1.908   1.177   2.316 -0.0347  0.2052 -1.2071
  534MPD2    H2 7931   2.025   1.534   2.502  1.3034 -0.2841 -0.6051
  534MPD2    H3 7932   1.935   1.325   2.515  0.1393 -1.9369  0.1061
  534MPD2     N 7933   1.970   1.235   2.077  0.9301 -0.3754 -0.3011
  534MPD2    H5 7934   1.930   1.145   2.102  0.4853  0.4989  2.1954
  534MPD2    N1 7935   2.144   1.649   2.282  0.2128  0.4018 -0.1769
  534MPD2    H7 7936   2.171   1.680   2.190  1.2678  0.5417  0.1683
  535TMC3    C1 7937   1.967   1.161   1.851 -0.0712  0.0068 -0.1840
  535TMC3    C2 7938   1.882   1.068   1.897 -0.4680  0.0944 -0.8520
  535TMC3    C3 7939   1.857   0.969   1.803  0.3878 -0.5465 -0.0893
  535TMC3    C4 7940   2.045   1.151   1.734 -0.3165 -0.3923 -0.6932
  535TMC3    C5 7941   2.033   1.034   1.667  0.0571  0.2948 -0.1317
  535TMC3    C6 7942   1.926   0.955   1.688 -0.3667 -0.5090 -0.6362
  535TMC3     C 7943   2.008   1.263   1.949 -0.1589  0.4129  0.6914
  535TMC3     O 7944   2.079   1.355   1.906  0.3894  0.3981 -0.2085
  535TMC3     H 7945   1.829   1.080   1.991  1.8918 -2.6684  0.8426
  535TMC3    H1 7946   2.132   1.214   1.722 -0.5617 -0.2834 -1.8191
  535TMC3    H2 7947   1.908   0.878   1.614  0.2553 -0.2071 -1.1060
  535TMC3    C7 7948   2.061   1.033   1.526 -0.4840 -0.4744 -0.0885
  535TMC3    C8 7949   1.736   0.896   1.827 -0.2279  0.3297  0.0561
  535TMC3    O1 7950   2.086   0.924   1.477  0.0476 -0.5101  0.0997
  535TMC3    O2 7951   1.691   0.887   1.941 -0.0714  0.7927  0.6218
  536MPD2     C 7952   0.903   4.406  16.046  0.0419  0.6303 -0.7657
  536MPD2    C1 7953   0.769   4.387  16.075 -0.1185  0.0287  0.7921
  536MPD2    C2 7954   0.671   4.420  15.978  0.8838 -0.5627  0.0290
  536MPD2    C3 7955   0.707   4.477  15.853 -0.7993 -0.1460  0.0418
  536MPD2    C4 7956   0.841   4.514  15.842  0.3329 -0.5266 -0.4102
  536MPD2    C5 7957   0.936   4.478  15.934  0.2637 -0.3243  0.4681
  536MPD2     H 7958   0.568   4.392  15.998  0.3019  1.1190 -0.6420
  536MPD2    H1 7959   0.889   4.551  15.752 -0.0572 -2.6371 -1.5019
  536MPD2    H2 7960   0.985   4.367  16.105 -0.5058 -0.2847 -0.6184
  536MPD2    H3 7961   1.037   4.509  15.910  1.8547 -3.9721  2.4680
  536MPD2     N 7962   0.621   4.519  15.754  0.2678 -0.0955 -0.2265
  536MPD2    H5 7963   0.667   4.545  15.667  1.0629 -0.6091  0.0397
  536MPD2    N1 7964   0.744   4.314  16.193 -0.5076 -0.4533  0.6022
  536MPD2    H7 7965   0.822   4.279  16.248  0.5447  0.1045 -0.5335
  537TMC3    C1 7966   0.604   4.247  16.376  0.2631  0.9128  0.8548
  537TMC3    C2 7967   0.696   4.254  16.474  0.3304  0.6329 -0.2665
  537TMC3    C3 7968   0.679   4.202  16.600  0.6080  0.8476  0.2060
  537TMC3    C4 7969   0.493   4.168  16.399  0.5410 -0.3784  0.3790
  537TMC3    C5 7970   0.478   4.107  16.523  0.5164 -0.0274  0.5264
  537TMC3    C6 7971   0.563   4.129  16.628  0.0078 -0.2228  0.2316
  537TMC3     C 7972   0.616   4.296  16.241  0.4270  0.7903  0.0568
  537TMC3     O 7973   0.505   4.320  16.190  0.6051  0.2656  0.0201
  537TMC3     H 7974   0.792   4.303  16.460 -0.1052  0.8717 -2.3568
  537TMC3    H1 7975   0.421   4.156  16.319 -1.4961  0.9957  2.0077
  537TMC3    H2 7976   0.539   4.093  16.728 -0.9185 -2.5196 -0.8323
  537TMC3    C7 7977   0.345   4.055  16.544 -0.1364 -0.3522 -0.1134
  537TMC3    C8 7978   0.708   4.303  16.702  1.0758 -0.1943 -0.0361
  537TMC3    O1 7979   0.248   4.104  16.480  0.6100  0.3333 -0.5883
  537TMC3    O2 7980   0.771   4.264  16.798  0.1937  0.0552  0.1587
  538TMC3    C1 7981   2.518   2.512  10.955 -0.8534  0.5594  0.1465
  538TMC3    C2 7982   2.638   2.556  10.997  0.0687 -0.2357 -0.8079
  538TMC3    C3 7983   2.698   2.655  10.934 -0.6801 -0.1234 -0.1664
  538TMC3    C4 7984   2.468   2.563  10.842  0.0719 -0.8238  0.5193
  538TMC3    C5 7985   2.521   2.672  10.783  0.5829 -0.0754  0.1079
  538TMC3    C6 7986   2.646   2.715  10.823 -0.5928  0.2659 -0.2448
  538TMC3     C 7987   2.423   2.468  11.055 -0.2963  0.1947 -0.4476
  538TMC3     O 7988   2.306   2.509  11.043 -0.4749  0.2810 -0.3731
  538TMC3     H 7989   2.690   2.511  11.081 -0.0262 -0.8715 -1.0899
  538TMC3    H1 7990   2.368   2.534  10.813 -1.2289  2.2210  1.9802
  538TMC3    H2 7991   2.680   2.801  10.768 -1.0357  0.2111 -0.6039
  538TMC3    C7 7992   2.411   2.762  10.762  0.2705  0.0702 -0.6753
  538TMC3    C8 7993   2.822   2.704  10.978 -0.4027  0.1279 -0.5874
  538TMC3    O1 7994   2.314   2.727  10.694  0.1063  0.0562  0.1097
  538TMC3    O2 7995   2.857   2.685  11.096  0.2093 -0.0407 -0.5668
  539MPD2     C 7996   1.618   1.544  12.028 -0.7713  0.0631 -0.5024
  539MPD2    C1 7997   1.672   1.584  11.909 -0.6350 -0.2890 -0.4915
  539MPD2    C2 7998   1.682   1.720  11.874 -0.2553 -1.2095  0.2368
  539MPD2    C3 7999   1.637   1.809  11.964  0.6543  0.1914 -0.1435
  539MPD2    C4 8000   1.577   1.770  12.078 -0.0299 -0.5316  0.2317
  539MPD2    C5 8001   1.567   1.640  12.114 -0.3189  0.0134 -0.0167
  539MPD2     H 8002   1.743   1.745  11.787 -1.4658  5.5758  1.3770
  539MPD2    H1 8003   1.545   1.845  12.150  1.2827 -0.6688  0.9728
  539MPD2    H2 8004   1.616   1.442  12.064  0.9232  0.7718  1.5724
  539MPD2    H3 8005   1.523   1.612  12.208  1.7991 -2.9576  0.1061
  539MPD2     N 8006   1.635   1.946  11.942 -0.0038  0.1282  0.7130
  539MPD2    H5 8007   1.569   2.001  11.996 -2.1743  0.2352 -2.0085
  539MPD2    N1 8008   1.721   1.484  11.824 -0.2486 -0.2114  0.5926
  539MPD2    H7 8009   1.727   1.388  11.857  3.0021 -0.8551 -1.9335
  540TMC3    C1 8010   1.657   2.158  11.835 -0.1174 -0.2456 -0.2822
  540TMC3    C2 8011   1.711   2.226  11.734  0.2338 -0.2801 -0.3105
  540TMC3    C3 8012   1.669   2.354  11.722  0.4035 -0.5038  0.3451
  540TMC3    C4 8013   1.570   2.210  11.927  0.2109 -0.2976  0.3432
  540TMC3    C5 8014   1.545   2.342  11.925 -0.6766  0.1601 -0.5564
  540TMC3    C6 8015   1.587   2.419  11.820 -0.8938 -0.0880 -0.8041
  540TMC3     C 8016   1.698   2.017  11.847 -0.0835 -0.7693  0.6022
  540TMC3     O 8017   1.797   1.983  11.780  0.2832 -0.5283  0.1743
  540TMC3     H 8018   1.783   2.177  11.671 -1.8576 -1.8525 -1.4817
  540TMC3    H1 8019   1.529   2.162  12.015 -0.7732  0.2588  0.1917
  540TMC3    H2 8020   1.569   2.526  11.818  0.8512  0.2207  0.4929
  540TMC3    C7 8021   1.428   2.387  11.996  0.4350 -0.2403  0.0233
  540TMC3    C8 8022   1.729   2.435  11.615  0.5230  0.6943  0.6698
  540TMC3    O1 8023   1.356   2.294  12.027 -0.4957  0.9290  0.3218
  540TMC3    O2 8024   1.782   2.541  11.642  0.1472  0.2853  0.6205
  541MPD2     C 8025   0.204   3.989  13.415 -0.4075 -0.1450  0.0223
  541MPD2    C1 8026   0.182   3.910  13.304 -0.0686 -0.1508  0.1390
  541MPD2    C2 8027   0.261   3.934  13.189 -1.0187 -0.3636  0.1165
  541MPD2    C3 8028   0.350   4.047  13.189  0.1114  0.1526  0.2029
  541MPD2    C4 8029   0.353   4.133  13.299 -0.6081  0.4346  0.1161
  541MPD2    C5 8030   0.271   4.106  13.403 -0.2952  0.9859  0.3017
  541MPD2     H 8031   0.261   3.862  13.108  1.5927 -0.9056  0.5972
  541MPD2    H1 8032   0.420   4.218  13.309  2.0063 -1.5169 -0.6477
  541MPD2    H2 8033   0.157   3.970  13.510 -0.8602  1.6572  0.1573
  541MPD2    H3 8034   0.279   4.182  13.481  1.0663  2.0344 -0.8502
  541MPD2     N 8035   0.435   4.078  13.078  0.5181  0.4687 -0.5813
  541MPD2    H5 8036   0.490   4.164  13.075 -1.7971  1.9725 -0.3019
  541MPD2    N1 8037   0.092   3.806  13.318 -0.2422 -0.9185 -0.1328
  541MPD2    H7 8038   0.061   3.768  13.407 -3.9012  2.0508 -0.1655
  542TMC3    C1 8039   0.553   4.062  12.878  0.1385  0.5670 -0.1951
  542TMC3    C2 8040   0.619   3.965  12.808 -0.1347  0.5057  0.1392
  542TMC3    C3 8041   0.713   4.007  12.714  0.5781 -0.7791 -0.2103
  542TMC3    C4 8042   0.565   4.197  12.856 -0.1681  0.8975  0.0069
  542TMC3    C5 8043   0.650   4.233  12.753  0.5325  1.4323 -0.0996
  542TMC3    C6 8044   0.724   4.138  12.679  0.5396  0.1512 -0.1119
  542TMC3     C 8045   0.446   4.011  12.960 -0.1754  0.0225 -0.1006
  542TMC3     O 8046   0.399   3.900  12.937  0.4407 -0.2382  0.4596
  542TMC3     H 8047   0.597   3.860  12.824 -2.2839  0.7184 -1.4342
  542TMC3    H1 8048   0.509   4.271  12.911 -0.3633 -0.0716  1.1198
  542TMC3    H2 8049   0.808   4.173  12.620 -0.1707 -0.0475 -1.2188
  542TMC3    C7 8050   0.639   4.368  12.698  0.4692 -0.3882  0.1233
  542TMC3    C8 8051   0.789   3.907  12.634  0.1222 -0.3106  0.0177
  542TMC3    O1 8052   0.584   4.445  12.778 -0.2482  0.1335 -0.8758
  542TMC3    O2 8053   0.831   3.933  12.523  0.4471 -0.7073  0.1634
  543TMC3    C1 8054   3.917   4.716  17.204  0.0778  0.8983 -0.3998
  543TMC3    C2 8055   4.022   4.628  17.201  0.1827  0.2244 -0.1447
  543TMC3    C3 8056   4.052   4.573  17.323  0.1092 -0.2305  0.3208
  543TMC3    C4 8057   3.863   0.037  17.316 -0.1370  0.6268 -0.9269
  543TMC3    C5 8058   3.899   4.708  17.434 -0.1262 -0.9180 -0.1154
  543TMC3    C6 8059   3.994   4.611  17.445  0.1830 -0.2061 -0.7656
  543TMC3     C 8060   3.883   0.062  17.080  0.2460  0.2022 -0.6991
  543TMC3     O 8061   3.792   0.144  17.086 -0.4757 -0.5187 -0.3867
  543TMC3     H 8062   4.074   4.591  17.114 -0.1089 -0.0324 -0.2090
  543TMC3    H1 8063   3.780   0.106  17.313 -0.1116  0.8013  2.5158
  543TMC3    H2 8064   4.018   4.558  17.537  0.7057  0.3486 -0.5870
  543TMC3    C7 8065   3.891   0.073  17.545 -0.2485 -0.1148 -0.0216
  543TMC3    C8 8066   4.125   4.451  17.320 -0.4083  0.3388 -0.0058
  543TMC3    O1 8067   3.872   0.186  17.503 -0.0579 -0.0211 -0.0518
  543TMC3    O2 8068   4.205   4.433  17.228  0.7730  0.5144 -0.4097
  544MPD2     C 8069   4.191   3.971  17.479  0.3257  0.4895 -0.4454
  544MPD2    C1 8070   4.281   4.059  17.414  0.2171  0.4617  1.0568
  544MPD2    C2 8071   4.250   4.190  17.391  0.0553  0.7822  0.5396
  544MPD2    C3 8072   4.122   4.231  17.421 -0.0218  0.1108 -0.2763
  544MPD2    C4 8073   4.043   4.154  17.501 -0.1806  0.4990 -0.0218
  544MPD2    C5 8074   4.069   4.020  17.523  0.1442  0.1834 -0.0701
  544MPD2     H 8075   4.316   4.261  17.342  1.0873  0.4163  1.4069
  544MPD2    H1 8076   3.949   4.194  17.537 -1.2348 -1.3161 -0.7712
  544MPD2    H2 8077   4.227   3.875  17.514 -2.2943 -0.2148  0.2998
  544MPD2    H3 8078   4.004   3.954  17.578 -0.8937  0.3956 -1.0348
  544MPD2     N 8079   4.070   4.362  17.397 -0.1429  0.0683 -0.0569
  544MPD2    H5 8080   3.971   4.376  17.419  0.7167  2.7332  2.1073
  544MPD2    N1 8081   4.404   3.994  17.395 -0.4703  0.2797 -0.0893
  544MPD2    H7 8082   4.418   3.894  17.404  0.1604  0.5079  1.4266
  545TMC3    C1 8083   4.606   3.958  17.280 -0.1410  0.0875  0.1193
  545TMC3    C2 8084   4.704   4.014  17.200  0.4155 -0.3388 -0.2614
  545TMC3    C3 8085   0.061   3.921  17.141  0.6317 -0.0449 -0.1659
  545TMC3    C4 8086   4.588   3.825  17.299 -0.2017  0.0217  1.4475
  545TMC3    C5 8087   4.675   3.740  17.233 -0.3739  0.3712  0.1977
  545TMC3    C6 8088   0.042   3.784  17.149  0.2375  1.0278  0.5146
  545TMC3     C 8089   4.492   4.050  17.303 -0.8665  0.1621 -0.0062
  545TMC3     O 8090   4.491   4.153  17.235 -0.7014 -0.0943  0.3989
  545TMC3     H 8091   0.003   4.119  17.207 -1.1226 -0.1161  1.7963
  545TMC3    H1 8092   4.509   3.781  17.359  1.3284 -3.9988  0.5433
  545TMC3    H2 8093   0.116   3.727  17.095 -0.1152 -1.3183  2.4995
  545TMC3    C7 8094   4.618   3.618  17.186 -0.1352  0.2947 -0.4882
  545TMC3    C8 8095   0.193   3.959  17.094  0.6233 -0.5198  0.6251
  545TMC3    O1 8096   4.504   3.619  17.152 -0.3417 -0.6127 -0.4882
  545TMC3    O2 8097   0.288   3.896  17.133  0.6465 -0.6265 -0.1138
  546MPD2     C 8098   1.055   4.637  17.362  0.2853 -0.3308  0.9238
  546MPD2    C1 8099   0.993   4.691  17.254 -0.4383  0.7856 -0.1609
  546MPD2    C2 8100   1.037   0.086  17.203  0.1317 -0.3345 -0.0045
  546MPD2    C3 8101   1.141   0.148  17.255 -0.3754  0.5967  0.6357
  546MPD2    C4 8102   1.211   0.085  17.355  0.0867 -0.1186 -0.1447
  546MPD2    C5 8103   1.166   4.694  17.407 -0.0878  0.1514 -0.2397
  546MPD2     H 8104   0.987   0.137  17.121  0.1321  0.6996  0.6344
  546MPD2    H1 8105   1.304   0.126  17.393 -0.7014  0.6337  0.9729
  546MPD2    H2 8106   1.016   4.548  17.409  0.5733 -1.5384 -1.1098
  546MPD2    H3 8107   1.213   4.640  17.489  1.3691  1.1575 -0.4278
  546MPD2     N 8108   1.191   0.269  17.205 -0.0674 -0.2319  0.3521
  546MPD2    H5 8109   1.265   0.311  17.260  0.3195 -0.3648 -0.0645
  546MPD2    N1 8110   0.873   4.631  17.214  0.2532  0.6871  0.8476
  546MPD2    H7 8111   0.861   4.537  17.249 -3.5396  0.1374 -2.0043
  547TMC3    C1 8112   0.644   4.638  17.130 -0.7243 -0.4335  0.3918
  547TMC3    C2 8113   0.552   4.705  17.045  0.5370 -0.3347  0.0219
  547TMC3    C3 8114   0.419   4.658  17.063  0.2461  0.2143  0.2903
  547TMC3    C4 8115   0.618   4.532  17.210  0.0350 -0.1322 -0.3396
  547TMC3    C5 8116   0.481   4.503  17.220  0.2215  0.1403 -0.3520
  547TMC3    C6 8117   0.382   4.558  17.153 -0.1393  0.7577  0.1677
  547TMC3     C 8118   0.775   4.705  17.142 -0.3073  0.3920 -0.3403
  547TMC3     O 8119   0.772   0.099  17.125 -0.1959  0.0817  0.4872
  547TMC3     H 8120   0.573   0.070  16.991  1.1214 -1.9777 -2.5171
  547TMC3    H1 8121   0.692   4.477  17.267 -0.8869  0.2673  1.2516
  547TMC3    H2 8122   0.282   4.518  17.155  0.9095 -1.7265  2.5824
  547TMC3    C7 8123   0.444   4.410  17.322  0.1519 -0.2522 -0.6030
  547TMC3    C8 8124   0.318   0.017  17.000 -1.1549  0.1688  0.3394
  547TMC3    O1 8125   0.366   4.449  17.409 -0.0582  0.2045 -0.0421
  547TMC3    O2 8126   0.332   0.059  16.884  0.0634 -0.3816  0.1313
  548MPD2     C 8127   0.974   0.655  12.016  0.3202 -0.4645 -0.1915
  548MPD2    C1 8128   0.922   0.559  12.099 -0.4250  0.2405 -0.2657
  548MPD2    C2 8129   1.010   0.465  12.155  0.0232 -0.3013 -0.4368
  548MPD2    C3 8130   1.144   0.471  12.134 -0.2163 -0.8070 -0.0391
  548MPD2    C4 8131   1.194   0.573  12.048 -0.0374 -0.2995  0.0891
  548MPD2    C5 8132   1.108   0.665  12.002 -0.0320 -0.9875  0.0625
  548MPD2     H 8133   0.967   0.402  12.232 -0.4996  0.6427  0.0414
  548MPD2    H1 8134   1.297   0.583  12.017  0.7854 -0.8064  2.6059
  548MPD2    H2 8135   0.913   0.732  11.970  1.2083 -0.1524 -0.8363
  548MPD2    H3 8136   1.141   0.745  11.937 -0.8490 -0.9962 -0.3658
  548MPD2     N 8137   1.227   0.378  12.198 -0.0485  0.3627  0.7938
  548MPD2    H5 8138   1.183   0.295  12.237 -1.8835  0.7743 -0.3939
  548MPD2    N1 8139   0.783   0.570  12.126  0.1881  0.4842 -0.3366
  548MPD2    H7 8140   0.745   0.660  12.098 -1.4656 -0.4225 -0.9840
  549TMC3    C1 8141   0.587   0.529  12.259 -0.4017  0.0629  0.0402
  549TMC3    C2 8142   0.530   0.643  12.210  0.6721  0.1085 -0.6285
  549TMC3    C3 8143   0.414   0.677  12.278 -0.0710  0.8595  0.1128
  549TMC3    C4 8144   0.539   0.455  12.368 -0.3797  0.4620 -0.5330
  549TMC3    C5 8145   0.427   0.504  12.430 -0.0648 -0.4883 -0.1551
  549TMC3    C6 8146   0.367   0.621  12.396 -0.0065  0.2127 -0.3077
  549TMC3     C 8147   0.711   0.475  12.200 -0.5953  0.2778  0.7072
  549TMC3     O 8148   0.739   0.359  12.233 -0.6628 -0.5631 -0.6575
  549TMC3     H 8149   0.553   0.693  12.117 -0.9822  1.0015 -0.5568
  549TMC3    H1 8150   0.588   0.361  12.389 -1.0995  0.2909  0.3381
  549TMC3    H2 8151   0.280   0.661  12.447  0.1862  0.8377 -0.4680
  549TMC3    C7 8152   0.386   0.442  12.551 -0.2093 -0.5116  0.0028
  549TMC3    C8 8153   0.362   0.806  12.235  0.3775 -0.9379 -0.0579
  549TMC3    O1 8154   0.271   0.464  12.592  0.2343  0.4736 -0.4215
  549TMC3    O2 8155   0.352   0.830  12.115  0.2086  0.1395  0.3939
  550TMC3    C1 8156   3.828   2.869  11.433  0.3190  0.5033  0.2567
  550TMC3    C2 8157   3.775   2.861  11.564  0.2984  0.8567  0.0928
  550TMC3    C3 8158   3.863   2.909  11.661 -0.8108 -0.6513  0.4349
  550TMC3    C4 8159   3.961   2.903  11.408  0.0675  0.4509  0.0535
  550TMC3    C5 8160   4.041   2.960  11.504  0.1799  0.4701  0.3754
  550TMC3    C6 8161   3.993   2.956  11.635  0.0509 -0.5867  0.4116
  550TMC3     C 8162   3.734   2.915  11.332 -0.2608  0.4058  0.3031
  550TMC3     O 8163   3.619   2.874  11.332 -0.0957  0.5176  0.1338
  550TMC3     H 8164   3.670   2.844  11.583  0.1776  0.4731 -0.9043
  550TMC3    H1 8165   3.995   2.899  11.306  1.0564 -1.6696  0.4760
  550TMC3    H2 8166   4.049   3.002  11.715 -1.6385 -1.3974  2.0743
  550TMC3    C7 8167   4.121   3.071  11.460  0.3776  0.2852  0.9855
  550TMC3    C8 8168   3.805   2.949  11.789  0.3314 -0.1005 -0.2542
  550TMC3    O1 8169   4.064   3.138  11.377  0.2272  0.2989 -0.0812
  550TMC3    O2 8170   3.712   2.878  11.822  0.2659  0.2569 -0.1224
  551TMC3    C1 8171   1.910   1.144  13.561  0.1767 -0.1922  0.4342
  551TMC3    C2 8172   1.990   1.154  13.450 -0.4453  0.1690  0.2357
  551TMC3    C3 8173   2.093   1.238  13.452  0.2709 -0.0814 -0.5569
  551TMC3    C4 8174   1.947   1.204  13.684  0.2221 -1.3076 -0.1518
  551TMC3    C5 8175   2.038   1.301  13.673 -0.3707 -0.3944  0.5943
  551TMC3    C6 8176   2.121   1.308  13.563 -0.5516 -0.1442 -0.2438
  551TMC3     C 8177   1.816   1.036  13.552 -0.0244 -0.6952 -0.5797
  551TMC3     O 8178   1.835   0.952  13.467 -0.1479 -0.6065  0.3770
  551TMC3     H 8179   1.979   1.103  13.355  1.1765  1.5732 -0.6932
  551TMC3    H1 8180   1.883   1.195  13.772  0.1575  2.5890  0.1767
  551TMC3    H2 8181   2.211   1.368  13.553 -0.1989 -0.5835  0.3607
  551TMC3    C7 8182   2.100   1.353  13.789  0.3474  0.8255  0.5371
  551TMC3    C8 8183   2.182   1.250  13.343  0.5886  0.3946 -0.5826
  551TMC3    O1 8184   2.096   1.286  13.889  0.0444 -0.0452 -0.0335
  551TMC3    O2 8185   2.216   1.139  13.294 -0.4751  0.0782  0.9532
  552MPD2     C 8186   3.813   3.132  13.356  0.2741 -0.0581 -0.3409
  552MPD2    C1 8187   3.872   3.042  13.441  0.5782  0.4661 -0.3652
  552MPD2    C2 8188   3.901   3.081  13.567  0.3685  0.7206  0.1424
  552MPD2    C3 8189   3.890   3.213  13.602  0.1481  0.5686  0.2957
  552MPD2    C4 8190   3.832   3.301  13.516 -0.2737 -0.3219  0.6687
  552MPD2    C5 8191   3.790   3.262  13.391  0.7372 -0.3379 -0.4945
  552MPD2     H 8192   3.944   3.009  13.635 -0.2216 -0.8955 -1.2050
  552MPD2    H1 8193   3.795   3.394  13.559 -1.5488  0.0211 -1.1553
  552MPD2    H2 8194   3.780   3.094  13.260  1.4375 -0.4374 -0.5918
  552MPD2    H3 8195   3.727   3.324  13.329  0.2155  1.0336  1.3805
  552MPD2     N 8196   3.933   3.267  13.727 -0.0209 -0.5794  0.3053
  552MPD2    H5 8197   3.903   3.363  13.744  0.8305 -0.1846 -0.4054
  552MPD2    N1 8198   3.888   2.901  13.422  0.2630 -0.0507 -0.0528
  552MPD2    H7 8199   3.914   2.841  13.499  0.8196  1.6717  1.0906
  553TMC3    C1 8200   3.883   2.694  13.331  0.1398  0.7185  0.1037
  553TMC3    C2 8201   3.816   2.612  13.246 -0.3321 -0.0347  0.2832
  553TMC3    C3 8202   3.786   2.476  13.273 -0.4943  0.2175 -0.0564
  553TMC3    C4 8203   3.946   2.648  13.446 -0.2135  0.8115  0.0723
  553TMC3    C5 8204   3.919   2.517  13.466  0.4533 -0.1482  0.1258
  553TMC3    C6 8205   3.834   2.434  13.392  0.7168  0.5259 -0.4652
  553TMC3     C 8206   3.855   2.829  13.312  0.1552 -0.4116 -0.1332
  553TMC3     O 8207   3.811   2.859  13.201  1.3674  0.1528 -0.6115
  553TMC3     H 8208   3.776   2.649  13.152 -1.1043  0.4834  0.8181
  553TMC3    H1 8209   4.023   2.709  13.493 -2.0595  2.0830  1.4309
  553TMC3    H2 8210   3.838   2.332  13.428  1.3094  0.9915  0.7999
  553TMC3    C7 8211   4.022   2.453  13.540  0.2818 -0.3549 -0.0680
  553TMC3    C8 8212   3.802   2.383  13.169  0.7957 -0.0855 -0.2963
  553TMC3    O1 8213   4.055   2.342  13.504  0.0779  0.5601 -0.0462
  553TMC3    O2 8214   3.858   2.431  13.072  0.0829  0.1672 -0.3876
  554TMC3    C1 8215   0.946   2.226  11.911  0.8093  0.3277 -1.1012
  554TMC3    C2 8216   0.857   2.177  11.819  0.0862  0.1663  0.2521
  554TMC3    C3 8217   0.870   2.193  11.684  0.5224  1.0991  0.8420
  554TMC3    C4 8218   1.059   2.295  11.870  0.2702  0.5495 -0.0965
  554TMC3    C5 8219   1.067   2.305  11.733 -0.6783 -0.0996  0.0572
  554TMC3    C6 8220   0.982   2.254  11.639 -0.6050 -0.3474  0.4829
  554TMC3     C 8221   0.948   2.179  12.051  0.1858 -0.1059 -0.1201
  554TMC3     O 8222   1.022   2.232  12.135 -0.1669  0.3745 -0.4335
  554TMC3     H 8223   0.771   2.124  11.858 -0.2904  1.4326  1.1562
  554TMC3    H1 8224   1.139   2.338  11.930  0.3840 -0.6178  0.6063
  554TMC3    H2 8225   1.004   2.261  11.533 -0.9761 -1.2068  0.3434
  554TMC3    C7 8226   1.177   2.373  11.671  0.1415  0.2210 -0.7775
  554TMC3    C8 8227   0.804   2.101  11.595 -0.4258 -0.0437  0.3079
  554TMC3    O1 8228   1.210   2.324  11.561  0.4141  0.6197  0.0078
  554TMC3    O2 8229   0.746   2.011  11.648 -0.1804  0.4677 -0.8576
  555TMC3    C1 8230   4.659   1.411  14.954 -0.5353  0.3526 -0.0968
  555TMC3    C2 8231   4.636   1.524  15.029 -0.6210 -0.8741  0.7824
  555TMC3    C3 8232   4.610   1.502  15.162  0.1490 -0.5830 -0.0788
  555TMC3    C4 8233   4.666   1.282  15.010  0.0526  0.1017  0.7982
  555TMC3    C5 8234   4.632   1.269  15.144 -0.1593 -0.0067 -0.2193
  555TMC3    C6 8235   4.611   1.380  15.224 -0.5393  0.0892 -0.0298
  555TMC3     C 8236   4.724   1.416  14.817  0.6360  0.1604 -0.2143
  555TMC3     O 8237   0.078   1.330  14.793  0.3664  0.1286  1.1085
  555TMC3     H 8238   4.645   1.618  14.976 -1.1913  0.0332  2.2959
  555TMC3    H1 8239   4.679   1.194  14.949 -0.8076 -0.2376  1.1021
  555TMC3    H2 8240   4.582   1.374  15.328 -2.5947  0.6119 -0.5603
  555TMC3    C7 8241   4.613   1.134  15.208 -0.3018  0.0252 -1.4147
  555TMC3    C8 8242   4.616   1.624  15.236  0.6045 -0.5025 -0.4640
  555TMC3    O1 8243   4.544   1.124  15.310 -0.0553  0.6996  0.0453
  555TMC3    O2 8244   4.611   1.733  15.177 -0.0345 -0.0868 -0.2607
  556MPD2     C 8245   3.147   3.843  10.715 -0.6002 -0.2013 -0.8036
  556MPD2    C1 8246   3.171   3.731  10.783  0.8349 -0.6477  0.0953
  556MPD2    C2 8247   3.187   3.617  10.713 -0.0644 -0.4612 -0.0413
  556MPD2    C3 8248   3.173   3.613  10.574  0.2465 -0.5467  0.0271
  556MPD2    C4 8249   3.148   3.729  10.504 -0.7623 -0.6875  0.3470
  556MPD2    C5 8250   3.118   3.833  10.580 -0.4235  0.9921  0.7975
  556MPD2     H 8251   3.200   3.524  10.766 -2.5930 -1.3107 -0.8739
  556MPD2    H1 8252   3.131   3.723  10.397 -0.4658 -1.0428  0.3196
  556MPD2    H2 8253   3.122   3.937  10.764 -1.9416 -1.2082  0.4699
  556MPD2    H3 8254   3.073   3.922  10.536 -2.2333  0.5258  1.7296
  556MPD2     N 8255   3.190   3.487  10.511 -0.3576  0.6605 -0.7386
  556MPD2    H5 8256   3.209   3.404  10.566 -2.2936  0.6017 -0.1549
  556MPD2    N1 8257   3.186   3.720  10.926  0.1899 -0.8426  0.5399
  556MPD2    H7 8258   3.187   3.628  10.969 -1.4559 -0.9158  0.4202
  557TMC3    C1 8259   3.215   3.321  10.345  0.4555 -0.2072  0.1678
  557TMC3    C2 8260   3.293   3.286  10.240  0.1624  0.2930  1.0600
  557TMC3    C3 8261   3.322   3.155  10.213  0.3317 -0.1119 -0.2497
  557TMC3    C4 8262   3.170   3.231  10.428  0.1698 -1.0751 -0.1015
  557TMC3    C5 8263   3.195   3.100  10.413 -0.0479  0.2702 -0.2905
  557TMC3    C6 8264   3.282   3.067  10.310 -0.2634  0.0871  0.1307
  557TMC3     C 8265   3.193   3.463  10.376  0.2976  0.4641 -0.5635
  557TMC3     O 8266   3.178   3.535  10.280  0.1436  0.1453 -0.1213
  557TMC3     H 8267   3.350   3.368  10.200  0.9558 -1.7350 -1.9691
  557TMC3    H1 8268   3.102   3.265  10.505 -0.5083 -1.2682 -0.6083
  557TMC3    H2 8269   3.302   2.960  10.303 -0.4839 -0.1442  3.0913
  557TMC3    C7 8270   3.187   3.008  10.527 -0.1829 -0.2855 -0.1813
  557TMC3    C8 8271   3.426   3.127  10.111  0.3375  0.5370 -0.6814
  557TMC3    O1 8272   3.193   2.888  10.511 -0.2922  0.2238  0.2072
  557TMC3    O2 8273   3.452   3.219  10.032  0.5941  0.3224  0.1204
  558TMC3    C1 8274   0.744   1.443  10.035  0.7911  0.4987 -0.0685
  558TMC3    C2 8275   0.665   1.339  10.073  0.0920 -0.5114  0.2003
  558TMC3    C3 8276   0.615   1.267   9.969  0.9274 -0.1520 -0.0392
  558TMC3    C4 8277   0.769   1.470   9.906 -0.1811 -0.8070 -0.4864
  558TMC3    C5 8278   0.722   1.390   9.808 -0.3664  0.3304 -0.3951
  558TMC3    C6 8279   0.635   1.294   9.838  0.2213  0.0926  0.0885
  558TMC3     C 8280   0.863   1.477  10.112 -0.1674 -0.6842  0.7841
  558TMC3     O 8281   0.969   1.512  10.060  0.1747 -0.0058 -0.3095
  558TMC3     H 8282   0.640   1.322  10.178 -1.1434  1.2213  0.1806
  558TMC3    H1 8283   0.821   1.559   9.871 -0.4348 -0.9635 -1.2575
  558TMC3    H2 8284   0.602   1.216   9.770 -0.1127 -0.4893  0.9139
  558TMC3    C7 8285   0.781   1.403   9.683  0.2889 -0.1215  0.3771
  558TMC3    C8 8286   0.563   1.136   9.996  0.0087  0.2850  0.0067
  558TMC3    O1 8287   0.892   1.457   9.681  0.5286  0.5452  0.1075
  558TMC3    O2 8288   0.472   1.083   9.925 -0.6150  0.4601  0.0091
  559MPD2     C 8289   0.808   1.909  10.457 -0.4072 -0.6010 -0.3190
  559MPD2    C1 8290   0.734   1.817  10.530  0.4923 -0.4512 -0.5219
  559MPD2    C2 8291   0.800   1.737  10.622 -0.1980 -0.0635 -0.1035
  559MPD2    C3 8292   0.931   1.760  10.651  0.1672  0.4870  0.4937
  559MPD2    C4 8293   1.003   1.840  10.572  0.1202  0.1102  0.4264
  559MPD2    C5 8294   0.938   1.917  10.485  0.0119 -0.3202  0.1130
  559MPD2     H 8295   0.737   1.662  10.670  0.1602 -1.6337 -2.0819
  559MPD2    H1 8296   1.111   1.854  10.576 -0.0240  1.5125 -0.5656
  559MPD2    H2 8297   0.764   1.973  10.381 -1.8845  0.5735  1.5320
  559MPD2    H3 8298   0.998   1.978  10.418  0.2229  1.5097  1.9634
  559MPD2     N 8299   0.992   1.674  10.744  0.2759  0.1370  0.2919
  559MPD2    H5 8300   0.934   1.604  10.788 -0.1075  1.3027  1.6391
  559MPD2    N1 8301   0.595   1.818  10.512  0.2833  0.7802  0.6238
  559MPD2    H7 8302   0.558   1.898  10.461 -0.1124  0.6858  0.7650
  560TMC3    C1 8303   1.141   1.623  10.922 -0.7570  0.3967 -0.1219
  560TMC3    C2 8304   1.120   1.486  10.909 -0.1478  0.3712 -0.1960
  560TMC3    C3 8305   1.178   1.408  11.001  0.3445  0.0235  0.2095
  560TMC3    C4 8306   1.222   1.674  11.016 -0.4671 -0.4228 -0.2955
  560TMC3    C5 8307   1.269   1.584  11.108  0.0229 -0.6170  0.1412
  560TMC3    C6 8308   1.237   1.453  11.113  0.5876 -0.5842 -0.0450
  560TMC3     C 8309   1.108   1.710  10.813 -0.3060 -0.0093 -0.4782
  560TMC3     O 8310   1.185   1.799  10.788  0.8406 -0.2741 -0.2398
  560TMC3     H 8311   1.083   1.450  10.814  1.2874 -2.0216  0.1463
  560TMC3    H1 8312   1.245   1.780  11.023  2.4568 -0.9762 -1.4570
  560TMC3    H2 8313   1.295   1.392  11.181 -0.2731 -1.5936 -0.2114
  560TMC3    C7 8314   1.344   1.631  11.227  0.3377  0.3185 -0.4943
  560TMC3    C8 8315   1.149   1.267  10.984 -0.0221  0.0838 -0.0878
  560TMC3    O1 8316   1.329   1.573  11.335 -0.1109  0.8837  0.0262
  560TMC3    O2 8317   1.091   1.237  10.880 -0.0878 -1.1788 -0.0291
  561TMC3    C1 8318   3.469   0.791  11.331 -0.1657 -0.1102  0.4287
  561TMC3    C2 8319   3.374   0.717  11.396 -0.1830  0.3170 -0.4658
  561TMC3    C3 8320   3.296   0.779  11.485  0.0082 -0.6234  0.1682
  561TMC3    C4 8321   3.477   0.929  11.351  0.1760  0.0892 -0.6341
  561TMC3    C5 8322   3.392   0.986  11.443  0.1461 -0.1649  0.0062
  561TMC3    C6 8323   3.294   0.918  11.505 -0.2705  0.1737  0.0568
  561TMC3     C 8324   3.559   0.723  11.242 -0.2743 -0.1741 -0.3273
  561TMC3     O 8325   3.521   0.611  11.202 -0.2623  0.3689  0.3240
  561TMC3     H 8326   3.368   0.612  11.367  0.8611  0.3175 -0.6915
  561TMC3    H1 8327   3.537   0.989  11.283 -0.9766  1.6363 -0.2845
  561TMC3    H2 8328   3.217   0.965  11.566 -1.5943 -3.0089  0.8663
  561TMC3    C7 8329   3.400   1.139  11.482 -0.0710 -0.1806  0.7974
  561TMC3    C8 8330   3.197   0.691  11.545  1.0047  0.5634  0.4817
  561TMC3    O1 8331   3.302   1.176  11.542 -0.3841 -0.0758 -0.2464
  561TMC3    O2 8332   3.190   0.574  11.509 -0.0765 -0.1130  0.2473
  562TMC3    C1 8333   4.197   2.066  15.866  0.0570  0.9174  0.7571
  562TMC3    C2 8334   4.199   2.178  15.791 -0.5864  0.0289  0.0266
  562TMC3    C3 8335   4.217   2.151  15.658  0.0788  0.3919  0.1784
  562TMC3    C4 8336   4.215   1.940  15.823  1.4264 -0.1139  0.0430
  562TMC3    C5 8337   4.243   1.925  15.691  0.1110 -0.3641 -0.4554
  562TMC3    C6 8338   4.241   2.027  15.604  0.1299 -0.0137  0.1854
  562TMC3     C 8339   4.144   2.079  15.997  0.3776  1.5582  0.1286
  562TMC3     O 8340   4.099   1.974  16.042 -0.0022 -0.2920  0.0004
  562TMC3     H 8341   4.190   2.283  15.815  1.5095  0.0953  0.5115
  562TMC3    H1 8342   4.209   1.855  15.890  0.4062  0.2654  0.4374
  562TMC3    H2 8343   4.251   2.012  15.497 -0.4602 -1.4373  0.3267
  562TMC3    C7 8344   4.291   1.795  15.649  0.9971  0.3513 -0.1016
  562TMC3    C8 8345   4.151   2.246  15.568  0.2604 -0.0965  0.4460
  562TMC3    O1 8346   4.289   1.772  15.529  0.3418 -0.3477 -0.8419
  562TMC3    O2 8347   4.088   2.336  15.623 -0.0499  0.8570 -0.4167
  563MPD2     C 8348   1.886   3.251  15.504  0.1136  0.1316 -0.2461
  563MPD2    C1 8349   1.874   3.189  15.621  0.5802 -0.5800 -0.4214
  563MPD2    C2 8350   1.986   3.138  15.685 -0.1444 -0.3523  0.2502
  563MPD2    C3 8351   2.111   3.142  15.616 -0.1253  0.0314 -0.5709
  563MPD2    C4 8352   2.116   3.205  15.498  0.0146  0.4606  0.7043
  563MPD2    C5 8353   2.005   3.264  15.445 -0.3214  0.6806  0.1040
  563MPD2     H 8354   1.983   3.084  15.779  4.1229  0.6552  0.9873
  563MPD2    H1 8355   2.211   3.238  15.457  0.4821 -0.3850  1.0800
  563MPD2    H2 8356   1.812   3.312  15.453  1.6245  0.9073 -1.5315
  563MPD2    H3 8357   2.017   3.330  15.360  2.1128  1.3024  0.9263
  563MPD2     N 8358   2.223   3.086  15.687  0.2775 -0.1114 -0.3994
  563MPD2    H5 8359   2.205   3.046  15.779  0.4201  1.3970  0.3002
  563MPD2    N1 8360   1.757   3.194  15.703 -0.1440  0.4984  0.1086
  563MPD2    H7 8361   1.764   3.156  15.797 -1.0543  0.9466  0.3597
  564TMC3    C1 8362   1.555   3.233  15.792 -0.6528 -0.1915 -0.2705
  564TMC3    C2 8363   1.441   3.165  15.762  0.4190  0.7311  0.2324
  564TMC3    C3 8364   1.386   3.086  15.854  0.3366 -0.3690  0.1490
  564TMC3    C4 8365   1.615   3.211  15.916 -0.1849  0.1901  0.3741
  564TMC3    C5 8366   1.559   3.123  16.004  0.0550  0.6174 -0.7833
  564TMC3    C6 8367   1.440   3.066  15.977 -0.0485 -0.5969 -0.4008
  564TMC3     C 8368   1.641   3.258  15.684 -0.0267 -0.0771  0.1615
  564TMC3     O 8369   1.612   3.323  15.587  0.2532  0.0446 -0.3654
  564TMC3     H 8370   1.403   3.195  15.665  0.4969  0.7584  0.2099
  564TMC3    H1 8371   1.707   3.267  15.932  0.0860 -0.0742 -0.2740
  564TMC3    H2 8372   1.393   3.012  16.058  1.7189 -1.1510  0.2471
  564TMC3    C7 8373   1.659   3.051  16.078  0.5656 -0.2956  0.0427
  564TMC3    C8 8374   1.324   2.967  15.803  0.2672 -0.0849  0.5359
  564TMC3    O1 8375   1.755   3.117  16.115 -0.3746 -0.7620 -0.4485
  564TMC3    O2 8376   1.292   2.880  15.884  0.4107 -0.1624 -0.4559
  565TMC3    C1 8377   2.365   3.729  10.470 -0.1829  0.3660 -0.7251
  565TMC3    C2 8378   2.450   3.701  10.576 -0.0415  0.5464  0.1680
  565TMC3    C3 8379   2.424   3.594  10.658  0.0193 -0.1048  0.1124
  565TMC3    C4 8380   2.250   3.654  10.450 -0.2085  0.1340 -0.3352
  565TMC3    C5 8381   2.222   3.556  10.538  0.0055 -0.4418 -0.4297
  565TMC3    C6 8382   2.307   3.524  10.641 -1.1497  0.0486  0.2202
  565TMC3     C 8383   2.416   3.800  10.351 -0.0740 -0.3718 -0.3216
  565TMC3     O 8384   2.355   3.774  10.248 -0.5722 -0.5698 -0.1532
  565TMC3     H 8385   2.540   3.755  10.603  0.0969 -0.7989  2.4316
  565TMC3    H1 8386   2.175   3.699  10.386  0.0840  1.3231  0.1570
  565TMC3    H2 8387   2.283   3.432  10.693  1.1609  0.0415  1.2589
  565TMC3    C7 8388   2.093   3.488  10.539 -0.0056 -0.9321  0.5930
  565TMC3    C8 8389   2.467   3.593  10.797 -0.6697 -0.7686 -0.2713
  565TMC3    O1 8390   2.085   3.380  10.596 -0.3205  0.4225 -0.3550
  565TMC3    O2 8391   2.429   3.503  10.865 -0.2035  0.0653  0.0295
  566MPD2     C 8392   3.887   0.922  14.107  0.4774  0.4784 -0.6457
  566MPD2    C1 8393   3.936   1.013  14.015  0.1561 -0.5432 -0.5471
  566MPD2    C2 8394   3.851   1.090  13.935 -0.0615 -0.1308  0.5257
  566MPD2    C3 8395   3.712   1.067  13.942 -0.4738 -0.3558  0.5011
  566MPD2    C4 8396   3.666   0.979  14.045 -0.3564  0.3284 -0.7389
  566MPD2    C5 8397   3.752   0.905  14.121  0.1856  0.6911 -0.0127
  566MPD2     H 8398   3.890   1.170  13.874 -1.8876 -0.4845 -1.0723
  566MPD2    H1 8399   3.560   0.979  14.065 -0.2100  3.2260  0.0642
  566MPD2    H2 8400   3.950   0.863  14.173 -1.0087  0.2429  0.5569
  566MPD2    H3 8401   3.719   0.834  14.196  1.7153 -1.2761 -1.1981
  566MPD2     N 8402   3.614   1.140  13.872 -0.2773  0.0828 -0.4501
  566MPD2    H5 8403   3.522   1.155  13.911 -0.3844  0.2945 -0.7791
  566MPD2    N1 8404   4.076   1.035  14.012 -0.4551 -0.8953  0.5380
  566MPD2    H7 8405   4.136   0.982  14.074 -0.1844 -1.9031 -0.5808
  567TMC3    C1 8406   4.283   1.141  13.969  0.6692  0.4849  0.1381
  567TMC3    C2 8407   4.370   1.184  13.872  0.7714 -0.4131 -0.1976
  567TMC3    C3 8408   4.497   1.227  13.895 -0.1000  0.6656  0.0393
  567TMC3    C4 8409   4.314   1.168  14.102 -0.3588 -0.0321  0.6808
  567TMC3    C5 8410   4.446   1.204  14.119  0.2790 -0.1104  0.3587
  567TMC3    C6 8411   4.542   1.225  14.023  0.1569 -0.6466 -0.9651
  567TMC3     C 8412   4.148   1.113  13.925 -1.1382  0.1361  0.1601
  567TMC3     O 8413   4.115   1.166  13.824  0.4927 -0.3174 -0.5005
  567TMC3     H 8414   4.338   1.161  13.770 -0.4111  0.1529  0.0508
  567TMC3    H1 8415   4.252   1.145  14.187  0.6393 -0.4751  1.2918
  567TMC3    H2 8416   4.635   1.268  14.059 -1.2960  1.0605  0.7363
  567TMC3    C7 8417   4.492   1.231  14.249  0.3218  0.7268 -0.2713
  567TMC3    C8 8418   4.541   1.335  13.812 -0.3122 -0.0297  0.1875
  567TMC3    O1 8419   4.599   1.177  14.281  0.5491  0.1547 -0.7937
  567TMC3    O2 8420   4.459   1.378  13.730  0.7503  0.0426  0.1430
  568MPD2     C 8421   1.513   1.544  15.938 -0.4839 -0.0176 -0.3103
  568MPD2    C1 8422   1.480   1.608  16.050 -0.1297  0.2240  0.3123
  568MPD2    C2 8423   1.411   1.723  16.036 -0.0321 -1.3892 -0.2327
  568MPD2    C3 8424   1.359   1.766  15.909 -0.0558  0.0495  0.0436
  568MPD2    C4 8425   1.405   1.706  15.799 -0.0181  0.6204  0.5964
  568MPD2    C5 8426   1.479   1.591  15.811  0.4478  0.2709 -0.3690
  568MPD2     H 8427   1.376   1.784  16.119 -0.6713  1.7427 -2.8129
  568MPD2    H1 8428   1.382   1.727  15.695 -2.8504  0.3073  1.1433
  568MPD2    H2 8429   1.576   1.455  15.939 -0.9145 -0.3100  1.9842
  568MPD2    H3 8430   1.515   1.540  15.722 -0.6143 -0.5811 -0.3038
  568MPD2     N 8431   1.274   1.875  15.902 -0.8326  1.6064  0.1427
  568MPD2    H5 8432   1.249   1.925  15.987  0.6562  1.7278  0.5059
  568MPD2    N1 8433   1.541   1.568  16.173  0.3244 -0.3354 -0.5162
  568MPD2    H7 8434   1.606   1.491  16.162 -0.0246 -0.6880 -0.0940
  569TMC3    C1 8435   1.145   2.055  15.808 -0.3865 -0.7160  0.4714
  569TMC3    C2 8436   1.103   2.099  15.932  0.1576 -0.2183  0.4336
  569TMC3    C3 8437   1.093   2.234  15.955 -0.0908 -0.3244  0.3780
  569TMC3    C4 8438   1.162   2.144  15.705  0.2297  0.2931  0.1039
  569TMC3    C5 8439   1.142   2.272  15.731 -0.0239  0.1670 -0.0795
  569TMC3    C6 8440   1.104   2.325  15.856  0.3312 -0.3180 -0.1559
  569TMC3     C 8441   1.209   1.930  15.790  0.1209 -0.2040  0.4104
  569TMC3     O 8442   1.199   1.876  15.679  0.5156  0.1122 -0.3386
  569TMC3     H 8443   1.096   2.028  16.013  1.3375  0.2991  0.9990
  569TMC3    H1 8444   1.219   2.109  15.620 -1.4475  1.6449 -1.5911
  569TMC3    H2 8445   1.066   2.424  15.877  1.3543 -0.2005  1.1293
  569TMC3    C7 8446   1.174   2.364  15.621  0.4414  0.1858 -0.1082
  569TMC3    C8 8447   1.053   2.283  16.088 -0.1824 -0.2258 -0.1094
  569TMC3    O1 8448   1.166   2.325  15.506  0.3495 -0.1450 -0.2306
  569TMC3    O2 8449   0.976   2.209  16.143  0.1845  0.1719 -0.0067
  570TMC3    C1 8450   1.013   0.787  16.268 -0.7707 -0.5852 -0.1677
  570TMC3    C2 8451   1.076   0.815  16.147  0.1521  0.2561  0.5876
  570TMC3    C3 8452   1.160   0.925  16.145 -0.1661  0.2439  0.1682
  570TMC3    C4 8453   1.018   0.872  16.379  0.1885 -0.0640  0.5044
  570TMC3    C5 8454   1.105   0.975  16.371 -0.4714  0.8183  0.4340
  570TMC3    C6 8455   1.176   1.003  16.259 -0.2621 -0.0045 -0.3983
  570TMC3     C 8456   0.930   0.666  16.277 -0.5397  1.1484  0.3273
  570TMC3     O 8457   0.915   0.611  16.169 -0.1920  0.2260 -0.1600
  570TMC3     H 8458   1.074   0.738  16.071 -4.1642 -0.0217  1.0017
  570TMC3    H1 8459   0.978   0.849  16.477 -0.0736  0.0440  0.4223
  570TMC3    H2 8460   1.261   1.070  16.256 -1.4207  1.3835 -2.2363
  570TMC3    C7 8461   1.108   1.075  16.476 -0.3482  0.1350 -0.4423
  570TMC3    C8 8462   1.268   0.930  16.053  0.7235  0.1593  0.2232
  570TMC3    O1 8463   1.066   1.044  16.585 -0.6751  0.2230 -0.3446
  570TMC3    O2 8464   1.308   1.044  16.028 -0.1031 -0.3764  0.5645
  571MPD2     C 8465   3.230   1.738  17.331  0.5857 -0.3555 -0.0124
  571MPD2    C1 8466   3.239   1.669  17.451  0.8663  0.1172  0.4929
  571MPD2    C2 8467   3.216   1.739  17.571 -0.4214 -1.2554  0.3306
  571MPD2    C3 8468   3.195   1.878  17.567  0.5908 -0.4101 -0.6916
  571MPD2    C4 8469   3.202   1.946  17.449  0.7768  0.4638  0.0577
  571MPD2    C5 8470   3.227   1.872  17.334 -0.0275 -0.1138  0.4629
  571MPD2     H 8471   3.225   1.699  17.671  3.1047 -2.4975 -0.4695
  571MPD2    H1 8472   3.192   2.053  17.444 -4.0291 -0.0686 -1.5994
  571MPD2    H2 8473   3.261   1.682  17.243 -1.9040 -1.4501 -0.1895
  571MPD2    H3 8474   3.253   1.926  17.243  1.0273 -0.4169  0.5863
  571MPD2     N 8475   3.172   1.952  17.683  0.4365 -0.5470 -0.1178
  571MPD2    H5 8476   3.142   2.047  17.667  0.6262 -0.3638  0.6130
  571MPD2    N1 8477   3.255   1.531  17.453 -0.2993 -0.3710  0.9531
  571MPD2    H7 8478   3.258   1.491  17.359  1.1582  0.9801  0.4188
  572TMC3    C1 8479   3.143   2.015   0.204 -0.2998 -0.8716  0.6326
  572TMC3    C2 8480   3.126   1.962   0.327 -0.2241 -0.0591  0.4705
  572TMC3    C3 8481   3.137   2.052   0.428  0.0846 -0.2357 -0.3214
  572TMC3    C4 8482   3.152   2.148   0.173  0.7706 -0.8068  0.1495
  572TMC3    C5 8483   3.164   2.227   0.280 -0.4700 -0.7125 -0.6641
  572TMC3    C6 8484   3.156   2.186   0.409 -0.0208 -0.6997  0.0507
  572TMC3     C 8485   3.186   1.917   0.108 -0.4922  0.5168  0.8636
  572TMC3     O 8486   3.208   1.809   0.161  0.2351  0.9297  0.2791
  572TMC3     H 8487   3.099   1.858   0.344  1.9512 -0.6636  0.2187
  572TMC3    H1 8488   3.165   2.182   0.071 -3.1342  0.2607  0.0086
  572TMC3    H2 8489   3.158   2.258   0.490 -0.7716  0.5048 -1.0114
  572TMC3    C7 8490   3.208   2.359   0.239 -0.7045  0.1825 -0.1163
  572TMC3    C8 8491   3.176   1.983   0.554  1.1004 -0.5888  0.1785
  572TMC3    O1 8492   3.163   2.409   0.137 -0.1800  0.2265  0.4419
  572TMC3    O2 8493   3.177   1.861   0.552  0.2240  0.7058 -0.1324
  573MPD2     C 8494   0.656   2.783   0.280  0.3551 -0.8263  0.4995
  573MPD2    C1 8495   0.629   2.897   0.202 -0.0764 -0.0294  0.0388
  573MPD2    C2 8496   0.592   2.886   0.070 -0.1496  0.3669  0.1387
  573MPD2    C3 8497   0.570   2.767   0.014  0.3527  0.0861  0.1319
  573MPD2    C4 8498   0.591   2.656   0.091 -0.4217  0.2964  0.7708
  573MPD2    C5 8499   0.631   2.663   0.219 -0.4069  0.0684 -0.3015
  573MPD2     H 8500   0.578   2.974   0.009 -3.0383  0.3106  0.7448
  573MPD2    H1 8501   0.570   2.562   0.041  1.0023  0.0502  0.6228
  573MPD2    H2 8502   0.701   2.777   0.379  0.3324  1.0439  0.6216
  573MPD2    H3 8503   0.653   2.571   0.273 -1.3805  0.3364  0.5372
  573MPD2     N 8504   0.508   2.750  17.591  0.5287 -0.3839  0.6679
  573MPD2    H5 8505   0.488   2.653  17.567  0.6977 -0.9677  2.9117
  573MPD2    N1 8506   0.633   3.020   0.272  0.3758 -0.5165  0.1173
  573MPD2    H7 8507   0.670   3.018   0.366  0.9423 -0.8135 -0.1114
  574TMC3    C1 8508   0.383   2.804  17.396 -0.4678  0.0387 -0.3930
  574TMC3    C2 8509   0.289   2.885  17.341  0.8676 -0.1927 -0.6144
  574TMC3    C3 8510   0.240   2.841  17.221 -0.3711 -0.6662 -0.3065
  574TMC3    C4 8511   0.436   2.689  17.342  0.2712  0.1372  0.9297
  574TMC3    C5 8512   0.379   2.647  17.229  0.8806  0.4789  0.8492
  574TMC3    C6 8513   0.284   2.726  17.161  0.0785 -0.4545  0.5735
  574TMC3     C 8514   0.451   2.854  17.516  0.9676 -0.2222 -0.1924
  574TMC3     O 8515   0.426   2.969  17.552  0.1563  0.4055 -0.0502
  574TMC3     H 8516   0.243   2.965  17.397  1.8210 -0.7771  1.0212
  574TMC3    H1 8517   0.520   2.641  17.390 -0.0032 -0.2754  0.9927
  574TMC3    H2 8518   0.231   2.674  17.082 -1.6246  1.0448  0.7518
  574TMC3    C7 8519   0.413   2.519  17.174 -0.8133  0.2806  0.6307
  574TMC3    C8 8520   0.132   2.915  17.148  1.2131  0.0880  0.6976
  574TMC3    O1 8521   0.395   2.504  17.054 -0.2909 -0.3677  0.2267
  574TMC3    O2 8522   0.068   2.861  17.060  0.2603 -0.0272 -0.5028
  575TMC3    C1 8523   2.394   3.626  11.732  0.5573 -0.8283 -0.0954
  575TMC3    C2 8524   2.376   3.488  11.735  0.0241  0.3457  0.4663
  575TMC3    C3 8525   2.438   3.418  11.637  0.0490 -0.0753  0.3744
  575TMC3    C4 8526   2.483   3.685  11.648 -0.6579 -0.6824 -0.1079
  575TMC3    C5 8527   2.525   3.613  11.542  0.2823  0.5176  0.4575
  575TMC3    C6 8528   2.506   3.480  11.532  0.3352 -0.2550 -0.3533
  575TMC3     C 8529   2.374   3.712  11.846 -0.0597 -0.3724  0.6261
  575TMC3     O 8530   2.449   3.802  11.877  0.2980 -0.0829 -0.0176
  575TMC3     H 8531   2.311   3.431  11.801 -1.5830  0.2058 -1.2163
  575TMC3    H1 8532   2.496   3.791  11.662  2.7075 -1.1956  0.6587
  575TMC3    H2 8533   2.558   3.417  11.462  2.3874  2.1210 -0.9724
  575TMC3    C7 8534   2.583   3.687  11.438 -0.9479 -0.2208  0.3741
  575TMC3    C8 8535   2.414   3.270  11.618  0.2209  0.2298  0.0797
  575TMC3    O1 8536   2.628   3.799  11.461  0.1156  0.2004 -0.5276
  575TMC3    O2 8537   2.379   3.231  11.508  0.2669 -0.1436  0.2978
  576MPD2     C 8538   2.507   0.673  12.847 -0.1817 -0.5324 -0.3186
  576MPD2    C1 8539   2.454   0.774  12.770 -0.7169 -0.7651  0.1719
  576MPD2    C2 8540   2.352   0.856  12.814  0.4711  0.1757 -0.5322
  576MPD2    C3 8541   2.306   0.847  12.937 -0.9243 -0.0153 -0.3629
  576MPD2    C4 8542   2.355   0.748  13.019 -0.3442 -0.4528  0.2851
  576MPD2    C5 8543   2.446   0.657  12.973 -0.8891  0.1803 -0.3241
  576MPD2     H 8544   2.316   0.943  12.760 -0.6830  0.2133  0.2817
  576MPD2    H1 8545   2.313   0.733  13.117 -1.1560  0.9494  0.1532
  576MPD2    H2 8546   2.586   0.607  12.813 -1.6236 -1.1782 -2.4160
  576MPD2    H3 8547   2.481   0.578  13.038 -1.6246 -0.5264 -0.7870
  576MPD2     N 8548   2.207   0.943  12.972  0.1772 -0.7640  0.5448
  576MPD2    H5 8549   2.185   1.020  12.909 -0.1417 -0.5869  0.8679
  576MPD2    N1 8550   2.494   0.803  12.636  0.5167  0.3303  0.3474
  576MPD2    H7 8551   2.451   0.881  12.588 -0.4690  0.2944  1.1704
  577TMC3    C1 8552   2.604   0.790  12.430 -0.3224 -0.7677 -0.0028
  577TMC3    C2 8553   2.678   0.727  12.335 -0.3401 -0.4721  0.8850
  577TMC3    C3 8554   2.715   0.788  12.216 -0.7554 -0.3661  0.4458
  577TMC3    C4 8555   2.561   0.913  12.408  0.0027 -0.3214  0.3458
  577TMC3    C5 8556   2.604   0.969  12.296 -0.3608 -0.6129  0.2042
  577TMC3    C6 8557   2.670   0.916  12.191  1.0347 -0.8837  0.6706
  577TMC3     C 8558   2.584   0.736  12.558  0.4705  0.1689  0.1518
  577TMC3     O 8559   2.643   0.633  12.583 -0.2354 -0.3109  0.3344
  577TMC3     H 8560   2.715   0.627  12.359  2.8262  1.0031  2.1543
  577TMC3    H1 8561   2.503   0.977  12.473 -1.2090  0.0957 -1.1458
  577TMC3    H2 8562   2.695   0.964  12.097 -2.4730 -0.9980 -0.3388
  577TMC3    C7 8563   2.563   1.109  12.288 -0.0836 -0.4478  0.1910
  577TMC3    C8 8564   2.761   0.705  12.110  0.4487 -0.3760  0.3806
  577TMC3    O1 8565   2.556   1.177  12.392  0.2038 -0.4451 -0.1869
  577TMC3    O2 8566   2.744   0.582  12.124  0.0108  0.4455  1.1024
  578MPD2     C 8567   0.853   1.031   0.771  0.3020  0.2377  0.5848
  578MPD2    C1 8568   0.875   0.909   0.710  0.1158  0.1963 -0.4140
  578MPD2    C2 8569   0.924   0.801   0.786  0.6249  0.0687 -0.2023
  578MPD2    C3 8570   0.957   0.822   0.919  0.1505  0.7389  0.3663
  578MPD2    C4 8571   0.932   0.943   0.983  0.1047 -0.2809  0.0390
  578MPD2    C5 8572   0.875   1.048   0.904  0.1613 -0.4815 -0.3772
  578MPD2     H 8573   0.936   0.700   0.749  1.4481  0.1879 -0.2433
  578MPD2    H1 8574   0.934   0.952   1.091 -1.2042  1.1902 -0.0515
  578MPD2    H2 8575   0.827   1.113   0.706 -2.2963  0.7279  2.2735
  578MPD2    H3 8576   0.855   1.149   0.938  0.2639 -1.0001  1.2005
  578MPD2     N 8577   1.007   0.708   0.987  0.3966  0.0209 -0.1537
  578MPD2    H5 8578   1.025   0.627   0.928  0.8102  1.0502 -1.4313
  578MPD2    N1 8579   0.849   0.904   0.570  0.3274 -0.6234  0.4249
  578MPD2    H7 8580   0.811   0.991   0.534  0.8713 -0.2891  0.6583
  579TMC3    C1 8581   1.127   0.584   1.141 -0.4862  0.1492 -0.9390
  579TMC3    C2 8582   1.229   0.598   1.236 -0.7246  0.1147 -0.4050
  579TMC3    C3 8583   1.287   0.477   1.266 -0.5343 -0.2797 -0.1449
  579TMC3    C4 8584   1.094   0.467   1.077  0.1135  0.0421  0.1345
  579TMC3    C5 8585   1.168   0.357   1.108  0.1763  0.6247 -0.4755
  579TMC3    C6 8586   1.271   0.365   1.194  0.3604 -0.0579  0.2088
  579TMC3     C 8587   1.043   0.700   1.121 -0.1946 -0.5995  0.1093
  579TMC3     O 8588   1.052   0.789   1.210 -0.2030 -0.0303 -0.1991
  579TMC3     H 8589   1.240   0.681   1.304  4.0380  1.3843 -2.6625
  579TMC3    H1 8590   1.010   0.458   1.009  0.6532 -0.9579 -0.4029
  579TMC3    H2 8591   1.319   0.271   1.221 -0.8335 -0.3285  1.3725
  579TMC3    C7 8592   1.162   0.242   1.022 -0.4264  0.4319 -0.0065
  579TMC3    C8 8593   1.347   0.453   1.393 -0.3307 -0.0913  0.0236
  579TMC3    O1 8594   1.266   0.182   1.005 -0.3561  0.1189  0.0859
  579TMC3    O2 8595   1.314   0.358   1.460  0.2035 -0.7049 -0.0754
  580TMC3    C1 8596   1.078   0.169  11.779 -0.4809  0.4473 -0.1756
  580TMC3    C2 8597   1.210   0.214  11.780  0.0999 -0.0874  0.7090
  580TMC3    C3 8598   1.293   0.152  11.866  0.6298  0.0145  0.4532
  580TMC3    C4 8599   1.041   0.059  11.843 -0.3118 -0.3052  0.3457
  580TMC3    C5 8600   1.134   4.724  11.924 -0.0021 -0.4458 -0.3702
  580TMC3    C6 8601   1.255   0.045  11.940  0.4607 -0.2707 -0.1580
  580TMC3     C 8602   0.992   0.238  11.687 -0.1086 -0.6010 -0.2350
  580TMC3     O 8603   1.032   0.274  11.579  0.2902 -0.1324  0.0690
  580TMC3     H 8604   1.230   0.311  11.734  2.8387 -1.2188 -0.5084
  580TMC3    H1 8605   0.939   0.025  11.833 -0.7705  1.2126 -0.1586
  580TMC3    H2 8606   1.322   4.719  12.007 -0.3254 -0.6589  0.3306
  580TMC3    C7 8607   1.098   4.591  11.978  0.3315 -0.8191 -0.3888
  580TMC3    C8 8608   1.420   0.212  11.899 -0.0773  0.2780  0.6972
  580TMC3    O1 8609   1.024   4.518  11.914 -0.6708 -0.4812  0.1264
  580TMC3    O2 8610   1.478   0.170  11.996  0.2980  0.4025  0.0492
  581MPD2     C 8611   2.719   0.182  14.933  0.2282 -0.1250 -0.3454
  581MPD2    C1 8612   2.637   0.089  14.867  0.1925 -0.0583  0.5149
  581MPD2    C2 8613   2.517   0.126  14.812 -0.3057 -0.0054  0.2566
  581MPD2    C3 8614   2.484   0.261  14.816 -0.3155  0.0332  0.0610
  581MPD2    C4 8615   2.554   0.344  14.898  0.6274  0.6041 -0.4250
  581MPD2    C5 8616   2.670   0.308  14.960 -0.0754  0.5373  0.1010
  581MPD2     H 8617   2.458   0.048  14.765 -0.6461  0.1394  0.4371
  581MPD2    H1 8618   2.523   0.445  14.921  0.9939  0.1880  1.9252
  581MPD2    H2 8619   2.816   0.156  14.976 -0.7720 -2.0269  0.7393
  581MPD2    H3 8620   2.725   0.371  15.030  1.5451  0.7236 -1.3328
  581MPD2     N 8621   2.380   0.314  14.745 -0.2484 -0.3426 -0.7270
  581MPD2    H5 8622   2.359   0.411  14.766  0.4859  0.0384 -1.7346
  581MPD2    N1 8623   2.694   4.690  14.843  0.0029 -0.0082  0.8392
  581MPD2    H7 8624   2.794   4.682  14.851  0.4018  2.7995 -1.7289
  582TMC3    C1 8625   2.709   4.457  14.799 -0.4753 -0.0769 -0.0492
  582TMC3    C2 8626   2.819   4.457  14.876 -0.5931  0.0290 -0.7683
  582TMC3    C3 8627   2.849   4.349  14.946 -0.6173 -0.1848 -0.2790
  582TMC3    C4 8628   2.631   4.342  14.792 -0.1449 -0.2593  0.8950
  582TMC3    C5 8629   2.658   4.231  14.862 -0.9356  0.4986  0.4918
  582TMC3    C6 8630   2.778   4.229  14.930  0.6150 -1.1587  0.1209
  582TMC3     C 8631   2.624   4.574  14.798  0.4501 -0.2553  0.2096
  582TMC3     O 8632   2.502   4.550  14.804 -0.1093  0.4224  0.3650
  582TMC3     H 8633   2.878   4.547  14.887 -1.2349  0.4094 -0.4125
  582TMC3    H1 8634   2.546   4.342  14.725  1.3926 -1.9150 -1.0540
  582TMC3    H2 8635   2.800   4.148  14.999 -0.4296 -1.6660 -0.1312
  582TMC3    C7 8636   2.553   4.209  14.956 -0.4973  0.4001  1.1312
  582TMC3    C8 8637   2.895   4.378  15.081  0.1707 -0.3860  0.9272
  582TMC3    O1 8638   2.558   4.109  15.025  0.3755 -0.5484 -0.2221
  582TMC3    O2 8639   2.861   4.481  15.139  0.1067  0.6091 -0.3745
  583MPD2     C 8640   2.903   1.200  16.428  0.8361  0.0257  0.1919
  583MPD2    C1 8641   2.889   1.333  16.394  0.4691 -0.4673  0.0755
  583MPD2    C2 8642   2.838   1.423  16.487  0.4853 -0.2358 -0.4247
  583MPD2    C3 8643   2.795   1.381  16.615  0.5478 -0.5968  0.6565
  583MPD2    C4 8644   2.809   1.246  16.642 -1.0159 -0.9942  0.0625
  583MPD2    C5 8645   2.852   1.160  16.554  0.3625 -0.3758  0.4342
  583MPD2     H 8646   2.823   1.526  16.459 -1.2521 -0.7525 -1.3705
  583MPD2    H1 8647   2.772   1.210  16.737 -1.0867  0.0645  0.4270
  583MPD2    H2 8648   2.929   1.125  16.355  1.4387 -3.0606  3.5653
  583MPD2    H3 8649   2.871   1.056  16.578 -2.4624 -1.0052  0.0129
  583MPD2     N 8650   2.736   1.478  16.701 -0.0542  0.9516 -0.0808
  583MPD2    H5 8651   2.718   1.569  16.659 -2.7411  1.5084  2.3377
  583MPD2    N1 8652   2.916   1.388  16.266 -0.4089  0.0831  0.4443
  583MPD2    H7 8653   2.925   1.489  16.265  0.5208 -0.0149 -1.0920
  584TMC3    C1 8654   2.656   1.581  16.894 -0.6163 -0.9953 -0.3559
  584TMC3    C2 8655   2.644   1.699  16.827  0.6593 -0.1353 -0.2012
  584TMC3    C3 8656   2.644   1.814  16.890  0.0355 -0.6726  0.3787
  584TMC3    C4 8657   2.645   1.579  17.028 -0.0188  0.5019  0.9496
  584TMC3    C5 8658   2.609   1.699  17.088 -0.7978  0.4635  0.4013
  584TMC3    C6 8659   2.609   1.814  17.022 -0.0910  0.1312  0.4957
  584TMC3     C 8660   2.685   1.458  16.825 -0.7505 -0.0208  0.7493
  584TMC3     O 8661   2.683   1.357  16.897  0.1919  0.1649 -0.0318
  584TMC3     H 8662   2.666   1.706  16.721 -2.4203 -0.2335 -0.8627
  584TMC3    H1 8663   2.644   1.482  17.077  0.4651  0.1375  0.2423
  584TMC3    H2 8664   2.585   1.909  17.068  0.7523 -0.2083  1.6419
  584TMC3    C7 8665   2.585   1.688  17.236  0.5685  0.1095 -0.5823
  584TMC3    C8 8666   2.596   1.928  16.806 -0.2558  0.1948 -0.1237
  584TMC3    O1 8667   2.616   1.578  17.284  0.3889 -0.1985 -0.2881
  584TMC3    O2 8668   2.591   1.907  16.680 -0.2856 -0.9698  0.2226
  585MPD2     C 8669   1.715   0.731   0.660  0.7124  0.5498 -0.4022
  585MPD2    C1 8670   1.835   0.672   0.628  0.3492 -0.3151 -0.1622
  585MPD2    C2 8671   1.851   0.607   0.508 -0.0203  0.2833  0.6331
  585MPD2    C3 8672   1.755   0.619   0.408  0.4247  0.0250  0.0932
  585MPD2    C4 8673   1.634   0.666   0.447 -0.7203  0.2267 -0.4644
  585MPD2    C5 8674   1.615   0.731   0.567 -0.1701 -0.2393 -0.6001
  585MPD2     H 8675   1.953   0.585   0.477 -0.1043  2.9325 -1.4507
  585MPD2    H1 8676   1.552   0.657   0.378 -2.7065  0.9092  1.8190
  585MPD2    H2 8677   1.707   0.777   0.758  1.4524  0.8135 -0.4659
  585MPD2    H3 8678   1.520   0.778   0.588  0.1320  0.2078 -0.2366
  585MPD2     N 8679   1.781   0.555   0.281  0.5595  0.5523  0.3980
  585MPD2    H5 8680   1.712   0.573   0.209  0.8919  2.4166  0.5358
  585MPD2    N1 8681   1.945   0.694   0.719 -0.1543 -0.8139  0.0699
  585MPD2    H7 8682   1.936   0.771   0.785 -0.9040 -1.1552  0.3557
  586TMC3    C1 8683   1.891   0.445   0.103 -0.5487 -0.5159 -0.3526
  586TMC3    C2 8684   2.004   0.371   0.065 -0.1250  0.1892  0.2407
  586TMC3    C3 8685   2.033   0.358  17.634  0.9808  0.1001 -0.3503
  586TMC3    C4 8686   1.796   0.479   0.007 -0.2984  0.4709 -0.3696
  586TMC3    C5 8687   1.834   0.466  17.587  0.0510  0.7907  0.7182
  586TMC3    C6 8688   1.953   0.410  17.541  0.8492  0.3162 -0.6417
  586TMC3     C 8689   1.887   0.475   0.244  0.1243  0.1228 -0.2083
  586TMC3     O 8690   1.973   0.427   0.310  0.0299  0.6158 -0.2984
  586TMC3     H 8691   2.070   0.322   0.135  2.7025  0.2665 -2.3439
  586TMC3    H1 8692   1.706   0.534   0.032  0.8595  1.8482  0.7418
  586TMC3    H2 8693   1.964   0.381  17.437  0.0450 -0.3656 -0.5326
  586TMC3    C7 8694   1.729   0.479  17.493  0.2493 -0.3370  0.6372
  586TMC3    C8 8695   2.131   0.260  17.593  0.3143 -0.6937  0.1839
  586TMC3    O1 8696   1.615   0.473  17.535 -0.4777  0.3733 -0.0858
  586TMC3    O2 8697   2.131   0.151  17.651  0.1269 -0.0766 -0.4719
  587TMC3    C1 8698   4.622   3.755  16.413  0.1963  0.1338  0.3802
  587TMC3    C2 8699   4.600   3.884  16.360 -0.6125 -0.0662 -0.1177
  587TMC3    C3 8700   4.708   3.953  16.314  0.2942  0.1286  0.3061
  587TMC3    C4 8701   0.021   3.698  16.410  0.0288 -0.3957 -0.1004
  587TMC3    C5 8702   0.123   3.767  16.356  0.5831  0.4570 -0.3242
  587TMC3    C6 8703   0.104   3.894  16.297  0.0391  0.2160  0.8925
  587TMC3     C 8704   4.517   3.675  16.467 -0.0479  0.2759 -0.0501
  587TMC3     O 8705   4.542   3.560  16.496 -0.2456  0.5783 -0.2105
  587TMC3     H 8706   4.497   3.917  16.350 -0.8931 -0.8039  0.2936
  587TMC3    H1 8707   0.040   3.597  16.445 -2.9757 -0.4497  1.3873
  587TMC3    H2 8708   0.186   3.952  16.254 -1.6687  1.5737 -0.5326
  587TMC3    C7 8709   0.258   3.711  16.359 -0.1262  0.5293 -0.5243
  587TMC3    C8 8710   4.682   4.080  16.239 -0.0921 -0.1862  0.1013
  587TMC3    O1 8711   0.271   3.606  16.421 -0.6274 -0.0576 -0.2131
  587TMC3    O2 8712   0.048   4.118  16.168 -0.0183  0.9596  0.6535
  588TMC3    C1 8713   2.732   1.870  10.103 -0.6365  0.1726  0.9878
  588TMC3    C2 8714   2.714   1.735  10.106 -0.0309  0.1458  0.9020
  588TMC3    C3 8715   2.741   1.669  10.217  0.5376 -0.2575  0.1599
  588TMC3    C4 8716   2.751   1.934  10.220 -0.2612 -0.7302  0.2598
  588TMC3    C5 8717   2.768   1.855  10.334  0.0319 -0.1455  1.0119
  588TMC3    C6 8718   2.770   1.718  10.336  0.0606 -0.2052 -0.5254
  588TMC3     C 8719   2.724   1.952   9.985 -0.5202  0.0517  0.3800
  588TMC3     O 8720   2.654   1.916   9.889 -0.7641  0.1594  0.3865
  588TMC3     H 8721   2.697   1.682  10.013  0.6999  1.6082 -0.0692
  588TMC3    H1 8722   2.738   2.040  10.235 -1.6243 -0.7456 -0.8324
  588TMC3    H2 8723   2.787   1.659  10.425  0.8319  0.6588 -0.0970
  588TMC3    C7 8724   2.808   1.925  10.454 -0.2708  0.4080 -0.0402
  588TMC3    C8 8725   2.742   1.524  10.195 -0.0706  0.3296 -0.1747
  588TMC3    O1 8726   2.797   1.872  10.564  0.2022  0.4689 -0.4565
  588TMC3    O2 8727   2.694   1.485  10.089 -0.0840  0.5239  0.4066
  589TMC3    C1 8728   0.970   4.152   1.403  0.6022 -0.0286  0.0334
  589TMC3    C2 8729   1.038   4.111   1.516  0.1450 -0.4733  0.1349
  589TMC3    C3 8730   1.108   3.987   1.503 -0.6978 -0.0057  0.0922
  589TMC3    C4 8731   0.965   4.078   1.286  0.1555 -0.6892  0.5248
  589TMC3    C5 8732   1.018   3.952   1.293  0.1392  0.3026  0.4221
  589TMC3    C6 8733   1.099   3.903   1.395  0.4142 -0.3755  0.3160
  589TMC3     C 8734   0.897   4.279   1.397  0.0879  0.4372  0.0232
  589TMC3     O 8735   0.842   4.313   1.293 -0.3286  0.2808 -0.3042
  589TMC3     H 8736   1.058   4.171   1.604  0.7081 -0.9992  0.3699
  589TMC3    H1 8737   0.907   4.113   1.201  0.5783  1.6037  1.1787
  589TMC3    H2 8738   1.129   3.799   1.392  1.6550 -0.0226  0.3331
  589TMC3    C7 8739   1.047   3.887   1.168  0.0001  0.0731  0.4149
  589TMC3    C8 8740   1.200   3.956   1.604  0.1801 -0.3758 -0.0494
  589TMC3    O1 8741   1.133   3.802   1.165  0.0050 -0.3851 -0.0064
  589TMC3    O2 8742   1.195   4.004   1.718  0.1833 -0.4579 -0.5536
  590MPD2     C 8743   0.323   2.539  16.741  0.4204  0.5819  0.5393
  590MPD2    C1 8744   0.255   2.597  16.637  0.1587  0.0705 -0.2838
  590MPD2    C2 8745   0.332   2.636  16.529  0.6291 -0.4045  0.2761
  590MPD2    C3 8746   0.476   2.631  16.530 -0.4075 -0.5873  0.1807
  590MPD2    C4 8747   0.541   2.589  16.646  0.4280 -0.2581  0.2467
  590MPD2    C5 8748   0.462   2.535  16.745  0.2850 -0.3665 -0.1100
  590MPD2     H 8749   0.272   2.666  16.444  0.0971  0.4325  0.9538
  590MPD2    H1 8750   0.648   2.575  16.655  0.3807 -2.2620 -2.1643
  590MPD2    H2 8751   0.267   2.475  16.808 -0.9754  2.5000  1.2143
  590MPD2    H3 8752   0.520   2.489  16.824  0.8377 -1.8566 -1.3736
  590MPD2     N 8753   0.540   2.664  16.409  0.8528 -0.3675 -0.3788
  590MPD2    H5 8754   0.486   2.689  16.327  0.1699 -1.3305 -0.2330
  590MPD2    N1 8755   0.115   2.592  16.631 -0.2169  0.7306 -0.4832
  590MPD2    H7 8756   0.065   2.539  16.702  1.5375  1.3661  1.2229
  591TMC3    C1 8757   0.702   2.672  16.255 -0.1288  0.4347  0.1234
  591TMC3    C2 8758   0.793   2.602  16.180  0.3676  0.0117 -0.9519
  591TMC3    C3 8759   0.810   2.639  16.053  0.2490  0.3781  0.1514
  591TMC3    C4 8760   0.647   2.790  16.216 -0.7736  0.1012  0.3630
  591TMC3    C5 8761   0.674   2.824  16.084  0.0410 -0.6247  0.3736
  591TMC3    C6 8762   0.756   2.753  16.002  0.2459  0.4910 -0.4099
  591TMC3     C 8763   0.665   2.627  16.385  0.0785  0.1302 -0.5322
  591TMC3     O 8764   0.748   2.561  16.443 -0.2791 -0.0815  0.0774
  591TMC3     H 8765   0.837   2.510  16.218  0.9914  0.2588 -1.0746
  591TMC3    H1 8766   0.576   2.849  16.273 -0.8766  0.1671  0.1655
  591TMC3    H2 8767   0.750   2.768  15.894 -2.3510  0.9915 -0.2104
  591TMC3    C7 8768   0.594   2.928  16.019 -0.4464  0.2335 -0.1663
  591TMC3    C8 8769   0.810   2.526  15.967 -0.0364  0.2092  0.6298
  591TMC3    O1 8770   0.470   2.938  16.041 -0.0803 -0.7409  0.1765
  591TMC3    O2 8771   0.757   2.421  15.995  0.0092 -0.0000  0.8099
  592MPD2     C 8772   1.840   4.062  11.480  0.0320  0.6709  0.3365
  592MPD2    C1 8773   1.844   4.149  11.588  0.0774  0.0518  0.4089
  592MPD2    C2 8774   1.767   4.116  11.700  0.2050 -0.4605  0.6851
  592MPD2    C3 8775   1.684   4.006  11.698  0.5494 -0.0813  0.2378
  592MPD2    C4 8776   1.689   3.917  11.585  0.0211  0.0686  0.8487
  592MPD2    C5 8777   1.769   3.947  11.481  0.0757  0.4764 -0.9100
  592MPD2     H 8778   1.762   4.181  11.786  0.8674 -0.6696  0.8846
  592MPD2    H1 8779   1.612   3.842  11.573 -0.4863  0.8308 -0.7313
  592MPD2    H2 8780   1.900   4.091  11.395 -1.2119 -0.4100 -0.9267
  592MPD2    H3 8781   1.769   3.898  11.384  0.6772  0.4805 -0.9165
  592MPD2     N 8782   1.610   3.976  11.819 -0.1180  1.4249 -0.2634
  592MPD2    H5 8783   1.621   4.047  11.891 -1.8932  1.5814 -0.1673
  592MPD2    N1 8784   1.909   4.277  11.568 -0.1708 -0.3392 -0.5642
  592MPD2    H7 8785   1.944   4.286  11.473 -2.7758  0.7264 -1.4206
  593TMC3    C1 8786   1.930   4.515  11.590  0.1463 -0.5324  0.0886
  593TMC3    C2 8787   1.976   4.615  11.673 -0.4060 -0.0948 -0.2101
  593TMC3    C3 8788   2.036   0.001  11.617 -0.5412  0.2218  0.6364
  593TMC3    C4 8789   1.911   4.535  11.454 -0.1357  0.7020  0.5195
  593TMC3    C5 8790   1.972   4.649  11.404  0.2536 -0.0229 -0.4277
  593TMC3    C6 8791   2.032   0.017  11.481 -0.3762 -0.1862  0.0958
  593TMC3     C 8792   1.891   4.388  11.653 -0.2432 -0.1397 -0.3006
  593TMC3     O 8793   1.876   4.401  11.773  0.2410 -0.7441 -0.0831
  593TMC3     H 8794   1.976   4.601  11.780  1.3991  2.1959  0.1023
  593TMC3    H1 8795   1.871   4.461  11.385 -0.0847  2.0142 -0.9250
  593TMC3    H2 8796   2.101   0.087  11.437 -1.0053 -0.2008 -0.8919
  593TMC3    C7 8797   1.958   4.686  11.265  0.0987 -0.6473  0.1692
  593TMC3    C8 8798   2.106   0.087  11.709 -0.4175 -0.2410 -0.1487
  593TMC3    O1 8799   2.053   0.028  11.220  0.0037 -0.2683  0.1470
  593TMC3    O2 8800   2.117   0.035  11.822 -0.2678 -0.0937  0.2470
  594MPD2     C 8801   4.435   3.629  13.716  0.1857  0.6509 -0.6399
  594MPD2    C1 8802   4.443   3.579  13.840 -0.0850 -0.3856 -0.9097
  594MPD2    C2 8803   4.541   3.620  13.924 -0.6907 -0.4794  0.2987
  594MPD2    C3 8804   4.630   3.724  13.890  0.3595  0.1206  0.1891
  594MPD2    C4 8805   4.619   3.779  13.766  0.2855 -0.5457 -0.8012
  594MPD2    C5 8806   4.524   3.726  13.685 -0.2676  0.4042  0.3292
  594MPD2     H 8807   4.570   3.565  14.012  2.6956 -0.8354 -1.0226
  594MPD2    H1 8808   4.674   3.866  13.732  0.3892  0.5466  2.1696
  594MPD2    H2 8809   4.376   3.584  13.637  1.8563 -2.5879 -0.0362
  594MPD2    H3 8810   4.507   3.769  13.587  1.0699 -0.1129 -0.1302
  594MPD2     N 8811   4.724   3.775  13.986  0.1556 -0.3614  0.2793
  594MPD2    H5 8812   4.709   3.746  14.082 -0.3270  0.1229  0.3505
  594MPD2    N1 8813   4.351   3.480  13.879  0.0541 -0.3135 -0.2105
  594MPD2    H7 8814   4.280   3.449  13.814 -1.9533  1.1202  1.3018
  595TMC3    C1 8815   0.383   3.952  14.184 -0.3152 -0.5182 -0.1253
  595TMC3    C2 8816   0.310   3.908  14.072 -0.8943  0.1322  0.0741
  595TMC3    C3 8817   0.178   3.892  14.083 -0.4711  0.3232  0.1008
  595TMC3    C4 8818   0.318   3.995  14.296 -0.2552  0.2018  0.3876
  595TMC3    C5 8819   0.185   3.983  14.300 -0.5479 -0.3466 -0.0320
  595TMC3    C6 8820   0.109   3.921  14.203 -0.1964 -0.0800  0.4271
  595TMC3     C 8821   0.525   3.910  14.202  0.1665 -0.8138 -0.3131
  595TMC3     O 8822   0.573   3.972  14.295 -0.7121  0.2252  0.0066
  595TMC3     H 8823   0.360   3.870  13.984  1.0745  2.6516  0.1030
  595TMC3    H1 8824   0.371   4.043  14.378 -2.2873  1.2270  1.1054
  595TMC3    H2 8825   0.001   3.914  14.207 -0.2981  0.0721 -1.8773
  595TMC3    C7 8826   0.107   4.031  14.415 -0.0244  0.7992 -0.2566
  595TMC3    C8 8827   0.112   3.847  13.959 -0.5727  0.0041  0.2146
  595TMC3    O1 8828   4.714   4.065  14.409  0.3488 -0.0400 -0.2736
  595TMC3    O2 8829   0.161   3.874  13.851  0.0055  0.1439 -0.3439
  596MPD2     C 8830   3.604   1.372  16.495 -0.7719  0.0737  0.0489
  596MPD2    C1 8831   3.615   1.497  16.436  0.4759 -0.3672 -0.0891
  596MPD2    C2 8832   3.651   1.491  16.296  0.3918  0.2765  0.0530
  596MPD2    C3 8833   3.695   1.373  16.229 -0.0296  0.0391  0.1536
  596MPD2    C4 8834   3.682   1.255  16.302 -0.2867  0.2622 -0.2116
  596MPD2    C5 8835   3.637   1.251  16.431  0.5671  0.1952  0.3793
  596MPD2     H 8836   3.649   1.584  16.241  2.7882  1.8317  2.5578
  596MPD2    H1 8837   3.706   1.158  16.260 -1.5442 -0.8891  1.7632
  596MPD2    H2 8838   3.573   1.366  16.599  0.7069 -1.7558  0.4068
  596MPD2    H3 8839   3.612   1.154  16.472  0.8899 -0.9527 -2.1514
  596MPD2     N 8840   3.747   1.371  16.099  0.9808  0.5821  0.1083
  596MPD2    H5 8841   3.742   1.277  16.060  0.1743  0.6275  0.0892
  596MPD2    N1 8842   3.587   1.621  16.502 -0.0646 -0.5952  0.2871
  596MPD2    H7 8843   3.594   1.699  16.438 -1.8135  0.2741  1.1484
  597TMC3    C1 8844   3.483   1.767  16.648  0.3303  0.6786 -0.0646
  597TMC3    C2 8845   3.522   1.872  16.565 -0.0936 -0.2489 -0.4938
  597TMC3    C3 8846   3.472   1.997  16.598  0.0300 -0.2179 -0.2340
  597TMC3    C4 8847   3.395   1.789  16.754  0.0675 -0.2693 -0.1186
  597TMC3    C5 8848   3.349   1.912  16.776 -0.0405  0.1205  0.8298
  597TMC3    C6 8849   3.392   2.023  16.705 -0.1368  0.2300  0.2210
  597TMC3     C 8850   3.522   1.631  16.624 -0.7559  0.6092 -0.5612
  597TMC3     O 8851   3.468   1.545  16.687 -0.0758  0.2205  0.3127
  597TMC3     H 8852   3.588   1.869  16.479  0.9734 -3.2462  0.4534
  597TMC3    H1 8853   3.340   1.707  16.799 -0.9548  0.8385  0.6117
  597TMC3    H2 8854   3.361   2.122  16.738 -0.8508  0.1546 -0.2489
  597TMC3    C7 8855   3.261   1.930  16.882  0.6738  0.4173  0.0403
  597TMC3    C8 8856   3.522   2.115  16.520 -0.0289 -0.2641 -0.0440
  597TMC3    O1 8857   3.270   1.836  16.959 -0.3603 -0.0867 -0.2157
  597TMC3    O2 8858   3.629   2.094  16.459 -0.1679  0.0373 -0.0058
  598TMC3    C1 8859   1.649   2.823  15.508 -0.6460  0.6636  0.2613
  598TMC3    C2 8860   1.591   2.703  15.497  0.3122 -0.7054  0.5247
  598TMC3    C3 8861   1.561   2.661  15.372  0.2779  0.0106 -0.1727
  598TMC3    C4 8862   1.684   2.898  15.401  0.1937  0.0466  0.1406
  598TMC3    C5 8863   1.641   2.859  15.276  0.2769  0.1657 -0.3536
  598TMC3    C6 8864   1.578   2.736  15.260 -1.0129  0.1521  0.2056
  598TMC3     C 8865   1.730   2.823  15.628 -0.2903 -0.0529  0.4561
  598TMC3     O 8866   1.677   2.815  15.736 -0.1830 -0.1269 -0.2870
  598TMC3     H 8867   1.572   2.649  15.589  0.8398 -1.5075  0.1683
  598TMC3    H1 8868   1.731   2.994  15.419 -0.0679  0.1271  0.3988
  598TMC3    H2 8869   1.558   2.687  15.165  3.6693 -3.4504  1.0311
  598TMC3    C7 8870   1.714   2.902  15.159  0.4187 -0.7197 -0.7350
  598TMC3    C8 8871   1.515   2.522  15.357 -0.5077  0.3142  0.3474
  598TMC3    O1 8872   1.725   2.820  15.070  0.4820  0.1496 -0.1024
  598TMC3    O2 8873   1.480   2.484  15.243 -0.3102  0.1768 -0.2581
  599MPD2     C 8874   2.077   0.479  15.784  0.7187  0.4209  0.7566
  599MPD2    C1 8875   2.031   0.348  15.790  0.5498  0.3020  0.4092
  599MPD2    C2 8876   1.892   0.333  15.814 -0.0229  0.0033 -0.2264
  599MPD2    C3 8877   1.818   0.438  15.858  0.3133  0.5913 -0.3677
  599MPD2    C4 8878   1.866   0.561  15.856  0.2267  0.0657  0.4721
  599MPD2    C5 8879   1.994   0.578  15.815 -0.0844  0.0692 -0.0809
  599MPD2     H 8880   1.849   0.235  15.799 -0.7580  0.5195 -1.5336
  599MPD2    H1 8881   1.819   0.658  15.870  2.2038  0.9042  1.3457
  599MPD2    H2 8882   2.180   0.505  15.762  1.5808 -3.7570 -0.1569
  599MPD2    H3 8883   2.017   0.684  15.812 -4.0443  0.9262 -0.9531
  599MPD2     N 8884   1.695   0.420  15.930  0.6056  0.0940  0.4563
  599MPD2    H5 8885   1.657   0.506  15.968 -0.2978 -0.3690  0.5929
  599MPD2    N1 8886   2.122   0.242  15.760 -0.1108 -0.0131  0.3400
  599MPD2    H7 8887   2.220   0.265  15.749 -0.1461  0.5572  1.1827
  600TMC3    C1 8888   1.557   0.325  16.097  0.6122 -1.2780  0.1962
  600TMC3    C2 8889   1.535   0.217  16.182  0.1419  0.4816  0.7200
  600TMC3    C3 8890   1.448   0.225  16.287 -0.3229 -0.5948 -0.4206
  600TMC3    C4 8891   1.503   0.449  16.131  0.0111  1.0216  0.0329
  600TMC3    C5 8892   1.424   0.450  16.248 -0.2641  0.2939  0.0521
  600TMC3    C6 8893   1.383   0.339  16.316 -0.0930  0.9496 -0.5574
  600TMC3     C 8894   1.643   0.298  15.985 -0.0217  0.3593 -0.6061
  600TMC3     O 8895   1.689   0.187  15.972 -0.1261  0.6554  0.4359
  600TMC3     H 8896   1.580   0.122  16.155 -2.3886 -0.2843 -0.8168
  600TMC3    H1 8897   1.512   0.540  16.074  1.5514  1.6942  1.3441
  600TMC3    H2 8898   1.315   0.350  16.399 -0.7577  1.4469 -1.1729
  600TMC3    C7 8899   1.393   0.577  16.320  0.3183  0.6283 -0.5458
  600TMC3    C8 8900   1.374   0.106  16.320  0.1347  0.0630  0.4305
  600TMC3    O1 8901   1.312   0.578  16.413  0.2441 -0.3598 -0.4429
  600TMC3    O2 8902   1.433   4.725  16.331  0.1471  0.2851  0.0176
  601MPD2     C 8903   3.548   2.754   0.326  0.3290 -0.0374 -0.7174
  601MPD2    C1 8904   3.442   2.745   0.239 -0.1160 -0.4702  0.3977
  601MPD2    C2 8905   3.354   2.633   0.245  0.3257  0.3153 -0.3617
  601MPD2    C3 8906   3.398   2.517   0.312  1.0638  0.0892  0.7135
  601MPD2    C4 8907   3.509   2.522   0.389 -0.3571  0.0482  0.0417
  601MPD2    C5 8908   3.572   2.646   0.403 -0.1592 -0.0303 -0.1623
  601MPD2     H 8909   3.264   2.634   0.185  0.2278  0.7749 -0.2052
  601MPD2    H1 8910   3.545   2.433   0.439  1.0719 -0.2205 -1.4803
  601MPD2    H2 8911   3.614   2.840   0.324 -1.6925  1.5482  1.7262
  601MPD2    H3 8912   3.659   2.638   0.467  1.5988  4.7129 -2.0250
  601MPD2     N 8913   3.318   2.398   0.320  0.7054  0.1806 -0.1123
  601MPD2    H5 8914   3.361   2.330   0.382  3.7115 -0.4194 -2.8565
  601MPD2    N1 8915   3.416   2.853   0.153 -0.1549  0.4098 -0.3744
  601MPD2    H7 8916   3.324   2.867   0.113 -2.2773 -2.9125  3.4345
  602TMC3    C1 8917   3.454   3.059   0.050 -0.4168 -0.3882 -1.1238
  602TMC3    C2 8918   3.538   3.138  17.679 -0.0062  0.2261 -0.0485
  602TMC3    C3 8919   3.485   3.237  17.603 -0.1680 -0.2091  0.2568
  602TMC3    C4 8920   3.315   3.089   0.054  0.0345  0.5334 -0.5686
  602TMC3    C5 8921   3.270   3.199  17.689  0.7916  0.2621 -0.3212
  602TMC3    C6 8922   3.354   3.270  17.608 -0.1003  0.2482  0.6569
  602TMC3     C 8923   3.511   2.954   0.127 -0.2726 -0.7364 -0.0073
  602TMC3     O 8924   3.635   2.949   0.132 -0.1197 -0.2691 -0.1786
  602TMC3     H 8925   3.644   3.115  17.670  0.2970  1.3751  0.5168
  602TMC3    H1 8926   3.250   3.034   0.121  2.8283 -1.2192  0.7025
  602TMC3    H2 8927   3.308   3.338  17.538  1.7837 -0.5290 -1.3270
  602TMC3    C7 8928   3.135   3.245  17.700  0.0289  0.2657 -0.0559
  602TMC3    C8 8929   3.577   3.326  17.533 -0.0326  0.1209  0.2940
  602TMC3    O1 8930   3.042   3.165  17.700  0.2439 -0.4061  0.3786
  602TMC3    O2 8931   3.693   3.304  17.524  0.4209 -0.1084 -0.1908
  603TMC3    C1 8932   2.384   4.170  11.466 -0.5968 -0.3533 -1.0167
  603TMC3    C2 8933   2.430   4.142  11.590 -0.1417  0.3661  0.5512
  603TMC3    C3 8934   2.535   4.214  11.635 -0.3071 -0.2054  0.2417
  603TMC3    C4 8935   2.440   4.268  11.390  0.0618 -0.0781 -0.4968
  603TMC3    C5 8936   2.550   4.331  11.437 -0.3693  0.1652 -0.2597
  603TMC3    C6 8937   2.592   4.314  11.562  0.2035  0.0638 -0.0060
  603TMC3     C 8938   2.330   4.059  11.387  0.7043 -0.3663  0.4435
  603TMC3     O 8939   2.375   4.039  11.274 -0.3995 -0.2149 -0.3870
  603TMC3     H 8940   2.395   4.048  11.632 -2.0215  0.1101 -1.5319
  603TMC3    H1 8941   2.398   4.302  11.296 -3.3489 -0.8681  0.7085
  603TMC3    H2 8942   2.695   4.342  11.580 -0.5317  2.2215  0.9817
  603TMC3    C7 8943   2.641   4.396  11.336  0.1588 -0.1638  0.8849
  603TMC3    C8 8944   2.614   4.155  11.735 -0.0811  0.6530 -0.2552
  603TMC3    O1 8945   2.708   4.492  11.373  0.3511 -0.6615  0.2667
  603TMC3    O2 8946   2.634   4.031  11.737 -0.0274  0.3632 -0.3948
  604MPD2     C 8947   2.738   2.995  16.098  0.4329  0.3179  0.7319
  604MPD2    C1 8948   2.648   2.899  16.098 -0.8743 -0.1185  0.3722
  604MPD2    C2 8949   2.627   2.823  15.979  0.4689 -0.1444 -0.5416
  604MPD2    C3 8950   2.715   2.838  15.867 -0.7664  0.2910 -0.1159
  604MPD2    C4 8951   2.801   2.943  15.873 -0.1274 -0.1485  0.8418
  604MPD2    C5 8952   2.817   3.009  15.992  0.3202  1.4637  0.2285
  604MPD2     H 8953   2.554   2.744  15.971 -0.5791  0.8031 -0.2230
  604MPD2    H1 8954   2.866   2.968  15.790 -3.0018 -1.6294 -1.8948
  604MPD2    H2 8955   2.762   3.048  16.189  1.2552  1.4845 -0.1618
  604MPD2    H3 8956   2.906   3.068  16.013  0.3916  1.6012 -0.4670
  604MPD2     N 8957   2.713   2.738  15.758  1.0485  0.4801  0.3604
  604MPD2    H5 8958   2.649   2.659  15.757 -0.7625  1.9834 -1.3735
  604MPD2    N1 8959   2.579   2.873  16.218 -0.2209 -0.0990  0.0891
  604MPD2    H7 8960   2.618   2.921  16.299 -0.6791  1.9531 -0.8994
  605TMC3    C1 8961   2.413   2.801  16.371 -0.0525 -0.0728 -0.5707
  605TMC3    C2 8962   2.476   2.886  16.454 -0.2195 -0.2030 -0.7053
  605TMC3    C3 8963   2.409   2.964  16.541 -0.1040 -0.2592  0.2267
  605TMC3    C4 8964   2.274   2.810  16.369 -0.6217  0.0155 -0.1046
  605TMC3    C5 8965   2.206   2.896  16.447  0.1724 -0.0694 -0.0938
  605TMC3    C6 8966   2.273   2.975  16.527 -0.1904  0.5145 -0.0586
  605TMC3     C 8967   2.472   2.785  16.239  0.2671  0.2075  0.4645
  605TMC3     O 8968   2.402   2.719  16.162 -0.3654  0.2068  0.4018
  605TMC3     H 8969   2.580   2.860  16.469  0.1378  1.6700  0.0493
  605TMC3    H1 8970   2.222   2.746  16.299 -0.5271  0.1194 -0.2701
  605TMC3    H2 8971   2.213   3.041  16.590 -0.0711  1.7127 -1.2074
  605TMC3    C7 8972   2.065   2.915  16.415 -0.3385  0.2226 -0.2689
  605TMC3    C8 8973   2.495   3.053  16.615  0.1860 -0.5228  0.2227
  605TMC3    O1 8974   2.013   3.026  16.428 -0.1728 -0.0049  0.3734
  605TMC3    O2 8975   2.608   3.019  16.650 -0.0799 -0.0215  0.4631
  606TMC3    C1 8976   4.053   1.279  16.745  0.1487  0.8090 -0.5393
  606TMC3    C2 8977   4.129   1.243  16.851 -0.3187  0.3425 -0.0491
  606TMC3    C3 8978   4.145   1.115  16.882  0.2950 -0.1770 -0.5762
  606TMC3    C4 8979   3.976   1.191  16.669 -1.1944  0.3647 -0.0520
  606TMC3    C5 8980   3.980   1.063  16.714 -0.0333  0.5636  0.2640
  606TMC3    C6 8981   4.071   1.019  16.808 -0.3044 -0.5319  0.3066
  606TMC3     C 8982   4.025   1.416  16.727  0.1659 -0.2021  0.8936
  606TMC3     O 8983   4.040   1.497  16.818  0.0393  0.6055 -0.4460
  606TMC3     H 8984   4.188   1.318  16.903  2.3118 -1.1948 -0.8079
  606TMC3    H1 8985   3.902   1.229  16.599  1.2282  1.0932 -2.1756
  606TMC3    H2 8986   4.090   0.912  16.816 -1.4186 -0.7417  0.1058
  606TMC3    C7 8987   3.891   0.967  16.648  0.0416 -0.3031  0.5999
  606TMC3    C8 8988   4.236   1.073  16.993  0.2830  0.6993  0.1113
  606TMC3    O1 8989   3.849   1.005  16.536  0.0169 -0.5398  0.3408
  606TMC3    O2 8990   4.318   1.156  17.034  0.3476 -0.5056 -0.3476
  607MPD2     C 8991   1.922   3.847  11.865 -0.5745  0.1099 -0.1991
  607MPD2    C1 8992   1.940   3.961  11.942 -0.2637 -0.4969  0.1336
  607MPD2    C2 8993   1.878   3.962  12.066  0.6607 -0.3977  0.5748
  607MPD2    C3 8994   1.807   3.860  12.111 -0.1603 -0.1033 -0.2942
  607MPD2    C4 8995   1.779   3.751  12.032 -0.2557 -0.1977 -1.1323
  607MPD2    C5 8996   1.835   3.749  11.910  0.3428 -1.1099 -0.8218
  607MPD2     H 8997   1.902   4.043  12.133 -0.2519  0.4890 -0.1636
  607MPD2    H1 8998   1.716   3.668  12.061 -1.8297  1.4294  0.1054
  607MPD2    H2 8999   1.959   3.845  11.763 -1.7208  0.2771 -0.6251
  607MPD2    H3 9000   1.813   3.661  11.851  2.9268 -2.4592  0.2284
  607MPD2     N 9001   1.769   3.870  12.243  0.6053 -0.6055 -0.3414
  607MPD2    H5 9002   1.782   3.957  12.294 -0.2629  0.8371 -2.6201
  607MPD2    N1 9003   2.023   4.071  11.922 -0.1567 -0.2188  0.0514
  607MPD2    H7 9004   2.023   4.147  11.990  0.2730 -1.1697  1.0996
  608TMC3    C1 9005   2.216   4.188  11.854  0.1399 -0.0608 -0.5119
  608TMC3    C2 9006   2.269   4.196  11.979  0.2341  0.6069  0.4919
  608TMC3    C3 9007   2.335   4.313  12.011  0.1395  0.0512  0.7561
  608TMC3    C4 9008   2.208   4.296  11.772 -0.6555  0.4784 -0.1119
  608TMC3    C5 9009   2.289   4.401  11.795 -0.0534  0.2093  0.2414
  608TMC3    C6 9010   2.358   4.412  11.917  0.1460  0.2198  0.3284
  608TMC3     C 9011   2.128   4.074  11.829  0.4951 -0.5119 -0.3615
  608TMC3     O 9012   2.150   4.020  11.722 -0.4130  0.1289 -0.1635
  608TMC3     H 9013   2.252   4.122  12.056 -1.4803  1.6671  1.1535
  608TMC3    H1 9014   2.154   4.297  11.678 -0.9284 -0.1929  0.0381
  608TMC3    H2 9015   2.433   4.488  11.938  1.0971 -0.6392  0.0477
  608TMC3    C7 9016   2.310   4.499  11.684 -0.4114  0.1297  0.2216
  608TMC3    C8 9017   2.360   4.335  12.154 -0.0566  0.2652 -0.2206
  608TMC3    O1 9018   2.264   4.468  11.573 -0.3983 -0.0722 -0.2086
  608TMC3    O2 9019   2.472   4.374  12.182  0.4511  0.6439 -0.4187
  609TMC3    C1 9020   4.668   3.441   9.482  0.2924 -0.2182  0.1662
  609TMC3    C2 9021   4.556   3.379   9.439  0.0811 -0.1845 -0.5331
  609TMC3    C3 9022   4.580   3.279   9.356  0.0711  0.3794 -0.0046
  609TMC3    C4 9023   0.068   3.420   9.439  0.7145 -0.8086  0.8913
  609TMC3    C5 9024   0.090   3.314   9.354 -0.0209  0.0316  0.3919
  609TMC3    C6 9025   4.705   3.238   9.316  0.0543 -0.0480 -0.4648
  609TMC3     C 9026   4.635   3.554   9.578  0.1325 -0.5963 -0.0093
  609TMC3     O 9027   4.523   3.551   9.632 -0.3268 -0.1346 -0.4252
  609TMC3     H 9028   4.456   3.396   9.477 -0.5246 -1.6785 -1.4567
  609TMC3    H1 9029   0.150   3.471   9.488  1.5797 -1.7058  0.3794
  609TMC3    H2 9030   4.710   3.151   9.252 -0.3767  0.3019 -0.9770
  609TMC3    C7 9031   0.217   3.247   9.351 -0.4168 -0.1469  0.7207
  609TMC3    C8 9032   4.474   3.222   9.274  0.6073 -0.1900 -0.7708
  609TMC3    O1 9033   0.302   3.266   9.439 -0.1249 -0.2464  0.0430
  609TMC3    O2 9034   4.492   3.116   9.215 -0.6083  0.0872 -0.5799
  610TMC3    C1 9035   2.228   3.626  12.935 -0.7600  0.5982  0.5575
  610TMC3    C2 9036   2.283   3.710  12.846 -0.1857  0.0062  1.0401
  610TMC3    C3 9037   2.400   3.679  12.787  0.0004 -0.2695 -0.7454
  610TMC3    C4 9038   2.292   3.502  12.948  0.1917 -0.5101  0.8828
  610TMC3    C5 9039   2.396   3.469  12.866  0.0809  0.6243  0.5977
  610TMC3    C6 9040   2.452   3.558  12.777  0.2159 -0.5648  0.2305
  610TMC3     C 9041   2.127   3.675  13.029  0.4432 -1.0943 -0.0884
  610TMC3     O 9042   2.122   3.797  13.046 -0.6687 -0.0527  0.3189
  610TMC3     H 9043   2.238   3.807  12.832  0.2027  0.3931  2.5048
  610TMC3    H1 9044   2.274   3.433  13.029  0.5579 -0.9403  0.6006
  610TMC3    H2 9045   2.540   3.532  12.720 -0.7276  0.5113 -1.7133
  610TMC3    C7 9046   2.454   3.339  12.869  1.1087  0.1697 -0.4262
  610TMC3    C8 9047   2.471   3.781  12.716 -0.9029  0.0869  0.3573
  610TMC3    O1 9048   2.568   3.340  12.818 -0.1513  0.3939 -0.3376
  610TMC3    O2 9049   2.421   3.831  12.615 -0.0460 -0.1664 -0.2318
  611MPD2     C 9050   2.111   3.733  10.901  0.8650  0.9662  0.5834
  611MPD2    C1 9051   2.056   3.781  10.790  0.5010  0.1095  0.3151
  611MPD2    C2 9052   2.123   3.880  10.714  0.0047 -0.3747  0.0701
  611MPD2    C3 9053   2.247   3.934  10.750 -0.1261 -0.2581  0.2834
  611MPD2    C4 9054   2.310   3.876  10.858  1.0231  0.1130 -1.0296
  611MPD2    C5 9055   2.236   3.782  10.929 -0.1807 -0.2451 -0.1087
  611MPD2     H 9056   2.066   3.929  10.636 -1.4612 -1.8934  0.1852
  611MPD2    H1 9057   2.408   3.907  10.894  0.5590  0.6872 -0.2421
  611MPD2    H2 9058   2.062   3.666  10.970  1.4276  1.4594  1.4683
  611MPD2    H3 9059   2.289   3.749  11.018 -1.5438  1.2867  1.2577
  611MPD2     N 9060   2.318   4.029  10.677  0.0968  0.0067 -0.3238
  611MPD2    H5 9061   2.404   4.066  10.717  0.5878 -2.1162  0.5981
  611MPD2    N1 9062   1.931   3.726  10.758 -0.2012 -0.3099  0.2716
  611MPD2    H7 9063   1.898   3.658  10.826  1.1301 -0.3849  0.8390
  612TMC3    C1 9064   2.324   4.194  10.501 -0.8324 -0.1803  0.0350
  612TMC3    C2 9065   2.405   4.266  10.583  0.3075  0.1878  0.1741
  612TMC3    C3 9066   2.500   4.349  10.527 -0.5820 -0.2380  0.0097
  612TMC3    C4 9067   2.333   4.205  10.358 -0.5998 -0.5688 -0.1764
  612TMC3    C5 9068   2.429   4.292  10.314  0.4213  0.1707  0.2769
  612TMC3    C6 9069   2.516   4.366  10.391 -0.2855 -0.0957 -0.6726
  612TMC3     C 9070   2.279   4.066  10.552 -0.1010  0.3274 -0.0099
  612TMC3     O 9071   2.221   3.995  10.474 -0.1889  0.1777 -0.1675
  612TMC3     H 9072   2.380   4.269  10.689 -2.7438 -1.6446 -0.5094
  612TMC3    H1 9073   2.270   4.154  10.287  0.1290 -0.5029 -0.8820
  612TMC3    H2 9074   2.591   4.435  10.355 -2.3767  1.2207 -2.5351
  612TMC3    C7 9075   2.437   4.328  10.173 -0.1482 -0.0109 -0.0525
  612TMC3    C8 9076   2.570   4.436  10.618  0.0387 -0.2418 -0.1120
  612TMC3    O1 9077   2.466   4.443  10.153  0.4983 -0.0031 -0.2279
  612TMC3    O2 9078   2.619   4.537  10.570 -0.3244 -0.4052 -0.0058
  613MPD2     C 9079   0.423   1.672  16.625  0.0941 -0.3017 -0.3529
  613MPD2    C1 9080   0.345   1.710  16.524  0.7929 -0.4259  0.6680
  613MPD2    C2 9081   0.236   1.634  16.492 -0.3883 -0.3397 -0.7131
  613MPD2    C3 9082   0.211   1.518  16.562 -0.2344 -0.4991  0.1024
  613MPD2    C4 9083   0.297   1.481  16.662  0.2003  0.2069  0.2006
  613MPD2    C5 9084   0.400   1.561  16.697 -0.1544  0.3557 -0.0208
  613MPD2     H 9085   0.167   1.669  16.416  0.0824  1.7339 -0.1861
  613MPD2    H1 9086   0.277   1.389  16.717  1.4375 -1.4899 -2.1762
  613MPD2    H2 9087   0.516   1.727  16.635 -0.6119  0.8680 -0.3404
  613MPD2    H3 9088   0.460   1.531  16.783 -0.3762 -0.2952 -0.0923
  613MPD2     N 9089   0.104   1.441  16.518 -0.0612  0.5886  0.4826
  613MPD2    H5 9090   0.102   1.348  16.559  1.0867  0.2225 -0.2971
  613MPD2    N1 9091   0.399   1.818  16.446  0.3105  0.1903 -0.3685
  613MPD2    H7 9092   0.477   1.871  16.482 -1.6678  2.2303  0.8574
  614TMC3    C1 9093   0.305   1.773  16.219  0.0415  0.1062 -0.2365
  614TMC3    C2 9094   0.338   1.642  16.227  0.0983 -0.3129 -0.7591
  614TMC3    C3 9095   0.296   1.562  16.123  0.4968  0.3870 -0.1642
  614TMC3    C4 9096   0.222   1.821  16.128 -0.7799  0.7653  1.6272
  614TMC3    C5 9097   0.164   1.735  16.035 -0.0648 -0.1248  0.6142
  614TMC3    C6 9098   0.201   1.606  16.034 -0.0423 -0.7241  0.2666
  614TMC3     C 9099   0.358   1.868  16.323  0.0250 -1.4515  1.6865
  614TMC3     O 9100   0.390   1.972  16.276  0.1620 -0.1792 -0.4109
  614TMC3     H 9101   0.411   1.615  16.303  0.1274  0.9715 -0.3202
  614TMC3    H1 9102   0.203   1.927  16.141  2.3317  1.6757 -1.1940
  614TMC3    H2 9103   0.164   1.530  15.965 -2.1302  0.1492  0.4339
  614TMC3    C7 9104   0.051   1.773  15.943  0.3059  0.2426  0.5434
  614TMC3    C8 9105   0.277   1.422  16.163 -0.4173  0.2256 -0.4416
  614TMC3    O1 9106   4.719   1.878  15.975 -0.4976  0.3040 -0.1947
  614TMC3    O2 9107   0.174   1.364  16.126  0.2445 -0.4029  0.7028
  615MPD2     C 9108   4.231   2.946  16.171 -0.3411 -0.5354 -0.2630
  615MPD2    C1 9109   4.141   3.015  16.096 -0.5418  0.0208 -0.2510
  615MPD2    C2 9110   4.056   2.951  16.012  0.1083  0.2649  0.1128
  615MPD2    C3 9111   4.075   2.820  15.980  0.2531  0.3074  0.2136
  615MPD2    C4 9112   4.173   2.748  16.046 -0.0403  0.1748 -0.4445
  615MPD2    C5 9113   4.250   2.808  16.138 -0.1266  0.5205 -0.3044
  615MPD2     H 9114   3.986   3.017  15.962  1.0588  3.4883  2.9904
  615MPD2    H1 9115   4.194   2.645  16.018 -0.3074 -0.0941  0.3474
  615MPD2    H2 9116   4.297   2.990  16.244 -0.6162  0.6770 -0.7375
  615MPD2    H3 9117   4.333   2.750  16.177 -0.1810  0.5124 -0.1982
  615MPD2     N 9118   4.013   2.757  15.869  0.2891 -0.2334 -0.3491
  615MPD2    H5 9119   4.032   2.658  15.864 -1.4511 -0.4444 -2.5550
  615MPD2    N1 9120   4.114   3.153  16.125  0.5592 -0.0877  0.5203
  615MPD2    H7 9121   4.025   3.189  16.091  0.9790  0.0821 -0.4042
  616TMC3    C1 9122   4.157   3.369  16.193 -0.2497  0.4523  0.0189
  616TMC3    C2 9123   4.255   3.460  16.195  0.7042 -0.1558 -0.1781
  616TMC3    C3 9124   4.210   3.591  16.197  0.1001 -0.0374  0.3083
  616TMC3    C4 9125   4.027   3.403  16.218 -0.2157 -1.0505 -0.3092
  616TMC3    C5 9126   3.992   3.533  16.242  0.0202  0.1222  0.2320
  616TMC3    C6 9127   4.081   3.631  16.220  0.3275 -0.0206  0.1542
  616TMC3     C 9128   4.208   3.237  16.180 -0.2628  0.1681  0.2635
  616TMC3     O 9129   4.319   3.216  16.212  0.7205  0.0204  0.2987
  616TMC3     H 9130   4.357   3.426  16.214  0.5437 -1.4470 -1.5666
  616TMC3    H1 9131   3.954   3.325  16.241 -0.1368 -0.7717  0.8650
  616TMC3    H2 9132   4.053   3.731  16.250  0.7063  0.5622 -1.4264
  616TMC3    C7 9133   3.897   3.570  16.338  0.5343  0.8475  0.5188
  616TMC3    C8 9134   4.299   3.697  16.161  0.7789  0.3547  0.4878
  616TMC3    O1 9135   3.859   3.688  16.332 -0.0548  0.0562 -0.0106
  616TMC3    O2 9136   4.255   3.810  16.181  0.5070 -0.3207  0.2284
  617MPD2     C 9137   2.735   1.148  13.104  0.3615 -0.4960  1.2316
  617MPD2    C1 9138   2.780   1.121  13.236 -0.1998 -0.0755  0.3846
  617MPD2    C2 9139   2.697   1.048  13.319  0.1823 -0.5018 -0.1700
  617MPD2    C3 9140   2.573   1.013  13.278 -0.4620  0.4048 -0.1056
  617MPD2    C4 9141   2.536   1.021  13.147 -0.0293  0.1310 -0.5684
  617MPD2    C5 9142   2.622   1.088  13.062  0.3839  0.0044  0.2839
  617MPD2     H 9143   2.727   1.031  13.422 -0.6282  1.7919  0.4519
  617MPD2    H1 9144   2.437   0.990  13.117 -0.4729  1.2013 -0.1999
  617MPD2    H2 9145   2.802   1.190  13.030  0.2939 -0.7294  1.0383
  617MPD2    H3 9146   2.589   1.109  12.961  0.2584 -0.6537  0.1865
  617MPD2     N 9147   2.463   0.973  13.362 -0.1242 -0.0838  0.0933
  617MPD2    H5 9148   2.372   0.946  13.327  0.2458  0.9013 -1.6239
  617MPD2    N1 9149   2.915   1.152  13.263 -0.2333 -0.0593  0.1872
  617MPD2    H7 9150   2.965   1.220  13.207 -2.9261  2.7595  1.2193
  618TMC3    C1 9151   3.127   1.129  13.370 -0.3183  0.0803  0.1716
  618TMC3    C2 9152   3.192   1.091  13.481 -0.4544 -0.3358  0.1458
  618TMC3    C3 9153   3.320   1.059  13.478  1.2001 -0.1360  0.4733
  618TMC3    C4 9154   3.191   1.142  13.246 -0.3823 -0.7381 -0.0337
  618TMC3    C5 9155   3.325   1.114  13.240  0.6256 -0.6637  0.0828
  618TMC3    C6 9156   3.391   1.079  13.360  0.3335 -0.4285  0.4165
  618TMC3     C 9157   2.984   1.103  13.375 -0.0450 -0.1275 -0.5262
  618TMC3     O 9158   2.940   1.041  13.469  0.6284  0.2832 -0.5553
  618TMC3     H 9159   3.136   1.071  13.571  1.3201 -0.3245  1.2490
  618TMC3    H1 9160   3.138   1.164  13.154  0.4470 -0.1220 -0.3643
  618TMC3    H2 9161   3.498   1.093  13.361  0.4894 -1.4431 -2.4258
  618TMC3    C7 9162   3.368   1.032  13.132  0.3816  0.9719  0.8250
  618TMC3    C8 9163   3.381   0.978  13.575 -0.2698 -0.4433  0.1819
  618TMC3    O1 9164   3.275   0.993  13.064 -0.0634 -1.0035 -0.7154
  618TMC3    O2 9165   3.321   0.983  13.683  0.1012 -0.5116  0.1438
  619MPD2     C 9166   3.951   1.822  13.457  0.1083  0.2113 -0.1950
  619MPD2    C1 9167   3.923   1.960  13.450  0.6630  0.2430  0.0209
  619MPD2    C2 9168   3.799   2.018  13.464  0.0373 -0.7168 -0.1316
  619MPD2    C3 9169   3.690   1.941  13.504 -0.0392 -0.3166  0.1751
  619MPD2    C4 9170   3.720   1.808  13.532 -0.1569  0.8560 -0.2618
  619MPD2    C5 9171   3.841   1.748  13.507 -0.5317  0.3083  0.2328
  619MPD2     H 9172   3.786   2.125  13.450  0.7307 -0.1795  3.3808
  619MPD2    H1 9173   3.655   1.736  13.580  2.0789 -0.1311  1.3029
  619MPD2    H2 9174   4.030   1.753  13.431 -0.7755 -0.0310 -2.2803
  619MPD2    H3 9175   3.852   1.644  13.534  0.2337  0.0008 -1.2632
  619MPD2     N 9176   3.562   1.997  13.527 -0.0979 -0.3466 -0.1078
  619MPD2    H5 9177   3.491   1.930  13.555 -1.4120  0.2739 -1.9175
  619MPD2    N1 9178   4.023   2.047  13.408 -0.1868 -0.1441 -0.7592
  619MPD2    H7 9179   3.997   2.145  13.401  2.6500  0.6050 -0.9751
  620TMC3    C1 9180   4.175   2.092  13.252  0.0550  0.1262  0.2820
  620TMC3    C2 9181   4.168   2.036  13.127 -0.3536  0.0433  0.5399
  620TMC3    C3 9182   4.180   2.123  13.026  0.5558 -0.0715 -0.2249
  620TMC3    C4 9183   4.208   2.219  13.281  0.2230 -0.0945 -0.3174
  620TMC3    C5 9184   4.241   2.301  13.176 -0.6383 -0.1327 -0.1635
  620TMC3    C6 9185   4.223   2.251  13.043 -0.1310  0.5689 -0.3449
  620TMC3     C 9186   4.145   2.012  13.360 -0.1195  0.1069  0.2224
  620TMC3     O 9187   4.205   1.907  13.382 -0.8525  0.4470 -0.0638
  620TMC3     H 9188   4.139   1.936  13.099  2.1723 -0.5244 -0.0852
  620TMC3    H1 9189   4.217   2.244  13.387 -0.0320 -0.0853 -0.2995
  620TMC3    H2 9190   4.254   2.315  12.960 -0.1619  0.2888 -0.5741
  620TMC3    C7 9191   4.252   2.443  13.187  0.8788  0.6480  0.1192
  620TMC3    C8 9192   4.148   2.087  12.893 -0.2084 -0.0777  0.9385
  620TMC3    O1 9193   4.225   2.511  13.090 -0.3640 -0.4194  0.1738
  620TMC3    O2 9194   4.244   2.097  12.816 -0.2975 -0.1409  0.1934
  621MPD2     C 9195   4.325   2.750  10.707 -0.1251 -0.1403  0.0231
  621MPD2    C1 9196   4.380   2.654  10.633  1.0941  0.3140 -0.6884
  621MPD2    C2 9197   4.434   2.687  10.509 -0.4956  0.2049  0.1354
  621MPD2    C3 9198   4.437   2.818  10.471 -0.1782 -0.5108  0.1931
  621MPD2    C4 9199   4.395   2.909  10.552  0.8277 -0.3590  0.4106
  621MPD2    C5 9200   4.347   2.881  10.680 -0.2114 -0.3556  0.0089
  621MPD2     H 9201   4.473   2.610  10.443 -0.9290 -0.6410  0.8755
  621MPD2    H1 9202   4.389   3.014  10.525 -0.2148 -0.7987 -1.1118
  621MPD2    H2 9203   4.270   2.727  10.797 -1.3092 -1.6466 -1.0716
  621MPD2    H3 9204   4.317   2.969  10.734 -1.6171 -1.0467  0.3659
  621MPD2     N 9205   4.490   2.845  10.348 -0.3511 -0.2207  0.2398
  621MPD2    H5 9206   4.537   2.770  10.297 -2.2422 -2.5259  1.8587
  621MPD2    N1 9207   4.364   2.515  10.664  0.3079 -0.3338 -0.3640
  621MPD2    H7 9208   4.386   2.442  10.597  0.8985 -1.3423  0.9111
  622TMC3    C1 9209   4.288   2.331  10.773  0.0668  0.1850 -0.1562
  622TMC3    C2 9210   4.157   2.305  10.823 -0.1862 -0.1770 -0.7784
  622TMC3    C3 9211   4.090   2.200  10.776 -0.6697 -0.4092 -0.0633
  622TMC3    C4 9212   4.345   2.248  10.674  0.1546 -0.3297  0.4445
  622TMC3    C5 9213   4.263   2.139  10.636 -0.3253  0.1540  0.0944
  622TMC3    C6 9214   4.143   2.120  10.679 -0.4545  0.2545  0.3416
  622TMC3     C 9215   4.329   2.467  10.786  0.3719  0.0515  0.5464
  622TMC3     O 9216   4.322   2.517  10.896 -0.1059 -0.0951  0.3167
  622TMC3     H 9217   4.125   2.375  10.900  1.6602 -0.2861  0.0816
  622TMC3    H1 9218   4.453   2.247  10.662 -0.2289 -2.0528 -2.7089
  622TMC3    H2 9219   4.081   2.040  10.641  1.3638 -1.5541  1.2202
  622TMC3    C7 9220   4.314   2.039  10.550  0.0173 -0.1346  0.1076
  622TMC3    C8 9221   3.949   2.215  10.779  0.1396 -0.4162 -0.5830
  622TMC3    O1 9222   4.273   1.926  10.556  0.1461  0.7316 -0.3155
  622TMC3    O2 9223   3.893   2.114  10.754 -0.0985  0.4782 -0.5681
  623MPD2     C 9224   2.963   3.481  15.923 -0.2300  0.5873  1.1887
  623MPD2    C1 9225   2.887   3.424  16.021  0.2983  0.5638 -0.0059
  623MPD2    C2 9226   2.924   3.423  16.153 -0.1048  0.5552 -0.2320
  623MPD2    C3 9227   3.038   3.478  16.196  0.2654 -0.1612  0.1370
  623MPD2    C4 9228   3.117   3.533  16.096 -0.0918  0.1074  0.6821
  623MPD2    C5 9229   3.084   3.542  15.967  0.6363  0.6338  0.3814
  623MPD2     H 9230   2.858   3.384  16.229  0.1195  0.3293 -0.1505
  623MPD2    H1 9231   3.215   3.571  16.123  0.9703 -2.2457  0.1753
  623MPD2    H2 9232   2.950   3.489  15.816 -0.6486  0.4969  1.2338
  623MPD2    H3 9233   3.155   3.583  15.896  2.1353 -0.0170  1.5039
  623MPD2     N 9234   3.072   3.476  16.333  0.2422 -0.0584  0.0563
  623MPD2    H5 9235   3.003   3.448  16.401  0.1097  0.6115  0.1990
  623MPD2    N1 9236   2.763   3.361  15.987 -0.3474 -0.3419 -0.3046
  623MPD2    H7 9237   2.716   3.327  16.070  1.1596  0.5511  0.9184
  624TMC3    C1 9238   3.275   3.355  16.700 -0.7917 -0.0332 -0.3933
  624TMC3    C2 9239   3.159   3.370  16.773 -0.8352 -0.1220  0.0532
  624TMC3    C3 9240   3.055   3.454  16.731 -0.2176  0.7224  0.2170
  624TMC3    C4 9241   3.289   3.426  16.583  0.0004 -0.5341 -0.4844
  624TMC3    C5 9242   3.188   3.507  16.537 -0.4732 -0.6589  0.4700
  624TMC3    C6 9243   3.068   3.528  16.612  0.9749 -0.2890 -0.9927
  624TMC3     C 9244   3.357   3.243  16.737  0.0197  0.2391 -0.1259
  624TMC3     O 9245   3.336   3.193  16.843 -0.4342 -0.1490 -0.2262
  624TMC3     H 9246   3.151   3.314  16.866 -1.4022  0.8651  0.5943
  624TMC3    H1 9247   3.373   3.410  16.517 -0.5576 -2.1781 -0.8168
  624TMC3    H2 9248   2.987   3.582  16.564  2.0999  1.5218 -0.8838
  624TMC3    C7 9249   3.194   3.514  16.390 -1.0395  0.6198 -0.3059
  624TMC3    C8 9250   2.936   3.379  16.730  0.6924 -0.1231 -0.6115
  624TMC3    O1 9251   3.301   3.534  16.339  0.4745 -0.1751  0.5608
  624TMC3    O2 9252   2.935   3.257  16.729  0.2655 -0.0072 -0.3321
  625MPD2     C 9253   3.560   3.746   0.492  0.8944  0.7080  0.3408
  625MPD2    C1 9254   3.641   3.856   0.513  0.3167  0.4700  0.5963
  625MPD2    C2 9255   3.752   3.844   0.598 -0.4912 -0.0178 -0.1361
  625MPD2    C3 9256   3.789   3.720   0.653  0.2869  0.3354  0.2001
  625MPD2    C4 9257   3.716   3.604   0.611 -1.1467  0.9685  0.3120
  625MPD2    C5 9258   3.603   3.622   0.540  0.3745 -0.2146  0.3821
  625MPD2     H 9259   3.802   3.930   0.639  1.5599 -1.0653 -0.4720
  625MPD2    H1 9260   3.739   3.500   0.629 -1.3341  0.8661 -0.0409
  625MPD2    H2 9261   3.468   3.745   0.435 -0.0888  0.8715  1.9247
  625MPD2    H3 9262   3.548   3.535   0.506 -0.8033  0.6524  0.0475
  625MPD2     N 9263   3.910   3.716   0.742 -0.3636  0.4975 -0.0738
  625MPD2    H5 9264   3.958   3.800   0.771 -0.4256  0.8370 -0.9629
  625MPD2    N1 9265   3.599   3.987   0.468  0.2137 -0.3606  0.2532
  625MPD2    H7 9266   3.661   4.065   0.488  1.7833 -1.7584  0.9176
  626TMC3    C1 9267   3.473   4.155   0.358 -0.5984 -0.3335  0.4724
  626TMC3    C2 9268   3.379   4.186   0.267  0.4041  0.5033  0.0050
  626TMC3    C3 9269   3.310   4.305   0.270  0.3038  0.4861 -0.4463
  626TMC3    C4 9270   3.498   4.238   0.460  0.0394 -0.2861 -0.7794
  626TMC3    C5 9271   3.425   4.354   0.461 -0.3864 -0.7686  0.9459
  626TMC3    C6 9272   3.335   4.395   0.370 -0.0944  0.0830 -0.5956
  626TMC3     C 9273   3.495   4.013   0.384  0.6844  0.3074 -0.2963
  626TMC3     O 9274   3.407   3.944   0.331 -0.3368  0.1187 -0.5583
  626TMC3     H 9275   3.371   4.118   0.183  3.7636 -1.7509  1.5291
  626TMC3    H1 9276   3.564   4.209   0.541  0.5844  1.5587 -0.5667
  626TMC3    H2 9277   3.297   4.496   0.374  0.6081  0.3022  0.3840
  626TMC3    C7 9278   3.386   4.400   0.591 -0.1194 -0.0422 -0.8107
  626TMC3    C8 9279   3.238   4.347   0.150 -0.3651 -0.3357 -0.3813
  626TMC3    O1 9280   3.470   4.392   0.679  0.5305  0.1213 -0.2817
  626TMC3    O2 9281   3.249   4.465   0.116  0.1366  0.2388  0.8168
  627MPD2     C 9282   1.791   0.081  14.149 -0.9317  0.7698  0.4651
  627MPD2    C1 9283   1.851   0.044  14.269 -0.0368 -0.7184 -0.5895
  627MPD2    C2 9284   1.828   4.646  14.323  0.5077 -0.1338  0.1324
  627MPD2    C3 9285   1.745   4.555  14.260  0.1203  0.0576  0.2558
  627MPD2    C4 9286   1.676   4.591  14.144 -0.3683  0.7628 -0.3867
  627MPD2    C5 9287   1.702   4.715  14.090 -0.0053  0.2495  0.2321
  627MPD2     H 9288   1.874   4.629  14.420  1.4292 -1.4348 -0.5364
  627MPD2    H1 9289   1.608   4.526  14.090  1.4906 -1.1894 -0.3821
  627MPD2    H2 9290   1.813   0.172  14.096 -2.0552  0.4409 -0.5657
  627MPD2    H3 9291   1.668   0.011  13.989 -1.2872  0.6902  0.7526
  627MPD2     N 9292   1.736   4.426  14.309 -0.1276 -0.0417 -0.2351
  627MPD2    H5 9293   1.799   4.404  14.385  0.7815 -1.6224 -1.4263
  627MPD2    N1 9294   1.932   0.139  14.345  0.5636  0.1841  0.3660
  627MPD2    H7 9295   1.960   0.102  14.435  1.7777  0.7630  0.2299
  628TMC3    C1 9296   2.059   0.337  14.405 -0.1606  0.3046 -0.2830
  628TMC3    C2 9297   2.129   0.258  14.493  0.3486 -0.3345  0.7932
  628TMC3    C3 9298   2.226   0.329  14.562  0.1581 -0.6344  0.3085
  628TMC3    C4 9299   2.085   0.463  14.380  0.1694 -0.7062  0.0575
  628TMC3    C5 9300   2.180   0.522  14.459 -0.3065  0.0141  0.6764
  628TMC3    C6 9301   2.264   0.458  14.543  0.7717  0.1230  0.2599
  628TMC3     C 9302   1.967   0.270  14.309  0.0959 -0.1929 -0.5074
  628TMC3     O 9303   1.940   0.331  14.212 -0.2759  0.1521  0.1083
  628TMC3     H 9304   2.108   0.154  14.516 -2.3176  0.2628  0.9651
  628TMC3    H1 9305   2.015   0.517  14.317  2.0086  0.7822 -0.7180
  628TMC3    H2 9306   2.326   0.520  14.607 -0.8885  1.1238  0.8965
  628TMC3    C7 9307   2.207   0.667  14.436 -0.2536 -0.9157 -0.6081
  628TMC3    C8 9308   2.314   0.248  14.646 -0.1467 -0.2257 -0.7029
  628TMC3    O1 9309   2.263   0.728  14.528 -0.1864  0.1197  0.0912
  628TMC3    O2 9310   2.326   0.135  14.603  0.0055 -0.0906  0.5911
  629MPD2     C 9311   0.003   3.866  15.951 -0.5416  0.2835  0.4747
  629MPD2    C1 9312   0.025   3.737  15.979 -0.1306 -0.4300  0.2363
  629MPD2    C2 9313   4.647   3.660  16.036  0.1314 -0.2102  0.2042
  629MPD2    C3 9314   4.523   3.722  16.062  0.4114 -0.1909 -0.3337
  629MPD2    C4 9315   4.507   3.852  16.037  0.2364  0.0222 -0.2206
  629MPD2    C5 9316   4.608   3.923  15.986 -0.4687  0.4619 -0.0501
  629MPD2     H 9317   4.662   3.558  16.069  1.0883  0.3643  1.5955
  629MPD2    H1 9318   4.415   3.906  16.054  0.9779  1.0206  0.5895
  629MPD2    H2 9319   0.081   3.933  15.915 -1.0216  0.7400  0.2878
  629MPD2    H3 9320   4.584   4.027  15.966  0.2444  0.3690 -1.4259
  629MPD2     N 9321   4.417   3.650  16.119 -0.4191 -0.1410  0.2203
  629MPD2    H5 9322   4.435   3.550  16.129 -0.6377 -0.3741 -1.8409
  629MPD2    N1 9323   0.146   3.677  15.940  0.1053 -0.4631 -0.5627
  629MPD2    H7 9324   0.229   3.735  15.931  0.0112 -0.1797  0.4255
  630TMC3    C1 9325   0.306   3.507  15.933 -0.4912  0.0916  0.1374
  630TMC3    C2 9326   0.399   3.610  15.915 -0.8535  0.2834 -0.0891
  630TMC3    C3 9327   0.520   3.586  15.976  0.2577 -0.6225 -0.0642
  630TMC3    C4 9328   0.333   3.389  15.997 -0.0164  0.4433  0.3204
  630TMC3    C5 9329   0.452   3.374  16.065 -0.5351  0.4000 -0.5421
  630TMC3    C6 9330   0.538   3.475  16.057 -0.1556 -0.3206  0.1561
  630TMC3     C 9331   0.171   3.544  15.921  0.8628 -0.3836 -0.6651
  630TMC3     O 9332   0.091   3.450  15.915  0.2841  0.4633  0.1404
  630TMC3     H 9333   0.391   3.679  15.831 -0.9269 -1.2225 -1.3235
  630TMC3    H1 9334   0.249   3.322  16.013 -2.3806  3.1340 -0.7629
  630TMC3    H2 9335   0.627   3.469  16.118 -0.9787 -1.9289  1.1937
  630TMC3    C7 9336   0.429   3.328  16.202 -0.6270  0.3634 -0.2047
  630TMC3    C8 9337   0.633   3.676  15.963 -0.0010 -0.0252 -0.6648
  630TMC3    O1 9338   0.323   3.335  16.257  0.5651  0.2085 -0.0048
  630TMC3    O2 9339   0.742   3.634  16.002  1.1283 -0.5505 -0.2389
  631MPD2     C 9340   3.143   2.834  15.712  0.0796  1.4033 -0.0583
  631MPD2    C1 9341   3.207   2.869  15.595 -0.5970 -0.6033  0.6917
  631MPD2    C2 9342   3.321   2.806  15.550 -0.5745 -0.2214  0.1071
  631MPD2    C3 9343   3.373   2.699  15.624  0.1359 -0.0609 -0.0444
  631MPD2    C4 9344   3.307   2.658  15.735 -0.2403 -0.6650 -0.1485
  631MPD2    C5 9345   3.193   2.721  15.778  0.2455 -0.3505  0.4422
  631MPD2     H 9346   3.385   2.836  15.468  1.1342 -0.8374  1.1934
  631MPD2    H1 9347   3.329   2.563  15.783  2.7310  1.0031  1.7911
  631MPD2    H2 9348   3.056   2.886  15.750 -0.1556  0.4610  0.6926
  631MPD2    H3 9349   3.151   2.683  15.871 -1.4674 -0.6525 -0.4423
  631MPD2     N 9350   3.504   2.653  15.591 -1.1351 -0.3941 -0.4901
  631MPD2    H5 9351   3.546   2.694  15.509 -1.7977 -2.0995 -1.7032
  631MPD2    N1 9352   3.162   2.997  15.538  0.5238  0.2434  0.1712
  631MPD2    H7 9353   3.082   3.044  15.579  0.3583  1.1548 -1.2215
  632TMC3    C1 9354   3.162   3.161  15.367 -0.9525  0.6101 -0.0934
  632TMC3    C2 9355   3.146   3.273  15.446 -0.2929 -0.3319  0.7648
  632TMC3    C3 9356   3.133   3.394  15.384  0.1745  0.0582  0.4805
  632TMC3    C4 9357   3.149   3.164  15.229 -0.8026  0.1869 -1.0397
  632TMC3    C5 9358   3.126   3.292  15.170  0.7251  0.1256 -0.1318
  632TMC3    C6 9359   3.117   3.405  15.243  0.2066 -0.0346 -0.9616
  632TMC3     C 9360   3.207   3.033  15.416 -0.9345  0.2322 -0.7934
  632TMC3     O 9361   3.279   2.979  15.339  0.4799  0.2018 -0.1219
  632TMC3     H 9362   3.146   3.275  15.555  0.4027  0.1646  0.7575
  632TMC3    H1 9363   3.159   3.082  15.158 -1.0943  0.5686 -1.5190
  632TMC3    H2 9364   3.124   3.498  15.188  0.2188 -1.0245 -2.6576
  632TMC3    C7 9365   3.194   3.310  15.047  0.5913 -0.0148 -0.7853
  632TMC3    C8 9366   3.105   3.507  15.464 -0.6412 -0.1666 -0.5091
  632TMC3    O1 9367   3.148   3.389  14.966  0.7019 -0.2060  0.2358
  632TMC3    O2 9368   3.143   3.514  15.581  0.2514  0.2894  0.0007
  633MPD2     C 9369   3.037   1.032  17.064 -0.0727 -0.2719 -0.4662
  633MPD2    C1 9370   3.133   0.990  16.973  0.1220 -0.4982 -0.7244
  633MPD2    C2 9371   3.191   0.863  16.987  0.6686 -0.3084 -0.1501
  633MPD2    C3 9372   3.157   0.789  17.098 -0.0034 -0.1535 -0.3675
  633MPD2    C4 9373   3.059   0.825  17.185 -0.5790 -0.7680 -0.2002
  633MPD2    C5 9374   2.997   0.946  17.162  0.7653 -0.1651  0.0918
  633MPD2     H 9375   3.264   0.824  16.917  1.3136 -2.9484  1.9927
  633MPD2    H1 9376   3.038   0.768  17.275 -2.0263  0.4738  0.2429
  633MPD2    H2 9377   3.004   1.135  17.059  0.4067 -0.1958 -1.9692
  633MPD2    H3 9378   2.926   0.978  17.238  0.8536 -0.1933  0.1858
  633MPD2     N 9379   3.218   0.662  17.124  0.6340  0.3673 -0.2620
  633MPD2    H5 9380   3.183   0.590  17.186  1.1291  0.5964  0.2795
  633MPD2    N1 9381   3.178   1.078  16.863  0.3069 -0.2005  0.1142
  633MPD2    H7 9382   3.246   1.034  16.801 -1.2286 -4.3700  1.3817
  634TMC3    C1 9383   3.172   1.255  16.707 -0.0666  0.5152  0.3422
  634TMC3    C2 9384   3.254   1.180  16.623  0.5633 -0.1815  0.0731
  634TMC3    C3 9385   3.276   1.228  16.501 -0.8802 -0.5237  0.7281
  634TMC3    C4 9386   3.144   1.386  16.681  0.1417  0.7622 -0.2693
  634TMC3    C5 9387   3.182   1.434  16.562  0.1200 -0.0511  0.0416
  634TMC3    C6 9388   3.247   1.358  16.469 -0.2386  0.3449 -0.0134
  634TMC3     C 9389   3.124   1.202  16.832  0.4603  0.0171 -1.4523
  634TMC3     O 9390   3.085   1.287  16.907  0.1662  0.3205  0.6791
  634TMC3     H 9391   3.273   1.076  16.644 -0.4236 -0.5672 -0.9814
  634TMC3    H1 9392   3.068   1.434  16.742 -0.8544 -0.2804 -0.6802
  634TMC3    H2 9393   3.250   1.385  16.364 -3.1353 -0.7225 -0.3763
  634TMC3    C7 9394   3.123   1.556  16.515 -0.1442 -0.3270  0.6226
  634TMC3    C8 9395   3.298   1.131  16.399  0.0596  0.0072 -0.1550
  634TMC3    O1 9396   3.141   1.583  16.397 -0.2349 -0.3255 -0.1749
  634TMC3    O2 9397   3.287   1.009  16.421  0.0235 -0.4435  0.5020
  635TMC3    C1 9398   3.293   1.308  17.521  0.1584  0.0552 -0.0097
  635TMC3    C2 9399   3.344   1.273  17.399  0.1727  0.4313  0.5995
  635TMC3    C3 9400   3.405   1.147  17.399  0.5520 -0.1533  0.2823
  635TMC3    C4 9401   3.291   1.223  17.632  0.1598  0.0155  0.2739
  635TMC3    C5 9402   3.347   1.098  17.614 -0.1804  0.4014  0.4968
  635TMC3    C6 9403   3.410   1.062  17.499 -0.1502 -0.4018  0.0520
  635TMC3     C 9404   3.283   1.449  17.560  0.5741 -0.0175  0.0943
  635TMC3     O 9405   3.309   1.483  17.675 -0.4270  0.0502  0.0920
  635TMC3     H 9406   3.346   1.339  17.312 -0.0206  1.4183  1.3483
  635TMC3    H1 9407   3.249   1.255   0.022  1.8722  0.0073  1.0439
  635TMC3    H2 9408   3.462   0.969  17.478 -2.8230 -2.1369  1.1195
  635TMC3    C7 9409   3.339   1.003   0.015 -0.1562 -0.3390  0.0712
  635TMC3    C8 9410   3.439   1.080  17.272 -0.2843  0.1833 -0.2694
  635TMC3    O1 9411   3.286   1.057   0.111 -0.2102  0.3474 -0.1340
  635TMC3    O2 9412   3.425   0.955  17.271  0.1862  0.9531 -0.0302
  636MPD2     C 9413   4.414   1.511  15.651 -0.6958  0.7848 -0.0160
  636MPD2    C1 9414   4.388   1.587  15.759 -0.0490  0.5052  0.6997
  636MPD2    C2 9415   4.418   1.534  15.875  0.2823  0.3794 -0.8446
  636MPD2    C3 9416   4.471   1.404  15.895 -0.6038 -0.8528 -0.4664
  636MPD2    C4 9417   4.484   1.323  15.782  0.0954 -0.1864  0.4466
  636MPD2    C5 9418   4.460   1.382  15.660  0.3357  0.0824  0.3255
  636MPD2     H 9419   4.408   1.594  15.965  1.1672 -2.1168  0.9142
  636MPD2    H1 9420   4.519   1.221  15.782 -1.1655 -0.6262  1.5823
  636MPD2    H2 9421   4.384   1.545  15.552 -0.3495 -1.1692 -0.7923
  636MPD2    H3 9422   4.490   1.332  15.569 -3.1258 -3.2861  1.0377
  636MPD2     N 9423   4.499   1.363  16.024  0.1891  0.4870  0.1589
  636MPD2    H5 9424   4.501   1.431  16.099 -3.0751  1.4575 -0.6401
  636MPD2    N1 9425   4.351   1.728  15.752  0.2674 -0.5052 -0.0695
  636MPD2    H7 9426   4.362   1.783  15.837  1.0758  1.0940 -1.2161
  637TMC3    C1 9427   4.587   1.230  16.197  0.0446  0.0582  0.1605
  637TMC3    C2 9428   4.609   1.344  16.268 -0.0327  0.7229  0.1841
  637TMC3    C3 9429   4.672   1.341  16.389 -0.1518  0.3655  0.6421
  637TMC3    C4 9430   4.641   1.111  16.239 -0.4168  0.1049  0.0213
  637TMC3    C5 9431   4.708   1.113  16.360  0.4962  0.2913  0.3424
  637TMC3    C6 9432   4.719   1.218  16.441 -0.9081 -0.2095  0.1228
  637TMC3     C 9433   4.542   1.236  16.058 -0.7850 -0.2397  0.2776
  637TMC3     O 9434   4.536   1.132  15.991 -0.5685 -0.4933 -0.2492
  637TMC3     H 9435   4.563   1.439  16.243 -0.0061  0.7423  0.2088
  637TMC3    H1 9436   4.631   1.015  16.189 -0.8372  0.4475 -0.5484
  637TMC3    H2 9437   0.007   1.203  16.547 -2.6435  0.9195  0.5039
  637TMC3    C7 9438   0.055   0.989  16.389  0.2816 -1.0477 -0.2288
  637TMC3    C8 9439   0.015   1.463  16.425 -0.1488 -0.0385 -0.9928
  637TMC3    O1 9440   4.718   0.887  16.369  0.2588  0.7372 -0.6710
  637TMC3    O2 9441   4.699   1.563  16.368  0.7946  0.4583  0.4092
  638MPD2     C 9442   4.189   0.502  14.832 -0.8055  0.1052 -0.4813
  638MPD2    C1 9443   4.158   0.392  14.763 -1.1209 -0.0475 -0.7138
  638MPD2    C2 9444   4.090   0.279  14.817 -0.3841  0.2476  0.0530
  638MPD2    C3 9445   4.076   0.274  14.951  0.0772 -0.1713 -0.1108
  638MPD2    C4 9446   4.106   0.388  15.023 -1.0429 -0.4523  0.5681
  638MPD2    C5 9447   4.156   0.504  14.966 -0.1877 -0.1207 -0.2379
  638MPD2     H 9448   4.083   0.187  14.761  0.4631  0.5607 -0.5661
  638MPD2    H1 9449   4.076   0.396  15.127 -0.6431 -1.3113  0.7506
  638MPD2    H2 9450   4.233   0.593  14.793 -1.5975 -0.0689 -1.7568
  638MPD2    H3 9451   4.180   0.579  15.041 -0.2825 -0.4624  0.1321
  638MPD2     N 9452   4.045   0.145  15.011  0.6808 -0.3843  0.1753
  638MPD2    H5 9453   4.030   0.062  14.955  0.4397  0.6371 -1.2711
  638MPD2    N1 9454   4.211   0.386  14.629  0.0081 -0.3933 -0.0939
  638MPD2    H7 9455   4.290   0.449  14.618  0.2477 -0.3650  1.7279
  639TMC3    C1 9456   4.023   4.710  15.179  0.4010  0.0165 -0.2831
  639TMC3    C2 9457   3.909   4.659  15.126 -0.3178 -0.5459 -0.1320
  639TMC3    C3 9458   3.863   4.541  15.181 -0.3652 -0.3603 -0.7553
  639TMC3    C4 9459   4.070   4.663  15.298 -0.0986  0.2135 -0.6969
  639TMC3    C5 9460   4.029   4.544  15.350  0.3500 -0.5359 -0.3431
  639TMC3    C6 9461   3.917   4.488  15.297 -0.1703 -0.1036  0.4745
  639TMC3     C 9462   4.038   0.124  15.143 -0.3231  0.4129  0.0413
  639TMC3     O 9463   4.058   0.200  15.235  0.2094 -0.2710 -0.2337
  639TMC3     H 9464   3.863   4.706  15.040 -0.6485  0.4737  0.6036
  639TMC3    H1 9465   4.159   4.713  15.335 -0.6018  1.7673 -1.6062
  639TMC3    H2 9466   3.887   4.390  15.331  2.2159 -1.5984 -1.7635
  639TMC3    C7 9467   4.129   4.455  15.394  0.1045 -0.4515 -0.1788
  639TMC3    C8 9468   3.817   4.448  15.082 -0.3122 -0.1417  0.5977
  639TMC3    O1 9469   4.087   4.357  15.456 -0.2056  0.3387 -0.0714
  639TMC3    O2 9470   3.875   4.452  14.978 -0.2396 -0.4363  0.4422
  640MPD2     C 9471   0.432   3.715   9.456 -0.5728  0.3131  1.0026
  640MPD2    C1 9472   0.487   3.831   9.507 -0.6086 -0.2637 -0.1539
  640MPD2    C2 9473   0.441   3.951   9.455  0.3015  0.2852  1.1758
  640MPD2    C3 9474   0.333   3.955   9.363 -0.1941  0.2232  0.6617
  640MPD2    C4 9475   0.275   3.838   9.323  0.0452  0.1311 -0.3388
  640MPD2    C5 9476   0.328   3.724   9.368  0.3996  0.6370  0.2346
  640MPD2     H 9477   0.473   4.043   9.501  1.8937  0.3764 -0.0952
  640MPD2    H1 9478   0.192   3.835   9.253 -1.8649 -0.6259  1.9327
  640MPD2    H2 9479   0.478   3.620   9.480  1.0370  0.8508  0.0058
  640MPD2    H3 9480   0.294   3.629   9.328 -0.6134  0.7148  0.9195
  640MPD2     N 9481   0.259   4.072   9.326  0.1452  0.4435 -0.4240
  640MPD2    H5 9482   0.194   4.062   9.249  1.7016 -0.1917 -1.6558
  640MPD2    N1 9483   0.591   3.822   9.602  0.4908 -0.1138  0.3567
  640MPD2    H7 9484   0.598   3.728   9.640  0.3666 -0.5454 -0.6910
  641TMC3    C1 9485   0.768   3.897   9.741  1.0776 -0.3089 -0.9762
  641TMC3    C2 9486   0.739   3.783   9.813 -0.3277  0.3062 -0.8137
  641TMC3    C3 9487   0.846   3.718   9.870 -0.0778  0.2130 -0.9986
  641TMC3    C4 9488   0.896   3.933   9.713 -0.3913 -0.5790  0.8175
  641TMC3    C5 9489   0.998   3.871   9.774  0.4298  0.3437  0.4690
  641TMC3    C6 9490   0.976   3.758   9.850 -0.4399 -1.0713 -0.3299
  641TMC3     C 9491   0.670   3.930   9.641 -0.2597 -0.1184  0.4672
  641TMC3     O 9492   0.677   4.043   9.594  0.3334  0.2828 -0.4974
  641TMC3     H 9493   0.642   3.745   9.843 -0.8970  2.3343 -0.1244
  641TMC3    H1 9494   0.920   4.015   9.645 -0.6216 -0.4351  0.9093
  641TMC3    H2 9495   1.059   3.694   9.877  0.1517 -0.5106 -0.8394
  641TMC3    C7 9496   1.136   3.917   9.754  0.7825 -0.7517  0.1843
  641TMC3    C8 9497   0.823   3.579   9.884  0.2619  0.1105 -0.6096
  641TMC3    O1 9498   1.218   3.887   9.844 -0.4887  0.3883 -0.3062
  641TMC3    O2 9499   0.752   3.535   9.801  0.0130  0.2503 -0.3429
  642TMC3    C1 9500   1.411   0.303  12.302 -0.2886 -0.1640  0.0691
  642TMC3    C2 9501   1.487   0.343  12.409 -0.0285 -0.9734  0.6107
  642TMC3    C3 9502   1.533   0.247  12.493  0.7608 -0.2723  0.7858
  642TMC3    C4 9503   1.378   0.176  12.277 -0.4410  0.5256 -0.5024
  642TMC3    C5 9504   1.439   0.087  12.358 -0.1305 -0.6199  0.7254
  642TMC3    C6 9505   1.509   0.118  12.469 -0.4242 -0.4241 -0.4148
  642TMC3     C 9506   1.360   0.409  12.224 -0.4384 -0.2394  0.2333
  642TMC3     O 9507   1.435   0.497  12.182  0.0162 -0.1488  0.3364
  642TMC3     H 9508   1.502   0.449  12.423 -1.0856 -0.5658 -1.2651
  642TMC3    H1 9509   1.318   0.152  12.190  1.8892 -1.1608 -1.6518
  642TMC3    H2 9510   1.561   0.043  12.526 -0.1229 -0.9118 -1.3394
  642TMC3    C7 9511   1.424   4.671  12.326  0.4585  0.1143  0.0251
  642TMC3    C8 9512   1.621   0.273  12.609  0.2240  0.3252 -0.1805
  642TMC3    O1 9513   1.385   4.645  12.214 -0.0316 -1.0675 -0.2670
  642TMC3    O2 9514   1.697   0.180  12.633  0.2158  0.0767 -0.6191
  643TMC3    C1 9515   0.252   4.162   0.483 -0.9054 -0.3796 -0.7500
  643TMC3    C2 9516   0.137   4.231   0.456  0.0960 -0.1614 -0.3743
  643TMC3    C3 9517   0.105   4.250   0.327 -0.6364  0.1092 -0.1240
  643TMC3    C4 9518   0.321   4.099   0.382 -0.7327 -0.2210 -0.1924
  643TMC3    C5 9519   0.284   4.127   0.253  0.3355  0.2723  0.0213
  643TMC3    C6 9520   0.180   4.209   0.226  0.3945 -0.2725 -0.0433
  643TMC3     C 9521   0.324   4.194   0.604  0.0272 -0.0656  0.5159
  643TMC3     O 9522   0.255   4.210   0.701 -0.0186 -1.0059  0.1188
  643TMC3     H 9523   0.079   4.290   0.526  0.2078 -1.0405  0.4644
  643TMC3    H1 9524   0.404   4.031   0.397 -0.9393 -0.4842 -0.2254
  643TMC3    H2 9525   0.159   4.254   0.130 -2.7441  0.5514  1.0328
  643TMC3    C7 9526   0.364   4.070   0.154  0.1889 -0.3091  0.4065
  643TMC3    C8 9527   0.023   4.365   0.286  0.1388 -0.0672  0.3818
  643TMC3    O1 9528   0.425   3.968   0.192 -0.2704 -0.6551  0.6072
  643TMC3    O2 9529   4.637   4.368   0.338 -0.7436  0.2275 -0.2815
  644MPD2     C 9530   1.072   4.441   9.689  0.6372  0.2550 -0.2537
  644MPD2    C1 9531   1.012   4.340   9.741  0.1851  0.1757  0.5694
  644MPD2    C2 9532   0.904   4.286   9.673  0.1750  0.2378 -0.2792
  644MPD2    C3 9533   0.872   4.334   9.550 -0.0474  0.0406  0.6062
  644MPD2    C4 9534   0.941   4.443   9.494  0.1485  0.4451 -0.8408
  644MPD2    C5 9535   1.037   4.500   9.573  0.1369 -0.2664 -0.0186
  644MPD2     H 9536   0.850   4.201   9.713  0.5997  0.8541  1.6108
  644MPD2    H1 9537   0.922   4.498   9.402 -2.6366  1.1414  0.1510
  644MPD2    H2 9538   1.159   4.484   9.736 -0.2086  0.5651  1.0147
  644MPD2    H3 9539   1.091   4.584   9.530 -2.5618  0.9395 -1.0262
  644MPD2     N 9540   0.771   4.273   9.481 -0.2054  0.1142 -0.1471
  644MPD2    H5 9541   0.750   4.180   9.517 -0.3477 -0.2098 -1.0665
  644MPD2    N1 9542   1.072   4.290   9.856  0.0822  0.4353 -0.2931
  644MPD2    H7 9543   1.152   4.342   9.888  1.0265 -1.6947  0.7507
  645TMC3    C1 9544   0.683   4.212   9.267 -0.7357 -0.3494  0.5743
  645TMC3    C2 9545   0.631   4.264   9.146 -0.1212 -0.0655  0.3373
  645TMC3    C3 9546   0.587   4.170   9.055 -0.4758  0.2920 -0.3021
  645TMC3    C4 9547   0.678   4.078   9.293 -0.3607  0.2833  0.7672
  645TMC3    C5 9548   0.656   3.998   9.183  0.6200  0.2307 -0.5548
  645TMC3    C6 9549   0.598   4.037   9.065 -0.2091  0.5555  0.4612
  645TMC3     C 9550   0.717   4.322   9.363 -0.3537  0.2251  1.3372
  645TMC3     O 9551   0.698   4.439   9.332 -0.1030 -0.2351 -0.0448
  645TMC3     H 9552   0.603   4.367   9.131 -1.2643 -0.3089  0.7660
  645TMC3    H1 9553   0.730   4.036   9.378  2.0862  2.6302  0.4360
  645TMC3    H2 9554   0.590   3.970   8.981 -0.0558  3.5443 -1.9221
  645TMC3    C7 9555   0.671   3.854   9.204 -0.2174 -0.3244  0.2057
  645TMC3    C8 9556   0.493   4.205   8.945 -0.6665 -1.0349 -0.0243
  645TMC3    O1 9557   0.745   3.820   9.294 -0.0189 -0.0729  0.5792
  645TMC3    O2 9558   0.439   4.111   8.894 -0.1598  0.1041 -0.3622
  646MPD2     C 9559   4.478   3.811  14.603 -0.4558 -0.6081  0.0272
  646MPD2    C1 9560   4.384   3.774  14.700  0.9788  0.0153 -0.0116
  646MPD2    C2 9561   4.252   3.795  14.680  0.3398  0.4191  0.3145
  646MPD2    C3 9562   4.216   3.865  14.564  0.1483  0.5470  0.0779
  646MPD2    C4 9563   4.310   3.918  14.481  0.0081 -0.1518  0.4519
  646MPD2    C5 9564   4.438   3.883  14.500  0.8675 -0.3279 -1.0580
  646MPD2     H 9565   4.180   3.761  14.753  1.4926 -0.9936  0.7997
  646MPD2    H1 9566   4.288   3.982  14.396  2.4591 -0.5322 -0.4654
  646MPD2    H2 9567   4.585   3.806  14.621 -0.8608  1.7666  3.1715
  646MPD2    H3 9568   4.517   3.916  14.433  3.3369  0.4483  2.2595
  646MPD2     N 9569   4.083   3.887  14.538  0.1972 -0.3193  0.2224
  646MPD2    H5 9570   4.012   3.853  14.602 -0.2770 -0.3189 -0.3068
  646MPD2    N1 9571   4.442   3.710  14.814 -0.3380 -0.3040  0.4240
  646MPD2    H7 9572   4.541   3.688  14.802 -0.4226 -1.3318  1.5505
  647TMC3    C1 9573   4.459   3.606  15.027  0.7498  0.1504  0.2932
  647TMC3    C2 9574   4.402   3.551  15.137 -0.0019 -0.0556 -0.4063
  647TMC3    C3 9575   4.477   3.511  15.247  0.6192  0.0778 -0.4909
  647TMC3    C4 9576   4.595   3.620  15.025  0.3636  0.0335 -0.1233
  647TMC3    C5 9577   4.668   3.560  15.124 -0.3704 -0.0091  0.0697
  647TMC3    C6 9578   4.610   3.522  15.243 -1.3864 -0.0691  0.7117
  647TMC3     C 9579   4.377   3.682  14.931 -0.4674  0.5278 -0.2327
  647TMC3     O 9580   4.265   3.725  14.963  0.0712 -0.0989 -0.2283
  647TMC3     H 9581   4.294   3.543  15.140  0.1677 -2.9878 -1.8464
  647TMC3    H1 9582   4.641   3.696  14.964  0.6905 -0.6142 -0.6894
  647TMC3    H2 9583   4.669   3.467  15.314 -0.2821  0.5876  0.2911
  647TMC3    C7 9584   0.086   3.544  15.115 -0.2744  0.0727 -0.4064
  647TMC3    C8 9585   4.431   3.379  15.289  0.0147  0.0861  0.3579
  647TMC3    O1 9586   0.147   3.523  15.219 -0.0289 -0.1572  0.2410
  647TMC3    O2 9587   4.513   3.291  15.270 -0.3023 -0.1158 -0.0736
  648TMC3    C1 9588   3.772   1.461  15.871  0.2386 -0.5675  0.2330
  648TMC3    C2 9589   3.830   1.346  15.822 -0.2789  0.4076  0.0491
  648TMC3    C3 9590   3.799   1.311  15.693  0.0803 -0.3759 -0.4041
  648TMC3    C4 9591   3.678   1.535  15.799 -0.9345  0.4478 -1.6400
  648TMC3    C5 9592   3.648   1.488  15.676  0.2672  0.5203 -0.6291
  648TMC3    C6 9593   3.710   1.379  15.622 -0.3887  0.1371  0.3615
  648TMC3     C 9594   3.770   1.484  16.015  0.4832  0.3644  0.3587
  648TMC3     O 9595   3.776   1.604  16.055  0.2060 -0.2181 -0.0468
  648TMC3     H 9596   3.907   1.291  15.876 -0.7437  0.3384  0.6385
  648TMC3    H1 9597   3.632   1.621  15.847  0.1691 -1.0580  2.0782
  648TMC3    H2 9598   3.677   1.346  15.524 -0.0800 -2.3057  1.0623
  648TMC3    C7 9599   3.565   1.573  15.592  0.4758  0.5962 -0.0673
  648TMC3    C8 9600   3.816   1.169  15.666  0.1733 -0.3035 -0.5090
  648TMC3    O1 9601   3.598   1.586  15.476 -0.1051 -0.2486 -0.1842
  648TMC3    O2 9602   3.898   1.111  15.739  0.2248  0.0985  0.2557
  649TMC3    C1 9603   2.763   2.342  12.456  0.3323  0.0408  0.1029
  649TMC3    C2 9604   2.899   2.348  12.457  0.0062  0.0084 -0.1569
  649TMC3    C3 9605   2.957   2.348  12.584 -0.0179 -1.2874 -0.0370
  649TMC3    C4 9606   2.689   2.332  12.573  0.5136  0.6042  0.2258
  649TMC3    C5 9607   2.748   2.336  12.694  0.3257 -0.6816 -0.2700
  649TMC3    C6 9608   2.886   2.342  12.700  0.0798  0.5098 -0.5701
  649TMC3     C 9609   2.696   2.358  12.334  0.9359 -0.1415  0.4156
  649TMC3     O 9610   2.576   2.394  12.349 -0.0307 -0.3866  0.4897
  649TMC3     H 9611   2.960   2.364  12.369  0.4704  0.8730  0.3152
  649TMC3    H1 9612   2.584   2.309  12.562  0.7014  0.3690 -1.1370
  649TMC3    H2 9613   2.927   2.351  12.800  1.6736  1.1696 -1.2846
  649TMC3    C7 9614   2.671   2.302  12.807 -0.4033 -0.1580  0.0309
  649TMC3    C8 9615   3.100   2.352  12.597 -0.1592  0.5728  0.0152
  649TMC3    O1 9616   2.551   2.327  12.805  0.4610 -0.3996  0.3712
  649TMC3    O2 9617   3.143   2.333  12.709 -0.1098  0.1446  0.4906
  650TMC3    C1 9618   0.889   4.432  13.004  0.0953  0.3605  0.1854
  650TMC3    C2 9619   0.833   4.557  12.996 -0.5627 -0.0065 -0.3641
  650TMC3    C3 9620   0.872   4.629  12.890  0.9540  0.0202  0.1028
  650TMC3    C4 9621   0.975   4.384  12.914 -0.4305  0.4136  0.3198
  650TMC3    C5 9622   1.008   4.462  12.807 -0.0235 -0.5218 -0.2648
  650TMC3    C6 9623   0.972   4.592  12.809 -0.0379 -0.0156 -0.0268
  650TMC3     C 9624   0.843   4.351  13.114  0.6924  0.3060  0.0388
  650TMC3     O 9625   0.816   4.417  13.212  0.3191 -0.2476  0.5238
  650TMC3     H 9626   0.750   4.589  13.058  0.2993 -0.0923  0.8319
  650TMC3    H1 9627   1.023   4.288  12.919  2.1255  1.7107  0.6335
  650TMC3    H2 9628   0.992   4.651  12.720 -0.4605  0.2275  0.0364
  650TMC3    C7 9629   1.066   4.394  12.689  0.1223  0.3685  0.2548
  650TMC3    C8 9630   0.803   0.019  12.850 -1.1581  0.3019  0.3352
  650TMC3    O1 9631   1.072   4.274  12.698 -0.4087  0.1701  0.0894
  650TMC3    O2 9632   0.853   0.097  12.769  0.2145  0.1033 -0.5802
  651MPD2     C 9633   4.285   1.458  10.649  0.1636  0.9141  0.0343
  651MPD2    C1 9634   4.303   1.574  10.718  0.4622 -0.1543 -0.4704
  651MPD2    C2 9635   4.426   1.637  10.725 -0.2168 -0.0007  0.0860
  651MPD2    C3 9636   4.537   1.591  10.663  0.1733  0.3561 -0.1082
  651MPD2    C4 9637   4.512   1.481  10.586  0.4408  0.2252 -1.1539
  651MPD2    C5 9638   4.395   1.406  10.592 -0.2663  0.1987  0.0647
  651MPD2     H 9639   4.430   1.732  10.777 -0.0884 -0.5047  1.0074
  651MPD2    H1 9640   4.590   1.449  10.518  0.0478 -2.1735 -0.4715
  651MPD2    H2 9641   4.189   1.409  10.646 -0.2644  1.7288  0.3905
  651MPD2    H3 9642   4.380   1.327  10.519  3.8150  0.2303 -0.8441
  651MPD2     N 9643   4.658   1.672  10.670  0.2373 -0.5377 -0.3156
  651MPD2    H5 9644   4.657   1.759  10.721 -0.6548  0.4482 -1.9984
  651MPD2    N1 9645   4.198   1.638  10.796  0.2655  0.3738  0.0630
  651MPD2    H7 9646   4.222   1.722  10.848  0.4304 -0.8578  1.9793
  652TMC3    C1 9647   0.369   1.786  10.564  0.3930 -0.1584  0.5073
  652TMC3    C2 9648   0.275   1.691  10.565 -0.1856 -0.2871 -0.5791
  652TMC3    C3 9649   0.165   1.721  10.642  0.1227 -0.8031  0.6125
  652TMC3    C4 9650   0.356   1.897  10.640  0.5465  0.2075  0.6079
  652TMC3    C5 9651   0.249   1.913  10.725  0.2251  0.3784 -0.1617
  652TMC3    C6 9652   0.142   1.831  10.724 -0.4970  0.7771 -0.0968
  652TMC3     C 9653   0.506   1.733  10.565 -0.0701  0.2572  0.1836
  652TMC3     O 9654   0.520   1.617  10.600  0.2246  0.0792  0.0182
  652TMC3     H 9655   0.289   1.599  10.510 -0.7781 -0.7829  0.1102
  652TMC3    H1 9656   0.443   1.962  10.652  1.7857 -1.3911  0.2985
  652TMC3    H2 9657   0.054   1.855  10.782 -0.5878 -0.9074  0.4704
  652TMC3    C7 9658   0.272   1.971  10.855  0.2260 -0.4591 -0.8289
  652TMC3    C8 9659   0.056   1.630  10.617 -0.7323 -0.5610 -0.2333
  652TMC3    O1 9660   0.218   1.915  10.950  0.1305  0.1188 -0.6043
  652TMC3    O2 9661   0.080   1.528  10.547  0.0133 -0.4501 -0.4099
  653MPD2     C 9662   2.764   1.172  17.441 -0.3734  0.4021  0.6987
  653MPD2    C1 9663   2.803   1.266  17.342 -0.3429  0.2076 -0.9429
  653MPD2    C2 9664   2.764   1.237  17.207 -0.3739  0.0395  0.6080
  653MPD2    C3 9665   2.700   1.125  17.171  0.3804 -0.1101  0.4214
  653MPD2    C4 9666   2.671   1.035  17.274 -0.4863  0.6134  0.2054
  653MPD2    C5 9667   2.699   1.052  17.400 -0.1233 -0.0907  0.3085
  653MPD2     H 9668   2.780   1.311  17.129 -2.9922  0.9639  0.9260
  653MPD2    H1 9669   2.613   0.945  17.256  0.6927 -0.0421 -0.3607
  653MPD2    H2 9670   2.770   1.190  17.547 -0.7140  1.8187  0.4743
  653MPD2    H3 9671   2.679   0.974  17.473  1.6978 -1.8400 -1.0610
  653MPD2     N 9672   2.658   1.100  17.038  0.0417 -0.3923  0.1859
  653MPD2    H5 9673   2.657   1.180  16.976  0.1478  0.5796  1.4351
  653MPD2    N1 9674   2.851   1.394  17.373 -0.0043  0.7493 -0.7818
  653MPD2    H7 9675   2.854   1.467  17.304 -1.6476  2.1993  0.6851
  654TMC3    C1 9676   2.653   0.944  16.849  0.9749  0.0948  1.2566
  654TMC3    C2 9677   2.581   1.036  16.785 -0.1944 -0.2436 -0.3956
  654TMC3    C3 9678   2.545   1.015  16.657 -0.5709  0.0842 -0.5008
  654TMC3    C4 9679   2.679   0.822  16.805 -0.1149  0.5672  0.9995
  654TMC3    C5 9680   2.646   0.797  16.674 -0.4604  0.0535 -0.2161
  654TMC3    C6 9681   2.566   0.887  16.608  0.0447  0.5356 -0.5884
  654TMC3     C 9682   2.676   0.969  16.991 -0.7758  0.4588 -0.4855
  654TMC3     O 9683   2.696   0.874  17.065 -0.0096  0.0177  0.0021
  654TMC3     H 9684   2.559   1.136  16.820  0.4730  0.4634 -1.9699
  654TMC3    H1 9685   2.723   0.750  16.873  0.9582  0.2888  0.0198
  654TMC3    H2 9686   2.534   0.869  16.506  2.1003 -1.5527 -0.8886
  654TMC3    C7 9687   2.625   0.660  16.625 -0.0241  0.2988 -0.9947
  654TMC3    C8 9688   2.445   1.098  16.595  0.0072  0.2669 -0.1155
  654TMC3    O1 9689   2.541   0.641  16.540 -0.1754  0.0893  0.2445
  654TMC3    O2 9690   2.384   1.169  16.673 -0.3721  0.0573  0.1037
  655MPD2     C 9691   4.056   1.463  15.583 -0.1569 -1.0197  0.1011
  655MPD2    C1 9692   3.988   1.561  15.512  0.5091 -0.5800 -0.5887
  655MPD2    C2 9693   3.974   1.550  15.375 -0.7000  0.2282  0.3410
  655MPD2    C3 9694   4.016   1.439  15.306  0.7910 -0.0834 -0.1851
  655MPD2    C4 9695   4.077   1.333  15.378 -0.2740 -0.5914  0.1282
  655MPD2    C5 9696   4.091   1.348  15.514 -0.0931  0.2022  0.0697
  655MPD2     H 9697   3.948   1.638  15.318 -2.4070 -1.3308 -1.2628
  655MPD2    H1 9698   4.114   1.244  15.329  0.3235  0.0893 -0.6694
  655MPD2    H2 9699   4.084   1.477  15.687 -2.5784  4.3156  0.0551
  655MPD2    H3 9700   4.141   1.269  15.569 -2.4341 -0.9401  0.5401
  655MPD2     N 9701   3.981   1.420  15.173  0.3023  0.0476  0.5253
  655MPD2    H5 9702   4.027   1.342  15.125  0.6474  0.7213 -0.2389
  655MPD2    N1 9703   3.942   1.678  15.572 -0.1544 -0.5386 -0.4074
  655MPD2    H7 9704   3.889   1.744  15.517  0.8890  0.9208  0.3478
  656TMC3    C1 9705   3.903   1.843  15.718 -0.4297  0.2649 -0.9292
  656TMC3    C2 9706   3.869   1.872  15.849 -0.6155  0.1651 -0.5687
  656TMC3    C3 9707   3.832   2.005  15.871  0.3446 -0.2661 -0.1789
  656TMC3    C4 9708   3.878   1.928  15.610 -0.0473 -0.0834 -0.5548
  656TMC3    C5 9709   3.822   2.050  15.634 -0.2287  0.0163 -0.2908
  656TMC3    C6 9710   3.808   2.092  15.767  0.7423 -0.6995 -0.8016
  656TMC3     C 9711   3.947   1.713  15.707 -0.0282  0.6376 -0.4807
  656TMC3     O 9712   3.990   1.650  15.802 -0.0832 -0.3297  0.2192
  656TMC3     H 9713   3.904   1.814  15.933  0.1706  1.0477 -0.2891
  656TMC3    H1 9714   3.905   1.905  15.508 -2.3501 -0.4419 -1.0669
  656TMC3    H2 9715   3.776   2.194  15.783  0.7518 -0.8703  0.3258
  656TMC3    C7 9716   3.772   2.126  15.519 -0.0649 -0.1887 -0.0493
  656TMC3    C8 9717   3.739   2.023  15.977  0.2595  0.2589  1.2633
  656TMC3    O1 9718   3.818   2.100  15.406  0.2446 -0.1518 -0.5308
  656TMC3    O2 9719   3.717   2.137  16.007  0.0325  0.5217 -0.5299
  657TMC3    C1 9720   3.040   0.546  14.348 -0.2960  0.0215 -0.1297
  657TMC3    C2 9721   3.018   0.639  14.444 -0.1630 -0.1450 -0.6188
  657TMC3    C3 9722   2.949   0.753  14.411  0.0884 -0.4591  0.2442
  657TMC3    C4 9723   3.000   0.558  14.220  0.3878 -0.2999  0.3028
  657TMC3    C5 9724   2.923   0.675  14.190 -1.2038 -0.0926  0.2735
  657TMC3    C6 9725   2.897   0.767  14.286 -0.4734 -0.2634 -0.3876
  657TMC3     C 9726   3.108   0.417  14.375 -0.7670  0.1983 -0.7833
  657TMC3     O 9727   3.057   0.314  14.330  0.4270  0.5669  0.5116
  657TMC3     H 9728   3.050   0.615  14.545 -0.9764 -4.0887 -1.3201
  657TMC3    H1 9729   3.028   0.491  14.141  0.9092 -0.9634  1.0602
  657TMC3    H2 9730   2.836   0.851  14.253  3.5161  2.3416 -1.1244
  657TMC3    C7 9731   2.877   0.678  14.052  0.1515  0.7537  0.5259
  657TMC3    C8 9732   2.887   0.842  14.506  0.2173 -0.3919 -0.2480
  657TMC3    O1 9733   2.957   0.628  13.972  0.1710 -0.2861  0.2936
  657TMC3    O2 9734   2.792   0.912  14.474  0.9015 -0.3898  0.9321
  658MPD2     C 9735   4.367   1.251  14.752 -0.2974  0.2759 -0.1941
  658MPD2    C1 9736   4.264   1.303  14.675 -0.3491 -0.1764  0.3473
  658MPD2    C2 9737   4.284   1.313  14.538  0.4158 -0.9130 -0.1792
  658MPD2    C3 9738   4.401   1.267  14.477  0.1315  0.1468  0.5343
  658MPD2    C4 9739   4.501   1.224  14.552  0.0718 -0.1374  0.0287
  658MPD2    C5 9740   4.489   1.226  14.690  0.1541  0.4199 -0.6612
  658MPD2     H 9741   4.210   1.348  14.466  1.3796  1.3631 -0.0695
  658MPD2    H1 9742   4.585   1.174  14.505  1.8350  0.8780  2.0929
  658MPD2    H2 9743   4.362   1.233  14.858  0.1636  0.6092 -0.1157
  658MPD2    H3 9744   4.566   1.182  14.752  0.0386  0.7307 -0.2988
  658MPD2     N 9745   4.399   1.273  14.334  0.2668 -0.0595  0.3198
  658MPD2    H5 9746   4.307   1.296  14.296  0.1134 -0.2914  0.5529
  658MPD2    N1 9747   4.144   1.340  14.741 -0.0207  0.9729  0.5268
  658MPD2    H7 9748   4.134   1.324  14.841 -1.4319  1.4221  0.4601
  659TMC3    C1 9749   3.928   1.420  14.760 -0.1027  0.4314 -0.0668
  659TMC3    C2 9750   3.966   1.437  14.891 -0.3990 -0.0583 -0.3780
  659TMC3    C3 9751   3.857   1.458  14.977  0.0109 -0.5526 -1.4834
  659TMC3    C4 9752   3.803   1.428  14.709  0.8680 -0.6103 -0.3439
  659TMC3    C5 9753   3.703   1.434  14.802  0.0176  0.3405  0.8902
  659TMC3    C6 9754   3.726   1.440  14.938 -0.2244  0.3627  0.7413
  659TMC3     C 9755   4.039   1.390  14.673 -0.2385 -0.5682  0.3720
  659TMC3     O 9756   4.004   1.358  14.559  0.3148 -0.4986 -0.1660
  659TMC3     H 9757   4.068   1.449  14.926 -0.5308  2.8790 -0.9849
  659TMC3    H1 9758   3.787   1.440  14.602 -1.3111  2.2937  0.2952
  659TMC3    H2 9759   3.645   1.454  15.008 -1.3543  3.1570 -1.1592
  659TMC3    C7 9760   3.559   1.418  14.766  0.0587  0.1360 -0.1738
  659TMC3    C8 9761   3.880   1.490  15.117  0.0914 -0.1455  0.1380
  659TMC3    O1 9762   3.486   1.464  14.855  0.0099 -0.2329 -0.3618
  659TMC3    O2 9763   3.796   1.568  15.161 -0.2365 -0.6661 -0.5089
  660MPD2     C 9764   2.691   0.080  12.866  0.2635  0.0548  0.3450
  660MPD2    C1 9765   2.578   0.118  12.793 -0.0131  0.5608 -0.1224
  660MPD2    C2 9766   2.452   0.080  12.837 -0.1942  1.0145  0.2009
  660MPD2    C3 9767   2.438   0.023  12.969  0.5175 -0.9598 -0.5629
  660MPD2    C4 9768   2.553   4.715  13.041  0.8828  0.8838 -0.5064
  660MPD2    C5 9769   2.680   0.015  12.987 -0.3543  0.1284  0.0586
  660MPD2     H 9770   2.368   0.089  12.769 -0.0516 -1.0119 -0.2383
  660MPD2    H1 9771   2.545   4.661  13.135  1.2026  0.5902 -0.6484
  660MPD2    H2 9772   2.792   0.106  12.833  0.2084  0.1650  0.2618
  660MPD2    H3 9773   2.774   4.712  13.032 -0.9610 -0.2081  1.1041
  660MPD2     N 9774   2.308   4.720  13.007 -0.3864 -0.1828  0.2998
  660MPD2    H5 9775   2.295   4.680  13.099  0.8732  1.1051  1.0411
  660MPD2    N1 9776   2.596   0.177  12.664 -0.1357  0.3024  0.2124
  660MPD2    H7 9777   2.694   0.191  12.643 -0.7504  1.4099 -1.9689
  661TMC3    C1 9778   2.547   0.287  12.460  0.0106 -0.1757  0.4748
  661TMC3    C2 9779   2.665   0.231  12.405  0.4384  0.1851  0.2563
  661TMC3    C3 9780   2.697   0.273  12.279  0.3666 -0.7862 -0.1323
  661TMC3    C4 9781   2.462   0.361  12.389  0.2958  0.6587  0.0986
  661TMC3    C5 9782   2.500   0.390  12.256  0.1595  0.6777  0.1313
  661TMC3    C6 9783   2.608   0.335  12.193 -0.7076 -0.3064 -0.3867
  661TMC3     C 9784   2.496   0.224  12.582  0.1923 -0.3411  0.3807
  661TMC3     O 9785   2.378   0.240  12.609  0.4448  0.4397 -0.1879
  661TMC3     H 9786   2.732   0.164  12.457  1.2765  0.2992 -0.6690
  661TMC3    H1 9787   2.367   0.394  12.427  0.0958 -0.5401  0.6342
  661TMC3    H2 9788   2.624   0.340  12.086  0.9053  0.4951 -0.0990
  661TMC3    C7 9789   2.394   0.425  12.162  0.5403 -0.4263  0.0286
  661TMC3    C8 9790   2.833   0.236  12.238 -0.2975 -0.3519 -0.2860
  661TMC3    O1 9791   2.338   0.536  12.187 -0.2304  0.5372 -0.1203
  661TMC3    O2 9792   2.899   0.159  12.302 -0.1965 -0.2050  0.1123
  662MPD2     C 9793   2.473   0.087  17.240  0.4396 -0.3007  0.3932
  662MPD2    C1 9794   2.405   0.023  17.340  0.0629  0.4609 -0.0715
  662MPD2    C2 9795   2.316   0.088  17.427 -0.7010 -0.4325  0.0598
  662MPD2    C3 9796   2.296   0.225  17.412 -0.3701 -1.4786 -0.2760
  662MPD2    C4 9797   2.386   0.292  17.327 -0.9613 -0.1249  0.1573
  662MPD2    C5 9798   2.476   0.226  17.246 -0.7505 -0.3340 -0.1596
  662MPD2     H 9799   2.266   0.025  17.499 -0.9546  1.2933  1.3860
  662MPD2    H1 9800   2.389   0.400  17.333 -1.8175 -0.0038 -1.6570
  662MPD2    H2 9801   2.534   0.035  17.166  1.2045 -2.2031  2.3578
  662MPD2    H3 9802   2.541   0.282  17.179 -0.9711  1.8665  1.4711
  662MPD2     N 9803   2.208   0.302  17.486 -0.4891  0.4163  0.2063
  662MPD2    H5 9804   2.196   0.396  17.448 -1.6249 -0.4322 -1.5254
  662MPD2    N1 9805   2.417   4.609  17.348 -0.1353 -0.2079  0.6827
  662MPD2    H7 9806   2.368   4.573  17.429  1.0040  1.0620  1.9370
  663TMC3    C1 9807   2.458   4.379  17.287  0.2273 -0.1049 -0.0812
  663TMC3    C2 9808   2.435   4.337  17.414 -0.1990 -0.7875  0.0539
  663TMC3    C3 9809   2.394   4.212  17.428 -0.3032  0.1479 -0.8036
  663TMC3    C4 9810   2.437   4.296  17.178 -0.6347 -0.2569 -0.5594
  663TMC3    C5 9811   2.409   4.164  17.204  0.1082  0.4065  0.0588
  663TMC3    C6 9812   2.371   4.117  17.326 -0.6261  0.0359 -0.1661
  663TMC3     C 9813   2.480   4.523  17.260 -0.0227 -0.5847 -0.2527
  663TMC3     O 9814   2.520   4.548  17.145 -0.4430 -0.3006 -0.3148
  663TMC3     H 9815   2.465   4.391  17.503  0.0229 -1.0660  0.1490
  663TMC3    H1 9816   2.453   4.329  17.076  1.3056  0.7042  0.0460
  663TMC3    H2 9817   2.359   4.014  17.358  1.0256 -0.6891 -1.9383
  663TMC3    C7 9818   2.378   4.081  17.079 -0.0744  0.0648 -0.3173
  663TMC3    C8 9819   2.444   4.152  17.549  0.2603 -0.2399  0.3552
  663TMC3    O1 9820   2.399   4.127  16.969  0.5780  0.1843  0.1583
  663TMC3    O2 9821   2.557   4.185  17.582  0.7515 -0.2994  0.1466
  664MPD2     C 9822   0.702   2.952  17.139  0.0984 -0.0962 -0.2201
  664MPD2    C1 9823   0.657   3.068  17.194  0.0526  0.3661  0.3736
  664MPD2    C2 9824   0.695   3.102  17.326  0.6932 -0.1081 -0.0252
  664MPD2    C3 9825   0.773   3.021  17.404  0.0836  0.5832 -0.4179
  664MPD2    C4 9826   0.827   2.915  17.338  0.4031  0.0650 -0.0114
  664MPD2    C5 9827   0.796   2.887  17.207  0.1157 -0.5790  0.7223
  664MPD2     H 9828   0.647   3.185  17.377 -0.6265  0.9208 -2.9725
  664MPD2    H1 9829   0.902   2.848  17.379 -0.3091 -0.5661  0.2459
  664MPD2    H2 9830   0.690   2.916  17.037  0.8889 -1.2755  0.1069
  664MPD2    H3 9831   0.835   2.797  17.161 -2.8311 -0.8198 -1.2324
  664MPD2     N 9832   0.805   3.048  17.536  0.6233 -0.7406  0.3701
  664MPD2    H5 9833   0.766   3.138  17.561 -0.9278 -0.7529 -1.9955
  664MPD2    N1 9834   0.551   3.141  17.131 -0.3773 -0.7007 -0.5019
  664MPD2    H7 9835   0.524   3.230  17.171  0.6343 -0.1365 -1.0623
  665TMC3    C1 9836   0.924   3.042   0.035  0.1325 -0.5742 -0.2197
  665TMC3    C2 9837   0.963   2.968   0.148 -0.2194 -0.5163  0.0394
  665TMC3    C3 9838   1.003   3.035   0.259 -0.3595 -0.1219  0.2668
  665TMC3    C4 9839   0.913   3.179   0.040 -0.6461 -0.6948  0.3633
  665TMC3    C5 9840   0.942   3.234   0.164  0.0957  0.0323 -0.5510
  665TMC3    C6 9841   0.989   3.171   0.275 -0.0910  0.6746  0.1200
  665TMC3     C 9842   0.882   2.972  17.616 -0.7253 -0.8404  0.4415
  665TMC3     O 9843   0.930   2.862  17.601 -0.3111  0.2335  0.7984
  665TMC3     H 9844   0.964   2.861   0.161 -0.6464 -0.5081  0.1292
  665TMC3    H1 9845   0.915   3.244  17.658  0.6993  0.0308  0.9281
  665TMC3    H2 9846   1.013   3.216   0.371  0.5141 -1.1793  0.8325
  665TMC3    C7 9847   0.895   3.375   0.180 -0.1483 -0.2517 -0.6568
  665TMC3    C8 9848   0.983   2.973   0.391 -0.2387 -0.9699 -0.0050
  665TMC3    O1 9849   0.825   3.421   0.095  0.4787  0.5692 -0.0032
  665TMC3    O2 9850   0.867   2.962   0.427 -0.1802 -0.1394 -0.6190
  666TMC3    C1 9851   4.582   2.984  10.185 -0.2592 -0.4345 -0.0992
  666TMC3    C2 9852   4.696   2.907  10.191  0.8149 -0.5865  0.1599
  666TMC3    C3 9853   0.081   2.949  10.123 -0.3732  0.2255 -0.3269
  666TMC3    C4 9854   4.573   3.089  10.098  0.0533  0.5886  0.1481
  666TMC3    C5 9855   4.678   3.118  10.013 -0.7816  0.4185  0.2170
  666TMC3    C6 9856   0.073   3.048  10.031 -0.1606  0.1060 -0.6657
  666TMC3     C 9857   4.481   2.966  10.285 -0.2484 -0.4638  0.9178
  666TMC3     O 9858   4.402   3.059  10.308  0.2118 -0.1422  0.0662
  666TMC3     H 9859   4.703   2.824  10.260  0.4890  0.3247  1.2795
  666TMC3    H1 9860   4.494   3.160  10.118  0.7862  1.7614 -1.1277
  666TMC3    H2 9861   0.161   3.071   9.972 -0.6624  1.7927 -0.7672
  666TMC3    C7 9862   4.674   3.253   9.954  0.3804  0.3143  0.3126
  666TMC3    C8 9863   0.206   2.908  10.189 -0.1302 -0.2388  0.1647
  666TMC3    O1 9864   4.606   3.343  10.005  0.3846 -0.0053 -0.3107
  666TMC3    O2 9865   0.198   2.804  10.251 -0.3042  0.1135 -0.1379
  667MPD2     C 9866   1.723   2.757  14.586  0.6159  0.0615  0.6174
  667MPD2    C1 9867   1.592   2.779  14.609  0.1560 -0.3349 -0.5648
  667MPD2    C2 9868   1.501   2.679  14.579  0.4638  0.2318 -0.3118
  667MPD2    C3 9869   1.539   2.564  14.505  0.3797  0.0309 -0.6941
  667MPD2    C4 9870   1.672   2.540  14.477  0.3054  0.1625  0.6247
  667MPD2    C5 9871   1.763   2.638  14.525  0.4453  0.8834  0.8033
  667MPD2     H 9872   1.402   2.706  14.614  0.2695 -1.4721  0.4350
  667MPD2    H1 9873   1.706   2.449  14.427 -0.3535  0.0794  0.3282
  667MPD2    H2 9874   1.804   2.817  14.627  1.4961 -1.8038  1.5790
  667MPD2    H3 9875   1.869   2.616  14.514 -0.1695 -0.8433 -1.5536
  667MPD2     N 9876   1.439   2.468  14.464  0.4688  0.2759 -0.4010
  667MPD2    H5 9877   1.458   2.369  14.456  1.1562  0.3188  0.7154
  667MPD2    N1 9878   1.546   2.894  14.676  0.5838  0.1732  0.2805
  667MPD2    H7 9879   1.451   2.900  14.711 -0.1792  1.3714 -1.9795
  668TMC3    C1 9880   1.552   3.091  14.789 -0.2260  0.3312  0.0492
  668TMC3    C2 9881   1.599   3.223  14.794 -0.6223 -0.2935  0.5588
  668TMC3    C3 9882   1.557   3.304  14.890  0.0151  1.5531  0.5023
  668TMC3    C4 9883   1.476   3.046  14.891  0.1023 -0.3175 -0.2146
  668TMC3    C5 9884   1.425   3.130  14.983 -0.1332 -0.3485  0.5359
  668TMC3    C6 9885   1.466   3.258  14.983 -0.0840 -0.4656 -0.7083
  668TMC3     C 9886   1.629   2.996  14.712 -0.5550  0.4000 -0.3795
  668TMC3     O 9887   1.729   3.035  14.653 -0.3566  0.0400  0.0590
  668TMC3     H 9888   1.662   3.257  14.712  0.4573 -0.0947  1.4799
  668TMC3    H1 9889   1.440   2.944  14.898 -1.3759  0.1317 -1.4201
  668TMC3    H2 9890   1.408   3.329  15.041 -0.7878 -1.5011 -0.1416
  668TMC3    C7 9891   1.303   3.102  15.062 -0.1839 -0.1626  0.5304
  668TMC3    C8 9892   1.606   3.438  14.906 -1.1793 -0.3777 -0.1795
  668TMC3    O1 9893   1.287   3.181  15.155 -0.2973 -0.7345 -0.1963
  668TMC3    O2 9894   1.547   3.522  14.979 -0.5935 -0.1994  0.0305
  669TMC3    C1 9895   4.107   3.185  14.151 -0.0873 -0.0323 -0.0445
  669TMC3    C2 9896   4.009   3.182  14.058 -0.3926  0.3694  1.5102
  669TMC3    C3 9897   4.016   3.264  13.950  0.1541  0.4414  0.1582
  669TMC3    C4 9898   4.215   3.266  14.137 -0.1904 -0.4295  0.3165
  669TMC3    C5 9899   4.221   3.341  14.024  0.4980  0.0111  0.5087
  669TMC3    C6 9900   4.113   3.360  13.940 -0.3153  0.2461 -0.8303
  669TMC3     C 9901   4.089   3.097  14.263 -0.1112  0.5002  0.1849
  669TMC3     O 9902   4.191   3.066  14.328  0.2903 -0.1866  0.4119
  669TMC3     H 9903   3.926   3.113  14.052  1.2529 -0.9957 -4.3535
  669TMC3    H1 9904   4.297   3.263  14.207  0.3675 -2.6915 -0.4330
  669TMC3    H2 9905   4.103   3.430  13.857  0.1011  0.8326 -0.3848
  669TMC3    C7 9906   4.338   3.428  14.006  0.2142  0.4307 -0.2746
  669TMC3    C8 9907   4.000   3.195  13.827  0.6866 -0.0396  0.0722
  669TMC3    O1 9908   4.403   3.439  14.109 -0.9152 -0.4490  0.1920
  669TMC3    O2 9909   4.007   3.074  13.845 -0.9029  0.5696 -0.4998
  670MPD2     C 9910   2.541   0.296  13.141  0.8148  0.8592 -1.2810
  670MPD2    C1 9911   2.634   0.294  13.242 -0.0334 -0.0507 -0.4484
  670MPD2    C2 9912   2.587   0.310  13.369 -0.3819  0.0516  0.0994
  670MPD2    C3 9913   2.449   0.304  13.403  0.4377  0.8360  0.0206
  670MPD2    C4 9914   2.361   0.294  13.302  0.2094  0.5815  0.6197
  670MPD2    C5 9915   2.407   0.304  13.171  0.1792  0.4059 -0.4258
  670MPD2     H 9916   2.655   0.319  13.453  0.2813 -1.5616 -0.2626
  670MPD2    H1 9917   2.254   0.290  13.317  0.4164 -2.0288  1.4472
  670MPD2    H2 9918   2.564   0.278  13.037 -0.2801 -1.5170 -1.1165
  670MPD2    H3 9919   2.336   0.307  13.089  1.9231 -1.3553 -2.0075
  670MPD2     N 9920   2.416   0.327  13.534 -0.1973  0.2586  0.8742
  670MPD2    H5 9921   2.495   0.340  13.597  0.2461  1.4376  0.0759
  670MPD2    N1 9922   2.777   0.300  13.230  0.2403 -0.1958 -0.2755
  670MPD2    H7 9923   2.820   0.285  13.320 -1.5111 -0.6926  0.4855
  671TMC3    C1 9924   2.287   0.355  13.724 -0.3271 -1.2100 -0.0976
  671TMC3    C2 9925   2.372   0.272  13.797  0.1627 -0.4138  0.0390
  671TMC3    C3 9926   2.343   0.261  13.926  0.3144  0.4234 -0.6358
  671TMC3    C4 9927   2.189   0.426  13.782 -0.1136 -0.1281 -0.3981
  671TMC3    C5 9928   2.173   0.412  13.920 -0.3439  0.9134  0.3745
  671TMC3    C6 9929   2.251   0.334  13.992  0.9788 -0.1804  0.2334
  671TMC3     C 9930   2.283   0.342  13.583 -0.3984  0.0645  0.0092
  671TMC3     O 9931   2.177   0.321  13.531  0.0731 -0.0976 -0.1537
  671TMC3     H 9932   2.439   0.199  13.752 -0.7712 -0.4580 -1.2632
  671TMC3    H1 9933   2.116   0.478  13.721  0.1024  0.0849 -0.4723
  671TMC3    H2 9934   2.214   0.316  14.092 -0.0431 -0.0678 -0.1304
  671TMC3    C7 9935   2.113   0.510  14.000 -0.2194  0.6843  0.3707
  671TMC3    C8 9936   2.422   0.154  13.992  0.2145 -0.0602 -0.0642
  671TMC3    O1 9937   2.184   0.546  14.092  0.2673 -0.9399 -0.4172
  671TMC3    O2 9938   2.481   0.073  13.919  0.3551  0.2644  0.0620
  672MPD2     C 9939   2.534   0.344   0.491  0.4676 -0.9121 -0.1031
  672MPD2    C1 9940   2.648   0.422   0.484  0.3507 -0.4687 -0.3782
  672MPD2    C2 9941   2.679   0.508   0.588 -0.1934  0.3933  0.3775
  672MPD2    C3 9942   2.606   0.501   0.708 -0.3109  0.5328 -0.1729
  672MPD2    C4 9943   2.492   0.424   0.710 -0.0449 -0.7837 -0.1103
  672MPD2    C5 9944   2.460   0.344   0.606  0.3769 -0.6122  0.0552
  672MPD2     H 9945   2.775   0.557   0.575 -0.9806  1.9733  0.6313
  672MPD2    H1 9946   2.430   0.428   0.798  0.5343 -0.2291  0.2751
  672MPD2    H2 9947   2.495   0.278   0.414  2.1908 -2.5467  0.4346
  672MPD2    H3 9948   2.366   0.289   0.610 -0.1248  0.2915  0.7487
  672MPD2     N 9949   2.667   0.571   0.818  0.4981 -0.0406 -0.0047
  672MPD2    H5 9950   2.742   0.636   0.796 -0.0633  0.4272 -0.5615
  672MPD2    N1 9951   2.729   0.414   0.373 -0.8518 -0.0331 -0.1473
  672MPD2    H7 9952   2.796   0.488   0.358 -0.5771 -0.4778 -1.0929
  673TMC3    C1 9953   2.837   0.317   0.188 -0.3265  0.0489 -0.5300
  673TMC3    C2 9954   2.904   0.199   0.175 -0.0850 -0.0621 -0.7100
  673TMC3    C3 9955   3.026   0.207   0.118  0.2455  0.3293  0.0460
  673TMC3    C4 9956   2.889   0.439   0.155 -0.3020 -0.2733 -0.1241
  673TMC3    C5 9957   3.007   0.439   0.088  0.1411  0.0049 -0.4330
  673TMC3    C6 9958   3.081   0.322   0.073  0.3413  1.0608 -0.5625
  673TMC3     C 9959   2.737   0.302   0.295 -1.2095  0.2652  0.0551
  673TMC3     O 9960   2.673   0.196   0.292 -0.5337 -0.2795  0.7427
  673TMC3     H 9961   2.871   0.113   0.231  0.6250 -0.0109 -0.2146
  673TMC3    H1 9962   2.827   0.525   0.176  1.0646  0.9769 -1.2115
  673TMC3    H2 9963   3.179   0.321   0.027 -0.4454 -0.9093 -2.1918
  673TMC3    C7 9964   3.052   0.548   0.004  0.8243  0.1110 -0.4953
  673TMC3    C8 9965   3.116   0.113   0.182  0.3859  0.1781  0.4847
  673TMC3    O1 9966   3.108   0.518  17.603  0.3541 -0.2097  0.5403
  673TMC3    O2 9967   3.083   0.072   0.291  0.3678  0.1921  0.6338
  674MPD2     C 9968   2.609   0.738   0.081  0.4184  0.2251 -0.4899
  674MPD2    C1 9969   2.558   0.628   0.135  0.2848 -0.3479 -0.0529
  674MPD2    C2 9970   2.503   0.642   0.264  0.1040  0.9950 -0.2585
  674MPD2    C3 9971   2.509   0.758   0.341 -0.0558 -0.6493  0.0848
  674MPD2    C4 9972   2.582   0.867   0.289  0.2350 -0.4289  0.4496
  674MPD2    C5 9973   2.622   0.857   0.154  0.1134 -0.1836  0.0575
  674MPD2     H 9974   2.473   0.551   0.314  0.1889  0.2602 -1.5444
  674MPD2    H1 9975   2.614   0.951   0.350 -2.3227  0.4160  0.6301
  674MPD2    H2 9976   2.638   0.738  17.682  0.0633  0.9220 -0.5867
  674MPD2    H3 9977   2.666   0.941   0.103 -0.8770 -0.0120 -0.5147
  674MPD2     N 9978   2.459   0.752   0.469 -0.7017  0.2309  0.3896
  674MPD2    H5 9979   2.397   0.672   0.477  0.4209 -0.4393  2.3385
  674MPD2    N1 9980   2.554   0.511   0.055 -0.3192  0.2126  0.0926
  674MPD2    H7 9981   2.582   0.521  17.663 -2.0238 -0.6771 -0.4946
  675TMC3    C1 9982   2.525   0.293  17.695 -0.8008  0.2269 -0.1393
  675TMC3    C2 9983   2.482   0.169   0.028 -0.8193 -0.9011  0.3383
  675TMC3    C3 9984   2.543   0.063  17.669 -0.1556  0.3480  0.2155
  675TMC3    C4 9985   2.637   0.313  17.609  0.1619 -0.4070 -0.0015
  675TMC3    C5 9986   2.690   0.202  17.545  0.4608 -0.0036 -0.9911
  675TMC3    C6 9987   2.643   0.079  17.575 -0.3115 -0.8801  0.0759
  675TMC3     C 9988   2.483   0.399   0.076  0.1117  0.2430 -0.1079
  675TMC3     O 9989   2.400   0.378   0.162  0.0056  0.6625 -0.4465
  675TMC3     H 9990   2.399   0.163   0.097 -0.0678  1.6101  1.4536
  675TMC3    H1 9991   2.665   0.413  17.579 -1.2328  0.3765  1.3493
  675TMC3    H2 9992   2.683   4.722  17.516 -1.7465 -1.3971 -0.1634
  675TMC3    C7 9993   2.830   0.225  17.504 -0.7994 -0.2555  0.2634
  675TMC3    C8 9994   2.522   4.657   0.012 -0.1270 -0.2517  0.5214
  675TMC3    O1 9995   2.859   0.337  17.464  0.4514  0.2375  0.3546
  675TMC3    O2 9996   2.539   4.568  17.639 -0.9227  0.6398 -0.3506
  676MPD2     C 9997   1.156   4.184  11.040 -0.5593 -0.5670  0.9917
  676MPD2    C1 9998   1.091   4.169  11.160 -0.0354 -0.1264 -0.7546
  676MPD2    C2 9999   1.056   4.042  11.198  0.8910 -0.0946 -0.2674
  676MPD2    C310000   1.099   3.934  11.124  0.1435 -0.2119  0.3821
  676MPD2    C410001   1.166   3.952  11.006 -0.1640  0.2230  0.0480
  676MPD2    C510002   1.197   4.076  10.963  0.5631  0.6466  0.1404
  676MPD2     H10003   1.012   4.036  11.297  0.8858 -0.7059 -0.3032
  676MPD2    H110004   1.195   3.868  10.945 -0.9139  0.4825 -0.6607
  676MPD2    H210005   1.184   4.280  10.998 -1.6455 -1.6184 -2.1803
  676MPD2    H310006   1.251   4.102  10.873 -2.7149  2.7642 -1.2189
  676MPD2     N10007   1.076   3.799  11.149 -0.4186  0.8634  0.3425
  676MPD2    H510008   1.119   3.729  11.090 -2.0219 -0.2048  0.4288
  676MPD2    N110009   1.049   4.280  11.237 -0.0321 -0.3029 -0.5337
  676MPD2    H710010   0.980   4.257  11.308  0.9174  0.9487  0.7887
  677TMC3    C110011   1.049   4.491  11.328  0.3212 -0.2994 -0.2825
  677TMC3    C210012   0.951   4.442  11.399  0.1043  0.2177  0.6004
  677TMC3    C310013   0.941   4.476  11.530  0.6023 -0.0582 -0.1918
  677TMC3    C410014   1.138   4.585  11.371 -0.5290 -0.2814  0.1550
  677TMC3    C510015   1.140   4.613  11.500  0.7310 -0.8610  0.2131
  677TMC3    C610016   1.047   4.559  11.575 -0.2172  0.2413 -0.4829
  677TMC3     C10017   1.108   4.405  11.237  0.1833  0.2474  0.1786
  677TMC3     O10018   1.200   4.439  11.164 -0.4168 -0.4112 -0.0216
  677TMC3     H10019   0.870   4.386  11.353 -0.4709  0.6356  1.1019
  677TMC3    H110020   1.220   4.614  11.305 -0.1783  0.7223  1.0203
  677TMC3    H210021   1.057   4.565  11.683  1.6013  0.5325 -0.6726
  677TMC3    C710022   1.271   4.642  11.558  0.6932 -0.0857 -0.1427
  677TMC3    C810023   0.908   4.360  11.611 -0.6735 -0.1422  0.4792
  677TMC3    O110024   1.276   4.601  11.679  0.2943  0.5366 -0.1838
  677TMC3    O210025   0.931   4.247  11.564  0.6217  0.2966 -0.4380
  678MPD2     C10026   1.536   3.614   1.789 -0.0716  0.1761 -0.2388
  678MPD2    C110027   1.559   3.640   1.656  0.7268  0.0391 -0.0183
  678MPD2    C210028   1.483   3.722   1.576 -0.1398  0.5196 -0.0412
  678MPD2    C310029   1.374   3.781   1.636 -0.4058  0.3201  0.6838
  678MPD2    C410030   1.334   3.744   1.763 -0.2565  0.3251  0.1403
  678MPD2    C510031   1.418   3.663   1.841 -0.5147 -0.4410  0.9160
  678MPD2     H10032   1.515   3.742   1.474  0.9261  0.4184  0.2757
  678MPD2    H110033   1.241   3.786   1.802 -0.1532  1.0504 -0.3773
  678MPD2    H210034   1.596   3.557   1.859  0.6321 -0.4223 -1.3087
  678MPD2    H310035   1.387   3.659   1.944  0.7012  0.6759  1.3192
  678MPD2     N10036   1.304   3.872   1.556 -0.0522 -0.3328 -0.2643
  678MPD2    H510037   1.322   3.864   1.457 -3.1302  2.0665 -1.0256
  678MPD2    N110038   1.668   3.580   1.585  0.1018 -1.0138 -0.0643
  678MPD2    H710039   1.704   3.626   1.502 -0.0715 -1.5332 -0.4346
  679TMC3    C110040   2.050   3.298   1.509  0.0752 -0.5516  0.0645
  679TMC3    C210041   1.950   3.355   1.590  0.5154 -0.3530 -0.4123
  679TMC3    C310042   1.852   3.432   1.533  0.1473 -0.3817 -0.4479
  679TMC3    C410043   2.054   3.340   1.373 -0.0895 -0.2028  0.2116
  679TMC3    C510044   1.960   3.428   1.325 -0.0199 -0.7382  0.1483
  679TMC3    C610045   1.861   3.471   1.405  0.3405 -0.3419  0.8393
  679TMC3     C10046   2.173   3.253   1.562  0.8566  0.5118  0.5239
  679TMC3     O10047   2.268   3.268   1.486  0.7069 -0.5067 -0.1503
  679TMC3     H10048   1.950   3.323   1.693  1.9091  0.4721 -0.1474
  679TMC3    H110049   2.126   3.302   1.301 -0.4703 -0.7796  0.1308
  679TMC3    H210050   1.787   3.540   1.367 -0.0388 -1.2492 -0.0372
  679TMC3    C710051   1.976   3.496   1.196 -0.2074  0.5829  0.3117
  679TMC3    C810052   1.736   3.468   1.617 -0.0863 -0.3897  0.0950
  679TMC3    O110053   1.882   3.564   1.160 -0.1558  0.3957 -0.1542
  679TMC3    O210054   1.706   3.388   1.703  0.0849  0.0668  0.2182
  680MPD2     C10055   2.491   2.965  13.500 -0.2158  0.0899  0.0317
  680MPD2    C110056   2.506   2.892  13.612  0.7035  0.2689 -0.2583
  680MPD2    C210057   2.579   2.938  13.717 -0.4266 -0.4253 -0.8415
  680MPD2    C310058   2.650   3.058  13.705  0.4240 -0.5338 -0.1471
  680MPD2    C410059   2.636   3.129  13.586  0.2171  0.5487  0.0824
  680MPD2    C510060   2.558   3.084  13.485  0.7167  1.0422 -0.1563
  680MPD2     H10061   2.588   2.874  13.804  1.8556 -0.3400 -1.0030
  680MPD2    H110062   2.666   3.233  13.582 -1.0596  0.8387 -1.9951
  680MPD2    H210063   2.422   2.937  13.420  1.2304 -1.5299 -0.6249
  680MPD2    H310064   2.538   3.138  13.394  1.1182  1.5480  0.0545
  680MPD2     N10065   2.736   3.107  13.805 -0.6302  0.1380  0.2955
  680MPD2    H510066   2.790   3.191  13.786  0.2362 -0.3882  0.4571
  680MPD2    N110067   2.441   2.759  13.623 -0.6093 -0.2738 -0.0770
  680MPD2    H710068   2.441   2.707  13.710  1.4707  0.0064  0.1110
  681TMC3    C110069   2.330   2.561  13.555  0.6774  0.2957  0.2163
  681TMC3    C210070   2.303   2.536  13.685 -0.8838  0.5225 -0.1122
  681TMC3    C310071   2.282   2.402  13.718  0.5021 -0.3694 -0.2242
  681TMC3    C410072   2.326   2.468  13.455  0.1345  0.2786 -0.0569
  681TMC3    C510073   2.300   2.336  13.489 -0.0274 -0.3850  0.6101
  681TMC3    C610074   2.279   2.305  13.622  0.0265  0.1360  0.0263
  681TMC3     C10075   2.398   2.684  13.515 -0.0472 -0.2819 -0.0629
  681TMC3     O10076   2.415   2.703  13.398  0.3911 -0.2844  0.5085
  681TMC3     H10077   2.291   2.611  13.761 -2.7538  1.8199 -1.6846
  681TMC3    H110078   2.372   2.494  13.360  2.2258  1.3912  1.2606
  681TMC3    H210079   2.249   2.204  13.650  1.4868 -0.4769 -0.6396
  681TMC3    C710080   2.382   2.239  13.414 -0.0714 -0.5816 -0.1629
  681TMC3    C810081   2.236   2.361  13.848 -0.0071 -0.6744  1.0826
  681TMC3    O110082   2.418   2.145  13.482  0.5561  0.4141  0.0643
  681TMC3    O210083   2.159   2.263  13.857 -0.3035 -0.3818 -0.2280
  682MPD2     C10084   0.343   3.732  10.653  0.3329 -0.5671  0.2242
  682MPD2    C110085   0.330   3.869  10.654  0.5579  0.0673  0.5724
  682MPD2    C210086   0.322   3.936  10.779 -0.0173  0.3189  0.1113
  682MPD2    C310087   0.333   3.864  10.900  1.0712  0.4239 -0.9388
  682MPD2    C410088   0.351   3.728  10.894  0.4166 -0.0291 -0.4661
  682MPD2    C510089   0.351   3.664  10.774  0.2475 -0.0728 -0.3861
  682MPD2     H10090   0.307   4.043  10.775  0.9267  0.4724  0.6868
  682MPD2    H110091   0.376   3.670  10.981 -0.1547  0.0135 -0.2747
  682MPD2    H210092   0.339   3.673  10.563  0.0270 -3.8244  2.3594
  682MPD2    H310093   0.358   3.556  10.767  2.5548  0.1242 -1.3950
  682MPD2     N10094   0.322   3.922  11.027  0.4234 -0.3422  0.3873
  682MPD2    H510095   0.343   3.871  11.112  3.1562 -0.2220 -0.2195
  682MPD2    N110096   0.322   3.948  10.533 -0.3605 -0.3079 -0.2443
  682MPD2    H710097   0.294   4.045  10.537  0.8539  0.0043  0.9729
  683TMC3    C110098   0.277   4.193  11.389 -0.3123  0.4027 -0.6635
  683TMC3    C210099   0.204   4.099  11.463  0.3061 -0.0050 -1.0495
  683TMC3    C310100   0.171   3.980  11.392 -0.3570 -0.4545 -0.4963
  683TMC3    C410101   0.304   4.180  11.258  1.3251  0.3372 -0.5054
  683TMC3    C510102   0.266   4.067  11.196 -0.3194 -0.4799 -0.7805
  683TMC3    C610103   0.204   3.968  11.262  0.7159 -0.3457 -0.5669
  683TMC3     C10104   0.331   4.298  11.466 -0.1569  0.2604 -0.0503
  683TMC3     O10105   0.274   4.308  11.578 -0.4826  0.1172 -1.0545
  683TMC3     H10106   0.172   4.116  11.565  0.9166 -0.5603 -0.7647
  683TMC3    H110107   0.374   4.250  11.214  0.3002  2.0111  0.5047
  683TMC3    H210108   0.183   3.870  11.223  0.5253 -0.4798 -0.1242
  683TMC3    C710109   0.290   4.054  11.053 -0.5890 -0.3748 -0.3215
  683TMC3    C810110   0.077   3.900  11.456 -0.5844 -0.9729  0.0609
  683TMC3    O110111   0.292   4.158  10.986  0.9994  0.7498  0.6477
  683TMC3    O210112   0.082   3.895  11.582  0.5542  0.0619 -0.9216
  684MPD2     C10113   2.150   3.290  16.259 -0.0760  0.1685 -0.7493
  684MPD2    C110114   2.285   3.299  16.276  0.6902 -0.0329 -0.6051
  684MPD2    C210115   2.336   3.404  16.352 -0.1532  0.3921 -0.1959
  684MPD2    C310116   2.253   3.509  16.403 -0.3125  0.0068 -0.4850
  684MPD2    C410117   2.120   3.490  16.387  0.7161  1.0480  0.0152
  684MPD2    C510118   2.069   3.379  16.323  0.1659  0.2380 -0.1932
  684MPD2     H10119   2.443   3.410  16.362 -0.2027  0.4914  0.2649
  684MPD2    H110120   2.053   3.566  16.426 -0.1808  0.0762  0.3680
  684MPD2    H210121   2.100   3.212  16.203 -1.5697 -1.3875  2.7584
  684MPD2    H310122   1.963   3.367  16.305 -0.1001  2.0512  0.2193
  684MPD2     N10123   2.303   3.637  16.446 -0.0309 -0.2229 -0.5328
  684MPD2    H510124   2.242   3.717  16.460  0.6433  0.3845 -1.0616
  684MPD2    N110125   2.376   3.213  16.197 -0.1914  0.3113  0.3129
  684MPD2    H710126   2.473   3.240  16.202  0.4241 -2.3631  2.4149
  685TMC3    C110127   2.443   3.129  15.987  0.7134  0.0264 -0.0445
  685TMC3    C210128   2.406   3.060  15.876 -0.0710  0.2120  0.1241
  685TMC3    C310129   2.456   3.095  15.755  0.1120  0.5718  0.1543
  685TMC3    C410130   2.541   3.230  15.984 -0.7695 -0.3439  0.3285
  685TMC3    C510131   2.601   3.256  15.864  0.1036 -0.2380  0.3012
  685TMC3    C610132   2.556   3.193  15.748 -0.5343 -0.2194 -0.6147
  685TMC3     C10133   2.339   3.140  16.083 -0.4437 -0.3817  0.0850
  685TMC3     O10134   2.228   3.116  16.044  0.4115  0.1799 -0.6049
  685TMC3     H10135   2.334   2.979  15.885  1.1005 -1.1600 -2.9489
  685TMC3    H110136   2.553   3.307  16.059  2.7978 -1.1942  0.5859
  685TMC3    H210137   2.605   3.218  15.654 -0.0187 -1.3503 -0.6509
  685TMC3    C710138   2.725   3.328  15.858 -0.4101 -0.2451 -0.0677
  685TMC3    C810139   2.352   3.109  15.649  0.1116  0.1567  0.2205
  685TMC3    O110140   2.786   3.331  15.750  0.0706  0.0217 -0.1348
  685TMC3    O210141   2.384   3.187  15.558  0.2626 -0.2363 -0.4198
  686MPD2     C10142   3.708   3.305  15.317  0.4943  0.4972  0.8252
  686MPD2    C110143   3.622   3.219  15.380  0.2165 -0.5473 -0.3489
  686MPD2    C210144   3.649   3.083  15.366  0.2853 -0.1606  0.4765
  686MPD2    C310145   3.772   3.039  15.305  0.2478 -0.2101  0.3377
  686MPD2    C410146   3.861   3.130  15.256 -0.0692 -0.2722 -0.2773
  686MPD2    C510147   3.823   3.264  15.256 -0.5229  0.2578  0.7165
  686MPD2     H10148   3.578   3.013  15.409  0.8377 -0.6585  0.5799
  686MPD2    H110149   3.965   3.114  15.233  0.8914  2.3893  2.1113
  686MPD2    H210150   3.698   3.411  15.337  0.4763  0.4122  1.2641
  686MPD2    H310151   3.893   3.337  15.216 -0.2525 -0.1602  0.4303
  686MPD2     N10152   3.818   2.908  15.319 -0.2885  0.8843  0.0576
  686MPD2    H510153   3.910   2.880  15.288 -0.7048 -0.1907 -0.2170
  686MPD2    N110154   3.522   3.272  15.469 -0.1707  0.2997  0.1790
  686MPD2    H710155   3.501   3.371  15.469  0.7971  0.5070  0.4775
  687TMC3    C110156   3.808   2.712  15.446  0.1346  0.6758 -0.7153
  687TMC3    C210157   3.714   2.617  15.482 -0.6889  0.3074 -0.0702
  687TMC3    C310158   3.714   2.574  15.614 -0.4315  0.7335  0.5484
  687TMC3    C410159   3.887   2.768  15.540  0.4180 -0.0782 -0.9614
  687TMC3    C510160   3.892   2.720  15.672 -0.0102 -0.3131 -0.1463
  687TMC3    C610161   3.806   2.617  15.711  0.0728 -0.8439 -0.5243
  687TMC3     C10162   3.739   2.810  15.367  0.5751 -1.3716 -0.5317
  687TMC3     O10163   3.619   2.802  15.363 -0.6215  0.0029 -0.7864
  687TMC3     H10164   3.645   2.567  15.415 -0.6190 -0.0486  0.1207
  687TMC3    H110165   3.938   2.861  15.519  0.0911  0.3128 -0.0166
  687TMC3    H210166   3.803   2.582  15.813  0.8009  0.4383 -0.0555
  687TMC3    C710167   3.934   2.820  15.776  0.6356 -0.4543  0.1175
  687TMC3    C810168   3.582   2.575  15.673  0.4586  0.0853  0.9924
  687TMC3    O110169   3.902   2.938  15.759 -0.1442  0.5774  0.8479
  687TMC3    O210170   3.572   2.560  15.793 -0.4514  0.1474 -0.1596
  688MPD2     C10171   2.863   2.108  17.164  0.8951 -0.6492  0.1814
  688MPD2    C110172   2.920   1.980  17.161  0.8274 -0.5395  0.3878
  688MPD2    C210173   3.017   1.956  17.070  0.4601  0.3214 -0.6162
  688MPD2    C310174   3.063   2.057  16.977  0.8712 -0.1503 -0.8779
  688MPD2    C410175   2.997   2.181  16.970 -0.6723  0.5122  0.1748
  688MPD2    C510176   2.896   2.196  17.064 -0.2651  0.4090 -0.0443
  688MPD2     H10177   3.058   1.856  17.056  0.9030  0.8831 -3.3700
  688MPD2    H110178   3.028   2.264  16.907  0.7006  1.6209  2.2837
  688MPD2    H210179   2.795   2.143  17.241  1.3605 -1.5578  1.0102
  688MPD2    H310180   2.843   2.290  17.059  0.2152  0.7886  1.9920
  688MPD2     N10181   3.167   2.034  16.879 -0.2354 -0.0546  0.1712
  688MPD2    H510182   3.170   2.099  16.801 -2.0436  0.9451  0.9519
  688MPD2    N110183   2.895   1.877  17.252  0.2314 -0.6356 -0.5065
  688MPD2    H710184   2.938   1.786  17.235  0.2867 -0.6413 -0.3339
  689TMC3    C110185   2.856   1.792  17.467  0.3334 -0.5267 -0.1136
  689TMC3    C210186   2.873   1.837  17.598  0.1524  0.3280  0.6997
  689TMC3    C310187   2.896   1.741  17.691 -0.5293 -0.0127  1.0057
  689TMC3    C410188   2.870   1.663  17.421  0.2408 -0.1199 -0.2693
  689TMC3    C510189   2.912   1.573  17.521 -1.0052  0.9171 -0.3110
  689TMC3    C610190   2.926   1.615  17.648  0.8962  0.0612 -0.1203
  689TMC3     C10191   2.835   1.906  17.375  0.4779  0.1452  0.1929
  689TMC3     O10192   2.813   2.013  17.424  0.9554 -0.3291 -0.1555
  689TMC3     H10193   2.868   1.943  17.622 -0.4374  0.5719 -0.4857
  689TMC3    H110194   2.842   1.633  17.321 -1.1991 -0.9152  0.3769
  689TMC3    H210195   2.958   1.541   0.015 -0.6961  0.2693  0.8062
  689TMC3    C710196   2.913   1.426  17.496  0.2237  0.7197 -0.0977
  689TMC3    C810197   2.876   1.760   0.129 -0.2853 -0.1134 -0.2200
  689TMC3    O110198   2.947   1.354  17.589 -0.0192  0.2493  0.1385
  689TMC3    O210199   2.899   1.670   0.208  0.8328  0.2521  0.1943
  690MPD2     C10200   0.270   4.093  15.637  0.4645 -0.0522 -1.1587
  690MPD2    C110201   0.287   3.991  15.553  0.0526  0.3890 -0.6509
  690MPD2    C210202   0.399   3.997  15.472  0.3011  0.0322  0.2147
  690MPD2    C310203   0.486   4.104  15.478 -0.4549  0.2819 -0.1354
  690MPD2    C410204   0.463   4.210  15.572 -0.4951 -0.0620  0.0969
  690MPD2    C510205   0.351   4.198  15.646 -0.0863 -0.2884 -0.3537
  690MPD2     H10206   0.419   3.917  15.402 -0.9924  0.9669 -1.2188
  690MPD2    H110207   0.534   4.285  15.605 -0.2567 -1.3083  2.4326
  690MPD2    H210208   0.193   4.098  15.713 -0.4701 -0.8848 -2.0583
  690MPD2    H310209   0.340   4.269  15.727  2.4788 -1.1586  0.7398
  690MPD2     N10210   0.604   4.102  15.404 -0.3192  0.6013 -0.0745
  690MPD2    H510211   0.614   4.029  15.334 -2.8466  0.3203 -0.1300
  690MPD2    N110212   0.209   3.874  15.548  0.3375  0.5107  0.1009
  690MPD2    H710213   0.249   3.795  15.499  0.8341  0.4400  0.6094
  691TMC3    C110214   0.026   3.718  15.577  1.1124 -0.7307  0.7655
  691TMC3    C210215   4.635   3.692  15.641  0.2562  0.5386  0.1228
  691TMC3    C310216   4.596   3.566  15.655 -0.2560  0.2044 -0.0754
  691TMC3    C410217   0.116   3.620  15.547 -0.3268  0.3030  0.4977
  691TMC3    C510218   0.072   3.494  15.571 -0.1384  0.4401  0.4786
  691TMC3    C610219   4.671   3.464  15.619  0.1929 -0.3219 -0.6637
  691TMC3     C10220   0.078   3.858  15.598 -0.3294 -0.3165  0.0755
  691TMC3     O10221   0.006   3.938  15.660 -0.1080 -0.7427  0.3741
  691TMC3     H10222   4.572   3.776  15.665 -0.5431  0.4989 -1.8035
  691TMC3    H110223   0.218   3.627  15.511 -0.2314 -0.3040  0.6589
  691TMC3    H210224   4.645   3.362  15.648  0.2282  0.8550  3.5624
  691TMC3    C710225   0.151   3.379  15.520 -0.5078  0.5154  0.5149
  691TMC3    C810226   4.464   3.533  15.704  0.8088  0.8195 -0.1444
  691TMC3    O110227   0.273   3.388  15.520  0.4871 -0.0962  0.1161
  691TMC3    O210228   4.441   3.412  15.713 -0.3986  0.5880 -0.5121
  692TMC3    C110229   2.206   0.023  15.731 -0.2921  0.0512  0.5502
  692TMC3    C210230   2.315   0.061  15.792 -0.2111  0.0173  0.0196
  692TMC3    C310231   2.423   4.700  15.807  0.8928 -0.5299  0.3726
  692TMC3    C410232   2.194   4.627  15.667  0.9743 -0.1577 -0.0662
  692TMC3    C510233   2.295   4.534  15.692 -0.1364 -0.1887  0.2238
  692TMC3    C610234   2.400   4.573  15.777 -0.4393 -0.7590 -0.6918
  692TMC3     C10235   2.090   0.110  15.736  0.0765 -0.1572  0.2628
  692TMC3     O10236   1.984   0.051  15.732  0.7928 -0.8506 -0.5541
  692TMC3     H10237   2.310   0.143  15.863  0.8688 -1.0391  1.3370
  692TMC3    H110238   2.109   4.590  15.610  0.3497  1.6412 -0.2875
  692TMC3    H210239   2.482   4.503  15.786 -0.4051 -0.6102  0.1583
  692TMC3    C710240   2.266   4.389  15.705 -0.0079 -0.4533  0.0001
  692TMC3    C810241   2.496   4.712  15.938 -0.4015  0.4395 -0.5528
  692TMC3    O110242   2.197   4.339  15.619  0.4884  0.3738  0.8832
  692TMC3    O210243   2.512   4.617  16.011  0.1818  0.2804  0.2815
  693MPD2     C10244   2.119   3.014  11.123 -0.6896 -0.3157 -0.0555
  693MPD2    C110245   2.079   2.920  11.027 -0.2658  0.4753 -0.1752
  693MPD2    C210246   2.178   2.865  10.941 -0.3175 -0.5254  0.7138
  693MPD2    C310247   2.312   2.903  10.946  0.1869  0.5191  0.2579
  693MPD2    C410248   2.342   2.997  11.043  0.1847 -0.6557 -0.2074
  693MPD2    C510249   2.250   3.047  11.131  0.0524 -0.5270  0.8010
  693MPD2     H10250   2.143   2.789  10.872  0.7045 -0.6137  0.3032
  693MPD2    H110251   2.446   3.021  11.058  0.5028 -0.3477 -2.8821
  693MPD2    H210252   2.051   3.052  11.199  0.5385 -0.7393  1.2493
  693MPD2    H310253   2.274   3.126  11.202  1.7116 -1.5725  1.3977
  693MPD2     N10254   2.420   2.851  10.863  0.0924 -0.0783 -0.1721
  693MPD2    H510255   2.515   2.875  10.889  0.7243  0.9454 -3.4033
  693MPD2    N110256   1.950   2.875  11.042 -0.1469  0.3871  0.0162
  693MPD2    H710257   1.899   2.900  11.126 -1.5951 -0.3668 -0.6431
  694TMC3    C110258   1.763   2.750  11.001 -0.3546 -0.0896  0.0438
  694TMC3    C210259   1.669   2.677  10.922  0.2687 -0.4072  0.3646
  694TMC3    C310260   1.552   2.628  10.987  0.4165  0.0311 -0.0210
  694TMC3    C410261   1.732   2.779  11.137  0.1102  0.8200 -0.8547
  694TMC3    C510262   1.617   2.720  11.191  1.0484  0.0739  0.0588
  694TMC3    C610263   1.533   2.640  11.123  0.3799  0.3999  0.0285
  694TMC3     C10264   1.889   2.795  10.954  0.1369 -0.4080 -0.0510
  694TMC3     O10265   1.929   2.746  10.849 -0.0914 -0.1953  0.4967
  694TMC3     H10266   1.696   2.664  10.818 -1.6573 -0.6831 -0.0968
  694TMC3    H110267   1.799   2.831  11.204  0.5812 -2.6773  1.3987
  694TMC3    H210268   1.445   2.590  11.160  0.4757  1.5574  1.8877
  694TMC3    C710269   1.604   2.729  11.339  0.1463  0.3382 -0.2383
  694TMC3    C810270   1.448   2.577  10.899  0.4864  0.3363 -0.3320
  694TMC3    O110271   1.681   2.803  11.397  0.1744 -0.1423  0.1779
  694TMC3    O210272   1.362   2.506  10.947 -0.2003  0.3455  0.0973
  695MPD2     C10273   2.653   4.406  13.474  0.2140  0.0598 -0.0528
  695MPD2    C110274   2.611   4.434  13.603 -0.8537 -0.8037 -0.7186
  695MPD2    C210275   2.494   4.508  13.623  0.6994 -0.2631  0.5324
  695MPD2    C310276   2.416   4.543  13.510  0.3463  0.1275  0.3096
  695MPD2    C410277   2.462   4.510  13.379 -0.0856  0.0889 -0.6127
  695MPD2    C510278   2.584   4.443  13.363 -0.3051  0.5339 -0.5574
  695MPD2     H10279   2.456   4.527  13.723  0.5661  0.5734  0.3197
  695MPD2    H110280   2.423   4.546  13.285 -3.2961  2.3801  1.5934
  695MPD2    H210281   2.742   4.345  13.462  0.0368  0.0274 -1.1416
  695MPD2    H310282   2.629   4.428  13.266 -1.0383 -0.2503 -0.7816
  695MPD2     N10283   2.296   4.615  13.542 -0.7016  0.0708 -0.6606
  695MPD2    H510284   2.270   4.607  13.640  1.7307  1.0365  0.0673
  695MPD2    N110285   2.680   4.392  13.716  0.1446 -0.3523  0.1714
  695MPD2    H710286   2.638   4.404  13.808 -0.8673 -0.3152 -0.2933
  696TMC3    C110287   2.090   4.725  13.482  0.4377 -0.2865  0.4005
  696TMC3    C210288   2.060   4.722  13.616  0.2023 -0.8374  0.6557
  696TMC3    C310289   1.933   0.001  13.658  0.4716 -0.2221  1.2312
  696TMC3    C410290   1.993   0.009  13.389 -0.0930 -0.2889 -0.2630
  696TMC3    C510291   1.862   0.007  13.436 -0.2476  0.6188 -0.1065
  696TMC3    C610292   1.827   4.717  13.567  0.1843 -0.0362 -0.0057
  696TMC3     C10293   2.221   4.675  13.441 -0.4332 -0.2949 -0.4678
  696TMC3     O10294   2.248   4.692  13.325 -0.6906  0.2154  0.0485
  696TMC3     H10295   2.131   0.009  13.697 -0.8976 -1.5300  1.7308
  696TMC3    H110296   2.013   0.004  13.283  0.6299 -0.5139 -0.1125
  696TMC3    H210297   1.723   0.004  13.593 -0.2818 -0.1668 -1.8455
  696TMC3    C710298   1.789   0.121  13.388  0.0342  0.2229 -0.1405
  696TMC3    C810299   1.916   0.094  13.771 -0.5753  0.3176 -0.7794
  696TMC3    O110300   1.669   0.126  13.414  0.7980 -0.6545 -0.4175
  696TMC3    O210301   2.010   0.115  13.846  0.2933 -0.0005 -1.0256
  697MPD2     C10302   1.879   1.798  15.681 -0.1589 -0.1811  0.6361
  697MPD2    C110303   1.847   1.768  15.554 -0.3016  0.5436 -0.6730
  697MPD2    C210304   1.824   1.871  15.465  0.0753 -0.2844  0.3527
  697MPD2    C310305   1.857   1.997  15.499  0.0448 -0.0813  0.5673
  697MPD2    C410306   1.904   2.028  15.626 -0.1578  0.1670  0.0137
  697MPD2    C510307   1.903   1.929  15.717  0.8922  0.8101 -0.5191
  697MPD2     H10308   1.795   1.844  15.364  0.4012 -1.0198  0.4483
  697MPD2    H110309   1.948   2.122  15.656 -0.5624 -0.0903  1.4353
  697MPD2    H210310   1.872   1.726  15.761 -1.3117 -0.2551  0.4590
  697MPD2    H310311   1.934   1.948  15.819  1.3671 -1.3377 -0.2635
  697MPD2     N10312   1.829   2.090  15.400 -0.2090 -1.1012  0.2316
  697MPD2    H510313   1.776   2.059  15.319  2.6431  0.1206 -2.1333
  697MPD2    N110314   1.814   1.635  15.512 -0.4700  0.1852  0.0886
  697MPD2    H710315   1.763   1.623  15.425 -1.5620 -1.0910  0.9026
  698TMC3    C110316   1.841   2.302  15.288 -0.0313  0.8206 -0.2915
  698TMC3    C210317   1.869   2.434  15.305 -0.6053  0.8886  1.1160
  698TMC3    C310318   1.917   2.507  15.199 -0.3195 -0.0916 -0.3425
  698TMC3    C410319   1.855   2.235  15.168 -0.1393 -0.1034 -0.4442
  698TMC3    C510320   1.917   2.302  15.069  0.0530  0.4820 -0.4318
  698TMC3    C610321   1.948   2.437  15.084  0.0771  0.9102 -0.1144
  698TMC3     C10322   1.838   2.227  15.413  0.1557 -0.3827 -0.7693
  698TMC3     O10323   1.876   2.286  15.512  0.0327 -0.1349  0.1291
  698TMC3     H10324   1.861   2.484  15.401 -1.8471 -0.2936  1.6319
  698TMC3    H110325   1.852   2.128  15.152 -0.0791  0.2271 -2.6799
  698TMC3    H210326   1.987   2.497  15.002 -1.0304  3.2709  1.1086
  698TMC3    C710327   1.915   2.248  14.933  0.2536  0.1292  0.2507
  698TMC3    C810328   1.978   2.632  15.236  0.3038  0.2911 -0.2237
  698TMC3    O110329   1.819   2.181  14.909  0.6766  0.4566  0.6881
  698TMC3    O210330   1.937   2.691  15.339  0.4978  0.3668 -0.3318
  699TMC3    C110331   2.080   4.676  13.003  1.2934  0.8514 -0.5329
  699TMC3    C210332   2.111   4.559  13.075  0.2208  0.0281  0.6802
  699TMC3    C310333   2.003   4.481  13.112  0.1035 -0.0392 -0.5102
  699TMC3    C410334   1.952   4.710  12.964  0.3142 -0.0438 -0.8045
  699TMC3    C510335   1.852   4.628  13.014  0.3870  0.3507  0.4196
  699TMC3    C610336   1.870   4.516  13.091  0.9466 -0.0367 -0.4499
  699TMC3     C10337   2.189   0.030  12.951  0.0811 -0.8418  0.3670
  699TMC3     O10338   2.173   0.109  12.858  0.3173  0.5383 -0.4774
  699TMC3     H10339   2.210   4.536  13.112 -0.6104 -1.1299  2.2139
  699TMC3    H110340   1.933   0.074  12.906 -0.1064  1.8099  2.1724
  699TMC3    H210341   1.788   4.448  13.111  1.7969 -1.2560 -1.1070
  699TMC3    C710342   1.717   4.687  13.003  0.1180 -0.5544 -1.0376
  699TMC3    C810343   2.012   4.357  13.196 -0.7311 -0.0918  0.1785
  699TMC3    O110344   1.718   0.085  12.997 -0.3676 -0.5343  0.1495
  699TMC3    O210345   1.912   4.327  13.261  0.2199  0.0167 -0.2634
  700TMC3    C110346   1.175   2.290  17.104  0.4926  0.1539 -0.0042
  700TMC3    C210347   1.242   2.182  17.062 -0.5997 -0.0123 -0.0897
  700TMC3    C310348   1.375   2.178  17.084  0.5588  1.0390  0.2417
  700TMC3    C410349   1.235   2.393  17.168  0.5216 -0.7037 -0.1579
  700TMC3    C510350   1.374   2.379  17.201 -0.6330 -0.0059  0.2143
  700TMC3    C610351   1.442   2.270  17.166  0.9112  0.0218  0.1418
  700TMC3     C10352   1.058   2.331  17.025  0.0471  0.1915  0.0087
  700TMC3     O10353   0.969   2.255  17.015 -0.3274 -0.0485  0.2742
  700TMC3     H10354   1.184   2.122  16.993 -0.0002  0.9328 -1.4221
  700TMC3    H110355   1.180   2.481  17.200 -2.2381 -2.9084  1.1517
  700TMC3    H210356   1.550   2.269  17.169  0.9127 -2.0211  0.0051
  700TMC3    C710357   1.449   2.494  17.246  0.1826  0.5684  0.5076
  700TMC3    C810358   1.448   2.063  17.034 -0.5331 -0.0511  0.6033
  700TMC3    O110359   1.563   2.465  17.283  0.2015 -0.1433 -0.6792
  700TMC3    O210360   1.383   1.981  16.967  0.2419 -1.2712 -0.3001
  701TMC3    C110361   1.099   0.900  15.640 -0.7884 -0.4891 -0.3269
  701TMC3    C210362   1.106   0.905  15.504 -0.5250  0.1800 -0.4453
  701TMC3    C310363   1.198   0.979  15.445  0.6872  0.3459 -0.1913
  701TMC3    C410364   1.174   0.994  15.705 -0.2160  1.0221 -0.1939
  701TMC3    C510365   1.264   1.080  15.642 -0.5283  0.5507 -0.0009
  701TMC3    C610366   1.285   1.063  15.513 -0.8730 -0.9019  0.1265
  701TMC3     C10367   0.984   0.845  15.707  0.0887  0.8628  0.3250
  701TMC3     O10368   0.938   0.914  15.800 -0.0009  0.4961 -0.0156
  701TMC3     H10369   1.045   0.838  15.444 -0.1566 -0.0593 -0.5470
  701TMC3    H110370   1.134   1.024  15.801 -0.2821  1.0239 -0.2223
  701TMC3    H210371   1.347   1.137  15.464  0.1862 -1.6233  0.3672
  701TMC3    C710372   1.257   1.218  15.671 -0.1473 -0.1522  0.4285
  701TMC3    C810373   1.207   0.974  15.305 -0.4370 -0.9355  0.7915
  701TMC3    O110374   1.242   1.292  15.575 -0.1505  0.7325 -0.2502
  701TMC3    O210375   1.319   0.999  15.263 -0.4146 -0.3301 -0.1062
  702MPD2     C10376   1.116   3.143  10.823 -1.0088 -0.1574 -0.2688
  702MPD2    C110377   1.184   3.218  10.920  0.6298  0.6695 -0.6855
  702MPD2    C210378   1.304   3.275  10.889  0.1844 -0.3816 -0.4184
  702MPD2    C310379   1.365   3.261  10.769 -0.4164 -0.1458  0.2917
  702MPD2    C410380   1.306   3.172  10.679  0.6752 -0.3832 -0.1001
  702MPD2    C510381   1.181   3.122  10.707 -0.1743 -0.4864  0.0948
  702MPD2     H10382   1.353   3.345  10.956 -0.1974  0.1075 -0.6507
  702MPD2    H110383   1.356   3.140  10.589 -0.0732 -0.4761 -0.4806
  702MPD2    H210384   1.027   3.085  10.848  0.9757 -2.1590  2.1519
  702MPD2    H310385   1.142   3.057  10.630 -0.9776 -0.2880  0.3340
  702MPD2     N10386   1.470   3.342  10.724  0.3312 -0.2813 -0.3751
  702MPD2    H510387   1.511   3.314  10.635 -0.4395 -1.3559 -0.3963
  702MPD2    N110388   1.110   3.251  11.032  0.3109 -0.1682 -0.0804
  702MPD2    H710389   1.011   3.230  11.030  0.2649  0.0799 -0.3991
  703TMC3    C110390   1.578   3.529  10.678  0.5656  1.0315  0.1106
  703TMC3    C210391   1.479   3.594  10.609  0.0798  0.2632 -0.0999
  703TMC3    C310392   1.513   3.704  10.536 -0.7958 -0.3681  0.0293
  703TMC3    C410393   1.699   3.584  10.701 -0.2586 -0.0868  0.6970
  703TMC3    C510394   1.727   3.701  10.634 -0.2804  0.0595  0.2410
  703TMC3    C610395   1.639   3.762  10.545 -0.2833  0.2346  0.6500
  703TMC3     C10396   1.523   3.453  10.780 -0.2804 -0.0212  0.2472
  703TMC3     O10397   1.502   3.513  10.884 -0.0750 -0.2268 -0.2305
  703TMC3     H10398   1.376   3.561  10.610 -0.2607  1.2950 -0.5429
  703TMC3    H110399   1.763   3.550  10.781  0.0210 -2.7006 -0.6390
  703TMC3    H210400   1.645   3.862  10.506  1.0358 -0.3392 -0.6047
  703TMC3    C710401   1.855   3.774  10.651  0.1940  0.5400  0.2886
  703TMC3    C810402   1.419   3.802  10.491 -0.2569  0.0388  0.7927
  703TMC3    O110403   1.857   3.869  10.575  0.1962  0.1056  0.0165
  703TMC3    O210404   1.448   3.863  10.387  0.1850  0.0487  0.4436
  704TMC3    C110405   3.064   1.609  12.018  0.0706  0.5920 -0.2942
  704TMC3    C210406   3.139   1.667  12.120 -0.3049 -0.2300  0.0925
  704TMC3    C310407   3.151   1.599  12.242  0.7925 -0.2564  0.5603
  704TMC3    C410408   2.988   1.492  12.035 -0.4618  0.2552  0.5042
  704TMC3    C510409   2.981   1.450  12.169  0.2648 -0.0137 -0.0931
  704TMC3    C610410   3.059   1.501  12.277  0.0947  0.9706 -0.7756
  704TMC3     C10411   3.090   1.642  11.875  0.4584 -0.0452  0.1138
  704TMC3     O10412   3.012   1.594  11.795 -0.2886 -0.5939  0.2027
  704TMC3     H10413   3.197   1.758  12.109  1.8792 -1.6092  0.3245
  704TMC3    H110414   2.906   1.464  11.970 -2.1698  0.0962  2.7423
  704TMC3    H210415   3.049   1.457  12.375  2.4275 -0.4726 -1.1815
  704TMC3    C710416   2.945   1.310  12.171  0.1668  0.0590  0.4007
  704TMC3    C810417   3.283   1.557  12.251 -0.0834 -0.1694  0.1438
  704TMC3    O110418   2.952   1.245  12.071 -0.0313 -0.3943  0.2853
  704TMC3    O210419   3.360   1.639  12.201 -0.2648 -0.6356  0.0081
  705MPD2     C10420   2.741   4.493  16.446 -0.0067 -1.2109  0.3776
  705MPD2    C110421   2.653   4.495  16.336  0.3348 -0.1432 -0.0535
  705MPD2    C210422   2.518   4.492  16.355  0.1143 -0.3314  0.4805
  705MPD2    C310423   2.468   4.522  16.483  0.0553  0.2782  0.4785
  705MPD2    C410424   2.555   4.524  16.591 -0.8911  0.5488  0.4247
  705MPD2    C510425   2.690   4.521  16.571  0.1713  0.3753  0.5403
  705MPD2     H10426   2.449   4.482  16.272 -1.6855  2.0882  1.6431
  705MPD2    H110427   2.520   4.529  16.694  2.1238  2.8412  1.3464
  705MPD2    H210428   2.846   4.477  16.421 -0.2152 -0.2158 -1.0929
  705MPD2    H310429   2.739   4.499  16.665  0.8445  1.2808  0.4012
  705MPD2     N10430   2.333   4.546  16.491 -0.1786 -0.0713  0.5422
  705MPD2    H510431   2.275   4.531  16.409  1.0348  1.5188 -0.6204
  705MPD2    N110432   2.711   4.487  16.209 -0.0493  0.5312 -0.0821
  705MPD2    H710433   2.653   4.519  16.133  0.6999  2.6382  0.2355
  706TMC3    C110434   2.916   4.460  15.815  0.0808  0.3540 -0.1504
  706TMC3    C210435   2.889   4.591  15.783  0.1957  0.2968  0.1677
  706TMC3    C310436   2.848   4.678  15.873  0.0077 -0.4934 -0.4594
  706TMC3    C410437   2.911   4.416  15.944 -0.1836  0.5718  0.3450
  706TMC3    C510438   2.861   4.508  16.030  0.4973 -0.8313  0.2480
  706TMC3    C610439   2.833   4.642  16.003 -0.0649  0.6144  0.3768
  706TMC3     C10440   3.012   4.389  15.723  0.3123 -0.1358 -0.0212
  706TMC3     O10441   3.091   4.311  15.776  0.5917 -0.1509 -0.1109
  706TMC3     H10442   2.900   4.624  15.680  0.1345 -1.4683 -0.4046
  706TMC3    H110443   2.912   4.312  15.976 -2.4348  0.4202 -0.0692
  706TMC3    H210444   2.801   4.717  16.074 -0.8912 -0.6809  1.3847
  706TMC3    C710445   2.838   4.460  16.166 -0.6467 -0.4709  0.9265
  706TMC3    C810446   2.822   0.091  15.835 -0.7742 -0.8054 -0.4708
  706TMC3    O110447   2.932   4.407  16.224 -0.5314 -0.3024 -0.1557
  706TMC3    O210448   2.796   0.114  15.718  0.0207 -0.6019 -0.0110
  707TMC3    C110449   4.723   3.641   1.075  0.4654  0.1525 -0.5814
  707TMC3    C210450   4.724   3.530   1.151 -0.2119  1.0205 -0.4463
  707TMC3    C310451   4.683   3.538   1.282  0.0793  0.3062  0.0623
  707TMC3    C410452   4.666   3.762   1.118 -0.0465  1.0556 -0.0922
  707TMC3    C510453   4.625   3.761   1.256  0.5519  0.0962  0.0115
  707TMC3    C610454   4.638   3.657   1.339  0.4130 -0.2589 -0.7070
  707TMC3     C10455   0.057   3.629   0.940  0.0048 -0.6110  0.7993
  707TMC3     O10456   0.110   3.521   0.916  0.0341  0.1885  0.0879
  707TMC3     H10457   0.027   3.434   1.111 -3.2966  0.7749 -2.0537
  707TMC3    H110458   4.680   3.857   1.069 -0.4818  0.3485 -1.5965
  707TMC3    H210459   4.602   3.653   1.441  0.6672  1.5946 -0.5470
  707TMC3    C710460   4.588   3.888   1.315  1.2946 -0.3064 -0.3028
  707TMC3    C810461   4.696   3.420   1.366  0.8412 -0.1048  0.3869
  707TMC3    O110462   4.604   3.910   1.435  0.5660 -0.2937 -0.0779
  707TMC3    O210463   4.649   3.424   1.477  0.2314  0.4631 -0.2659
  708MPD2     C10464   0.781   3.298  13.812  0.7694 -0.1764  0.3215
  708MPD2    C110465   0.722   3.232  13.916 -0.1725 -0.4246 -0.3564
  708MPD2    C210466   0.792   3.140  13.985  0.2012 -0.0487  0.2352
  708MPD2    C310467   0.925   3.112  13.948 -0.1706 -0.8323 -0.3102
  708MPD2    C410468   0.986   3.181  13.849 -0.2382 -0.0247 -0.4554
  708MPD2    C510469   0.916   3.278  13.780  0.3514  0.8244  0.5719
  708MPD2     H10470   0.746   3.083  14.064 -0.0346 -0.8748 -0.4992
  708MPD2    H110471   1.089   3.155  13.825 -0.0453  1.0336 -0.8007
  708MPD2    H210472   0.730   3.385  13.771  0.7069  0.1696  1.1423
  708MPD2    H310473   0.968   3.340  13.708 -0.6761  0.8503 -0.1595
  708MPD2     N10474   0.992   3.017  14.018 -0.7725  0.6744  0.6427
  708MPD2    H510475   1.093   3.013  14.010 -0.7536  1.7555  0.3666
  708MPD2    N110476   0.583   3.257  13.944  0.0860 -0.1101  0.3371
  708MPD2    H710477   0.533   3.308  13.872  0.4611  1.3410  1.1172
  709TMC3    C110478   0.373   3.189  14.025 -0.2200 -0.4691  0.7577
  709TMC3    C210479   0.332   3.175  13.897 -0.4934  0.6368 -0.7447
  709TMC3    C310480   0.223   3.095  13.875  0.7714 -0.3823  0.3012
  709TMC3    C410481   0.308   3.138  14.130 -0.2492  0.1877  0.2346
  709TMC3    C510482   0.206   3.043  14.111 -0.4190 -0.7383 -0.2134
  709TMC3    C610483   0.155   3.035  13.981  0.1853 -0.5503 -0.2014
  709TMC3     C10484   0.515   3.213  14.052  0.0622  0.2104 -0.0599
  709TMC3     O10485   0.558   3.170  14.162 -0.2432  0.5122  0.1872
  709TMC3     H10486   0.395   3.197  13.812 -1.4349 -0.1228 -1.6440
  709TMC3    H110487   0.342   3.159  14.230  1.2676  0.5743 -0.3681
  709TMC3    H210488   0.081   2.961  13.955 -1.3137  1.0730 -0.5373
  709TMC3    C710489   0.199   2.919  14.186 -0.1312  0.3578 -0.0090
  709TMC3    C810490   0.179   3.073  13.739  0.5039 -0.2106  0.2171
  709TMC3    O110491   0.117   2.831  14.157  0.9351  0.0736  0.6161
  709TMC3    O210492   0.094   2.992  13.720 -0.2219 -0.0817 -0.0143
  710TMC3    C110493   1.807   4.042   0.509 -0.0071  1.2254  0.1539
  710TMC3    C210494   1.845   4.000   0.389  1.0292  0.5954 -0.6175
  710TMC3    C310495   1.940   3.897   0.389 -0.3072  0.0413  0.2906
  710TMC3    C410496   1.847   3.979   0.629 -0.2525  0.7421 -0.9251
  710TMC3    C510497   1.938   3.878   0.619  0.0356 -0.3344  0.3462
  710TMC3    C610498   1.984   3.836   0.500 -0.8887 -0.9779 -0.6973
  710TMC3     C10499   1.707   4.155   0.513 -0.2743 -0.5622  0.5084
  710TMC3     O10500   1.683   4.204   0.404 -1.0831 -0.5042 -0.6941
  710TMC3     H10501   1.822   4.054   0.298 -0.4665  0.6346 -0.2104
  710TMC3    H110502   1.800   4.004   0.723  1.0672 -0.6631  0.0979
  710TMC3    H210503   2.043   3.746   0.487 -0.9301 -1.0707 -0.2319
  710TMC3    C710504   1.970   3.810   0.740 -0.1349  0.0057  0.8559
  710TMC3    C810505   2.028   3.900   0.281  0.0130 -0.1526 -0.6150
  710TMC3    O110506   1.892   3.822   0.834 -0.7001  0.3857 -0.1826
  710TMC3    O210507   1.982   3.942   0.177  0.9409  0.2300  0.6128
  711TMC3    C110508   1.476   0.704  14.950 -0.3286 -0.5105  0.3859
  711TMC3    C210509   1.480   0.697  15.088  0.1493  0.2177  0.0514
  711TMC3    C310510   1.576   0.774  15.152  0.1880  0.2884  0.0688
  711TMC3    C410511   1.563   0.781  14.877  0.9695  0.5258 -0.2930
  711TMC3    C510512   1.655   0.856  14.947  0.3724  0.5418  0.2377
  711TMC3    C610513   1.654   0.863  15.083 -0.8673 -0.1295  0.2251
  711TMC3     C10514   1.459   0.576  14.889  0.7235 -0.2973 -0.0089
  711TMC3     O10515   1.458   0.576  14.765 -0.9807 -0.3701  0.4094
  711TMC3     H10516   1.408   0.633  15.137 -0.2266 -0.9127 -1.9679
  711TMC3    H110517   1.556   0.776  14.769  1.6705 -3.1257 -0.1710
  711TMC3    H210518   1.725   0.937  15.118 -0.4283 -1.0749  1.3123
  711TMC3    C710519   1.788   0.794  14.917  0.1997  1.0801  0.1246
  711TMC3    C810520   1.637   0.704  15.260  0.8253  0.0040  0.2043
  711TMC3    O110521   1.879   0.811  14.998 -0.3393 -0.5612  0.3555
  711TMC3    O210522   1.575   0.615  15.317  0.5654  0.1625  0.4684
  712MPD2     C10523   3.201   1.409  13.537  0.7060 -0.1284 -0.0673
  712MPD2    C110524   3.080   1.482  13.544  1.2145  0.1866  0.7866
  712MPD2    C210525   3.075   1.598  13.474 -0.0700  0.2610 -0.4558
  712MPD2    C310526   3.188   1.660  13.410  0.4647 -0.1966  0.7260
  712MPD2    C410527   3.301   1.581  13.402 -0.3795  0.0228 -0.3225
  712MPD2    C510528   3.307   1.460  13.461  0.2945 -0.1139 -0.2260
  712MPD2     H10529   2.990   1.664  13.463 -1.5039 -1.5981 -0.5164
  712MPD2    H110530   3.392   1.621  13.360 -0.9361  1.2284 -0.4105
  712MPD2    H210531   3.207   1.315  13.589  5.4295  0.8157  1.0908
  712MPD2    H310532   3.399   1.403  13.460 -0.8330 -1.9521 -0.1927
  712MPD2     N10533   3.200   1.789  13.360 -0.3082 -0.5595 -0.7517
  712MPD2    H510534   3.288   1.823  13.323  0.5340 -1.7503  0.1821
  712MPD2    N110535   2.965   1.429  13.609 -0.2396 -0.4217  0.1208
  712MPD2    H710536   2.877   1.476  13.592  0.6186  0.0815 -2.9369
  713TMC3    C110537   3.168   2.022  13.390  0.0367 -0.0418  0.4409
  713TMC3    C210538   3.291   2.021  13.456  0.2486 -0.0217  0.1508
  713TMC3    C310539   3.372   2.125  13.448 -0.1808 -0.5277 -0.0686
  713TMC3    C410540   3.123   2.127  13.321 -0.0383  0.2142 -0.0466
  713TMC3    C510541   3.207   2.239  13.317 -0.8729  0.0802 -0.1881
  713TMC3    C610542   3.330   2.240  13.379  0.0813 -0.0679 -0.1859
  713TMC3     C10543   3.102   1.889  13.369 -0.1556 -0.4122  0.7713
  713TMC3     O10544   2.980   1.878  13.384  0.2270  0.0569 -0.1472
  713TMC3     H10545   3.313   1.939  13.523  3.2465  3.2194  3.1317
  713TMC3    H110546   3.042   2.115  13.250 -0.0459 -1.8804  0.2949
  713TMC3    H210547   3.389   2.330  13.396 -1.2411  0.7338  0.1757
  713TMC3    C710548   3.194   2.334  13.203 -0.7857  0.2514 -0.1952
  713TMC3    C810549   3.519   2.117  13.473  0.7696 -1.4622 -0.3977
  713TMC3    O110550   3.297   2.395  13.180 -0.4435  0.1838  0.5764
  713TMC3    O210551   3.584   2.207  13.426 -0.0871  0.2646  0.4436
  714MPD2     C10552   0.795   0.643   1.402 -0.0473  0.7899 -0.0189
  714MPD2    C110553   0.825   0.530   1.331  0.1575  0.3753  0.2448
  714MPD2    C210554   0.776   0.522   1.202 -0.3457 -0.3090 -0.8344
  714MPD2    C310555   0.725   0.632   1.135  0.3032  0.5071 -0.0412
  714MPD2    C410556   0.712   0.752   1.205 -0.4713 -0.4712  0.8090
  714MPD2    C510557   0.755   0.751   1.331 -0.0499 -0.5314 -0.7218
  714MPD2     H10558   0.800   0.433   1.144  1.2578 -0.1893 -0.3552
  714MPD2    H110559   0.675   0.832   1.143 -0.4938 -1.7902 -0.8925
  714MPD2    H210560   0.810   0.654   1.509  0.4102 -0.7871  0.0763
  714MPD2    H310561   0.733   0.845   1.380  0.5394 -0.2463 -1.0027
  714MPD2     N10562   0.680   0.623   1.003  0.2845 -0.0543 -0.4876
  714MPD2    H510563   0.628   0.703   0.966  0.8956 -1.1505 -3.6901
  714MPD2    N110564   0.880   0.417   1.408  0.1434 -0.0012  0.7735
  714MPD2    H710565   0.907   0.428   1.505  1.3683 -0.2071  0.4524
  715TMC3    C110566   0.975   0.191   1.441 -0.0282  0.2018  0.4750
  715TMC3    C210567   0.997   0.069   1.385 -0.2064  0.4607 -0.3688
  715TMC3    C310568   1.082   4.706   1.442  0.0930  0.6444  0.1868
  715TMC3    C410569   1.041   0.215   1.557 -0.2731 -0.1908 -0.2110
  715TMC3    C510570   1.132   0.129   1.613  0.1223 -0.3189  0.1803
  715TMC3    C610571   1.149   0.005   1.557  0.5700 -0.0729  0.0602
  715TMC3     C10572   0.909   0.294   1.359  0.5787 -0.3525  1.0080
  715TMC3     O10573   0.896   0.257   1.242 -0.1139 -0.1656  0.1268
  715TMC3     H10574   0.934   0.039   1.302  1.2191 -0.8921 -0.9402
  715TMC3    H110575   1.019   0.314   1.596  0.5435 -0.7245  1.6034
  715TMC3    H210576   1.228   4.667   1.594  0.4684 -1.7704 -2.5892
  715TMC3    C710577   1.198   0.156   1.738  1.2255 -0.5473  0.1652
  715TMC3    C810578   1.129   4.597   1.354  0.2126 -0.3241 -0.6198
  715TMC3    O110579   1.302   0.092   1.764  0.4465 -0.3642 -0.1429
  715TMC3    O210580   1.101   4.621   1.239 -0.1564  0.2024  1.3868
  716MPD2     C10581   0.926   3.340  10.139  0.0752 -0.4916  0.1057
  716MPD2    C110582   0.909   3.382  10.008 -0.2596  0.2911  1.0939
  716MPD2    C210583   0.910   3.296   9.899  0.0418 -0.3926  0.2335
  716MPD2    C310584   0.945   3.162   9.923  0.1986  0.1914 -0.5350
  716MPD2    C410585   0.967   3.124  10.054 -0.4207 -0.0402  0.2737
  716MPD2    C510586   0.955   3.208  10.169 -0.3004  0.4646  0.7127
  716MPD2     H10587   0.902   3.328   9.795 -1.0688 -0.7231  0.2176
  716MPD2    H110588   0.984   3.020  10.082  0.1841  0.0568  0.2762
  716MPD2    H210589   0.934   3.409  10.221  0.4868 -0.5302  0.0973
  716MPD2    H310590   0.965   3.172  10.270  0.7828  1.7141  1.0538
  716MPD2     N10591   0.957   3.070   9.813  0.6762  0.3415  0.1688
  716MPD2    H510592   0.927   3.104   9.722 -0.4688 -0.4120  0.2594
  716MPD2    N110593   0.879   3.521   9.995 -0.4847 -0.0742  0.6551
  716MPD2    H710594   0.889   3.577  10.079  0.1020  3.1575 -1.5554
  717TMC3    C110595   0.915   2.862   9.716  0.3224  0.1138  0.0130
  717TMC3    C210596   0.813   2.922   9.643 -0.3804 -0.0355  0.0166
  717TMC3    C310597   0.761   2.869   9.528 -0.1176 -0.5389 -0.0136
  717TMC3    C410598   0.971   2.750   9.670  0.8684  0.4133 -0.7138
  717TMC3    C510599   0.907   2.688   9.569  0.2443  0.1213  0.5708
  717TMC3    C610600   0.811   2.743   9.490  0.3903 -0.4909  0.4710
  717TMC3     C10601   0.976   2.935   9.827  0.1256  0.6765  1.1655
  717TMC3     O10602   1.025   2.864   9.913  0.5022 -0.6895 -0.7009
  717TMC3     H10603   0.763   3.008   9.687 -0.0703  0.5792 -0.8342
  717TMC3    H110604   1.060   2.709   9.715  0.2950 -0.0307  0.0180
  717TMC3    H210605   0.748   2.679   9.429 -2.6205  0.8264  2.1743
  717TMC3    C710606   0.926   2.544   9.552 -0.6907  0.1396 -0.3688
  717TMC3    C810607   0.654   2.940   9.465  0.2457 -0.1034  0.2962
  717TMC3    O110608   0.863   2.487   9.464 -0.1718 -0.5200 -0.1004
  717TMC3    O210609   0.603   3.025   9.534 -0.1044 -0.4163 -0.1955
  718MPD2     C10610   0.034   1.460  13.402 -0.1460  0.6199  0.5445
  718MPD2    C110611   0.024   1.500  13.274  0.1161 -0.0044 -0.1407
  718MPD2    C210612   4.633   1.466  13.205 -0.4090 -0.2293 -0.0840
  718MPD2    C310613   4.533   1.388  13.259 -0.0102 -0.4073  0.1579
  718MPD2    C410614   4.553   1.352  13.390  0.2025 -0.1942 -0.1713
  718MPD2    C510615   4.664   1.377  13.458  0.1636  0.7754  0.7488
  718MPD2     H10616   4.623   1.495  13.101 -2.8328 -0.1720  0.1619
  718MPD2    H110617   4.484   1.278  13.429  0.4935 -0.3578  0.0326
  718MPD2    H210618   0.122   1.478  13.463  0.0845  0.0474  0.3753
  718MPD2    H310619   4.661   1.337  13.558 -1.2321  0.6495  0.6450
  718MPD2     N10620   4.431   1.345  13.169 -0.4067  0.2468 -0.2384
  718MPD2    H510621   4.440   1.375  13.073  2.1960 -1.5783 -0.5701
  718MPD2    N110622   0.111   1.585  13.206  0.2487 -0.0966 -0.1707
  718MPD2    H710623   0.085   1.602  13.109 -0.8187 -1.1973 -0.0745
  719TMC3    C110624   0.316   1.601  13.105 -0.5021 -0.5955 -0.1479
  719TMC3    C210625   0.275   1.500  13.022  0.8748 -0.2031  0.1802
  719TMC3    C310626   0.284   1.525  12.888 -0.6296 -0.4996  0.2969
  719TMC3    C410627   0.341   1.725  13.069 -0.1380  0.3753  0.0310
  719TMC3    C510628   0.348   1.749  12.935  0.5829 -0.2385  0.6116
  719TMC3    C610629   0.324   1.648  12.846  0.1935 -0.7138 -0.5112
  719TMC3     C10630   0.244   1.588  13.232 -0.4453 -0.1141  0.8915
  719TMC3     O10631   0.307   1.543  13.330 -0.1032 -0.2556  0.0652
  719TMC3     H10632   0.235   1.406  13.060  0.5423 -0.0454  0.2269
  719TMC3    H110633   0.386   1.800  13.135  1.1564 -0.1652 -0.2285
  719TMC3    H210634   0.340   1.665  12.740 -1.4387 -0.4954 -0.7357
  719TMC3    C710635   0.363   1.885  12.885  0.3609  0.3491 -0.7613
  719TMC3    C810636   0.207   1.447  12.795 -1.1021  0.1220  0.0758
  719TMC3    O110637   0.371   1.896  12.763  0.0044 -0.2549  0.2460
  719TMC3    O210638   0.202   1.328  12.815  0.0306  0.1373 -0.0636
  720MPD2     C10639   2.972   3.787  14.042  0.0398  0.0828 -0.2744
  720MPD2    C110640   3.065   3.775  13.950  1.3700 -0.6047  0.8335
  720MPD2    C210641   3.167   3.686  13.978  0.6191  0.0384 -0.5954
  720MPD2    C310642   3.172   3.608  14.090 -0.3152 -0.3718  0.4311
  720MPD2    C410643   3.074   3.626  14.181 -0.4741  0.1882 -0.6015
  720MPD2    C510644   2.963   3.714  14.156 -0.3439 -0.2364 -0.3472
  720MPD2     H10645   3.230   3.655  13.895  1.1004  1.6974 -0.8567
  720MPD2    H110646   3.072   3.574  14.277 -1.1126  0.8867 -0.2336
  720MPD2    H210647   2.890   3.858  14.033 -0.2060  0.0420  1.6199
  720MPD2    H310648   2.876   3.725  14.219 -0.2507 -0.7415 -0.1294
  720MPD2     N10649   3.277   3.518  14.099  0.1131  0.4697  0.2343
  720MPD2    H510650   3.342   3.517  14.021  0.5029  1.6309  0.5382
  720MPD2    N110651   3.062   3.829  13.823  0.0865  0.5604  0.3033
  720MPD2    H710652   3.141   3.809  13.763  0.6165  1.9412  0.5381
  721TMC3    C110653   3.431   3.406  14.242 -0.1339 -0.2816  0.0421
  721TMC3    C210654   3.450   3.330  14.355  0.1134 -0.8729  0.4806
  721TMC3    C310655   3.579   3.302  14.393  0.3366 -0.0190 -0.0505
  721TMC3    C410656   3.536   3.455  14.165  0.2856 -0.3095 -0.5229
  721TMC3    C510657   3.663   3.430  14.211  0.3377 -0.0123 -0.8481
  721TMC3    C610658   3.685   3.346  14.318  0.1207 -0.3926  0.3242
  721TMC3     C10659   3.293   3.422  14.205  0.1313 -0.0265  0.0145
  721TMC3     O10660   3.206   3.363  14.267  0.0976 -0.1673 -0.2551
  721TMC3     H10661   3.366   3.281  14.403  0.6352 -0.9811  1.3013
  721TMC3    H110662   3.528   3.497  14.065 -2.0398 -1.0454 -0.6622
  721TMC3    H210663   3.783   3.304  14.338 -0.3219 -0.2853  2.6985
  721TMC3    C710664   3.769   3.508  14.149  0.1664 -0.1407  0.7811
  721TMC3    C810665   3.601   3.240  14.523  0.1947 -0.9075  0.2264
  721TMC3    O110666   3.744   3.583  14.051  0.0722  0.1837  0.4329
  721TMC3    O210667   3.715   3.205  14.552 -0.7963  0.2714  0.3413
  722MPD2     C10668   2.041   2.363  13.204  0.4808  0.1561 -0.3357
  722MPD2    C110669   2.016   2.429  13.090  0.6989  0.0116 -0.4332
  722MPD2    C210670   1.889   2.424  13.039 -0.4594 -0.2108 -0.1882
  722MPD2    C310671   1.790   2.356  13.104  0.6212  0.8765 -0.5137
  722MPD2    C410672   1.816   2.288  13.224  0.6785  0.0420  0.1202
  722MPD2    C510673   1.944   2.297  13.274  0.2447  0.0557 -0.1519
  722MPD2     H10674   1.859   2.479  12.950 -0.6353  0.1987  0.1211
  722MPD2    H110675   1.757   2.211  13.272  0.2519  0.9202  1.0189
  722MPD2    H210676   2.141   2.353  13.246  1.3811  3.1151 -1.7540
  722MPD2    H310677   1.976   2.248  13.366 -1.3157 -0.4086  0.1566
  722MPD2     N10678   1.659   2.362  13.043 -0.4535 -0.1688 -0.0878
  722MPD2    H510679   1.653   2.413  12.956 -2.8903 -0.1508  0.1172
  722MPD2    N110680   2.111   2.507  13.034 -0.3092  0.1046 -0.8027
  722MPD2    H710681   2.085   2.548  12.944 -0.1077  1.8889 -0.0511
  723TMC3    C110682   1.438   2.310  13.016 -0.9193  0.8681  0.4053
  723TMC3    C210683   1.337   2.220  13.042 -0.0669  0.3771  0.7207
  723TMC3    C310684   1.208   2.270  13.010  0.7358  0.4303 -0.3916
  723TMC3    C410685   1.420   2.438  12.967 -0.3285 -0.2391  0.7303
  723TMC3    C510686   1.288   2.475  12.952  0.1939  0.1956  0.2099
  723TMC3    C610687   1.181   2.396  12.983  0.8314  0.0195  0.4213
  723TMC3     C10688   1.563   2.272  13.073 -0.4849 -0.0376  0.0938
  723TMC3     O10689   1.569   2.169  13.142  0.4627 -0.3744 -0.1112
  723TMC3     H10690   1.360   2.131  13.100 -0.8889 -0.5835 -0.4226
  723TMC3    H110691   1.495   2.516  12.954 -1.5928  0.9652  0.6441
  723TMC3    H210692   1.078   2.430  12.986  1.2709  1.3997  0.1237
  723TMC3    C710693   1.262   2.615  12.921  0.3137  0.2411 -0.2701
  723TMC3    C810694   1.106   2.186  13.062 -0.1257 -0.3768  0.2165
  723TMC3    O110695   1.358   2.688  12.920 -0.5090  0.1302  0.5305
  723TMC3    O210696   0.996   2.238  13.088 -0.0437 -0.0606 -0.0982
  724TMC3    C110697   2.583   1.106   9.730 -0.3031  0.3176  0.1418
  724TMC3    C210698   2.703   1.134   9.804 -0.4919  0.3237 -0.9891
  724TMC3    C310699   2.810   1.050   9.795  0.1487 -0.6603 -0.6899
  724TMC3    C410700   2.593   1.016   9.632  0.0670 -0.0891 -0.2975
  724TMC3    C510701   2.712   0.952   9.604 -0.6254  0.3630  0.1966
  724TMC3    C610702   2.821   0.962   9.691  0.4092  0.0448  0.0270
  724TMC3     C10703   2.471   1.195   9.722  0.3154 -0.4915  0.5093
  724TMC3     O10704   2.382   1.156   9.649  0.5333  0.1613 -0.1118
  724TMC3     H10705   2.686   1.195   9.893  0.6970 -2.2802  1.0265
  724TMC3    H110706   2.505   0.988   9.575 -1.3890  0.8135  1.5134
  724TMC3    H210707   2.905   0.894   9.686  0.0682 -0.1293 -2.9187
  724TMC3    C710708   2.712   0.837   9.510  0.4448 -0.9657 -0.3499
  724TMC3    C810709   2.935   1.077   9.873  0.8757  0.4842 -0.8381
  724TMC3    O110710   2.601   0.794   9.481 -0.1002  0.2729 -0.3751
  724TMC3    O210711   3.019   0.988   9.883  0.7374  0.3817 -0.7191
  725TMC3    C110712   4.153   3.686  12.370 -0.8762  1.2539 -0.0463
  725TMC3    C210713   4.254   3.736  12.299 -0.6393 -0.0062 -0.0575
  725TMC3    C310714   4.242   3.717  12.162 -0.1683  0.2675 -0.3887
  725TMC3    C410715   4.067   3.594  12.314  0.2622 -0.2200 -0.2427
  725TMC3    C510716   4.074   3.561  12.184  0.4867 -0.0607  0.6016
  725TMC3    C610717   4.169   3.619  12.103 -0.0722  1.1424 -0.2341
  725TMC3     C10718   4.110   3.772  12.485 -0.5928  0.1818 -0.5653
  725TMC3     O10719   4.145   3.889  12.471 -1.0798  0.2577 -0.7646
  725TMC3     H10720   4.329   3.798  12.347 -1.4073 -0.6199  1.9133
  725TMC3    H110721   3.986   3.552  12.373 -0.3361 -1.1254 -1.7198
  725TMC3    H210722   4.164   3.594  11.997  1.0701  0.2429 -0.0697
  725TMC3    C710723   3.984   3.471  12.118 -0.0019 -0.2044  0.0679
  725TMC3    C810724   4.338   3.777  12.075  0.7399 -0.1452  0.7670
  725TMC3    O110725   3.959   3.498  12.004  0.5312  0.7465  0.6461
  725TMC3    O210726   4.373   3.720  11.972  0.0511  0.1339 -0.1321
  726MPD2     C10727   2.336   0.872  10.214  0.6420 -0.1270  0.5152
  726MPD2    C110728   2.221   0.940  10.161  0.4689  0.2217  0.7355
  726MPD2    C210729   2.105   0.859  10.153 -0.0067  0.3151  0.5347
  726MPD2    C310730   2.106   0.729  10.192  0.1566 -0.2264 -0.1529
  726MPD2    C410731   2.218   0.663  10.238 -0.3881  0.1273 -0.2717
  726MPD2    C510732   2.333   0.740  10.249  0.8474  0.8589 -0.3859
  726MPD2     H10733   2.011   0.906  10.126  1.0185  0.8674 -1.9799
  726MPD2    H110734   2.227   0.558  10.261 -3.0519  0.1096  0.7089
  726MPD2    H210735   2.430   0.926  10.227  0.0990  0.5241  1.7524
  726MPD2    H310736   2.423   0.690  10.285 -0.7205 -0.1957  2.0869
  726MPD2     N10737   1.986   0.658  10.199 -0.1877  0.1849 -0.2369
  726MPD2    H510738   1.991   0.566  10.242  2.7577 -0.1915 -1.3897
  726MPD2    N110739   2.209   1.078  10.116  0.3275 -0.2561 -0.6581
  726MPD2    H710740   2.114   1.107  10.097 -0.4611 -1.8146  0.8254
  727TMC3    C110741   2.274   1.310  10.090 -0.0669  0.2756  0.2328
  727TMC3    C210742   2.351   1.412  10.144 -0.3374 -0.5569 -0.2833
  727TMC3    C310743   2.320   1.541  10.123 -0.3259 -0.1602  0.0162
  727TMC3    C410744   2.149   1.349  10.038  0.5130  0.4163  0.2917
  727TMC3    C510745   2.113   1.478  10.043 -0.9133  0.6071  0.1201
  727TMC3    C610746   2.199   1.580  10.079  0.0502  0.3563 -0.4894
  727TMC3     C10747   2.316   1.166  10.107 -0.1102  0.1251  0.4957
  727TMC3     O10748   2.435   1.139  10.122  0.0752 -0.0845  0.2173
  727TMC3     H10749   2.432   1.401  10.215 -1.6290 -1.6508  1.0042
  727TMC3    H110750   2.088   1.272   9.991  1.7585 -0.0041 -0.6354
  727TMC3    H210751   2.174   1.685  10.066  0.6795  0.7914  1.9381
  727TMC3    C710752   1.990   1.514   9.974 -0.4500  0.6890 -0.6096
  727TMC3    C810753   2.379   1.638  10.215  0.3388 -0.6048  0.2641
  727TMC3    O110754   1.926   1.418   9.931 -0.3892  0.3869  0.4147
  727TMC3    O210755   2.413   1.593  10.326  0.4025 -0.0123 -0.0059
  728TMC3    C110756   0.803   4.152  15.312 -0.7720 -0.0024  0.5732
  728TMC3    C210757   0.928   4.151  15.363  0.4827 -0.4598  0.6557
  728TMC3    C310758   1.032   4.141  15.266 -0.4860  0.5309  0.4122
  728TMC3    C410759   0.771   4.142  15.180 -0.5218 -0.1374  0.0265
  728TMC3    C510760   0.872   4.132  15.093  0.3311 -0.3728 -0.3728
  728TMC3    C610761   1.007   4.118  15.130  0.2771 -0.5898  0.0520
  728TMC3     C10762   0.703   4.198  15.403 -0.3041 -0.2869  0.7581
  728TMC3     O10763   0.731   4.293  15.479  0.3273 -0.2573  0.5752
  728TMC3     H10764   0.944   4.156  15.470  0.1412  2.2373  0.5783
  728TMC3    H110765   0.673   4.162  15.138 -0.4315 -0.7402 -0.4669
  728TMC3    H210766   1.072   4.081  15.052  0.2163 -0.6879  0.0475
  728TMC3    C710767   0.830   4.125  14.953 -0.4319  0.6559 -0.4935
  728TMC3    C810768   1.168   4.128  15.317 -0.1764  0.3420  0.7331
  728TMC3    O110769   0.716   4.089  14.927  0.2948  0.5833 -0.2400
  728TMC3    O210770   1.191   4.121  15.436 -0.3569  0.9099  0.3867
  729MPD2     C10771   3.111   0.396  16.337 -0.1718 -0.3236  0.1474
  729MPD2    C110772   3.245   0.383  16.369  0.5717 -0.2270  0.3241
  729MPD2    C210773   3.280   0.342  16.498 -0.2455 -0.4037 -0.3383
  729MPD2    C310774   3.183   0.347  16.591 -0.5038  0.0085 -0.1212
  729MPD2    C410775   3.048   0.373  16.562  0.9915 -0.2571  0.0451
  729MPD2    C510776   3.015   0.386  16.434  0.3398 -0.6455 -0.5173
  729MPD2     H10777   3.384   0.334  16.528  0.5832  2.2582 -2.4298
  729MPD2    H110778   2.970   0.373  16.637  0.0069  0.5193 -0.9801
  729MPD2    H210779   3.073   0.416  16.238  0.0277  0.3363  0.2058
  729MPD2    H310780   2.912   0.405  16.408 -0.1287 -1.9933  0.3560
  729MPD2     N10781   3.234   0.326  16.726 -0.1882  0.1361  0.3695
  729MPD2    H510782   3.335   0.314  16.734 -0.2665 -0.7287  0.0239
  729MPD2    N110783   3.345   0.407  16.267  0.2893 -0.2151  0.3394
  729MPD2    H710784   3.304   0.442  16.181 -0.4683 -3.5418 -0.6380
  730TMC3    C110785   3.238   0.295  16.956 -0.0861  0.3544 -0.4380
  730TMC3    C210786   3.365   0.249  16.928 -0.2865 -0.6171 -0.3698
  730TMC3    C310787   3.469   0.324  16.964 -0.9155  0.2487 -0.0289
  730TMC3    C410788   3.220   0.403  17.040  0.2772 -0.5385 -0.1579
  730TMC3    C510789   3.333   0.472  17.077  0.1776  0.3729  0.0147
  730TMC3    C610790   3.459   0.438  17.045  0.7547 -0.0278 -0.1951
  730TMC3     C10791   3.158   0.311  16.837 -0.5047 -0.8541 -0.0538
  730TMC3     O10792   3.039   0.323  16.860 -0.1625 -0.3012 -0.5609
  730TMC3     H10793   3.379   0.164  16.863  0.1096 -0.5550 -0.3703
  730TMC3    H110794   3.124   0.454  17.037  0.8619  0.4034 -2.6625
  730TMC3    H210795   3.535   0.509  17.075 -1.3915  1.9404  0.5880
  730TMC3    C710796   3.334   0.615  17.069  0.4188 -0.3388 -0.2512
  730TMC3    C810797   3.560   0.348  16.852  0.2956 -0.5966 -0.5637
  730TMC3    O110798   3.411   0.664  16.988 -0.8137  0.0538  0.2136
  730TMC3    O210799   3.526   0.285  16.751  0.2190 -0.2243  0.1236
  731MPD2     C10800   3.842   3.883  12.289  0.0065 -0.0261  0.3273
  731MPD2    C110801   3.765   3.801  12.209 -0.0905 -0.0265 -0.8117
  731MPD2    C210802   3.661   3.732  12.270  0.0650  0.5546  0.0777
  731MPD2    C310803   3.627   3.733  12.399  0.3310  0.4150 -0.2603
  731MPD2    C410804   3.700   3.820  12.475  0.1187 -0.5199 -0.3082
  731MPD2    C510805   3.807   3.899  12.420  0.0670 -0.2180  0.2665
  731MPD2     H10806   3.600   3.672  12.202  0.7139 -0.6466  0.5530
  731MPD2    H110807   3.701   3.823  12.584 -3.4329 -1.3328 -0.2478
  731MPD2    H210808   3.927   3.936  12.247 -0.2479 -0.2194 -0.4357
  731MPD2    H310809   3.869   3.963  12.481  0.2436 -0.6076  0.5009
  731MPD2     N10810   3.528   3.651  12.454 -0.3846  0.2107  0.1893
  731MPD2    H510811   3.499   3.577  12.392  0.3947  2.0841 -2.3921
  731MPD2    N110812   3.797   3.807  12.078  0.4848  0.2778 -0.0787
  731MPD2    H710813   3.889   3.842  12.053  1.9687 -4.2637 -1.0135
  732TMC3    C110814   3.765   3.779  11.840  0.4340  0.3577  0.2885
  732TMC3    C210815   3.680   3.768  11.733 -0.1946 -0.7145 -0.8560
  732TMC3    C310816   3.726   3.731  11.606  0.0360 -0.3917 -0.2657
  732TMC3    C410817   3.901   3.771  11.821 -0.8498 -0.3455 -0.2094
  732TMC3    C510818   3.939   3.740  11.689  0.3345  0.1062  0.2078
  732TMC3    C610819   3.858   3.718  11.583  0.1586  0.2561 -0.3295
  732TMC3     C10820   3.709   3.786  11.972 -0.0926 -0.1713  0.3181
  732TMC3     O10821   3.585   3.768  11.983 -0.1226 -0.1530 -0.3159
  732TMC3     H10822   3.574   3.788  11.751 -0.0424  0.1959 -0.9649
  732TMC3    H110823   3.968   3.752  11.903 -1.4233  1.2519  0.6137
  732TMC3    H210824   3.893   3.689  11.484 -1.0837 -1.7228 -0.1996
  732TMC3    C710825   4.068   3.678  11.683 -1.4670  0.2599 -0.0577
  732TMC3    C810826   3.635   3.662  11.523  0.4300 -0.1428  0.0220
  732TMC3    O110827   4.152   3.718  11.762 -0.2074  0.2253  0.0679
  732TMC3    O210828   3.679   3.633  11.411 -0.0938  0.0502 -0.0197
  733TMC3    C110829   4.071   1.161  12.964 -0.2737 -0.2556 -0.3032
  733TMC3    C210830   4.134   1.190  13.081  0.3486 -0.7711 -0.2683
  733TMC3    C310831   4.270   1.198  13.090  0.0581 -0.3777 -0.3581
  733TMC3    C410832   4.144   1.130  12.851 -0.0427  0.2816  0.6145
  733TMC3    C510833   4.279   1.148  12.860  0.1131  0.3480  0.7266
  733TMC3    C610834   4.342   1.169  12.980  0.4917 -0.1997  0.1579
  733TMC3     C10835   3.928   1.167  12.964  0.1291  0.6603  0.5154
  733TMC3     O10836   3.869   1.193  13.068  0.2385  0.8066  0.9239
  733TMC3     H10837   4.073   1.238  13.157  0.2676 -0.1899 -0.7016
  733TMC3    H110838   4.101   1.133  12.752  2.1528 -0.5258 -0.3486
  733TMC3    H210839   4.450   1.178  12.986  0.6331 -2.5755  1.0191
  733TMC3    C710840   4.350   1.183  12.742  0.1806  0.3487  0.3860
  733TMC3    C810841   4.330   1.264  13.206 -0.3815  0.4197  0.3524
  733TMC3    O110842   4.281   1.198  12.642 -0.0416 -0.2348 -0.0036
  733TMC3    O210843   4.279   1.236  13.313 -0.9492 -0.4843  0.0431
  734MPD2     C10844   2.203   4.133  12.603 -0.0872  0.6706 -0.8926
  734MPD2    C110845   2.093   4.154  12.529  0.0852  0.0412  0.4468
  734MPD2    C210846   2.111   4.202  12.400 -0.1196  0.3283  0.2615
  734MPD2    C310847   2.237   4.248  12.349 -0.1269  0.3623 -0.0566
  734MPD2    C410848   2.340   4.247  12.445  0.0122 -0.8086 -0.7199
  734MPD2    C510849   2.321   4.188  12.566  0.2775 -0.7059  0.6658
  734MPD2     H10850   2.030   4.198  12.328  0.6813  2.3554 -0.7582
  734MPD2    H110851   2.438   4.287  12.420  0.2024 -2.0757 -1.9993
  734MPD2    H210852   2.200   4.079  12.697  1.6471  0.6859 -0.8407
  734MPD2    H310853   2.410   4.171  12.626  1.0345  0.3771 -0.1584
  734MPD2     N10854   2.250   4.299  12.222 -0.1634  0.2149  0.4485
  734MPD2    H510855   2.164   4.291  12.170  0.9358 -0.5112 -1.2546
  734MPD2    N110856   1.976   4.100  12.580  0.2420  0.2484 -0.5849
  734MPD2    H710857   1.985   4.070  12.676  1.2017  1.0001 -0.4398
  735TMC3    C110858   1.754   4.008  12.577 -0.0360  0.6549  0.8786
  735TMC3    C210859   1.686   3.953  12.470 -0.9893  0.0613  0.2448
  735TMC3    C310860   1.683   3.820  12.444  0.0632  0.6088  0.3262
  735TMC3    C410861   1.820   3.921  12.661 -0.4603 -0.2842  0.0131
  735TMC3    C510862   1.806   3.784  12.641 -0.1979 -0.4150 -0.1763
  735TMC3    C610863   1.737   3.735  12.535  0.7187 -0.1231 -0.0770
  735TMC3     C10864   1.853   4.098  12.518  1.1564 -0.0839 -0.2576
  735TMC3     O10865   1.836   4.117  12.397 -0.1330  0.0500 -0.5578
  735TMC3     H10866   1.628   4.018  12.406 -1.0946  1.2992  1.5988
  735TMC3    H110867   1.887   3.957  12.739 -0.5411  0.1792 -0.1293
  735TMC3    H210868   1.752   3.637  12.491 -0.4831 -0.1536 -0.4173
  735TMC3    C710869   1.933   3.721  12.665  0.4942 -0.1749 -0.3226
  735TMC3    C810870   1.704   3.774  12.309  0.6727  0.7760 -0.6579
  735TMC3    O110871   2.033   3.793  12.681 -0.8378  0.0004  0.1147
  735TMC3    O210872   1.657   3.667  12.273 -0.5993 -0.4358  0.3405
  736MPD2     C10873   2.008   3.372  12.721 -0.2154 -0.0279 -0.2900
  736MPD2    C110874   2.030   3.503  12.675  0.3403 -0.4802 -0.4189
  736MPD2    C210875   2.144   3.538  12.606  0.2185  0.4387  0.4381
  736MPD2    C310876   2.241   3.443  12.580  0.2825 -0.4163  0.7592
  736MPD2    C410877   2.221   3.318  12.628  0.1430 -0.3585 -0.1633
  736MPD2    C510878   2.115   3.283  12.706  1.0203 -0.8649 -0.5365
  736MPD2     H10879   2.167   3.641  12.583 -0.8009  0.6368  0.3323
  736MPD2    H110880   2.282   3.232  12.603  0.0492 -0.5428  0.2344
  736MPD2    H210881   1.916   3.348  12.774 -0.6498 -0.1128 -1.0922
  736MPD2    H310882   2.104   3.178  12.728 -0.6385 -0.2227  1.7917
  736MPD2     N10883   2.341   3.478  12.486 -0.2634  0.8721  0.1071
  736MPD2    H510884   2.355   3.571  12.448  2.2759  0.5675  0.3121
  736MPD2    N110885   1.920   3.589  12.697  0.3425  0.4156 -0.4044
  736MPD2    H710886   1.827   3.554  12.719  1.1461 -2.5654 -1.7658
  737TMC3    C110887   2.504   3.466  12.325  0.0496 -0.2385  0.2062
  737TMC3    C210888   2.552   3.590  12.354  0.6703 -0.8749 -0.2686
  737TMC3    C310889   2.619   3.656  12.250  0.1103  0.0438  0.1108
  737TMC3    C410890   2.534   3.404  12.207 -0.0756 -0.2629 -0.4017
  737TMC3    C510891   2.598   3.475  12.107  0.4526 -0.3874 -0.0377
  737TMC3    C610892   2.644   3.605  12.123  0.4509  0.4051 -0.4464
  737TMC3     C10893   2.421   3.390  12.412 -0.3345  0.0627 -0.5427
  737TMC3     O10894   2.451   3.271  12.429  0.4659  0.5797  0.0740
  737TMC3     H10895   2.544   3.645  12.448  3.5786 -1.8660  0.5699
  737TMC3    H110896   2.495   3.305  12.186  0.0413  0.0102 -1.8956
  737TMC3    H210897   2.712   3.657  12.057  1.7472 -0.5719  0.1113
  737TMC3    C710898   2.621   3.409  11.978 -0.3377  0.2918 -0.0649
  737TMC3    C810899   2.660   3.801  12.260 -0.2576  0.4912  0.1923
  737TMC3    O110900   2.563   3.305  11.961  0.4349 -0.8231  0.0053
  737TMC3    O210901   2.682   3.838  12.374  0.3534  0.4960  0.8317
  738MPD2     C10902   2.155   2.867  15.242 -0.1176  0.2322 -0.1995
  738MPD2    C110903   2.192   2.741  15.201 -0.0073  0.0761 -0.7537
  738MPD2    C210904   2.321   2.720  15.161  0.6660  1.1748 -0.6655
  738MPD2    C310905   2.414   2.826  15.157  0.4331 -0.0101 -0.3747
  738MPD2    C410906   2.379   2.954  15.194  0.2558 -0.5444  0.5894
  738MPD2    C510907   2.245   2.968  15.234 -0.1615  0.1354  0.1736
  738MPD2     H10908   2.344   2.624  15.115 -0.0962  1.0031 -0.6903
  738MPD2    H110909   2.440   3.043  15.188 -0.1094 -0.3273  0.0557
  738MPD2    H210910   2.052   2.896  15.259 -0.0905 -0.9274  2.0126
  738MPD2    H310911   2.203   3.068  15.243 -0.1529  0.3299 -1.8360
  738MPD2     N10912   2.554   2.804  15.122 -0.6840 -0.2213  0.3749
  738MPD2    H510913   2.618   2.881  15.106  0.2794 -1.0560  0.2613
  738MPD2    N110914   2.102   2.638  15.178  0.1269 -0.0613  0.1628
  738MPD2    H710915   2.133   2.563  15.117 -0.6485  0.1189 -0.4462
  739TMC3    C110916   2.748   2.676  15.058 -0.0905  0.1119 -0.3540
  739TMC3    C210917   2.781   2.736  14.941 -0.3752  0.0566  0.4008
  739TMC3    C310918   2.895   2.693  14.885 -0.3560  0.7459  0.4486
  739TMC3    C410919   2.814   2.557  15.091  0.3497  0.3696  0.3153
  739TMC3    C510920   2.927   2.517  15.034  0.1124  0.0662 -0.5903
  739TMC3    C610921   2.967   2.581  14.920  0.2702 -0.5636 -0.9472
  739TMC3     C10922   2.611   2.680  15.114  0.2654 -0.1589 -0.0845
  739TMC3     O10923   2.569   2.571  15.153  0.0440  0.0028  0.5158
  739TMC3     H10924   2.741   2.834  14.918  0.1725  0.4586  1.1807
  739TMC3    H110925   2.786   2.498  15.178  2.8331 -0.7209  0.3647
  739TMC3    H210926   3.044   2.537  14.857  0.9809  1.9058 -1.8019
  739TMC3    C710927   2.983   2.384  15.061  0.2548  1.0131 -0.1185
  739TMC3    C810928   2.944   2.777  14.779  0.0847  0.4058  0.0631
  739TMC3    O110929   3.064   2.339  14.978  0.5511 -0.2011  0.3050
  739TMC3    O210930   2.861   2.837  14.713  0.6864  0.1420  0.6674
  740TMC3    C110931   2.941   4.130  14.499 -0.0132  0.3079 -0.3500
  740TMC3    C210932   2.967   4.143  14.633  0.8726  0.4264 -0.1556
  740TMC3    C310933   3.090   4.087  14.676 -0.2797 -0.5179  0.7596
  740TMC3    C410934   3.037   4.089  14.407  0.6816  0.1125 -0.1921
  740TMC3    C510935   3.161   4.039  14.447  0.1048 -0.3543  0.4893
  740TMC3    C610936   3.184   4.033  14.584  0.2760  0.0876 -0.1826
  740TMC3     C10937   2.805   4.130  14.452  0.4217  0.3219  0.1797
  740TMC3     O10938   2.788   4.147  14.332  0.2689 -0.0875  0.4706
  740TMC3     H10939   2.901   4.181  14.709 -1.2935  1.6286 -2.6671
  740TMC3    H110940   3.011   4.084  14.302  1.6995  3.3425 -0.5929
  740TMC3    H210941   3.282   4.000  14.616 -0.8016 -2.3258  0.5886
  740TMC3    C710942   3.245   3.959  14.356 -0.6460  0.1578  0.3701
  740TMC3    C810943   3.101   4.038  14.809  0.3305  0.0839 -0.7382
  740TMC3    O110944   3.293   3.859  14.409 -0.2432 -0.6571 -0.0934
  740TMC3    O210945   3.047   4.098  14.904  0.7718  0.0235  0.1742
  741TMC3    C110946   2.604   3.368  14.295  0.4342 -0.0078  0.1231
  741TMC3    C210947   2.474   3.379  14.263 -1.0335  0.7528 -0.9320
  741TMC3    C310948   2.385   3.333  14.359  0.5842 -0.6049  0.0218
  741TMC3    C410949   2.643   3.311  14.412 -0.0450 -0.0708 -0.2943
  741TMC3    C510950   2.548   3.281  14.511 -0.0098 -0.0596 -0.1953
  741TMC3    C610951   2.419   3.283  14.482 -0.1687  0.2586  0.2452
  741TMC3     C10952   2.705   3.409  14.199  0.3175 -0.0904 -0.3866
  741TMC3     O10953   2.820   3.412  14.239 -0.7413 -0.2540  0.3413
  741TMC3     H10954   2.437   3.399  14.163 -3.0598  1.7921  0.0308
  741TMC3    H110955   2.750   3.301  14.429 -0.0585  0.7318  0.2906
  741TMC3    H210956   2.339   3.265  14.553  1.0204  1.4550  1.8895
  741TMC3    C710957   2.586   3.239  14.646  0.5046  0.3247 -0.1054
  741TMC3    C810958   2.265   3.261  14.303  0.6880  0.9592 -0.5636
  741TMC3    O110959   2.497   3.216  14.729 -0.0519  0.0310  0.4983
  741TMC3    O210960   2.203   3.315  14.215 -0.3007  0.0949 -0.3318
  742TMC3    C110961   2.258   1.552  15.607  0.4411  0.7844 -0.2988
  742TMC3    C210962   2.184   1.659  15.561 -0.2555  0.1374  0.3157
  742TMC3    C310963   2.234   1.785  15.590 -0.3444  0.3308  0.0731
  742TMC3    C410964   2.391   1.570  15.646  0.0854  0.0451  0.7297
  742TMC3    C510965   2.440   1.695  15.651 -0.5492  0.3229 -0.3928
  742TMC3    C610966   2.361   1.804  15.632  0.5856  0.9739  0.5049
  742TMC3     C10967   2.200   1.420  15.598 -0.5656  0.7255  0.0605
  742TMC3     O10968   2.100   1.412  15.527 -0.3172 -0.1603  0.0309
  742TMC3     H10969   2.078   1.659  15.540  0.0380 -2.2092 -1.1201
  742TMC3    H110970   2.456   1.488  15.675 -0.5841 -0.4454  0.8532
  742TMC3    H210971   2.418   1.895  15.617  0.1664  0.8892 -1.6818
  742TMC3    C710972   2.577   1.706  15.657 -0.0238  0.4981  0.6963
  742TMC3    C810973   2.194   1.887  15.495 -0.3039 -0.0356  0.0119
  742TMC3    O110974   2.622   1.786  15.737  0.8923 -0.1543 -0.4837
  742TMC3    O210975   2.257   1.989  15.502  0.3183 -0.6502  0.4287
  743MPD2     C10976   0.903   2.844   1.732  0.2653 -0.5015  0.0543
  743MPD2    C110977   0.950   2.840   1.605 -0.3899  0.0134 -0.0299
  743MPD2    C210978   1.088   2.830   1.591  0.0982  0.5844  0.3177
  743MPD2    C310979   1.176   2.826   1.701 -0.0468  0.5436 -0.2590
  743MPD2    C410980   1.124   2.849   1.824 -0.2962  0.5079 -0.0394
  743MPD2    C510981   0.989   2.853   1.835 -0.3774  0.1521  0.5339
  743MPD2     H10982   1.140   2.819   1.497 -0.2539  0.0645  0.1867
  743MPD2    H110983   1.181   2.856   1.916 -0.0832 -0.9346 -0.0650
  743MPD2    H210984   0.798   2.857   1.757 -0.0231 -0.9305 -0.9466
  743MPD2    H310985   0.957   2.866   1.938  1.1696 -2.2349  1.3053
  743MPD2     N10986   1.314   2.828   1.662 -0.1422  0.2680  0.6146
  743MPD2    H510987   1.331   2.834   1.562  1.4097  4.1247  1.0822
  743MPD2    N110988   0.856   2.850   1.501 -0.1767  0.5587 -0.0951
  743MPD2    H710989   0.756   2.852   1.515 -0.2732  0.4497 -0.7501
  744TMC3    C110990   0.795   2.852   1.277  0.4057  0.1021  0.5660
  744TMC3    C210991   0.681   2.927   1.300  0.1329  0.2271 -0.0420
  744TMC3    C310992   0.593   2.927   1.194  0.1765 -0.3617  0.0367
  744TMC3    C410993   0.839   2.807   1.152  0.0719 -0.1271  0.6388
  744TMC3    C510994   0.753   2.839   1.047 -0.8300 -0.1837 -0.1954
  744TMC3    C610995   0.628   2.890   1.067  0.3828 -0.1357  0.2559
  744TMC3     C10996   0.900   2.865   1.370 -0.9279 -0.2539 -0.2360
  744TMC3     O10997   1.010   2.858   1.311  0.0515  0.2952 -0.5901
  744TMC3     H10998   0.667   2.966   1.400  0.6967 -0.4150  0.2862
  744TMC3    H110999   0.933   2.756   1.137  0.2889 -0.2852  2.6009
  744TMC3    H211000   0.557   2.897   0.985  0.3239 -1.0510  0.2289
  744TMC3    C711001   0.819   2.878   0.919  0.2619 -0.1666  0.1672
  744TMC3    C811002   0.469   2.999   1.204 -0.3822 -0.0507  0.4080
  744TMC3    O111003   0.753   2.852   0.822 -0.0564  0.4231  0.6140
  744TMC3    O211004   0.426   3.063   1.108 -0.4174  0.2535 -0.7191
  745TMC3    C111005   2.836   1.280  13.733 -0.0861  0.4848  1.2134
  745TMC3    C211006   2.804   1.309  13.863  0.0276  0.2290 -0.4664
  745TMC3    C311007   2.671   1.317  13.887  0.3307  0.5602 -0.6757
  745TMC3    C411008   2.752   1.288  13.633 -0.5462 -0.4363 -0.1099
  745TMC3    C511009   2.615   1.298  13.658  0.3541  0.5758 -0.2392
  745TMC3    C611010   2.578   1.316  13.787 -0.3183  0.2325  0.3294
  745TMC3     C11011   2.964   1.323  13.692  0.4599  0.0772  0.5618
  745TMC3     O11012   3.055   1.281  13.764 -0.4574  0.7907  0.4050
  745TMC3     H11013   2.877   1.301  13.944 -0.0341  0.6773 -0.3641
  745TMC3    H111014   2.804   1.268  13.540  0.8275  1.1151  0.3376
  745TMC3    H211015   2.473   1.327  13.811 -0.4367  0.0705 -0.1144
  745TMC3    C711016   2.542   1.377  13.565  0.6029 -0.0110 -0.2955
  745TMC3    C811017   2.625   1.395  14.003 -0.0725  0.0118 -0.3107
  745TMC3    O111018   2.447   1.447  13.599  0.3181 -0.1092  0.5641
  745TMC3    O211019   2.525   1.355  14.066 -0.6984  1.1300 -0.6912
  746TMC3    C111020   0.999   3.618  11.278  0.4826  0.7413 -0.8411
  746TMC3    C211021   1.101   3.536  11.233  0.5327  0.0542 -0.0536
  746TMC3    C311022   1.067   3.403  11.202 -0.4447  0.1976 -0.2015
  746TMC3    C411023   0.873   3.572  11.293 -0.0085 -0.6985 -0.0317
  746TMC3    C511024   0.849   3.444  11.252 -0.4109  0.2058  0.0703
  746TMC3    C611025   0.939   3.359  11.202 -0.4887 -0.0958 -0.1621
  746TMC3     C11026   1.001   3.759  11.263  0.1420  0.3793 -0.3798
  746TMC3     O11027   0.935   3.818  11.342 -0.0031 -0.2251 -1.0710
  746TMC3     H11028   1.202   3.575  11.224  1.0731 -1.3392  0.0367
  746TMC3    H111029   0.798   3.645  11.322 -1.1921 -1.3715 -1.4446
  746TMC3    H211030   0.914   3.255  11.188 -0.3039  0.0491 -1.6137
  746TMC3    C711031   0.709   3.404  11.266  0.5057 -0.3567  0.2951
  746TMC3    C811032   1.166   3.325  11.137 -0.1863  0.3588 -0.5232
  746TMC3    O111033   0.664   3.317  11.191 -0.0905  0.0517 -0.0387
  746TMC3    O211034   1.277   3.366  11.168  0.5886 -0.4880 -0.4739
  747TMC3    C111035   3.170   3.790  11.154  0.6406 -0.0642  0.3741
  747TMC3    C211036   3.101   3.681  11.195  0.2104  0.0374 -0.1801
  747TMC3    C311037   3.083   3.664  11.332 -0.1244  0.6719 -0.8191
  747TMC3    C411038   3.214   3.883  11.246 -0.6545  0.3064  0.3724
  747TMC3    C511039   3.202   3.854  11.376 -0.0758 -1.1740 -0.7111
  747TMC3    C611040   3.135   3.750  11.427 -0.7400 -0.7230  0.3967
  747TMC3     C11041   3.182   3.829  11.014 -0.0268  0.3293 -0.1347
  747TMC3     O11042   3.199   3.950  10.994  0.2717 -0.0736 -0.5618
  747TMC3     H11043   3.066   3.611  11.119 -0.0828  1.6380 -1.5268
  747TMC3    H111044   3.264   3.970  11.204 -0.1234 -0.8471 -1.4084
  747TMC3    H211045   3.127   3.741  11.535 -0.2894  0.1930  0.5082
  747TMC3    C711046   3.313   3.913  11.453  0.0244 -0.1760 -0.1239
  747TMC3    C811047   3.007   3.547  11.372  0.1509  0.1125 -0.0541
  747TMC3    O111048   3.308   3.954  11.569 -0.5777  0.2475 -0.0904
  747TMC3    O211049   2.982   3.462  11.284  0.0744 -1.2361  0.3128
  748MPD2     C11050   4.148   4.026   2.003  0.1449  0.4682  0.0662
  748MPD2    C111051   4.228   3.913   1.967 -0.2206 -0.6401 -0.2696
  748MPD2    C211052   4.331   3.934   1.874 -0.2897 -0.0517 -0.0210
  748MPD2    C311053   4.373   4.061   1.839 -0.4558 -0.8412  0.4834
  748MPD2    C411054   4.291   4.171   1.878 -0.0652 -0.0646 -0.2973
  748MPD2    C511055   4.177   4.149   1.952 -0.2973  0.0506 -0.3321
  748MPD2     H11056   4.390   3.853   1.832  1.9983 -0.1439  3.3379
  748MPD2    H111057   4.312   4.272   1.844  0.5519  0.0094  0.2897
  748MPD2    H211058   4.069   4.025   2.077  0.4575  0.7452  0.4016
  748MPD2    H311059   4.111   4.228   1.986 -0.2607  0.8833 -2.1827
  748MPD2     N11060   4.492   4.073   1.762 -0.3968  0.2727 -0.0020
  748MPD2    H511061   4.554   3.996   1.741 -0.6256 -0.0172  0.3984
  748MPD2    N111062   4.206   3.790   2.036  0.2886 -0.2793 -0.0426
  748MPD2    H711063   4.134   3.793   2.108  1.7456 -0.5515  1.4355
  749TMC3    C111064   4.669   4.172   1.633  0.5782  0.2544 -0.1777
  749TMC3    C211065   0.021   4.072   1.675  0.3450  0.2816  0.6849
  749TMC3    C311066   0.134   4.055   1.595 -0.1966 -0.2010  0.2410
  749TMC3    C411067   4.688   4.254   1.531  0.9337 -0.4337  0.3673
  749TMC3    C511068   0.069   4.220   1.449 -0.0804 -0.7189  0.5474
  749TMC3    C611069   0.155   4.124   1.480 -0.0663  0.0690  0.5397
  749TMC3     C11070   4.543   4.187   1.710 -0.3854  0.3324  0.3786
  749TMC3     O11071   4.498   4.300   1.707  0.5419  0.1108 -1.0167
  749TMC3     H11072   0.012   4.022   1.771  1.3585 -2.7143 -0.7676
  749TMC3    H111073   4.616   4.330   1.503  0.9194 -0.7270 -0.3969
  749TMC3    H211074   0.245   4.111   1.420  0.0071  0.1684  0.6288
  749TMC3    C711075   0.105   4.306   1.335  0.4293 -0.8149  0.0551
  749TMC3    C811076   0.181   3.916   1.606  0.4435 -0.0514  0.5648
  749TMC3    O111077   0.219   4.303   1.290  0.1801 -0.0680  0.0878
  749TMC3    O211078   0.150   3.847   1.698 -0.5603 -0.2991  0.9384
  750MPD2     C11079   0.549   0.813  10.721  0.1723 -0.1427 -0.4385
  750MPD2    C111080   0.637   0.739  10.802  0.3350  0.3305 -0.3547
  750MPD2    C211081   0.677   0.621  10.745  0.1071  0.4295 -0.4788
  750MPD2    C311082   0.625   0.572  10.630 -0.3220 -0.2035 -0.4875
  750MPD2    C411083   0.534   0.645  10.558 -0.1069  0.4542 -0.5543
  750MPD2    C511084   0.492   0.767  10.608 -0.0707  0.2152 -0.5468
  750MPD2     H11085   0.748   0.560  10.801 -1.1153 -0.8850 -0.3576
  750MPD2    H111086   0.485   0.615  10.466  0.8933 -0.3618 -0.8210
  750MPD2    H211087   0.505   0.906  10.756  0.5887 -0.1672  0.1309
  750MPD2    H311088   0.412   0.823  10.563 -0.8166  0.2135  0.7756
  750MPD2     N11089   0.652   0.438  10.584 -0.4401  0.5283 -0.5102
  750MPD2    H511090   0.601   0.396  10.507 -0.2215  0.7703 -0.7880
  750MPD2    N111091   0.692   0.797  10.922 -0.0239 -0.1809 -0.2289
  750MPD2    H711092   0.664   0.891  10.949  1.2634 -0.5752  2.4332
  751TMC3    C111093   0.773   0.236  10.555 -0.2053 -0.2109  0.7977
  751TMC3    C211094   0.656   0.178  10.501 -0.3609 -0.5159  0.2410
  751TMC3    C311095   0.672   0.070  10.419 -0.3466  0.0346 -0.7498
  751TMC3    C411096   0.895   0.186  10.533 -0.6252  0.1324 -0.0218
  751TMC3    C511097   0.910   0.090  10.436 -0.0751 -0.1089 -0.2625
  751TMC3    C611098   0.797   0.035  10.378 -1.1223 -0.4200 -0.3275
  751TMC3     C11099   0.758   0.360  10.630  0.7228 -0.6912 -0.1547
  751TMC3     O11100   0.845   0.384  10.710 -0.1936  0.4273 -0.0894
  751TMC3     H11101   0.555   0.210  10.525  0.7807  1.7393  2.0409
  751TMC3    H111102   0.977   0.229  10.590  0.7649 -0.9732 -1.1915
  751TMC3    H211103   0.805   4.674  10.312  1.2909 -1.3553  1.1971
  751TMC3    C711104   1.018   4.716  10.469  0.0061 -0.4742  0.0976
  751TMC3    C811105   0.604   4.681  10.466 -0.7903 -0.5215  0.3472
  751TMC3    O111106   1.037   4.633  10.379  0.5162 -0.2935  0.1942
  751TMC3    O211107   0.685   4.595  10.489 -0.0412  0.2700 -0.6107
  752TMC3    C111108   4.066   0.428  16.940 -0.6035  1.0304  0.9519
  752TMC3    C211109   3.955   0.491  16.998 -0.4428 -0.4879  0.1215
  752TMC3    C311110   3.929   0.463  17.127  0.1787 -0.3804  0.5342
  752TMC3    C411111   4.153   0.361  17.011  0.6691  0.3926  0.1188
  752TMC3    C511112   4.123   0.330  17.144 -0.0596  0.5877  0.3311
  752TMC3    C611113   4.008   0.370  17.203 -0.3594 -0.6795 -0.5739
  752TMC3     C11114   4.122   0.472  16.812  0.2757 -0.1112 -0.9365
  752TMC3     O11115   4.244   0.467  16.799 -0.3634  0.1116  0.0987
  752TMC3     H11116   3.877   0.534  16.936  0.3825 -0.0023 -0.5781
  752TMC3    H111117   4.242   0.321  16.964  1.7761  1.1121  1.5981
  752TMC3    H211118   3.980   0.340  17.303  0.9622  0.0989  0.0267
  752TMC3    C711119   4.208   0.227  17.209 -0.3166  0.7127 -0.1159
  752TMC3    C811120   3.800   0.502  17.177  0.5891  0.0756  0.3861
  752TMC3    O111121   4.269   0.157  17.132  0.0685  0.1604 -0.6282
  752TMC3    O211122   3.739   0.594  17.121 -0.2105  0.0195 -0.0291
  753TMC3    C111123   1.447   1.282  13.449  0.0044  0.2279  0.4332
  753TMC3    C211124   1.420   1.298  13.580  1.0229 -0.6250 -0.5972
  753TMC3    C311125   1.337   1.203  13.641 -0.1226  0.6857 -0.5838
  753TMC3    C411126   1.373   1.191  13.375  0.4943 -1.2919  0.2935
  753TMC3    C511127   1.278   1.117  13.440  0.1766 -0.1572 -0.1905
  753TMC3    C611128   1.266   1.109  13.573 -0.5001  0.0154 -1.1497
  753TMC3     C11129   1.527   1.379  13.378 -0.1397  0.1560 -0.0082
  753TMC3     O11130   1.598   1.329  13.288 -0.3436 -0.3439  0.2682
  753TMC3     H11131   1.477   1.376  13.629  3.3936 -2.6997 -0.0844
  753TMC3    H111132   1.373   1.202  13.267 -1.1534 -1.6156  0.2608
  753TMC3    H211133   1.200   1.048  13.633 -0.8124  1.7693  0.3053
  753TMC3    C711134   1.169   1.057  13.363 -0.1522 -0.1815 -0.3293
  753TMC3    C811135   1.270   1.255  13.760  0.1942 -0.4773  1.1230
  753TMC3    O111136   1.183   1.047  13.244  0.2293 -0.0945 -0.1977
  753TMC3    O211137   1.156   1.221  13.775  0.0936  0.4275 -0.4213
  754MPD2     C11138   0.097   4.628  12.573 -0.0509  0.3437 -0.4585
  754MPD2    C111139   0.108   4.508  12.635 -0.4653 -0.0212 -0.0235
  754MPD2    C211140   4.711   4.467  12.700  0.9100 -0.3280 -0.3034
  754MPD2    C311141   4.595   4.539  12.701 -0.0776  0.0283  0.3222
  754MPD2    C411142   4.589   4.654  12.632 -0.3765 -0.1979  0.3534
  754MPD2    C511143   4.708   4.701  12.575 -0.3172  0.7360 -0.3050
  754MPD2     H11144   4.709   4.371  12.750  1.6856 -0.9191 -1.4220
  754MPD2    H111145   4.502   4.718  12.623  0.2899  0.7954  0.9514
  754MPD2    H211146   0.186   4.672  12.530  1.0034 -0.1644  1.1875
  754MPD2    H311147   4.702   0.072  12.527 -0.1884  0.4460 -0.8983
  754MPD2     N11148   4.480   4.495  12.773 -0.0775 -0.2156  0.4068
  754MPD2    H511149   4.391   4.541  12.762 -0.6283 -0.8089  2.2893
  754MPD2    N111150   0.228   4.432  12.622  0.1061  0.1607  0.0770
  754MPD2    H711151   0.283   4.464  12.543 -1.9814  1.0465 -1.0258
  755MPD2     C11152   4.260   4.662  13.662 -0.2593 -0.6897 -0.2104
  755MPD2    C111153   4.172   4.612  13.566  0.0559  0.1688 -0.6144
  755MPD2    C211154   4.209   4.507  13.483 -0.2709 -0.1545 -0.1563
  755MPD2    C311155   4.337   4.464  13.478 -0.4917 -0.7213 -0.0040
  755MPD2    C411156   4.432   4.526  13.565 -0.2125  0.2960  0.1957
  755MPD2    C511157   4.395   4.616  13.657  0.5216 -0.2772 -0.4528
  755MPD2     H11158   4.133   4.477  13.412 -1.4463  1.9086  0.2246
  755MPD2    H111159   4.539   4.509  13.559 -0.7101 -2.2731 -1.0423
  755MPD2    H211160   4.226   0.010  13.733 -2.6196 -1.7892 -0.1804
  755MPD2    H311161   4.467   4.659  13.726  2.5023  0.2600 -2.8838
  755MPD2     N11162   4.381   4.377  13.377 -0.5252 -0.2168  0.6212
  755MPD2    H511163   4.480   4.367  13.356 -0.6799 -1.0114  0.2571
  755MPD2    N111164   4.038   4.650  13.553 -0.2039  0.4049 -0.2214
  755MPD2    H711165   3.985   4.592  13.489 -1.6293  1.4662 -0.0102
  756MPD2     C11166   0.779   1.493   9.389  0.3770 -0.4019  0.7444
  756MPD2    C111167   0.686   1.413   9.445  0.6968  0.4030 -0.2282
  756MPD2    C211168   0.579   1.377   9.365 -0.5859  0.6788  0.6048
  756MPD2    C311169   0.569   1.418   9.233 -0.1094 -0.8628  0.5972
  756MPD2    C411170   0.675   1.493   9.176 -0.4809 -0.8948 -0.0177
  756MPD2    C511171   0.777   1.526   9.260  0.0437  0.4749  0.0137
  756MPD2     H11172   0.498   1.323   9.412 -1.2984  0.4605 -0.8779
  756MPD2    H111173   0.667   1.541   9.079 -2.3682  2.4243  1.7949
  756MPD2    H211174   0.850   1.537   9.458  0.9849  2.8757 -2.0019
  756MPD2    H311175   0.849   1.595   9.218  3.6944 -1.9936  2.1765
  756MPD2     N11176   0.457   1.379   9.160  0.4511  0.2366  0.6055
  756MPD2    H511177   0.386   1.326   9.210 -1.0208  0.8874 -0.7609
  756MPD2    N111178   0.694   1.366   9.577  0.2078  0.2251  0.0870
  756MPD2    H711179   0.615   1.312   9.611 -1.1243  2.6447  0.8259
  757MPD2     C11180   0.113   0.584   8.977  0.1048 -0.1419 -0.1061
  757MPD2    C111181   0.159   0.629   9.099  0.3017 -0.8961  0.4175
  757MPD2    C211182   0.165   0.764   9.126 -0.6579 -0.4996  0.1522
  757MPD2    C311183   0.135   0.849   9.015  0.1017  0.1245 -0.4365
  757MPD2    C411184   0.087   0.805   8.893 -0.4123 -0.2463  0.7095
  757MPD2    C511185   0.066   0.668   8.877  0.3580 -0.5923  0.5258
  757MPD2     H11186   0.202   0.813   9.215  0.1737  0.4339 -0.7067
  757MPD2    H111187   0.049   0.866   8.811  0.2340 -0.2675  0.3989
  757MPD2    H211188   0.118   0.480   8.948  0.3892  0.2707 -1.5718
  757MPD2    H311189   0.030   0.619   8.787  0.1075 -0.2728  0.4524
  757MPD2     N11190   0.141   0.984   9.042  0.0241 -0.2174  0.6151
  757MPD2    H511191   0.195   1.019   9.120  0.3665 -1.2789  0.8495
  757MPD2    N111192   0.193   0.530   9.199  0.2458 -0.4385  0.4237
  757MPD2    H711193   0.178   0.438   9.158  1.4851  0.4175 -1.9784
  758MPD2     C11194   4.630   0.137  15.676 -0.6638 -0.1673 -0.8249
  758MPD2    C111195   4.657   0.015  15.740  0.8296 -0.0306  0.7496
  758MPD2    C211196   4.607   4.720  15.867 -0.3713  0.0438  0.5282
  758MPD2    C311197   4.541   0.097  15.936 -0.2784 -0.6295 -0.0151
  758MPD2    C411198   4.499   0.210  15.861  0.9844  1.3002  0.3626
  758MPD2    C511199   4.537   0.225  15.733  0.1488 -0.0916  0.1910
  758MPD2     H11200   4.635   4.629  15.918  2.3891 -0.2944 -1.6051
  758MPD2    H111201   4.436   0.286  15.904  1.5592  2.2045 -0.3923
  758MPD2    H211202   4.683   0.165  15.585  0.7334  1.2872  0.4282
  758MPD2    H311203   4.509   0.315  15.678  0.9209  3.0893  4.9645
  758MPD2     N11204   4.519   0.090  16.069 -0.1505  0.1786 -0.7951
  758MPD2    H511205   4.476   0.168  16.116 -0.0241 -0.5928  0.6068
  758MPD2    N111206   0.028   4.654  15.692 -0.3214 -0.0506  0.0981
  758MPD2    H711207   0.053   4.578  15.755 -1.2288  0.3118  0.8959
  759MPD2     C11208   4.228   3.232  10.598 -0.0200  0.6878 -0.1705
  759MPD2    C111209   4.117   3.310  10.580 -0.5119  0.1579  0.1310
  759MPD2    C211210   4.140   3.430  10.522  0.4656  0.0168 -0.0130
  759MPD2    C311211   4.260   3.488  10.482  0.0194  0.0129 -0.2823
  759MPD2    C411212   4.370   3.407  10.500 -0.5050 -0.6274  0.9339
  759MPD2    C511213   4.349   3.285  10.561  0.3343 -1.1475  0.4855
  759MPD2     H11214   4.049   3.488  10.505  0.7111  0.2022 -0.6844
  759MPD2    H111215   4.468   3.445  10.474 -1.3010 -1.0885 -2.6552
  759MPD2    H211216   4.232   3.143  10.660  0.4823  0.9987  0.2425
  759MPD2    H311217   4.430   3.220  10.591  1.5387  0.5892  1.0136
  759MPD2     N11218   4.253   3.616  10.417 -0.2575  0.2476  0.4320
  759MPD2    H511219   4.170   3.674  10.406 -0.3882 -0.2963 -1.4090
  759MPD2    N111220   3.985   3.277  10.617  0.3135 -0.2300 -0.0677
  759MPD2    H711221   3.915   3.351  10.613  1.4007  0.7115 -1.4244
  760MPD2     C11222   3.888   0.070  11.767 -0.9141 -0.5266 -0.4619
  760MPD2    C111223   3.981   0.173  11.762 -0.3049  0.2895  0.2638
  760MPD2    C211224   4.104   0.152  11.822  0.4695 -0.2564  0.0141
  760MPD2    C311225   4.131   0.032  11.885  0.8653 -0.2694  0.8675
  760MPD2    C411226   4.032   4.658  11.893  0.8632  0.2375  0.6643
  760MPD2    C511227   3.910   4.682  11.835  0.7177 -0.2177  0.1968
  760MPD2     H11228   4.177   0.232  11.826  0.8809 -0.6254 -0.1269
  760MPD2    H111229   4.047   4.573  11.960 -0.8090 -1.9157 -1.7208
  760MPD2    H211230   3.790   0.071  11.721 -1.0138 -0.0727 -0.2343
  760MPD2    H311231   3.834   4.606  11.845  0.6727 -0.3698 -1.2595
  760MPD2     N11232   4.265   4.724  11.924  0.0670 -0.1441  0.6686
  760MPD2    H511233   4.289   4.626  11.931  2.1065  0.3066  0.1036
  760MPD2    N111234   3.964   0.293  11.694  0.7142  0.1444 -0.0340
  760MPD2    H711235   4.036   0.363  11.710  0.1857  0.3520  1.4068
  761MPD2     C11236   0.268   4.450  10.792 -0.3805 -0.2734  0.2876
  761MPD2    C111237   0.394   4.412  10.752 -0.3004  0.5133  0.5394
  761MPD2    C211238   0.466   4.492  10.662  0.0979 -0.0744  0.7501
  761MPD2    C311239   0.409   4.605  10.607  0.7095  0.3701 -0.0093
  761MPD2    C411240   0.286   4.644  10.653  0.3470 -0.1944  0.7056
  761MPD2    C511241   0.220   4.571  10.751  0.6474 -0.8199 -0.4680
  761MPD2     H11242   0.559   4.452  10.622  0.5494  1.4443  0.2984
  761MPD2    H111243   0.229   0.005  10.621 -0.6750 -0.9043  0.6007
  761MPD2    H211244   0.212   4.388  10.861  1.0941  1.0853  2.7060
  761MPD2    H311245   0.120   4.597  10.782  1.1370  0.5379 -0.0606
  761MPD2     N11246   0.477   4.689  10.514  0.3011 -0.0463 -0.3025
  761MPD2    H511247   0.436   0.052  10.486 -1.3208 -0.9066 -0.6862
  761MPD2    N111248   0.445   4.299  10.819 -0.8359 -0.3764  0.4219
  761MPD2    H711249   0.387   4.251  10.887  0.1479 -0.9886  0.8377
  762MPD2     C11250   1.001   4.082  10.543 -0.2706 -0.3322  0.1986
  762MPD2    C111251   0.993   3.974  10.633 -0.0795 -0.2881 -0.0879
  762MPD2    C211252   1.097   3.884  10.649  0.0494  0.7158  0.2173
  762MPD2    C311253   1.206   3.908  10.568 -0.1427 -0.1432 -0.8108
  762MPD2    C411254   1.207   4.008  10.478  0.0781  0.5612  0.3979
  762MPD2    C511255   1.109   4.106  10.468 -0.0657 -0.3269  0.3210
  762MPD2     H11256   1.097   3.799  10.717  0.0175  1.0017  0.5788
  762MPD2    H111257   1.292   4.021  10.413  0.1871 -0.8286  0.2539
  762MPD2    H211258   0.919   4.153  10.536  0.8880  0.7452 -2.2389
  762MPD2    H311259   1.104   4.187  10.396 -2.9563  0.1242  1.0212
  762MPD2     N11260   1.305   3.809  10.570  0.2052  0.3425  0.2914
  762MPD2    H511261   1.301   3.745  10.649 -1.0714 -1.5246 -1.2941
  762MPD2    N111262   0.872   3.968  10.713  0.0347 -0.6618 -0.0795
  762MPD2    H711263   0.809   4.044  10.691 -0.5039 -1.5658 -1.6412
  763MPD2     C11264   2.217   4.708  16.167 -0.1674  0.2378  0.1524
  763MPD2    C111265   2.101   0.028  16.105  0.8261  0.4462  0.4958
  763MPD2    C211266   2.069   0.165  16.111  0.9441 -0.1243  0.0553
  763MPD2    C311267   2.157   0.246  16.180 -0.5867 -0.2745 -0.0939
  763MPD2    C411268   2.259   0.197  16.247 -0.0315  0.0392 -0.1864
  763MPD2    C511269   2.296   0.060  16.239 -0.3459 -0.5811  0.5103
  763MPD2     H11270   1.986   0.204  16.052  2.1487  1.1480 -0.7823
  763MPD2    H111271   2.324   0.265  16.300  2.0507 -0.2587 -2.3235
  763MPD2    H211272   2.254   4.606  16.159  1.2290  1.0340 -3.3900
  763MPD2    H311273   2.375   0.010  16.293 -0.8778 -0.5824  1.2999
  763MPD2     N11274   2.151   0.388  16.187  0.3720  0.2052  0.4904
  763MPD2    H511275   2.225   0.438  16.234 -0.2398  0.9252  0.6931
  763MPD2    N111276   2.021   4.667  16.024 -0.1969 -0.4013 -0.1192
  763MPD2    H711277   1.942   4.704  15.972  0.8082  0.3547 -1.0794
  764MPD2     C11278   0.399   1.674  17.063 -0.3731 -0.0565  0.2921
  764MPD2    C111279   0.277   1.617  17.038 -0.5024  0.0455  0.2874
  764MPD2    C211280   0.244   1.489  17.083 -0.1054 -0.0381  0.2248
  764MPD2    C311281   0.329   1.415  17.167  0.0971  0.3942 -0.2704
  764MPD2    C411282   0.451   1.470  17.198 -0.1146 -0.7312 -0.3153
  764MPD2    C511283   0.481   1.592  17.141 -0.0302  0.2952 -0.2160
  764MPD2     H11284   0.145   1.457  17.052 -0.4817  0.2422  1.1465
  764MPD2    H111285   0.534   1.425  17.251 -0.2455  0.6364  1.0424
  764MPD2    H211286   0.441   1.770  17.033  1.8675 -0.3955  2.2652
  764MPD2    H311287   0.583   1.628  17.152 -0.9447  2.5711  0.7806
  764MPD2     N11288   0.281   1.298  17.222 -0.2770  0.0978  0.0594
  764MPD2    H511289   0.185   1.280  17.194 -0.5020 -0.5062  1.1887
  764MPD2    N111290   0.173   1.681  16.962 -0.3642 -0.0534 -0.2108
  764MPD2    H711291   0.086   1.630  16.956 -0.3466 -0.2317  1.0367
  765MPD2     C11292   3.997   3.670  15.879 -0.0408 -0.0562  0.1042
  765MPD2    C111293   4.079   3.777  15.884  0.0777 -0.1610  0.1100
  765MPD2    C211294   4.213   3.770  15.835 -0.2447  0.3344  0.2159
  765MPD2    C311295   4.261   3.644  15.799  0.5443 -0.3953 -0.4572
  765MPD2    C411296   4.177   3.536  15.802 -0.2750 -0.5830 -0.9849
  765MPD2    C511297   4.046   3.548  15.835 -0.1348  0.4387 -0.5861
  765MPD2     H11298   4.272   3.859  15.816  0.3740 -0.1275 -0.0135
  765MPD2    H111299   4.208   3.439  15.765  0.2047 -0.8540  0.1242
  765MPD2    H211300   3.891   3.680  15.898 -0.0538  0.7258 -0.3902
  765MPD2    H311301   3.972   3.470  15.825 -0.8068  0.6310  2.8677
  765MPD2     N11302   4.392   3.636  15.760  0.2137 -0.6435 -0.1567
  765MPD2    H511303   4.439   3.725  15.748  0.2718 -0.9017 -1.8235
  765MPD2    N111304   4.016   3.902  15.918 -0.1479  0.3715 -0.1954
  765MPD2    H711305   3.919   3.902  15.946  0.1692 -0.1559  0.8871
  766MPD2     C11306   3.638   4.083  15.500 -0.8227 -0.3272  0.3624
  766MPD2    C111307   3.771   4.105  15.528 -0.3037 -0.1899  0.4559
  766MPD2    C211308   3.870   4.077  15.437 -0.2105  0.3440  0.2075
  766MPD2    C311309   3.841   4.038  15.310  0.0051 -0.1804  0.5484
  766MPD2    C411310   3.705   4.012  15.282  0.4097  0.6298  0.4181
  766MPD2    C511311   3.603   4.027  15.376  0.4360 -0.3710 -0.4408
  766MPD2     H11312   3.975   4.090  15.461 -0.0140  2.1464 -1.6959
  766MPD2    H111313   3.684   3.994  15.177 -3.8259  1.7849  1.0613
  766MPD2    H211314   3.557   4.105  15.569 -2.2543  1.8046 -2.0034
  766MPD2    H311315   3.501   4.018  15.342  0.9636 -0.0426 -2.1147
  766MPD2     N11316   3.938   4.027  15.211 -0.0489  0.3324  0.2142
  766MPD2    H511317   3.903   3.997  15.120 -1.1735 -3.0116  1.7696
  766MPD2    N111318   3.800   4.162  15.652  0.0609  0.3890  0.0274
  766MPD2    H711319   3.898   4.175  15.674  0.1779  0.7424 -0.7178
  767MPD2     C11320   3.531   4.225  15.108  0.5463  0.4909 -0.4227
  767MPD2    C111321   3.648   4.270  15.062  0.5350 -0.4473 -0.7878
  767MPD2    C211322   3.687   4.234  14.935 -0.7946  0.5278  0.5145
  767MPD2    C311323   3.622   4.127  14.865 -0.3498 -0.3480  0.3217
  767MPD2    C411324   3.513   4.067  14.926  0.3128 -0.5388 -0.0935
  767MPD2    C511325   3.476   4.115  15.051  0.2902  0.0349  0.1001
  767MPD2     H11326   3.780   4.282  14.906 -1.8358  2.9105  1.0766
  767MPD2    H111327   3.460   3.984  14.881 -1.9359  0.8799 -0.0819
  767MPD2    H211328   3.484   4.259  15.200 -1.3302  2.6657 -2.1739
  767MPD2    H311329   3.396   4.079  15.113 -2.0559  1.7887 -1.9122
  767MPD2     N11330   3.680   4.080  14.751  0.3151 -0.2700  0.8813
  767MPD2    H511331   3.776   4.109  14.737  0.1345 -0.0429  0.0805
  767MPD2    N111332   3.719   4.373  15.130 -0.5194  0.5702 -0.6613
  767MPD2    H711333   3.677   4.404  15.218  0.0594  1.0852 -0.5648
  768MPD2     C11334   4.648   2.895  10.876  0.2507 -0.2557 -0.6275
  768MPD2    C111335   0.000   2.972  10.957 -0.3239  0.0684  0.0067
  768MPD2    C211336   0.069   2.906  11.061  0.4964  0.1945  0.3321
  768MPD2    C311337   0.057   2.772  11.081 -0.0419  0.5174  0.2830
  768MPD2    C411338   4.698   2.702  10.999 -0.0312 -0.8066 -0.0325
  768MPD2    C511339   4.644   2.765  10.885 -0.3389 -0.4222 -0.1183
  768MPD2     H11340   0.132   2.974  11.117 -1.5181  0.5336  2.1963
  768MPD2    H111341   4.677   2.599  11.025  2.8617 -1.5023 -0.3974
  768MPD2    H211342   4.578   2.940  10.807  0.0109 -1.1383 -0.9613
  768MPD2    H311343   4.589   2.712  10.808 -1.1096 -1.0608  0.8872
  768MPD2     N11344   0.120   2.704  11.190 -0.5923 -0.3946 -1.3439
  768MPD2    H511345   0.089   2.609  11.207  2.0273 -0.9365  0.5030
  768MPD2    N111346   4.721   3.115  10.952 -0.4942  0.5056  0.5477
  768MPD2    H711347   0.045   3.174  11.017 -1.5373  1.6803  0.2890
  769MPD2     C11348   1.046   0.902  14.835  0.0976 -0.5766  0.4027
  769MPD2    C111349   0.936   0.911  14.917  0.4128  0.2260 -0.2923
  769MPD2    C211350   0.952   0.936  15.050 -0.3079 -0.5102  0.1438
  769MPD2    C311351   1.075   0.944  15.102  0.2836 -0.2805  0.1994
  769MPD2    C411352   1.183   0.943  15.017 -0.2387  0.1442 -0.5635
  769MPD2    C511353   1.172   0.931  14.882 -1.1417 -0.1596  0.1557
  769MPD2     H11354   0.867   0.936  15.118 -0.2257  0.1644  0.2452
  769MPD2    H111355   1.287   0.958  15.043 -0.3154  0.0209 -0.1865
  769MPD2    H211356   1.031   0.880  14.730 -0.5214 -1.7543  0.7362
  769MPD2    H311357   1.256   0.944  14.815 -0.1947 -0.0777  1.3681
  769MPD2     N11358   1.086   0.958  15.245 -0.2128 -0.3558 -0.2493
  769MPD2    H511359   0.998   0.957  15.297 -1.3019 -0.7513 -2.0748
  769MPD2    N111360   0.805   0.889  14.859  0.2111  0.3358  0.1171
  769MPD2    H711361   0.802   0.832  14.775  3.2424 -0.6297  0.6421
  770MPD2     C11362   0.116   0.214  15.216 -0.4680 -0.4230 -0.3394
  770MPD2    C111363   0.181   0.182  15.099 -0.4273 -0.3850  0.4622
  770MPD2    C211364   0.248   0.288  15.034 -0.3826 -0.1183  0.0466
  770MPD2    C311365   0.248   0.420  15.087 -0.3230 -0.0310 -0.5985
  770MPD2    C411366   0.181   0.447  15.202 -0.4868 -0.0725 -0.3699
  770MPD2    C511367   0.100   0.344  15.257 -0.8614  0.5247  0.4376
  770MPD2     H11368   0.314   0.266  14.951  1.4387 -2.4738  2.0996
  770MPD2    H111369   0.169   0.550  15.233  0.4463  0.5044 -1.8894
  770MPD2    H211370   0.048   0.144  15.263 -0.6111  0.2001  0.3937
  770MPD2    H311371   0.031   0.380  15.333 -1.1571  0.9248 -0.0186
  770MPD2     N11372   0.309   0.514  15.006  0.3915 -0.1604  0.1798
  770MPD2    H511373   0.352   0.485  14.919  1.0875 -2.5539  1.3146
  770MPD2    N111374   0.178   0.044  15.064  0.0997 -0.4617 -0.1073
  770MPD2    H711375   0.117   4.708  15.116 -0.1382 -0.6627 -0.6289
  771MPD2     C11376   1.582   3.359  13.684 -0.3350  0.1405 -0.3044
  771MPD2    C111377   1.508   3.477  13.680  0.6495  0.3119 -0.6996
  771MPD2    C211378   1.375   3.454  13.648 -0.1052  0.5066  0.2210
  771MPD2    C311379   1.328   3.336  13.595  0.1535 -0.6837 -0.2686
  771MPD2    C411380   1.414   3.223  13.593  0.1505 -0.7362  0.3143
  771MPD2    C511381   1.533   3.238  13.640  0.1530  0.2191 -0.0856
  771MPD2     H11382   1.305   3.536  13.647 -1.1861 -0.4266 -0.5419
  771MPD2    H111383   1.380   3.124  13.564 -0.5353 -0.0029 -1.3696
  771MPD2    H211384   1.686   3.360  13.713 -0.5067 -0.7539  0.3488
  771MPD2    H311385   1.599   3.152  13.638 -0.9603 -0.6544  0.8036
  771MPD2     N11386   1.201   3.342  13.533 -0.5081 -0.7587 -0.3579
  771MPD2    H511387   1.144   3.423  13.553  0.1731  0.1484 -2.1289
  771MPD2    N111388   1.563   3.607  13.707 -0.0241  0.2266  0.1117
  771MPD2    H711389   1.497   3.683  13.694  0.0801  0.2409 -0.3210
  772MPD2     C11390   1.319   4.165  14.011 -0.1695  0.5620  0.3783
  772MPD2    C111391   1.308   4.085  13.901 -0.3850 -0.6052 -0.1715
  772MPD2    C211392   1.181   4.046  13.854 -0.1173 -1.0279  0.4332
  772MPD2    C311393   1.064   4.081  13.937  0.8786 -0.2935  0.2445
  772MPD2    C411394   1.087   4.173  14.036 -0.0787 -0.7113  0.3640
  772MPD2    C511395   1.210   4.209  14.075  0.2076  0.4447 -0.7194
  772MPD2     H11396   1.187   3.971  13.776  0.1766 -0.3363 -0.2094
  772MPD2    H111397   0.999   4.215  14.083 -0.3557 -0.4625 -0.3893
  772MPD2    H211398   1.414   4.196  14.053  0.1705 -1.2943  0.9668
  772MPD2    H311399   1.212   4.285  14.154 -1.1678 -0.2722  0.0076
  772MPD2     N11400   0.928   4.041  13.916  0.1458  0.2548 -0.0501
  772MPD2    H511401   0.855   4.067  13.982  0.6828  2.1255 -0.2003
  772MPD2    N111402   1.425   4.022  13.845 -0.4743  0.3110 -0.1395
  772MPD2    H711403   1.416   3.942  13.782  1.3084 -0.8015  1.0084
  773MPD2     C11404   0.787   0.389   0.391  0.5404 -0.0806  0.7567
  773MPD2    C111405   0.736   0.308   0.293 -0.3247 -0.1369 -0.1546
  773MPD2    C211406   0.784   0.180   0.284  0.0135  0.4611 -0.6499
  773MPD2    C311407   0.902   0.145   0.347  0.5647 -0.3224 -0.2687
  773MPD2    C411408   0.947   0.224   0.450 -0.5126 -0.5590 -0.7711
  773MPD2    C511409   0.884   0.343   0.473 -0.3204 -0.0736  0.7044
  773MPD2     H11410   0.741   0.114   0.209  0.2984 -0.2274 -0.2016
  773MPD2    H111411   1.024   0.189   0.517 -0.5106  0.0477 -0.4582
  773MPD2    H211412   0.764   0.493   0.412  0.0492 -0.0344 -0.0122
  773MPD2    H311413   0.920   0.403   0.556  0.4506 -1.7136  1.5512
  773MPD2     N11414   0.970   0.027   0.317  0.3893  0.4883 -0.1051
  773MPD2    H511415   0.928   4.689   0.250  1.6114  0.4388 -0.8174
  773MPD2    N111416   0.651   0.355   0.193  0.3805  0.2928  0.9580
  773MPD2    H711417   0.614   0.292   0.123  0.0915 -0.5355  1.8605
  774MPD2     C11418   4.302   3.870  13.227 -0.1038  0.4178  0.2360
  774MPD2    C111419   4.395   3.935  13.312 -0.3064  0.5812 -0.0196
  774MPD2    C211420   4.507   3.992  13.256 -0.1005  0.2238  0.0791
  774MPD2    C311421   4.543   3.977  13.123  0.0524 -0.2078 -0.1317
  774MPD2    C411422   4.452   3.910  13.046 -0.4671 -0.6348  0.1858
  774MPD2    C511423   4.340   3.850  13.093 -0.3080  0.6121 -1.2198
  774MPD2     H11424   4.572   4.040  13.329  1.5973 -0.8020 -0.7630
  774MPD2    H111425   4.467   3.915  12.939  2.0730  2.2704  0.6696
  774MPD2    H211426   4.211   3.818  13.253  0.0395  0.5502  0.9970
  774MPD2    H311427   4.280   3.792  13.024 -0.6849  1.8162 -1.9045
  774MPD2     N11428   4.662   4.039  13.073 -0.4116 -0.0242 -0.1910
  774MPD2    H511429   0.001   4.072  13.144  0.8422 -2.2495 -0.3009
  774MPD2    N111430   4.378   3.962  13.446  0.3805  0.0117  0.3788
  774MPD2    H711431   4.445   4.016  13.501 -0.1316  0.3587  0.6607
  775MPD2     C11432   1.392   0.670  15.832  0.5924 -0.4805 -0.8131
  775MPD2    C111433   1.385   0.793  15.885 -0.6689 -0.6159 -0.0846
  775MPD2    C211434   1.462   0.893  15.829 -0.2979  0.4775 -0.1001
  775MPD2    C311435   1.538   0.872  15.716 -0.4507 -0.2740  0.1124
  775MPD2    C411436   1.543   0.746  15.661  1.0284  0.1477  0.4025
  775MPD2    C511437   1.476   0.647  15.721 -0.1940 -0.0349 -0.4307
  775MPD2     H11438   1.453   0.996  15.862  1.3906 -0.5895  3.6360
  775MPD2    H111439   1.610   0.721  15.580  3.1351 -1.1305  2.5373
  775MPD2    H211440   1.343   0.583  15.874  2.4328 -0.7108  0.8332
  775MPD2    H311441   1.479   0.551  15.671 -0.1824 -0.0372 -0.4255
  775MPD2     N11442   1.611   0.972  15.646  0.2569  0.7214  0.2798
  775MPD2    H511443   1.629   0.953  15.548  0.0288  0.0502  0.3670
  775MPD2    N111444   1.302   0.810  15.995  0.4060  0.0616 -0.0822
  775MPD2    H711445   1.262   0.726  16.035 -0.3024  0.7372  0.6410
  776MPD2     C11446   0.701   1.402  10.950  0.2849 -0.1386  0.1176
  776MPD2    C111447   0.766   1.371  11.067  0.8248 -0.7079 -0.6921
  776MPD2    C211448   0.829   1.466  11.143 -0.0657 -0.7853 -1.3376
  776MPD2    C311449   0.830   1.594  11.089  0.1800 -0.9114  0.6569
  776MPD2    C411450   0.747   1.624  10.976  0.5193 -0.2220 -0.8721
  776MPD2    C511451   0.683   1.528  10.910  0.4158  0.5317  0.1037
  776MPD2     H11452   0.889   1.437  11.228 -0.6757 -0.3200 -0.7500
  776MPD2    H111453   0.722   1.724  10.941 -0.7823 -0.2575 -0.0620
  776MPD2    H211454   0.651   1.327  10.890 -0.2503  1.0665 -0.9388
  776MPD2    H311455   0.612   1.546  10.831  1.8051 -4.3406 -2.2247
  776MPD2     N11456   0.903   1.691  11.153  0.7700 -0.2721  0.4475
  776MPD2    H511457   0.903   1.779  11.101  0.9822 -0.3312  0.3494
  776MPD2    N111458   0.765   1.235  11.103 -0.1315 -0.2146  0.0540
  776MPD2    H711459   0.727   1.171  11.034  0.6101  2.0265 -2.4618
  777MPD2     C11460   0.691   3.693   0.528  0.0994 -0.3777  0.3218
  777MPD2    C111461   0.801   3.630   0.588 -0.1350 -0.1407  0.6785
  777MPD2    C211462   0.883   3.557   0.504 -0.3886 -0.3599  1.0121
  777MPD2    C311463   0.855   3.535   0.370 -0.6622 -0.1839 -0.0609
  777MPD2    C411464   0.762   3.618   0.313  0.5399  0.4100  0.3312
  777MPD2    C511465   0.681   3.689   0.397  0.2922 -0.5484 -0.5323
  777MPD2     H11466   0.967   3.500   0.542  0.0646  0.5075  1.3242
  777MPD2    H111467   0.724   3.605   0.213  1.1846 -1.9205  0.3945
  777MPD2    H211468   0.629   3.762   0.583  1.8153  0.0871  1.6705
  777MPD2    H311469   0.597   3.742   0.354  0.9454 -0.1960 -1.3934
  777MPD2     N11470   0.919   3.421   0.308 -0.2420 -0.2380 -0.0118
  777MPD2    H511471   0.989   3.372   0.362  0.5232  2.3661  1.3231
  777MPD2    N111472   0.805   3.636   0.734 -0.0332  0.7639  0.1896
  777MPD2    H711473   0.753   3.709   0.782  0.3686 -0.0848  1.9092
  778MPD2     C11474   1.710   3.711  14.845  0.1983 -0.1612  0.4422
  778MPD2    C111475   1.754   3.596  14.792 -0.7173  0.0253 -0.3330
  778MPD2    C211476   1.856   3.598  14.701 -0.5384  0.5828 -0.1167
  778MPD2    C311477   1.920   3.714  14.666 -0.2026  0.4871 -0.4314
  778MPD2    C411478   1.880   3.833  14.720 -0.0107 -0.7202  0.0147
  778MPD2    C511479   1.770   3.833  14.807 -0.0465  0.3822 -0.9040
  778MPD2     H11480   1.884   3.505  14.653 -0.0727  0.1712  0.9478
  778MPD2    H111481   1.930   3.928  14.703 -1.1912  0.0320  0.7187
  778MPD2    H211482   1.635   3.711  14.923 -0.8840 -0.2636 -0.5993
  778MPD2    H311483   1.745   3.925  14.857  0.5074 -0.5647  1.1303
  778MPD2     N11484   2.032   3.703  14.582  0.2279 -0.4606 -0.4670
  778MPD2    H511485   2.057   3.607  14.559  1.4680  0.1093 -1.4442
  778MPD2    N111486   1.703   3.468  14.815 -0.1129 -0.1193 -0.2772
  778MPD2    H711487   1.747   3.391  14.764 -0.3358  0.5321 -1.4517
  779MPD2     C11488   1.231   2.417  14.088  0.3047  0.3449  0.3359
  779MPD2    C111489   1.368   2.420  14.089 -0.9540  0.3212 -0.5372
  779MPD2    C211490   1.429   2.538  14.051  0.6687  0.1020 -0.2480
  779MPD2    C311491   1.356   2.653  14.023  0.2825 -0.0145 -0.1459
  779MPD2    C411492   1.218   2.641  14.024 -0.2741  0.1989 -0.0725
  779MPD2    C511493   1.155   2.526  14.051  0.0724  0.4303  0.6167
  779MPD2     H11494   1.537   2.545  14.059  0.9129 -1.7667 -1.8046
  779MPD2    H111495   1.156   2.725  13.994 -0.6153  0.1743  0.5775
  779MPD2    H211496   1.175   2.328  14.113 -1.8545  2.0118  1.4236
  779MPD2    H311497   1.047   2.518  14.050  0.0798  0.3584  0.3838
  779MPD2     N11498   1.426   2.777  14.001 -0.1989  0.3655 -0.3224
  779MPD2    H511499   1.527   2.773  13.992 -0.2990 -0.7646 -0.9224
  779MPD2    N111500   1.447   2.308  14.123  0.3904 -0.4398  0.2091
  779MPD2    H711501   1.546   2.313  14.100  0.0244  1.3562 -1.0320
  780MPD2     C11502   0.775   2.379   0.634  0.2636 -0.2406  0.3401
  780MPD2    C111503   0.781   2.295   0.527 -0.7232  0.0509 -0.3614
  780MPD2    C211504   0.850   2.341   0.417 -0.3875  0.3249 -0.5511
  780MPD2    C311505   0.911   2.461   0.411  0.4438 -0.2884  0.0756
  780MPD2    C411506   0.906   2.543   0.518 -0.9120 -0.6052  0.3101
  780MPD2    C511507   0.833   2.504   0.625  0.5043  0.1022 -0.1377
  780MPD2     H11508   0.867   2.272   0.335  1.6211 -1.3132  1.2737
  780MPD2    H111509   0.947   2.644   0.521  1.4344 -1.5793  1.5061
  780MPD2    H211510   0.706   2.359   0.715 -0.3082  3.7708  0.8191
  780MPD2    H311511   0.828   2.572   0.709  1.5208  0.0659 -0.0516
  780MPD2     N11512   0.976   2.496   0.289 -0.0391 -0.6307  0.3349
  780MPD2    H511513   0.969   2.429   0.213 -0.2018  0.2985 -0.4816
  780MPD2    N111514   0.743   2.164   0.538 -0.3517  0.4107 -0.3682
  780MPD2    H711515   0.714   2.135   0.631  1.2633  4.4673  1.4144
  781MPD2     C11516   3.175   4.224  12.218 -0.4202 -0.0199 -0.1306
  781MPD2    C111517   3.272   4.159  12.292 -0.5252  0.3272 -0.7081
  781MPD2    C211518   3.405   4.165  12.250 -0.1475 -0.3905 -1.1165
  781MPD2    C311519   3.440   4.234  12.140 -0.3351 -0.7035  0.5344
  781MPD2    C411520   3.339   4.302  12.072  0.8157 -0.1034 -0.1775
  781MPD2    C511521   3.212   4.303  12.116  0.3562  0.4442  0.1597
  781MPD2     H11522   3.481   4.123  12.314 -0.2183  0.4518 -0.4765
  781MPD2    H111523   3.359   4.363  11.985  0.4338  1.6422  0.9615
  781MPD2    H211524   3.068   4.211  12.234 -0.4279 -0.9305 -0.9443
  781MPD2    H311525   3.148   4.364  12.053  0.6378  0.2561 -0.3050
  781MPD2     N11526   3.571   4.245  12.095 -0.0152 -0.1095 -0.0448
  781MPD2    H511527   3.595   4.300  12.013 -0.2797 -0.7131 -0.5292
  781MPD2    N111528   3.243   4.077  12.404  0.0440  0.1841  0.6977
  781MPD2    H711529   3.320   4.020  12.436 -0.3981 -1.4350 -1.1537
  782MPD2     C11530   1.514   4.526   9.973  0.3143  0.2576  1.1934
  782MPD2    C111531   1.600   4.529  10.087 -0.1841 -0.1479  0.1361
  782MPD2    C211532   1.655   4.649  10.127 -0.6627 -0.0881 -0.8008
  782MPD2    C311533   1.628   0.040  10.059  0.0484 -1.1474  0.2825
  782MPD2    C411534   1.568   0.032   9.935 -0.5489  0.2230 -0.1191
  782MPD2    C511535   1.518   4.633   9.890  0.3581  0.1747 -0.3632
  782MPD2     H11536   1.702   4.665  10.223  1.9515  0.0277 -2.0925
  782MPD2    H111537   1.552   0.120   9.874 -0.9785 -0.7317 -1.3876
  782MPD2    H211538   1.462   4.440   9.933  0.2337  1.5974 -1.5735
  782MPD2    H311539   1.466   4.613   9.798 -0.6396  0.0375  0.2383
  782MPD2     N11540   1.655   0.165  10.126 -0.0907  0.2500 -0.1084
  782MPD2    H511541   1.686   0.158  10.222  0.1822 -3.0891 -0.4566
  782MPD2    N111542   1.605   4.419  10.174 -0.9152 -0.1873  0.5792
  782MPD2    H711543   1.545   4.340  10.156 -1.6905  0.4200  0.4834
  783MPD2     C11544   1.174   4.639  10.781 -0.8107 -0.0731 -0.1824
  783MPD2    C111545   1.156   4.621  10.651  0.1558  0.1774  0.4757
  783MPD2    C211546   1.223   4.518  10.582 -0.3065  0.1627 -0.0921
  783MPD2    C311547   1.312   4.440  10.644  0.7397  0.5892 -0.9123
  783MPD2    C411548   1.316   4.453  10.787  0.0175 -0.2111 -0.4171
  783MPD2    C511549   1.251   4.556  10.859  0.6589  0.1045 -0.1092
  783MPD2     H11550   1.212   4.503  10.475  0.5114  1.4717 -0.3570
  783MPD2    H111551   1.354   4.374  10.850  0.9715 -1.5809 -2.7333
  783MPD2    H211552   1.136   0.003  10.828 -0.0717  1.3926 -2.3769
  783MPD2    H311553   1.248   4.570  10.966  2.7964  1.9666 -0.2895
  783MPD2     N11554   1.394   4.348  10.571 -0.1228 -0.1504 -0.3498
  783MPD2    H511555   1.388   4.361  10.471  0.3435 -1.2289 -0.5154
  783MPD2    N111556   1.070   4.716  10.598 -0.5730 -0.2311  0.2500
  783MPD2    H711557   1.028   0.052  10.666  0.5638  0.3063  0.4727
  784MPD2     C11558   3.600   4.718   0.294 -0.5738 -0.4192 -0.4399
  784MPD2    C111559   3.489   0.001   0.378 -0.5554 -0.7289 -0.1041
  784MPD2    C211560   3.370   0.034   0.321 -0.1478 -1.3622  0.5312
  784MPD2    C311561   3.361   0.059   0.177 -0.3543 -0.7561 -0.3178
  784MPD2    C411562   3.473   0.048   0.097 -0.1787  0.5767 -0.0295
  784MPD2    C511563   3.589   0.012   0.157  0.6484 -0.2329 -0.0364
  784MPD2     H11564   3.284   0.045   0.386  0.3058 -0.8079  1.0359
  784MPD2    H111565   3.474   0.067  17.695 -2.3858 -1.6893 -0.4470
  784MPD2    H211566   3.691   4.679   0.339 -0.4492  0.2316 -0.1302
  784MPD2    H311567   3.682   4.722   0.102  1.7189 -0.1117  1.7215
  784MPD2     N11568   3.240   0.107   0.118  0.2780 -0.4312 -0.2812
  784MPD2    H511569   3.240   0.126   0.019  3.3727 -0.7190 -0.3459
  784MPD2    N111570   3.488   4.708   0.516  0.2567  0.3139 -0.4144
  784MPD2    H711571   3.403   0.002   0.567  0.7487 -1.8742  1.2632
  785MPD2     C11572   3.978   3.784  11.195 -0.4596 -0.2879  0.5555
  785MPD2    C111573   3.967   3.886  11.098  0.5103 -0.1304  1.0009
  785MPD2    C211574   3.864   3.877  11.008 -0.3773  0.4081  0.0916
  785MPD2    C311575   3.785   3.762  10.999  0.4650  0.5523 -0.8861
  785MPD2    C411576   3.803   3.663  11.089  0.4358  0.1655 -0.4044
  785MPD2    C511577   3.891   3.678  11.193  0.5055  0.6324 -0.0207
  785MPD2     H11578   3.837   3.953  10.936 -5.2938 -2.0952 -0.6731
  785MPD2    H111579   3.745   3.571  11.093  1.0789 -0.2894 -1.5751
  785MPD2    H211580   4.046   3.802  11.278 -0.2011  0.5933  0.1636
  785MPD2    H311581   3.895   3.599  11.268 -1.0907  0.2704 -0.3032
  785MPD2     N11582   3.687   3.771  10.900  0.1990 -0.2683 -0.0702
  785MPD2    H511583   3.660   3.863  10.866 -2.0956 -0.6052  0.8526
  785MPD2    N111584   4.057   3.994  11.109  0.3306  0.0697 -0.0104
  785MPD2    H711585   4.111   4.007  11.194  1.5397  0.7438 -0.8877
  786MPD2     C11586   2.147   1.986  15.003  0.0747  0.2764  0.4365
  786MPD2    C111587   2.129   1.848  15.021  0.7186  0.1148 -0.1565
  786MPD2    C211588   2.110   1.803  15.143 -0.3764  0.4693 -0.1032
  786MPD2    C311589   2.120   1.883  15.256 -0.7164  0.0419  0.0590
  786MPD2    C411590   2.133   2.018  15.238  0.3837 -0.6492 -0.2031
  786MPD2    C511591   2.138   2.069  15.113 -0.1271 -0.3183  0.8944
  786MPD2     H11592   2.117   1.696  15.155 -0.5006  0.3790 -0.8633
  786MPD2    H111593   2.149   2.091  15.316 -1.2441 -0.4436 -0.0748
  786MPD2    H211594   2.176   2.030  14.908 -0.4896  1.2086  0.6979
  786MPD2    H311595   2.163   2.174  15.104  1.5920 -0.9160 -1.2681
  786MPD2     N11596   2.145   1.823  15.380  0.1451 -0.1155  0.1346
  786MPD2    H511597   2.136   1.722  15.387 -1.8371 -0.0095 -0.6730
  786MPD2    N111598   2.126   1.759  14.912  0.0203 -0.3035  0.3195
  786MPD2    H711599   2.091   1.667  14.937  1.0370 -0.6972  0.2744
  787MPD2     C11600   2.496   1.312  15.015 -0.0387  0.1559 -0.5774
  787MPD2    C111601   2.440   1.265  14.897  0.3599  0.8857 -0.3060
  787MPD2    C211602   2.457   1.126  14.865  0.3500 -0.0350 -0.5663
  787MPD2    C311603   2.528   1.041  14.948  0.2977 -0.2588 -0.3388
  787MPD2    C411604   2.582   1.093  15.063  0.0953  0.0697  0.0927
  787MPD2    C511605   2.571   1.222  15.089 -1.1885  0.0840 -0.0767
  787MPD2     H11606   2.416   1.085  14.773 -0.2126 -4.0988  1.4745
  787MPD2    H111607   2.645   1.040  15.133 -1.9535 -1.7212  0.5689
  787MPD2    H211608   2.487   1.413  15.053  2.7127 -1.2577  3.7728
  787MPD2    H311609   2.627   1.256  15.176 -2.0422  0.8969  0.1594
  787MPD2     N11610   2.542   0.903  14.916 -0.5685 -0.4945 -0.1134
  787MPD2    H511611   2.545   0.877  14.818 -0.5181 -0.9532  0.0072
  787MPD2    N111612   2.368   1.354  14.815 -0.0652 -0.3341 -0.0437
  787MPD2    H711613   2.362   1.450  14.848 -1.5206 -0.3709 -0.1992
  788MPD2     C11614   4.543   4.059   0.784 -0.5969  0.4578  0.2396
  788MPD2    C111615   4.414   4.026   0.747 -1.0157 -0.7485 -0.4199
  788MPD2    C211616   4.356   4.110   0.657 -0.7258  0.1452 -0.1097
  788MPD2    C311617   4.420   4.215   0.598  0.5336  0.1365  0.1059
  788MPD2    C411618   4.546   4.248   0.639 -0.3432 -0.0995 -0.4221
  788MPD2    C511619   4.603   4.171   0.734  0.1477  0.3267 -0.3812
  788MPD2     H11620   4.255   4.088   0.626 -0.6436 -0.3354 -0.0361
  788MPD2    H111621   4.600   4.328   0.589 -0.2371 -0.7878 -1.3997
  788MPD2    H211622   4.603   4.014   0.862 -0.1027 -3.1701 -2.2511
  788MPD2    H311623   4.708   4.183   0.761 -0.7096  0.4843  2.9039
  788MPD2     N11624   4.373   4.284   0.481 -0.5306 -0.9171  0.4723
  788MPD2    H511625   4.440   4.348   0.439  0.0732 -1.6142  0.3704
  788MPD2    N111626   4.327   3.926   0.806 -0.1543  0.3959 -0.1447
  788MPD2    H711627   4.243   3.901   0.755 -0.5093  0.6275  0.3261
  789MPD2     C11628   4.554   4.308  16.091  0.2297 -0.6472 -0.2563
  789MPD2    C111629   4.509   4.257  16.211  0.0665  0.1199  0.1747
  789MPD2    C211630   4.392   4.309  16.263 -0.4896  0.2264  0.4925
  789MPD2    C311631   4.319   4.414  16.210 -0.4909  0.0944  0.8943
  789MPD2    C411632   4.369   4.469  16.092 -0.0737  0.0220  1.0031
  789MPD2    C511633   4.485   4.412  16.041  0.8678 -0.7042 -1.0424
  789MPD2     H11634   4.369   4.278  16.364 -1.4240  0.4105  0.3417
  789MPD2    H111635   4.328   4.561  16.051 -1.0851 -0.9528 -0.1362
  789MPD2    H211636   4.638   4.267  16.037  1.4241 -1.6916  2.3961
  789MPD2    H311637   4.536   4.452  15.954  1.5578  0.1638 -0.2539
  789MPD2     N11638   4.200   4.472  16.263 -0.2819 -0.4031 -0.7983
  789MPD2    H511639   4.171   4.551  16.207  0.2487 -0.7045 -1.5007
  789MPD2    N111640   4.561   4.141  16.277 -0.1880  0.3880 -0.2826
  789MPD2    H711641   4.512   4.098  16.355  0.0517 -1.1631 -0.9873
  790MPD2     C11642   0.146   1.098  14.001  0.3148  0.1497 -0.1481
  790MPD2    C111643   0.259   1.159  13.957  0.3144 -0.5338 -0.3209
  790MPD2    C211644   0.268   1.196  13.824  0.5432  0.1610 -0.1227
  790MPD2    C311645   0.190   1.128  13.732 -0.1612 -0.5613 -0.4052
  790MPD2    C411646   0.085   1.053  13.774 -0.2967 -0.2863  0.0012
  790MPD2    C511647   0.056   1.041  13.910  0.8089  0.7913 -0.3856
  790MPD2     H11648   0.346   1.266  13.796  0.0796 -0.2512 -2.4416
  790MPD2    H111649   0.024   0.997  13.705 -0.6063 -2.0555  1.6920
  790MPD2    H211650   0.128   1.078  14.106  2.3925 -0.6811  0.0552
  790MPD2    H311651   4.692   0.985  13.934  1.2528  0.5462  0.7069
  790MPD2     N11652   0.208   1.149  13.595  0.0804 -0.4176  0.5332
  790MPD2    H511653   0.285   1.210  13.570 -0.8531 -0.4700 -2.4611
  790MPD2    N111654   0.350   1.209  14.054  0.1783 -0.0950  0.2279
  790MPD2    H711655   0.328   1.193  14.152  2.0864 -0.5719  0.5714
  791MPD2     C11656   0.049   1.066  12.676 -0.2054  0.2343 -0.5313
  791MPD2    C111657   4.718   1.036  12.793 -0.6125  0.1487  0.2213
  791MPD2    C211658   4.619   0.939  12.786  0.1536 -0.2705 -1.0214
  791MPD2    C311659   4.588   0.869  12.666 -1.0530 -0.7157 -0.0949
  791MPD2    C411660   4.632   0.910  12.549 -0.4366  0.2235 -0.5808
  791MPD2    C511661   0.001   1.008  12.560  0.4308  0.5872 -0.0211
  791MPD2     H11662   4.574   0.909  12.880  1.0260 -1.0588 -0.8655
  791MPD2    H111663   4.628   0.852  12.458  1.4580  1.3023 -1.3439
  791MPD2    H211664   0.127   1.140  12.678  0.5774 -0.6146  0.1626
  791MPD2    H311665   0.061   1.022  12.471  0.3343  1.4510  0.0478
  791MPD2     N11666   4.502   0.762  12.678  0.2557 -0.4002  0.2337
  791MPD2    H511667   4.488   0.718  12.768  0.5146  0.1356  0.5344
  791MPD2    N111668   0.048   1.095  12.910 -0.1588  0.0377 -0.4739
  791MPD2    H711669   0.115   1.171  12.901  0.9648 -0.9838 -0.6076
  792MPD2     C11670   1.173   0.994  11.226 -0.3906  0.3357 -0.1452
  792MPD2    C111671   1.163   1.046  11.102  0.3662 -0.0102 -0.1925
  792MPD2    C211672   1.148   0.975  10.989 -0.6861 -0.0789  0.0594
  792MPD2    C311673   1.134   0.841  10.997 -0.5756 -0.3637  0.3769
  792MPD2    C411674   1.141   0.784  11.122  0.3043  0.2837 -0.1135
  792MPD2    C511675   1.156   0.859  11.231 -0.0265 -0.6171  0.6753
  792MPD2     H11676   1.155   1.021  10.891 -0.0955 -0.8365 -0.2552
  792MPD2    H111677   1.143   0.677  11.136  2.3906  0.3131 -0.1584
  792MPD2    H211678   1.184   1.044  11.322  0.5143 -1.0132  0.4494
  792MPD2    H311679   1.172   0.810  11.327  1.3753  0.4476  0.9953
  792MPD2     N11680   1.117   0.753  10.888 -0.4219 -0.6158  0.4265
  792MPD2    H511681   1.114   0.653  10.907 -3.5355 -0.5123  0.4049
  792MPD2    N111682   1.170   1.188  11.094 -0.6106 -0.3954  0.2100
  792MPD2    H711683   1.199   1.237  11.178  0.1605  1.2959 -1.0311
  793MPD2     C11684   0.513   0.852  10.104  0.5504 -0.2131 -0.4021
  793MPD2    C111685   0.610   0.945  10.144  0.6935  0.6508  0.1346
  793MPD2    C211686   0.699   0.896  10.235  0.2152 -0.8047 -0.5467
  793MPD2    C311687   0.718   0.767  10.261 -0.6770 -0.4063  0.7767
  793MPD2    C411688   0.627   0.675  10.217 -0.2343  0.6190 -0.1372
  793MPD2    C511689   0.522   0.725  10.148  0.5953  0.4166  0.5342
  793MPD2     H11690   0.768   0.965  10.282  0.4007 -0.4876 -1.2859
  793MPD2    H111691   0.635   0.568  10.237  3.2057  0.9525  0.2512
  793MPD2    H211692   0.430   0.878  10.039  0.6224  2.5679  0.5990
  793MPD2    H311693   0.447   0.654  10.113  0.8776  1.4548 -2.1795
  793MPD2     N11694   0.833   0.725  10.327  0.0575  0.0221  0.0903
  793MPD2    H511695   0.890   0.799  10.368 -0.3928  0.2991  0.2078
  793MPD2    N111696   0.630   1.078  10.100  0.3589 -1.2476 -0.0174
  793MPD2    H711697   0.714   1.121  10.139  0.5390 -0.5405 -1.1950
  794MPD2     C11698   0.489   0.844  17.279  0.0434  0.2756 -0.3906
  794MPD2    C111699   0.396   0.748  17.279 -0.4275  0.1438  0.5618
  794MPD2    C211700   0.303   0.735  17.180 -0.0893 -0.3100  0.0624
  794MPD2    C311701   0.305   0.829  17.075  0.5194  0.5721 -0.2135
  794MPD2    C411702   0.399   0.928  17.079  0.5609 -0.0289 -0.0289
  794MPD2    C511703   0.493   0.935  17.175  0.8379 -0.0936  0.3143
  794MPD2     H11704   0.223   0.663  17.195  1.6215 -1.9384  1.2298
  794MPD2    H111705   0.414   1.002  17.002 -1.0485 -0.4464 -0.7556
  794MPD2    H211706   0.566   0.848  17.354  1.1826 -2.7273 -1.3857
  794MPD2    H311707   0.563   1.017  17.168  2.3603 -1.5210 -1.3907
  794MPD2     N11708   0.199   0.836  16.978  0.4360  0.6364 -0.1849
  794MPD2    H511709   0.196   0.920  16.921  2.4367 -0.3443 -1.7456
  794MPD2    N111710   0.375   0.667  17.402  0.1049  0.5384 -0.3094
  794MPD2    H711711   0.308   0.592  17.396  1.8528 -0.7346 -3.5356
  795MPD2     C11712   2.953   2.613  12.859 -0.4859 -0.1193 -0.6995
  795MPD2    C111713   2.859   2.568  12.950  0.0476 -0.5594  0.4320
  795MPD2    C211714   2.899   2.481  13.054 -1.0107  0.3397 -0.3771
  795MPD2    C311715   3.031   2.439  13.059  0.1086  0.0219 -0.1063
  795MPD2    C411716   3.123   2.495  12.973 -0.3593 -0.0174 -0.0915
  795MPD2    C511717   3.084   2.575  12.870 -0.1320 -0.0411  0.3292
  795MPD2     H11718   2.832   2.436  13.126  0.4467 -0.5513  0.4340
  795MPD2    H111719   3.227   2.463  12.971 -0.4966 -0.7436  3.9954
  795MPD2    H211720   2.921   2.682  12.782 -0.9440  1.4268  0.8845
  795MPD2    H311721   3.165   2.605  12.805 -1.6232  0.1383 -1.4365
  795MPD2     N11722   3.067   2.354  13.164  0.3683  0.3689  0.0199
  795MPD2    H511723   3.001   2.304  13.223 -0.5551  0.9747 -0.4876
  795MPD2    N111724   2.722   2.597  12.941  0.1771 -0.2985  0.1429
  795MPD2    H711725   2.672   2.578  13.027 -1.1741 -0.4224 -0.6633
  796MPD2     C11726   2.316   3.936  15.946 -0.2474 -0.5349  0.3390
  796MPD2    C111727   2.367   4.034  16.025  0.4452 -0.1969 -0.0582
  796MPD2    C211728   2.364   4.163  15.983  0.1252  0.9236 -0.1252
  796MPD2    C311729   2.302   4.201  15.868 -0.3654  0.0704 -0.8318
  796MPD2    C411730   2.249   4.102  15.784 -0.0249  0.8388 -0.1505
  796MPD2    C511731   2.261   3.969  15.825 -0.6110 -0.4417 -0.0629
  796MPD2     H11732   2.391   4.237  16.058  1.9549 -0.5169  0.6162
  796MPD2    H111733   2.184   4.122  15.699  1.1170 -0.3071 -1.2822
  796MPD2    H211734   2.309   3.836  15.986 -2.8708  0.0217  1.2733
  796MPD2    H311735   2.213   3.889  15.771  1.1796 -0.9039 -0.9504
  796MPD2     N11736   2.310   4.337  15.827  0.9669 -0.5850 -0.1453
  796MPD2    H511737   2.345   4.401  15.898 -0.8041 -1.2527  1.2919
  796MPD2    N111738   2.407   4.003  16.155  0.0036 -0.1859 -0.3337
  796MPD2    H711739   2.396   3.904  16.177 -1.7635 -0.1671 -1.1703
  797MPD2     C11740   2.893   3.415  17.624 -0.2491 -0.2196  1.0054
  797MPD2    C111741   3.015   3.460  17.665 -0.4815  0.3209 -0.1169
  797MPD2    C211742   3.044   3.595  17.645 -0.7994 -0.4807  0.3976
  797MPD2    C311743   2.957   3.679  17.573 -1.0645  0.2415  0.1356
  797MPD2    C411744   2.838   3.622  17.523 -0.1827 -0.0614  0.1097
  797MPD2    C511745   2.813   3.491  17.551 -0.2136 -0.2326 -0.1309
  797MPD2     H11746   3.139   3.636  17.678 -0.9496  1.7145 -1.8508
  797MPD2    H111747   2.766   3.686  17.473  0.1247 -0.4005 -0.7687
  797MPD2    H211748   2.872   3.309  17.627  0.7378 -0.5038 -1.5245
  797MPD2    H311749   2.722   3.449  17.510 -2.0043  0.5771  2.9546
  797MPD2     N11750   3.018   3.804  17.544 -1.0740 -0.3419 -0.3602
  797MPD2    H511751   3.097   3.837  17.598 -2.8505 -0.7132  2.5109
  797MPD2    N111752   3.128   3.380  17.693  0.1346 -1.2232  0.0194
  797MPD2    H711753   3.206   3.439   0.018  1.2087 -2.0129 -1.2109
  798MPD2     C11754   3.643   3.826  17.388 -0.6931 -0.3006  0.0971
  798MPD2    C111755   3.512   3.786  17.418 -0.0683  0.6434  0.2192
  798MPD2    C211756   3.475   3.664  17.457  0.0449 -1.1633 -0.5356
  798MPD2    C311757   3.566   3.566  17.465 -0.0347 -0.4107 -0.7644
  798MPD2    C411758   3.693   3.596  17.435  0.3574  0.7589  0.4148
  798MPD2    C511759   3.736   3.724  17.401  0.2771  0.1479 -1.0022
  798MPD2     H11760   3.371   3.640  17.476 -0.7710  1.5281 -1.4854
  798MPD2    H111761   3.770   3.520  17.447 -0.7174 -0.1827  1.3478
  798MPD2    H211762   3.668   3.927  17.357 -0.6657 -0.0181  1.0593
  798MPD2    H311763   3.839   3.748  17.377  0.1173  0.7039 -1.1315
  798MPD2     N11764   3.516   3.444  17.513 -0.7945  0.0411  0.1295
  798MPD2    H511765   3.418   3.449  17.539 -0.6650  0.6044  0.5168
  798MPD2    N111766   3.408   3.881  17.414 -0.0615 -0.0724  0.2405
  798MPD2    H711767   3.315   3.850  17.441 -0.6772  1.7624  0.2241
  799MPD2     C11768   2.216   0.967  14.358  0.1228  0.0582  0.0802
  799MPD2    C111769   2.194   0.856  14.275  0.1026 -0.5950  0.3413
  799MPD2    C211770   2.191   0.879  14.139  0.2978  0.3533  0.1917
  799MPD2    C311771   2.221   0.995  14.076 -0.2015  0.6232  0.6063
  799MPD2    C411772   2.249   1.101  14.162  0.7994 -0.8330  0.8597
  799MPD2    C511773   2.242   1.084  14.302  0.8446 -0.3113  0.4869
  799MPD2     H11774   2.185   0.790  14.079 -1.8442  0.8007 -0.2424
  799MPD2    H111775   2.263   1.199  14.120 -0.0664 -2.2997 -2.7990
  799MPD2    H211776   2.213   0.968  14.466 -0.4739  0.8900  0.0591
  799MPD2    H311777   2.261   1.166  14.370  2.2880 -0.6183  0.4556
  799MPD2     N11778   2.219   1.014  13.938  0.2898  0.2907  0.1260
  799MPD2    H511779   2.271   1.094  13.905  1.0900  0.1620  1.1015
  799MPD2    N111780   2.181   0.714  14.314 -0.1583  0.4868  0.2829
  799MPD2    H711781   2.161   0.642  14.245 -0.7735 -0.8297  1.8295
  800MPD2     C11782   2.753   1.696  14.384 -0.2646  0.4317  0.0126
  800MPD2    C111783   2.843   1.712  14.281  0.0636  0.1026  0.1487
  800MPD2    C211784   2.830   1.636  14.168  0.3935  0.1318 -0.3344
  800MPD2    C311785   2.714   1.565  14.148  0.2279  0.2175 -0.1135
  800MPD2    C411786   2.613   1.556  14.250 -0.4908  0.2305  0.1896
  800MPD2    C511787   2.637   1.618  14.374  0.2023 -0.3897 -0.8165
  800MPD2     H11788   2.894   1.649  14.082 -0.0869 -0.2314 -0.7496
  800MPD2    H111789   2.518   1.507  14.234 -0.3781 -0.1305  0.6297
  800MPD2    H211790   2.752   1.768  14.465 -1.5442  1.0966 -0.5877
  800MPD2    H311791   2.551   1.633  14.440 -0.4208  0.7733 -1.9053
  800MPD2     N11792   2.717   1.494  14.030  0.0255 -0.4023  0.2230
  800MPD2    H511793   2.785   1.516  13.958 -0.4789 -1.2853 -0.5205
  800MPD2    N111794   2.944   1.808  14.291 -0.2417 -0.2880  0.4400
  800MPD2    H711795   2.948   1.866  14.375 -1.4532 -0.0542  0.3374
  801MPD2     C11796   3.065   2.505  14.255 -0.3123 -0.0508  0.0448
  801MPD2    C111797   3.028   2.413  14.346  0.3792  0.4158 -0.3349
  801MPD2    C211798   2.924   2.441  14.441 -0.5274 -1.1084 -0.1407
  801MPD2    C311799   2.857   2.557  14.431  0.3766  0.2842  0.3078
  801MPD2    C411800   2.888   2.647  14.326  0.0001 -0.7914  0.6873
  801MPD2    C511801   2.988   2.618  14.240  0.1612 -0.4308  0.1949
  801MPD2     H11802   2.903   2.367  14.517  0.0127 -0.2522  0.8310
  801MPD2    H111803   2.837   2.741  14.312  2.6806  0.9680  2.9825
  801MPD2    H211804   3.147   2.495  14.186  0.0013 -0.1188  0.4278
  801MPD2    H311805   3.013   2.690  14.163 -2.7950  2.0294  1.5410
  801MPD2     N11806   2.750   2.586  14.521  0.2637  0.4105 -0.2454
  801MPD2    H511807   2.697   2.671  14.502 -1.5989 -0.7064 -0.0461
  801MPD2    N111808   3.091   2.291  14.364  0.2607 -0.1029  0.2214
  801MPD2    H711809   3.062   2.221  14.433 -0.2841 -1.1870 -1.0957
  802MPD2     C11810   2.543   2.317  17.668  0.7535  0.1637  0.4099
  802MPD2    C111811   2.428   2.380  17.634  0.2620 -1.0092 -0.0449
  802MPD2    C211812   2.385   2.377  17.503 -0.2811  0.2618  0.8012
  802MPD2    C311813   2.440   2.292  17.404 -0.0989  0.2696  0.2825
  802MPD2    C411814   2.557   2.228  17.447  0.4030 -0.2230 -0.2113
  802MPD2    C511815   2.605   2.239  17.577 -0.3942  0.2460  0.5809
  802MPD2     H11816   2.296   2.434  17.482  0.4150  0.3997 -1.7592
  802MPD2    H111817   2.608   2.165  17.375  0.5505 -0.9910  0.5649
  802MPD2    H211818   2.592   2.327   0.059  2.2858  2.2478 -0.5996
  802MPD2    H311819   2.695   2.186  17.605 -1.0808 -1.0278  0.3497
  802MPD2     N11820   2.378   2.280  17.283  0.0918 -0.5212 -0.6331
  802MPD2    H511821   2.286   2.322  17.273  0.2454  0.2458  1.1833
  802MPD2    N111822   2.366   2.474   0.020  0.2411  0.3094  0.1146
  802MPD2    H711823   2.284   2.521  17.689 -0.4679 -1.2495 -0.3427
  803MPD2     C11824   3.686   0.900  11.637 -0.0764  0.1213 -0.1580
  803MPD2    C111825   3.638   0.983  11.736 -0.1519 -0.3648 -0.3248
  803MPD2    C211826   3.533   0.930  11.812  0.0759  0.4529  0.9394
  803MPD2    C311827   3.499   0.796  11.802 -0.3103  0.1877  0.3005
  803MPD2    C411828   3.553   0.718  11.703 -0.6804 -0.5594  0.6308
  803MPD2    C511829   3.640   0.772  11.618  0.3397 -0.0894 -0.3654
  803MPD2     H11830   3.510   0.996  11.895  1.6969  1.7594  0.3494
  803MPD2    H111831   3.523   0.614  11.694 -2.2128 -0.0770  0.1554
  803MPD2    H211832   3.774   0.919  11.578  1.9036 -3.1604  1.7301
  803MPD2    H311833   3.680   0.705  11.542  0.7847  0.3824 -0.5489
  803MPD2     N11834   3.425   0.738  11.912 -0.0725 -0.2858  0.1261
  803MPD2    H511835   3.374   0.802  11.972 -0.9803  0.6686 -1.6421
  803MPD2    N111836   3.700   1.103  11.769 -0.1165 -0.6240  0.1630
  803MPD2    H711837   3.644   1.166  11.826 -2.1450 -2.7960  0.5888
  804MPD2     C11838   2.516   2.191  16.690 -0.2638  0.6133  0.1995
  804MPD2    C111839   2.556   2.173  16.817 -0.1318  0.1750  0.1089
  804MPD2    C211840   2.588   2.289  16.894  0.1311 -0.0232  0.4617
  804MPD2    C311841   2.564   2.416  16.847 -0.4511 -0.0548 -0.1455
  804MPD2    C411842   2.505   2.431  16.725 -0.2444 -0.7419  0.2621
  804MPD2    C511843   2.485   2.317  16.653  0.4839  0.5557 -0.4740
  804MPD2     H11844   2.631   2.261  16.989  2.5698  0.5118 -0.4988
  804MPD2    H111845   2.483   2.530  16.685  2.2878  0.0936  0.9149
  804MPD2    H211846   2.514   2.113  16.615 -1.7212  3.1661 -2.3924
  804MPD2    H311847   2.453   2.336  16.552 -1.4450  0.2615  0.0770
  804MPD2     N11848   2.604   2.524  16.936  0.6973  0.0826  0.0574
  804MPD2    H511849   2.632   2.497  17.030  0.5556 -0.0894  0.0505
  804MPD2    N111850   2.588   2.048  16.876  0.2756  0.0606 -0.1023
  804MPD2    H711851   2.615   2.053  16.974 -1.4763 -0.9236  0.4199
  805MPD2     C11852   1.830   0.557  15.423 -0.5834 -0.3088  0.1120
  805MPD2    C111853   1.862   0.671  15.353  0.1802 -0.4069 -0.8148
  805MPD2    C211854   1.996   0.704  15.339 -0.1047 -0.1932  0.0671
  805MPD2    C311855   2.098   0.630  15.396 -0.1502 -0.5031  0.1175
  805MPD2    C411856   2.060   0.511  15.460  0.1636 -0.0858 -0.2747
  805MPD2    C511857   1.931   0.483  15.475  0.0500 -0.1785  0.0607
  805MPD2     H11858   2.023   0.796  15.289  1.3810 -0.1586  0.9434
  805MPD2    H111859   2.129   0.447  15.514 -1.7002 -1.5216  0.3862
  805MPD2    H211860   1.736   0.507  15.443  0.6179 -3.4659 -2.1697
  805MPD2    H311861   1.912   0.397  15.538 -1.1009 -0.0667 -0.1416
  805MPD2     N11862   2.226   0.693  15.394  0.3715  0.4604  0.0412
  805MPD2    H511863   2.242   0.777  15.339  0.5074  1.9181  2.2759
  805MPD2    N111864   1.771   0.741  15.274  0.4919 -0.5799  0.2894
  805MPD2    H711865   1.818   0.816  15.224  0.4748 -0.8867 -0.1825
  806MPD2     C11866   2.365   4.337   0.370  1.0981  0.0242  0.0514
  806MPD2    C111867   2.418   4.447   0.432  0.1416  0.0891 -0.3014
  806MPD2    C211868   2.449   4.555   0.351 -0.1529 -0.1208  0.2073
  806MPD2    C311869   2.434   4.545   0.215  0.0815  0.4228  0.0098
  806MPD2    C411870   2.396   4.431   0.152 -0.5135 -0.2160 -0.3906
  806MPD2    C511871   2.360   4.327   0.232 -0.4799  0.1537 -0.2476
  806MPD2     H11872   2.496   4.644   0.391  0.7985  0.2532 -1.7332
  806MPD2    H111873   2.389   4.420   0.045 -0.5546  1.3217 -0.5421
  806MPD2    H211874   2.336   4.251   0.429 -1.3364  0.5711 -0.3510
  806MPD2    H311875   2.319   4.240   0.184 -1.8271  0.8380 -0.3452
  806MPD2     N11876   2.485   4.652   0.144  0.3001 -0.2759  0.0026
  806MPD2    H511877   2.502   0.017   0.185  0.6665 -0.5423  0.4457
  806MPD2    N111878   2.421   4.455   0.570  0.1037  0.3581 -0.5332
  806MPD2    H711879   2.392   4.373   0.623  0.7993  0.9596  0.8018
  807MPD2     C11880   2.128   4.017   1.048  0.4807  0.2901  0.2032
  807MPD2    C111881   2.252   4.044   1.101  0.4066 -0.2102 -0.2197
  807MPD2    C211882   2.284   3.975   1.220 -0.2148 -0.1615  0.5671
  807MPD2    C311883   2.197   3.884   1.279  0.6325  0.2666 -0.5206
  807MPD2    C411884   2.079   3.850   1.213 -0.5811  0.0959  0.1147
  807MPD2    C511885   2.053   3.921   1.099 -0.3238 -0.2664 -0.4307
  807MPD2     H11886   2.375   3.994   1.276  0.7407  0.4511 -1.1995
  807MPD2    H111887   1.996   3.787   1.245 -0.0048 -1.2638 -1.0631
  807MPD2    H211888   2.091   4.061   0.956 -0.3573  0.1520  0.4682
  807MPD2    H311889   1.971   3.884   1.038  0.0813 -2.7251  0.5045
  807MPD2     N11890   2.243   3.813   1.390 -0.2932  0.1712 -0.3357
  807MPD2    H511891   2.342   3.824   1.412 -0.0584 -1.4471 -0.5287
  807MPD2    N111892   2.346   4.126   1.036  0.1848 -0.2098  0.3987
  807MPD2    H711893   2.440   4.124   1.076  0.2170  0.0455  0.3385
  808MPD2     C11894   3.771   1.952  10.417  0.4300 -0.2115  0.1742
  808MPD2    C111895   3.678   2.046  10.393  0.3589  0.1274 -0.0437
  808MPD2    C211896   3.715   2.177  10.371  0.1986  0.2871 -0.1919
  808MPD2    C311897   3.848   2.218  10.380 -0.4594 -0.1299 -0.2728
  808MPD2    C411898   3.937   2.131  10.422 -0.1590  0.4028  0.0042
  808MPD2    C511899   3.905   2.003  10.441 -0.2376 -0.1064  0.6742
  808MPD2     H11900   3.633   2.243  10.346  1.8642  1.9209 -1.3195
  808MPD2    H111901   4.037   2.164  10.447 -1.0418  2.5393  0.7378
  808MPD2    H211902   3.746   1.846  10.426 -0.6897  0.0048 -0.5265
  808MPD2    H311903   3.995   1.948  10.464 -1.0489 -1.7848 -0.1703
  808MPD2     N11904   3.885   2.355  10.369  0.2946 -0.0550 -0.0828
  808MPD2    H511905   3.984   2.375  10.377  0.0339  0.6808  1.4220
  808MPD2    N111906   3.543   2.016  10.370  0.2309 -0.9472 -0.3349
  808MPD2    H711907   3.475   2.089  10.349 -0.7299 -1.7468 -0.0161
  809MPD2     C11908   4.514   2.835   9.815 -0.1884  0.6989  0.3008
  809MPD2    C111909   4.510   2.725   9.895 -0.1049  0.9171  0.4394
  809MPD2    C211910   4.422   2.714   9.999  1.2605  0.6733  0.1401
  809MPD2    C311911   4.324   2.805  10.012 -0.3709 -0.7097 -0.0162
  809MPD2    C411912   4.331   2.918   9.932  0.8167 -0.7333 -0.0047
  809MPD2    C511913   4.432   2.936   9.841 -0.2198 -0.2564 -0.6410
  809MPD2     H11914   4.428   2.624  10.059 -0.9645  0.6700  0.3330
  809MPD2    H111915   4.260   2.998   9.948  2.3900  0.4365  1.0945
  809MPD2    H211916   4.587   2.842   9.736 -0.0060  1.4995  0.5444
  809MPD2    H311917   4.442   3.026   9.781 -0.2234  0.8150  0.9494
  809MPD2     N11918   4.215   2.794  10.102  0.1788 -0.0853 -0.2179
  809MPD2    H511919   4.131   2.848  10.085  0.9405  0.5551 -1.9465
  809MPD2    N111920   4.601   2.618   9.879  0.9918 -0.1995  0.5758
  809MPD2    H711921   4.586   2.537   9.938  1.2553  1.1696  2.4923
  810MPD2     C11922   2.598   1.267  11.256 -0.1447 -0.1894 -0.4456
  810MPD2    C111923   2.681   1.306  11.156  0.3727 -0.1013  0.0305
  810MPD2    C211924   2.678   1.438  11.107  0.2670  0.2743 -0.5561
  810MPD2    C311925   2.592   1.529  11.159  0.7505 -0.2682  0.3132
  810MPD2    C411926   2.516   1.486  11.266  0.1785  0.5329  0.2835
  810MPD2    C511927   2.512   1.356  11.314  0.0412 -0.3574 -1.0619
  810MPD2     H11928   2.742   1.472  11.026 -0.9739  1.7465 -0.9182
  810MPD2    H111929   2.450   1.561  11.308 -1.7597 -0.0868 -1.6485
  810MPD2    H211930   2.594   1.164  11.288  0.4912 -0.0921 -0.0537
  810MPD2    H311931   2.464   1.317  11.403  1.7516 -0.7476 -0.2993
  810MPD2     N11932   2.578   1.659  11.115 -0.3369 -0.0224  0.6590
  810MPD2    H511933   2.545   1.731  11.179 -0.5458 -0.0113  0.5408
  810MPD2    N111934   2.769   1.212  11.103  0.5572 -0.2563  0.7673
  810MPD2    H711935   2.766   1.126  11.158 -0.4164 -0.3647  0.5460
  811MPD2     C11936   2.877   1.051  10.317  0.4431  0.1506 -0.3139
  811MPD2    C111937   2.929   1.131  10.419 -0.2052 -0.2995  0.0260
  811MPD2    C211938   2.910   1.267  10.396  0.1484 -0.0386  0.3470
  811MPD2    C311939   2.833   1.320  10.295 -0.1168  1.0452  0.1684
  811MPD2    C411940   2.777   1.233  10.203 -0.2458 -0.3747 -0.1570
  811MPD2    C511941   2.807   1.098  10.212 -0.2369 -0.1778 -0.1643
  811MPD2     H11942   2.951   1.339  10.466 -2.7429 -0.5507  2.5503
  811MPD2    H111943   2.718   1.261  10.117 -0.0727  1.5596  0.3585
  811MPD2    H211944   2.895   0.944  10.309  1.8857  0.2866  1.1912
  811MPD2    H311945   2.779   1.027  10.135 -0.4131 -0.7164  0.3896
  811MPD2     N11946   2.811   1.457  10.290  0.3153  0.7400  0.1173
  811MPD2    H511947   2.855   1.521  10.356  1.3511  2.0916 -1.8737
  811MPD2    N111948   2.985   1.075  10.537  0.5181  0.2300 -0.4748
  811MPD2    H711949   2.995   0.974  10.538  1.2816  0.3271  1.2360
  812MPD2     C11950   1.462   1.044  12.451 -0.2033 -0.0253  0.0642
  812MPD2    C111951   1.330   1.049  12.482  0.1538  0.1271 -1.1507
  812MPD2    C211952   1.276   0.975  12.588  0.5559  0.1414 -0.2735
  812MPD2    C311953   1.361   0.896  12.668 -0.4742  0.6063 -0.3925
  812MPD2    C411954   1.492   0.887  12.631  0.9106 -0.6069 -0.2740
  812MPD2    C511955   1.546   0.966  12.530  0.2705  0.2764  0.0025
  812MPD2     H11956   1.172   0.981  12.617  0.9938 -0.2758  1.3551
  812MPD2    H111957   1.558   0.830  12.696 -0.2367 -0.5463  0.9574
  812MPD2    H211958   1.504   1.093  12.364  0.2766 -0.2842  0.1545
  812MPD2    H311959   1.654   0.972  12.521  0.3315 -0.9701 -0.1943
  812MPD2     N11960   1.301   0.841  12.780  0.5130 -0.2718 -0.3695
  812MPD2    H511961   1.199   0.838  12.784  0.5044  1.8363  1.1488
  812MPD2    N111962   1.257   1.147  12.415 -0.0946  1.0894 -0.1527
  812MPD2    H711963   1.315   1.207  12.357  0.1151 -0.2176 -1.3174
  813MPD2     C11964   0.244   3.091  12.840  0.0958  0.7500 -0.1520
  813MPD2    C111965   0.271   3.225  12.853  0.3775 -0.0273 -0.5780
  813MPD2    C211966   0.174   3.314  12.904  0.3654  0.1999  1.1442
  813MPD2    C311967   0.047   3.271  12.947 -0.1589  0.2891  0.8332
  813MPD2    C411968   0.016   3.138  12.922 -0.6586 -0.4161  0.0610
  813MPD2    C511969   0.114   3.050  12.868 -0.5564  0.2840  0.4898
  813MPD2     H11970   0.202   3.414  12.934  1.7881 -0.2532  1.3450
  813MPD2    H111971   4.640   3.100  12.923 -0.5345 -0.7089  1.8246
  813MPD2    H211972   0.316   3.021  12.800 -2.9101 -1.8491 -1.0633
  813MPD2    H311973   0.098   2.945  12.850  0.1710  0.2621 -0.0386
  813MPD2     N11974   4.694   3.367  13.010  0.1650 -0.2832  0.5202
  813MPD2    H511975   4.721   3.465  13.015 -0.5097 -0.0253 -1.0475
  813MPD2    N111976   0.411   3.259  12.850 -0.2415  0.4654 -0.2087
  813MPD2    H711977   0.478   3.184  12.861 -0.5736  0.6330  2.9194
  814MPD2     C11978   1.413   4.195  12.503 -0.6171  0.3329 -0.7672
  814MPD2    C111979   1.412   4.238  12.368 -0.3836  0.0269 -0.6535
  814MPD2    C211980   1.418   4.374  12.346 -0.2984  0.2317  0.0607
  814MPD2    C311981   1.424   4.455  12.451  0.6616 -0.4579 -0.3439
  814MPD2    C411982   1.421   4.416  12.583 -0.5290 -0.4255 -0.4830
  814MPD2    C511983   1.424   4.286  12.602 -0.2100  0.6064  0.8501
  814MPD2     H11984   1.429   4.408  12.243  1.4625  0.5732  0.3616
  814MPD2    H111985   1.444   4.480  12.668 -0.1049 -0.4911 -0.5443
  814MPD2    H211986   1.403   4.090  12.527  2.3056  0.8218  2.5092
  814MPD2    H311987   1.435   4.249  12.703 -1.9984  0.3287  0.9290
  814MPD2     N11988   1.433   4.597  12.440  0.5692  0.2219 -0.0791
  814MPD2    H511989   1.451   4.654  12.522  0.1662  1.6974 -1.0091
  814MPD2    N111990   1.413   4.153  12.258  0.1215 -0.0291  0.7441
  814MPD2    H711991   1.423   4.192  12.165  3.1178 -1.8101  0.2985
  815MPD2     C11992   1.329   2.721  12.097  0.1540  0.5690  0.6097
  815MPD2    C111993   1.328   2.587  12.093 -0.0035 -0.2526  0.3176
  815MPD2    C211994   1.229   2.523  12.160  0.2442  1.6003 -0.1892
  815MPD2    C311995   1.119   2.593  12.206 -0.3863  0.0508  0.3519
  815MPD2    C411996   1.121   2.728  12.202 -0.0905 -0.3412 -0.1967
  815MPD2    C511997   1.231   2.796  12.155 -0.5076  0.3404  0.2179
  815MPD2     H11998   1.218   2.416  12.147 -0.9133  1.4150  2.1539
  815MPD2    H111999   1.033   2.783  12.234  0.4296 -0.3707  1.2645
  815MPD2    H212000   1.411   2.784  12.064 -0.5888  1.7861  1.0818
  815MPD2    H312001   1.229   2.904  12.148  1.7345  0.4392  1.0263
  815MPD2     N12002   1.007   2.517  12.256 -0.7606  0.7400  0.8103
  815MPD2    H512003   1.015   2.417  12.241 -1.4335  0.8092  0.0163
  815MPD2    N112004   1.429   2.523  12.020 -0.7001 -0.4931 -0.7033
  815MPD2    H712005   1.493   2.582  11.967 -0.2512  1.6208  2.2018
  816MPD2     C12006   1.800   1.981  17.057  0.0935 -0.1869  0.0984
  816MPD2    C112007   1.674   1.966  17.008 -0.6071  0.5035  0.7327
  816MPD2    C212008   1.653   1.869  16.910  0.1565  0.8035 -0.0867
  816MPD2    C312009   1.759   1.802  16.858  0.2287 -0.1966  0.3722
  816MPD2    C412010   1.887   1.817  16.909  0.2077 -0.3218  0.0435
  816MPD2    C512011   1.906   1.908  17.011 -0.2895  0.3724  0.3856
  816MPD2     H12012   1.550   1.860  16.877  0.5522  0.1355 -1.1239
  816MPD2    H112013   1.972   1.766  16.864  1.0304  0.3129  0.8809
  816MPD2    H212014   1.829   2.069  17.113  1.5620  0.2879 -1.4046
  816MPD2    H312015   2.003   1.936  17.051  0.5389 -0.2319 -1.2267
  816MPD2     N12016   1.737   1.722  16.743 -0.6745 -0.4312  0.5113
  816MPD2    H512017   1.641   1.713  16.712 -0.1049 -1.3583 -1.0038
  816MPD2    N112018   1.582   2.061  17.064  0.2916 -0.4575 -0.2159
  816MPD2    H712019   1.629   2.123  17.129 -0.9850 -0.0249  0.3000
  817MPD2     C12020   1.164   3.354  10.406 -0.1762 -0.4244  0.1260
  817MPD2    C112021   1.229   3.363  10.281  0.4494 -0.5232 -1.2537
  817MPD2    C212022   1.236   3.483  10.220 -0.5504  1.1113  0.0404
  817MPD2    C312023   1.181   3.595  10.279  0.7074 -0.0221  0.1564
  817MPD2    C412024   1.125   3.587  10.407  0.0864 -0.5157 -0.2151
  817MPD2    C512025   1.119   3.467  10.470  0.0476 -0.8401  0.3802
  817MPD2     H12026   1.280   3.488  10.121  0.2237 -3.9186  0.1397
  817MPD2    H112027   1.092   3.679  10.454  0.2798  0.4448 -1.9792
  817MPD2    H212028   1.155   3.272  10.477 -0.9185 -0.5290 -0.0830
  817MPD2    H312029   1.087   3.457  10.573 -0.0204 -1.3436  0.3101
  817MPD2     N12030   1.180   3.709  10.204 -0.0024 -0.0417  0.5390
  817MPD2    H512031   1.240   3.705  10.123 -0.0959 -3.2674  0.6024
  817MPD2    N112032   1.290   3.254  10.209 -0.4025 -0.2345 -0.3719
  817MPD2    H712033   1.339   3.281  10.124 -0.1051 -0.2627 -0.2106
  818MPD2     C12034   0.310   3.574   9.795 -0.3377 -0.1814  0.2037
  818MPD2    C112035   0.217   3.585   9.896 -0.3702  0.1122 -0.4897
  818MPD2    C212036   0.131   3.484   9.916 -0.0784 -0.3312 -0.0228
  818MPD2    C312037   0.126   3.376   9.830  0.6096  0.5225 -0.0969
  818MPD2    C412038   0.221   3.364   9.734 -0.4952  0.3601  0.3685
  818MPD2    C512039   0.310   3.462   9.713  0.2370 -0.2006  0.8509
  818MPD2     H12040   0.059   3.490   9.998 -0.2647 -1.2006 -0.1158
  818MPD2    H112041   0.238   3.273   9.680 -0.9360  0.0031  0.8225
  818MPD2    H212042   0.386   3.648   9.775  0.6183 -1.1896  0.1299
  818MPD2    H312043   0.392   3.452   9.642 -1.2295 -0.3292 -0.7985
  818MPD2     N12044   0.054   3.258   9.866 -0.0939  0.3883 -0.0580
  818MPD2    H512045   0.083   3.173   9.819 -3.4950 -1.4063  1.1464
  818MPD2    N112046   0.217   3.695   9.985 -0.1964 -0.0726  0.5538
  818MPD2    H712047   0.141   3.700  10.052 -0.8531 -1.4845 -0.0773
  819MPD2     C12048   2.711   0.529  15.333  0.5505 -0.1134  0.3530
  819MPD2    C112049   2.657   0.413  15.386  0.1545  0.1780 -0.1822
  819MPD2    C212050   2.739   0.327  15.459  0.2622  0.4055 -0.2661
  819MPD2    C312051   2.869   0.370  15.484  0.5706  0.3448  0.0384
  819MPD2    C412052   2.919   0.491  15.440 -0.1545 -0.0017  0.3744
  819MPD2    C512053   2.837   0.568  15.369  0.6754  0.4775 -0.7326
  819MPD2     H12054   2.717   0.230  15.500  1.6394 -0.3750 -1.3648
  819MPD2    H112055   3.020   0.521  15.465  0.6055 -2.9858  0.8957
  819MPD2    H212056   2.657   0.591  15.262  1.7256  0.5970  0.0756
  819MPD2    H312057   2.882   0.661  15.336  0.1221  1.7588  2.1048
  819MPD2     N12058   2.957   0.282  15.556  0.6871 -0.4527  0.1394
  819MPD2    H512059   2.924   0.188  15.575 -0.0974 -0.1593  0.2315
  819MPD2    N112060   2.520   0.390  15.348  0.4629 -0.2028 -0.0611
  819MPD2    H712061   2.465   0.462  15.303  1.5279  3.1967  4.0653
  820MPD2     C12062   1.812   0.524  14.681 -0.0875  0.0675  0.6409
  820MPD2    C112063   1.839   0.590  14.797  0.0830 -0.3152 -0.3206
  820MPD2    C212064   1.905   0.531  14.903  0.1526 -0.0626  0.2301
  820MPD2    C312065   1.949   0.400  14.882  0.1896  0.0907  0.3528
  820MPD2    C412066   1.918   0.338  14.763 -0.1729 -0.1312  0.4337
  820MPD2    C512067   1.855   0.397  14.658  0.0640  0.7618 -0.4300
  820MPD2     H12068   1.907   0.581  15.000 -0.4214 -1.1746  0.8218
  820MPD2    H112069   1.955   0.240  14.737 -0.4489 -0.5784  1.7479
  820MPD2    H212070   1.759   0.575  14.602 -0.6659 -0.5147  0.6539
  820MPD2    H312071   1.840   0.338  14.568  0.0924  0.6154 -0.3402
  820MPD2     N12072   2.027   0.323  14.976  0.9567 -0.6008  0.1502
  820MPD2    H512073   2.054   0.229  14.949 -2.1151 -1.8272  1.2744
  820MPD2    N112074   1.777   0.713  14.814 -0.8409  0.1305 -0.0912
  820MPD2    H712075   1.702   0.737  14.749 -1.8160  1.7607  1.6539
  821MPD2     C12076   2.563   1.606  13.360  0.2442  0.3517 -0.9802
  821MPD2    C112077   2.640   1.495  13.360  0.6080  0.6222  0.2526
  821MPD2    C212078   2.757   1.493  13.290  0.5083  0.9863  0.2998
  821MPD2    C312079   2.796   1.598  13.211  0.3141  0.5513  0.2553
  821MPD2    C412080   2.713   1.707  13.208 -0.4612  0.6051  0.1808
  821MPD2    C512081   2.595   1.713  13.286 -0.6920 -0.0844 -0.4404
  821MPD2     H12082   2.819   1.404  13.287  0.6548  1.0836  0.4027
  821MPD2    H112083   2.744   1.796  13.154  0.4336 -0.6467 -1.3737
  821MPD2    H212084   2.471   1.617  13.416  0.6670 -0.7616 -0.0786
  821MPD2    H312085   2.532   1.801  13.283 -0.3267  0.1463 -1.1824
  821MPD2     N12086   2.910   1.596  13.129 -0.1989 -0.3486 -0.8911
  821MPD2    H512087   2.910   1.676  13.067 -0.1925  1.2581  1.1948
  821MPD2    N112088   2.618   1.384  13.447  0.7446  0.4209 -0.6080
  821MPD2    H712089   2.688   1.312  13.435  0.7439  0.1212  1.2900
  822MPD2     C12090   3.419   1.822  15.502  0.1949  0.5438 -0.1476
  822MPD2    C112091   3.410   1.765  15.633  0.2050  0.2606 -0.4221
  822MPD2    C212092   3.336   1.831  15.730 -0.4032  0.0660 -0.4538
  822MPD2    C312093   3.274   1.952  15.703 -0.1837  0.0931  0.1198
  822MPD2    C412094   3.287   1.998  15.572  0.0101  0.5549 -0.2437
  822MPD2    C512095   3.355   1.935  15.474 -0.0828 -0.0823 -0.3224
  822MPD2     H12096   3.345   1.792  15.830  0.4408 -1.0542 -0.9677
  822MPD2    H112097   3.251   2.098  15.554 -0.2269  0.3556 -0.8916
  822MPD2    H212098   3.461   1.765  15.420  1.4671  1.1786  0.0680
  822MPD2    H312099   3.357   1.974  15.373  1.2384  0.5168 -0.0549
  822MPD2     N12100   3.216   2.019  15.807 -0.3823  0.4925 -0.2404
  822MPD2    H512101   3.201   1.968  15.894  1.0512  1.1655  0.3934
  822MPD2    N112102   3.483   1.654  15.672 -0.5309  0.0221  0.4222
  822MPD2    H712103   3.465   1.617  15.765  1.5008  0.2358  0.8869
  823MPD2     C12104   2.893   2.024  16.598 -0.2428 -0.1508 -0.0823
  823MPD2    C112105   2.958   1.971  16.485 -0.2343  0.3905  0.7065
  823MPD2    C212106   3.015   1.842  16.482 -0.4214  0.7481 -0.5396
  823MPD2    C312107   3.010   1.762  16.601  0.2726 -0.0446 -0.6403
  823MPD2    C412108   2.956   1.820  16.712 -0.2691 -0.2117  0.0776
  823MPD2    C512109   2.903   1.950  16.714  0.1888  0.3124  0.2409
  823MPD2     H12110   3.070   1.805  16.397  0.4565 -0.7452  0.6712
  823MPD2    H112111   2.961   1.772  16.809 -1.0498  0.6601  0.5499
  823MPD2    H212112   2.850   2.123  16.614 -1.4901 -0.7643  0.3720
  823MPD2    H312113   2.856   2.001  16.798 -0.1267  0.3554  0.0420
  823MPD2     N12114   3.060   1.630  16.610  0.0506  0.5066 -0.4091
  823MPD2    H512115   3.065   1.591  16.704  1.9253  1.4782 -0.0981
  823MPD2    N112116   2.984   2.055  16.372  0.0627  0.6920 -0.6423
  823MPD2    H712117   2.952   2.152  16.375 -0.8069  0.4164 -0.9385
  824MPD2     C12118   3.597   0.923  15.494 -0.3225 -0.0441 -0.2193
  824MPD2    C112119   3.705   0.970  15.561  0.4844 -0.3373 -1.0689
  824MPD2    C212120   3.812   0.884  15.576 -0.5348 -0.0871 -0.2416
  824MPD2    C312121   3.812   0.752  15.530  0.2700 -0.3140  0.2877
  824MPD2    C412122   3.699   0.708  15.464  0.9186  0.0325  0.0984
  824MPD2    C512123   3.590   0.794  15.450  0.0768 -0.3390  0.5572
  824MPD2     H12124   3.904   0.918  15.622 -1.7987  0.1456  2.1178
  824MPD2    H112125   3.683   0.613  15.415  2.4420 -1.7011  2.9270
  824MPD2    H212126   3.515   0.990  15.471  0.5289  1.1238  0.0887
  824MPD2    H312127   3.504   0.759  15.394  1.0934 -1.2036 -0.4467
  824MPD2     N12128   3.928   0.673  15.548 -0.3438 -0.0075 -0.5297
  824MPD2    H512129   4.016   0.716  15.572  0.0826 -1.7132  0.9723
  824MPD2    N112130   3.714   1.112  15.592  0.8291 -0.6098 -0.6465
  824MPD2    H712131   3.634   1.168  15.565  0.3087 -0.9731  0.1281
  825MPD2     C12132   4.639   0.627  15.112 -0.6703 -0.9838  0.0786
  825MPD2    C112133   4.562   0.691  15.204 -0.3600  0.6738 -0.0045
  825MPD2    C212134   4.574   0.832  15.214 -0.0287  0.2063  0.3608
  825MPD2    C312135   4.672   0.904  15.144  0.4369 -0.2890  0.9059
  825MPD2    C412136   0.017   0.832  15.058  0.2828 -0.7269 -0.2969
  825MPD2    C512137   0.011   0.698  15.051  0.1388  0.8333 -0.0702
  825MPD2     H12138   4.524   0.883  15.295  1.4901  2.3062 -0.0289
  825MPD2    H112139   0.084   0.883  14.990 -0.2592 -1.0409 -1.0733
  825MPD2    H212140   4.633   0.519  15.100 -2.2140 -0.7456 -1.3232
  825MPD2    H312141   0.072   0.650  14.975 -1.7827  1.0444 -1.7349
  825MPD2     N12142   4.690   1.042  15.143  0.3391 -0.0272 -0.1108
  825MPD2    H512143   0.040   1.074  15.083  0.4539  1.9316  1.0656
  825MPD2    N112144   4.470   0.610  15.275 -0.8030 -0.2396  0.6553
  825MPD2    H712145   4.469   0.511  15.251  1.5132 -0.6414  2.2044
  826MPD2     C12146   4.081   0.475  13.744  0.4411  0.1140 -0.2763
  826MPD2    C112147   4.056   0.506  13.607 -0.3065 -0.1863  0.0188
  826MPD2    C212148   4.010   0.633  13.575  0.3419 -0.1112  0.5184
  826MPD2    C312149   3.993   0.725  13.675  0.7727  0.2649  0.4617
  826MPD2    C412150   4.027   0.697  13.804  0.3515 -0.0978  0.4584
  826MPD2    C512151   4.064   0.571  13.844 -0.6262 -0.3689  0.0692
  826MPD2     H12152   4.002   0.668  13.473 -1.6591 -1.7179  0.1251
  826MPD2    H112153   4.028   0.779  13.876 -0.1966  0.8525 -0.6134
  826MPD2    H212154   4.116   0.377  13.773  1.3684  0.3233 -0.6862
  826MPD2    H312155   4.102   0.554  13.944  0.2984 -0.0177 -0.2203
  826MPD2     N12156   3.950   0.860  13.653  0.5561 -0.2669  0.2247
  826MPD2    H512157   3.956   0.921  13.734 -0.2013  0.5232 -0.3301
  826MPD2    N112158   4.080   0.403  13.514 -0.5810 -0.0598  0.0195
  826MPD2    H712159   4.127   0.321  13.551  0.7117  0.5993 -0.1379
  827MPD2     C12160   0.540   2.536  10.268 -0.5535  0.7420 -0.2502
  827MPD2    C112161   0.555   2.403  10.284 -0.4694  0.3271 -0.2489
  827MPD2    C212162   0.507   2.313  10.194  0.3087  0.4732  0.2003
  827MPD2    C312163   0.448   2.361  10.080 -0.2323  0.0746 -0.1224
  827MPD2    C412164   0.413   2.492  10.074 -0.1944 -0.7063 -0.6394
  827MPD2    C512165   0.463   2.580  10.165  0.3700  0.2687 -0.2342
  827MPD2     H12166   0.505   2.206  10.210  1.7422  0.1315 -1.9597
  827MPD2    H112167   0.349   2.534   9.998  0.1519  0.2442 -0.4050
  827MPD2    H212168   0.595   2.605  10.332 -1.3477  1.2840 -0.1613
  827MPD2    H312169   0.439   2.686  10.165 -1.3147 -0.1049 -1.1865
  827MPD2     N12170   0.419   2.265   9.979  0.6159 -0.2854  0.0857
  827MPD2    H512171   0.412   2.168  10.006 -1.1088 -0.6643 -1.6943
  827MPD2    N112172   0.636   2.361  10.396 -0.2046 -0.5086 -0.0595
  827MPD2    H712173   0.675   2.428  10.461  3.3505 -1.4382 -1.2215
  828MPD2     C12174   3.718   1.545  12.698 -0.0220 -0.0523  0.7089
  828MPD2    C112175   3.721   1.664  12.625 -0.1352  0.6495 -0.9354
  828MPD2    C212176   3.849   1.717  12.594  0.6032 -0.4067  0.0745
  828MPD2    C312177   3.970   1.666  12.638  0.2110  0.1575  0.2465
  828MPD2    C412178   3.962   1.546  12.710  0.4460 -1.1439 -0.0093
  828MPD2    C512179   3.839   1.491  12.736 -0.1863  0.7391  0.4537
  828MPD2     H12180   3.855   1.810  12.539 -0.0846 -0.4961 -0.1519
  828MPD2    H112181   4.054   1.508  12.754  1.2664 -1.2607 -1.8147
  828MPD2    H212182   3.626   1.489  12.711 -0.3198 -0.0086 -1.1355
  828MPD2    H312183   3.834   1.397  12.790 -1.4171  0.2495 -0.4944
  828MPD2     N12184   4.099   1.726  12.626  0.9884  0.5076 -0.5357
  828MPD2    H512185   4.177   1.662  12.631 -0.5052 -1.1575  1.7261
  828MPD2    N112186   3.607   1.740  12.600 -0.1380  0.1390 -0.4902
  828MPD2    H712187   3.618   1.830  12.556 -1.3297 -0.0052 -1.1048
  829MPD2     C12188   3.263   2.175  11.824  0.3154  0.5578 -0.2846
  829MPD2    C112189   3.176   2.097  11.896 -0.2903  0.6653  0.3497
  829MPD2    C212190   3.217   2.062  12.024  0.3348  0.7484  0.0429
  829MPD2    C312191   3.343   2.083  12.069  0.5041 -0.2484  0.4666
  829MPD2    C412192   3.433   2.153  11.984 -0.6646  0.0342 -0.0985
  829MPD2    C512193   3.389   2.207  11.864 -0.9063 -0.9778  0.0807
  829MPD2     H12194   3.150   2.003  12.085  1.1369 -0.1626  0.0486
  829MPD2    H112195   3.531   2.182  12.022 -0.5382  0.4697 -0.7641
  829MPD2    H212196   3.239   2.196  11.721  3.2293  0.9519 -0.8780
  829MPD2    H312197   3.461   2.253  11.797 -1.0095 -0.2582  0.4629
  829MPD2     N12198   3.387   2.050  12.201  0.2502 -0.9495  0.2385
  829MPD2    H512199   3.478   2.083  12.229 -0.7098  3.1394 -1.3943
  829MPD2    N112200   3.055   2.059  11.839  0.0722 -0.5073  0.0081
  829MPD2    H712201   3.045   2.087  11.742 -0.9268  1.9874  0.8549
  830MPD2     C12202   3.690   4.676  15.653  0.4527  0.1451  0.4418
  830MPD2    C112203   3.581   4.713  15.570  0.2565 -0.3859  0.5757
  830MPD2    C212204   3.606   0.070  15.462 -0.0219  0.3413  0.4070
  830MPD2    C312205   3.728   0.134  15.438  0.0336 -0.4329  0.6483
  830MPD2    C412206   3.834   0.100  15.524 -0.3781  0.5575  0.1738
  830MPD2    C512207   3.813   0.008  15.625 -0.0737 -0.1023 -0.6751
  830MPD2     H12208   3.517   0.099  15.408 -0.9939 -0.5642  1.5276
  830MPD2    H112209   3.934   0.139  15.507  0.3388 -0.4017  2.1828
  830MPD2    H212210   3.687   4.625  15.749 -0.5885 -0.3428  0.1494
  830MPD2    H312211   3.895   4.718  15.695  0.9929 -0.1581 -1.9426
  830MPD2     N12212   3.753   0.225  15.335 -0.0545  0.6565 -0.1305
  830MPD2    H512213   3.835   0.283  15.345  0.2549  0.2022 -0.0437
  830MPD2    N112214   3.451   4.668  15.606  0.0816  0.1109 -0.0950
  830MPD2    H712215   3.447   4.620  15.695 -1.6373 -0.4986 -0.4925
  831MPD2     C12216   3.501   1.994  16.157  0.4884 -0.2142  0.0230
  831MPD2    C112217   3.552   1.894  16.082  0.1010 -0.1328  0.1069
  831MPD2    C212218   3.489   1.768  16.075 -0.6120  0.2080 -0.9610
  831MPD2    C312219   3.370   1.753  16.138  0.8198  0.7455  0.0838
  831MPD2    C412220   3.322   1.842  16.230  0.5877 -0.1900 -0.5605
  831MPD2    C512221   3.389   1.962  16.234 -0.1972 -0.3411 -0.7279
  831MPD2     H12222   3.542   1.688  16.024 -0.6161 -1.6785  1.9897
  831MPD2    H112223   3.234   1.843  16.293 -0.7889 -1.5023 -2.4488
  831MPD2    H212224   3.550   2.091  16.164  0.0883  0.0980 -1.4495
  831MPD2    H312225   3.350   2.029  16.309  1.6686  0.4004 -0.4066
  831MPD2     N12226   3.289   1.646  16.110  0.1431 -0.4573 -0.6054
  831MPD2    H512227   3.199   1.648  16.159 -0.1296  4.4121 -1.3426
  831MPD2    N112228   3.666   1.910  16.000 -0.7639  1.0095 -0.0697
  831MPD2    H712229   3.695   1.834  15.938 -1.7931 -0.3378  1.0949
  832MPD2     C12230   1.695   2.818  17.072 -0.1386 -0.0271  0.5229
  832MPD2    C112231   1.719   2.949  17.063  0.2939  1.0775 -0.2654
  832MPD2    C212232   1.622   3.028  17.004  0.3770 -0.5156 -0.1891
  832MPD2    C312233   1.512   2.972  16.938  0.0285  0.4824  0.5877
  832MPD2    C412234   1.482   2.840  16.952 -0.3665  0.6552 -0.5713
  832MPD2    C512235   1.577   2.762  17.017 -0.6361 -0.2857 -0.0255
  832MPD2     H12236   1.639   3.135  16.998  1.4492 -0.6737  0.0735
  832MPD2    H112237   1.386   2.798  16.925  0.1626  1.0115 -3.0017
  832MPD2    H212238   1.768   2.750  17.114 -0.2532  0.0371  0.8192
  832MPD2    H312239   1.564   2.656  17.034 -1.6477 -0.4420 -1.8236
  832MPD2     N12240   1.421   3.048  16.864  0.1213 -0.8262  0.2547
  832MPD2    H512241   1.332   3.006  16.841  0.1797 -1.6986  1.6075
  832MPD2    N112242   1.846   2.991  17.108 -0.5121 -0.0782  0.7971
  832MPD2    H712243   1.912   2.920  17.137  1.9229  2.0108  0.3880
  833MPD2     C12244   4.561   4.312  12.355 -0.1830  0.2947  0.0048
  833MPD2    C112245   4.559   4.445  12.330  0.1645  0.2764  0.8696
  833MPD2    C212246   4.674   4.515  12.295  0.1002 -0.3603  0.3419
  833MPD2    C312247   0.070   4.449  12.275  0.0598 -0.7628  0.3310
  833MPD2    C412248   0.068   4.315  12.302  0.3467 -0.3328 -0.5817
  833MPD2    C512249   4.678   4.241  12.330 -0.4132 -0.2835 -0.3773
  833MPD2     H12250   4.665   4.618  12.264  0.8719 -1.2199 -2.6924
  833MPD2    H112251   0.160   4.263  12.275  1.7580  1.8822 -0.0854
  833MPD2    H212252   4.475   4.246  12.360 -0.6046  0.9030  0.6873
  833MPD2    H312253   4.681   4.133  12.334  2.1551 -0.2750 -1.7810
  833MPD2     N12254   0.194   4.514  12.237  0.1990  1.1113 -0.1442
  833MPD2    H512255   0.271   4.447  12.235 -0.2650  0.5518  0.4664
  833MPD2    N112256   4.432   4.510  12.347  0.5009 -0.4112  0.5677
  833MPD2    H712257   4.361   4.447  12.384  0.9429 -1.1790  0.1061
  834MPD2     C12258   0.589   4.555  11.414 -0.4484 -0.6410 -0.2146
  834MPD2    C112259   0.494   4.477  11.480  0.1524 -1.1038  0.6807
  834MPD2    C212260   0.482   4.495  11.615 -0.2802  0.0307  0.3123
  834MPD2    C312261   0.549   4.599  11.681 -0.4315 -0.1994 -0.1459
  834MPD2    C412262   0.635   4.675  11.611  0.4940  0.1225 -0.4051
  834MPD2    C512263   0.658   4.654  11.479  0.6845  0.2833  0.3895
  834MPD2     H12264   0.417   4.438  11.679  0.0978  0.1683  0.8177
  834MPD2    H112265   0.694   0.031  11.651 -0.9790  1.9094 -1.8997
  834MPD2    H212266   0.606   4.549  11.307 -0.1684  2.3500 -0.3331
  834MPD2    H312267   0.726   4.710  11.416  0.5446 -0.8287 -0.7399
  834MPD2     N12268   0.504   4.621  11.811  0.2086 -0.3674  0.2340
  834MPD2    H512269   0.416   4.576  11.835 -0.1996  0.0754 -0.4604
  834MPD2    N112270   0.421   4.382  11.410  0.1434  0.6347  0.4254
  834MPD2    H712271   0.440   4.360  11.312  0.0879 -1.3299  0.8419
  835MPD2     C12272   4.572   2.203  11.537  0.2933  0.4351  0.6922
  835MPD2    C112273   4.594   2.334  11.549 -0.6382  0.3642 -0.1705
  835MPD2    C212274   4.662   2.377  11.669 -1.2442 -0.0501  0.0072
  835MPD2    C312275   4.714   2.284  11.756 -0.3479 -0.5645  0.8794
  835MPD2    C412276   4.695   2.149  11.738 -0.1068  0.0682 -0.0577
  835MPD2    C512277   4.623   2.110  11.626  0.4216  0.4053  0.1645
  835MPD2     H12278   4.672   2.485  11.678 -1.1437 -0.1182  0.7282
  835MPD2    H112279   0.003   2.078  11.813 -1.3360 -0.8597 -0.3906
  835MPD2    H212280   4.514   2.161  11.456 -1.4919  2.1393  1.0660
  835MPD2    H312281   4.605   2.004  11.610  1.6474 -0.1642  2.5583
  835MPD2     N12282   0.045   2.314  11.883 -0.0222  0.0922  0.1478
  835MPD2    H512283   0.057   2.233  11.943  1.5052  1.3069  1.4708
  835MPD2    N112284   4.537   2.414  11.453  0.3184 -0.0798  0.0377
  835MPD2    H712285   4.478   2.366  11.387 -1.5538  0.2085  1.5081
  836MPD2     C12286   4.549   2.516  12.727  1.1637  0.0615 -0.6689
  836MPD2    C112287   4.528   2.486  12.594  0.2726  0.0895 -0.2712
  836MPD2    C212288   4.414   2.434  12.547 -0.2787  0.2421 -0.7706
  836MPD2    C312289   4.305   2.429  12.627  0.0254 -0.3938  0.0892
  836MPD2    C412290   4.319   2.484  12.755 -0.2828 -0.5436 -1.1525
  836MPD2    C512291   4.442   2.513  12.809  0.2704  1.1480 -0.4213
  836MPD2     H12292   4.414   2.384  12.451  2.1339  0.3668 -0.8295
  836MPD2    H112293   4.237   2.492  12.826  0.2926 -0.4079 -0.5058
  836MPD2    H212294   4.649   2.532  12.764  1.3065  3.5940 -2.5851
  836MPD2    H312295   4.455   2.541  12.913 -1.6502 -2.7118  0.8661
  836MPD2     N12296   4.175   2.383  12.585  0.0837 -0.3439  0.3191
  836MPD2    H512297   4.097   2.397  12.649  1.4051  0.9033  1.6669
  836MPD2    N112298   4.637   2.501  12.508 -0.5930  0.6443 -0.1640
  836MPD2    H712299   0.003   2.516  12.547 -1.0313 -1.2409  1.6307
  837MPD2     C12300   2.828   2.165  10.656 -0.1637  0.0314  0.5048
  837MPD2    C112301   2.856   2.169  10.525 -0.5932  0.2719  0.1368
  837MPD2    C212302   2.879   2.289  10.460 -0.5897  0.6102  0.8675
  837MPD2    C312303   2.869   2.407  10.540  0.5263  0.4504  0.3693
  837MPD2    C412304   2.820   2.404  10.669  0.5146 -0.2595  0.1483
  837MPD2    C512305   2.814   2.278  10.727  0.6541  0.3625  0.4582
  837MPD2     H12306   2.910   2.288  10.356  1.3576  1.1940  1.4497
  837MPD2    H112307   2.823   2.495  10.729 -2.0035  0.2321 -0.5009
  837MPD2    H212308   2.819   2.067  10.701 -3.9886  0.4833  0.7026
  837MPD2    H312309   2.802   2.272  10.834 -0.7467  0.3277  0.2989
  837MPD2     N12310   2.898   2.524  10.457  0.2836 -0.3808  0.5258
  837MPD2    H512311   2.928   2.510  10.361  0.3044  1.6666  0.2339
  837MPD2    N112312   2.846   2.061  10.436  0.3119 -0.2451 -0.0907
  837MPD2    H712313   2.867   2.084  10.339  2.3368  0.2756  0.4671
  838MPD2     C12314   1.830   0.506  11.784 -0.2713 -0.2222  0.4090
  838MPD2    C112315   1.735   0.531  11.695 -0.1052 -0.4715 -0.3053
  838MPD2    C212316   1.622   0.459  11.717  0.1261  0.7036  0.3102
  838MPD2    C312317   1.590   0.382  11.819  0.0003  0.3275  0.3418
  838MPD2    C412318   1.683   0.370  11.914  0.2921 -0.4852  0.5903
  838MPD2    C512319   1.805   0.432  11.893  0.1603 -0.3111  0.0941
  838MPD2     H12320   1.544   0.475  11.643  0.6157 -0.6039 -0.4921
  838MPD2    H112321   1.672   0.323  12.012 -0.2413 -0.6194  0.4660
  838MPD2    H212322   1.931   0.543  11.772 -0.1115 -0.5423  0.7415
  838MPD2    H312323   1.886   0.428  11.965  1.0189  2.4481 -0.6845
  838MPD2     N12324   1.467   0.314  11.816 -0.0525 -0.6038  0.2920
  838MPD2    H512325   1.413   0.326  11.731 -0.7451 -1.7814  0.5662
  838MPD2    N112326   1.762   0.590  11.571  0.7914  0.0906 -0.1938
  838MPD2    H712327   1.680   0.579  11.512  0.2194  1.0177  0.4329
  839MPD2     C12328   1.550   0.005  11.638 -0.3666 -0.6326 -0.3258
  839MPD2    C112329   1.476   0.055  11.528  0.2527  0.8543 -0.2457
  839MPD2    C212330   1.537   0.157  11.451  0.3960 -0.2454 -0.7714
  839MPD2    C312331   1.667   0.203  11.477 -0.8342 -0.3381 -0.1504
  839MPD2    C412332   1.740   0.140  11.577  0.9453 -0.2139 -0.2852
  839MPD2    C512333   1.685   0.047  11.655 -0.1300 -0.6702 -0.2054
  839MPD2     H12334   1.485   0.162  11.356 -0.6038  0.7356 -0.1689
  839MPD2    H112335   1.841   0.174  11.597  0.8173  0.2219 -0.3916
  839MPD2    H212336   1.499   4.664  11.706  0.0749 -1.1678 -0.5279
  839MPD2    H312337   1.747   4.722  11.728  0.8845 -2.5954 -2.3995
  839MPD2     N12338   1.716   0.297  11.381  0.1405 -0.4091 -0.4767
  839MPD2    H512339   1.646   0.334  11.317 -1.1871 -1.9728  0.0683
  839MPD2    N112340   1.350   0.009  11.488 -1.0155 -0.5939  0.4403
  839MPD2    H712341   1.306   0.064  11.416  0.1167  0.8023  0.8201
  840MPD2     C12342   1.154   2.615  10.493  0.1298 -0.6477  0.2008
  840MPD2    C112343   1.160   2.524  10.592  0.0960  0.1300  0.1232
  840MPD2    C212344   1.267   2.525  10.676 -1.3086  0.0552  0.0008
  840MPD2    C312345   1.363   2.628  10.673  0.1373 -0.0110 -0.7274
  840MPD2    C412346   1.360   2.716  10.566  1.0526  0.1755 -0.1687
  840MPD2    C512347   1.260   2.708  10.472 -0.4676 -0.3177 -0.3528
  840MPD2     H12348   1.278   2.440  10.742 -2.0922 -0.6756 -0.8076
  840MPD2    H112349   1.434   2.794  10.558 -1.9878  3.0243 -0.2772
  840MPD2    H212350   1.080   2.601  10.415  1.6002  0.6289 -1.4563
  840MPD2    H312351   1.260   2.766  10.381 -0.2459  0.2582  0.0200
  840MPD2     N12352   1.459   2.643  10.778  0.3445 -0.0682 -0.1064
  840MPD2    H512353   1.527   2.716  10.761 -0.2167 -0.0097 -2.0403
  840MPD2    N112354   1.060   2.431  10.598  1.2105  0.0672 -0.2256
  840MPD2    H712355   0.993   2.426  10.522  0.7970  4.0541 -0.1466
  841MPD2     C12356   0.480   2.299  14.805 -0.1367  0.2038  0.2317
  841MPD2    C112357   0.504   2.175  14.750  0.2747 -0.5413 -0.2157
  841MPD2    C212358   0.605   2.159  14.651  0.0864 -0.3299  0.3664
  841MPD2    C312359   0.677   2.264  14.609 -0.3809 -0.6991  0.0162
  841MPD2    C412360   0.638   2.389  14.651 -0.4622  0.2474  0.1152
  841MPD2    C512361   0.551   2.406  14.757  0.3666 -0.4166 -0.0130
  841MPD2     H12362   0.632   2.065  14.602  1.4094  1.3145 -2.0819
  841MPD2    H112363   0.697   2.475  14.620 -0.3503 -1.1340 -3.4924
  841MPD2    H212364   0.404   2.312  14.882  0.1569  0.1125  0.5408
  841MPD2    H312365   0.538   2.509  14.789  0.1364  0.3294 -2.5102
  841MPD2     N12366   0.780   2.249  14.509 -0.3693  0.2627 -0.3682
  841MPD2    H512367   0.799   2.151  14.492 -0.1198 -0.2025  2.5769
  841MPD2    N112368   0.423   2.059  14.777 -0.3189 -0.4756 -0.9920
  841MPD2    H712369   0.466   1.978  14.733  0.4424 -3.5641  5.4192
  842MPD2     C12370   0.658   3.114  16.380 -0.5839 -0.1678  0.4764
  842MPD2    C112371   0.540   3.179  16.357 -0.1228 -0.2273  0.6524
  842MPD2    C212372   0.444   3.168  16.459 -0.4668 -0.7681  0.2277
  842MPD2    C312373   0.475   3.107  16.576 -1.4775  0.0646 -0.2872
  842MPD2    C412374   0.592   3.036  16.596 -0.7119 -0.0523  0.2519
  842MPD2    C512375   0.678   3.036  16.492 -0.4880  0.0482 -0.0060
  842MPD2     H12376   0.354   3.228  16.452  0.6218  0.6110 -1.7393
  842MPD2    H112377   0.612   2.989  16.692 -0.7477  1.1210  0.8394
  842MPD2    H212378   0.735   3.121  16.304  0.4473  1.0424  1.6307
  842MPD2    H312379   0.772   2.984  16.501 -0.9809 -1.0997 -1.4522
  842MPD2     N12380   0.391   3.105  16.687  0.3947  0.1810  0.9116
  842MPD2    H512381   0.431   3.071  16.774 -1.0922  0.1215  1.5784
  842MPD2    N112382   0.537   3.262  16.241  0.4436 -0.1398  0.3412
  842MPD2    H712383   0.618   3.257  16.181 -0.4624  0.9768 -0.9818
  843MPD2     C12384   3.195   3.060   0.525 -0.6553 -0.3794  0.5428
  843MPD2    C112385   3.328   3.047   0.554  0.0546  0.4137  1.1508
  843MPD2    C212386   3.421   3.121   0.483 -0.2377 -0.4634 -0.3037
  843MPD2    C312387   3.378   3.221   0.394 -0.2034 -0.3151  0.2521
  843MPD2    C412388   3.245   3.233   0.365  0.4923 -0.7041  0.0108
  843MPD2    C512389   3.157   3.145   0.424 -0.2008  0.1481 -0.0449
  843MPD2     H12390   3.526   3.128   0.510  0.0557  0.7308 -1.7183
  843MPD2    H112391   3.203   3.304   0.294 -0.8868 -1.8043 -0.2844
  843MPD2    H212392   3.125   2.997   0.578  1.1077 -0.6108  2.5870
  843MPD2    H312393   3.052   3.155   0.402  0.2865  0.2083 -2.3635
  843MPD2     N12394   3.468   3.302   0.316 -0.2606 -0.4762 -0.4123
  843MPD2    H512395   3.431   3.371   0.253 -1.7260 -0.7108  0.1994
  843MPD2    N112396   3.355   2.951   0.652  0.3294 -1.4143  0.2655
  843MPD2    H712397   3.272   2.908   0.692 -0.9035  0.2074 -0.5295
  844MPD2     C12398   1.044   2.386  16.367  0.3964  0.4380 -0.8657
  844MPD2    C112399   1.113   2.442  16.264  0.1706 -0.4269  0.1730
  844MPD2    C212400   1.202   2.545  16.296 -0.1844  0.4233  0.0054
  844MPD2    C312401   1.209   2.605  16.423 -0.4554 -0.3611 -0.1251
  844MPD2    C412402   1.140   2.545  16.520 -0.1409 -0.0744 -0.0544
  844MPD2    C512403   1.050   2.444  16.488  0.7573  0.5189  0.6815
  844MPD2     H12404   1.257   2.587  16.213 -0.7260 -0.4274 -0.7966
  844MPD2    H112405   1.141   2.587  16.620 -0.4404 -2.2121  0.8512
  844MPD2    H212406   0.980   2.299  16.357 -2.4936  2.6356 -1.3343
  844MPD2    H312407   0.996   2.401  16.572  2.4268 -1.1364  0.8965
  844MPD2     N12408   1.309   2.701  16.448 -0.2660 -0.0857 -0.0957
  844MPD2    H512409   1.369   2.732  16.371 -1.2301  1.4732 -0.2238
  844MPD2    N112410   1.105   2.402  16.129 -0.1947  0.4821 -0.1976
  844MPD2    H712411   1.178   2.444  16.072 -0.6611  0.5469 -0.7367
  845MPD2     C12412   1.727   3.599  16.371 -0.5886  0.0624 -0.4218
  845MPD2    C112413   1.760   3.546  16.493  0.3939 -0.5514 -0.7462
  845MPD2    C212414   1.734   3.416  16.525  0.0685 -0.0689  0.1762
  845MPD2    C312415   1.666   3.338  16.433  0.3494  0.1503 -0.2651
  845MPD2    C412416   1.635   3.386  16.308 -0.2205  0.0388 -0.5612
  845MPD2    C512417   1.661   3.519  16.283  0.5054  0.3987 -0.3315
  845MPD2     H12418   1.776   3.370  16.614 -1.3773 -1.4092  0.1784
  845MPD2    H112419   1.608   3.313  16.232  1.5392 -0.1859 -0.9609
  845MPD2    H212420   1.756   3.701  16.347  0.0940 -0.3553 -1.3565
  845MPD2    H312421   1.641   3.555  16.183  0.2890  2.7673  0.5725
  845MPD2     N12422   1.657   3.203  16.467 -0.1034  0.7952  0.4376
  845MPD2    H512423   1.707   3.172  16.549 -0.3629  0.1034  0.3364
  845MPD2    N112424   1.812   3.636  16.590 -0.4037  0.1677 -0.4622
  845MPD2    H712425   1.800   3.734  16.566 -0.3970  0.7474  1.8720
  846MPD2     C12426   3.524   3.875  13.937 -0.6072  0.0538 -0.1939
  846MPD2    C112427   3.423   3.960  13.910  0.0663 -0.2726 -0.3600
  846MPD2    C212428   3.331   3.994  14.009  0.0807  0.7279  0.2814
  846MPD2    C312429   3.333   3.941  14.133  0.2484 -0.5172  0.4347
  846MPD2    C412430   3.441   3.853  14.166 -0.1340  1.5113  1.0013
  846MPD2    C512431   3.528   3.826  14.061  0.6632 -0.5425  0.1477
  846MPD2     H12432   3.264   4.078  13.994 -0.0078  0.2866 -1.6944
  846MPD2    H112433   3.462   3.814  14.265 -0.2334 -1.8642 -0.2905
  846MPD2    H212434   3.609   3.840  13.880  1.5756  2.3370  1.5918
  846MPD2    H312435   3.614   3.766  14.087  1.8000  1.6024  1.2881
  846MPD2     N12436   3.245   3.999  14.227  0.6089  0.8473 -0.2994
  846MPD2    H512437   3.202   4.087  14.202  0.2338 -0.2685 -3.6764
  846MPD2    N112438   3.430   4.016  13.780 -0.7009  0.2367  0.8727
  846MPD2    H712439   3.510   4.000  13.719 -0.1939 -0.1748  1.6437
  847MPD2     C12440   3.218   4.453  14.430  0.4582 -0.3624  0.4918
  847MPD2    C112441   3.288   4.552  14.358  0.0222 -0.0148  0.2188
  847MPD2    C212442   3.425   4.561  14.356 -0.3280 -0.9938 -0.5702
  847MPD2    C312443   3.496   4.460  14.425 -0.2090 -0.3427  0.1378
  847MPD2    C412444   3.428   4.364  14.502 -0.5034 -0.2445 -0.2390
  847MPD2    C512445   3.291   4.363  14.500 -0.3226  0.3216  0.3199
  847MPD2     H12446   3.480   4.638  14.302  0.5995 -1.1954  0.0891
  847MPD2    H112447   3.470   4.281  14.558 -1.3674  0.0794  0.8913
  847MPD2    H212448   3.110   4.451  14.435  0.4120 -0.7717 -0.8146
  847MPD2    H312449   3.236   4.290  14.558  0.1742  0.3072  0.7767
  847MPD2     N12450   3.633   4.483  14.421  0.3685 -0.3008 -0.0448
  847MPD2    H512451   3.667   4.562  14.366 -0.8788 -0.1336 -0.5684
  847MPD2    N112452   3.219   4.646  14.281  0.1925  0.0308 -0.4191
  847MPD2    H712453   3.271   4.692  14.206  1.9208 -0.8379  0.2533
  848MPD2     C12454   1.252   3.296  16.163  0.7733 -0.6185 -0.0709
  848MPD2    C112455   1.277   3.369  16.277 -0.4573 -0.0127 -0.0279
  848MPD2    C212456   1.321   3.498  16.258  0.2954 -1.1869  0.2225
  848MPD2    C312457   1.344   3.551  16.137  0.2884 -0.8070 -0.3449
  848MPD2    C412458   1.328   3.474  16.025 -0.1910 -0.8915  0.5912
  848MPD2    C512459   1.274   3.350  16.043 -0.4848  0.1435 -0.4349
  848MPD2     H12460   1.363   3.547  16.346 -1.2920  0.0175  0.2970
  848MPD2    H112461   1.356   3.507  15.925 -3.0479 -0.1308  0.0456
  848MPD2    H212462   1.218   3.193  16.165  1.7256 -0.9650 -1.6452
  848MPD2    H312463   1.242   3.296  15.954 -0.7815 -0.2523 -0.0857
  848MPD2     N12464   1.370   3.688  16.115  0.5369  0.2034  0.1920
  848MPD2    H512465   1.365   3.719  16.019 -2.9300  0.4755  0.4533
  848MPD2    N112466   1.257   3.313  16.410  0.1866 -0.3175 -0.0775
  848MPD2    H712467   1.273   3.367  16.494  1.9756  0.0308 -0.6557
  849MPD2     C12468   0.299   2.681  14.342  0.0447  1.2732 -0.0627
  849MPD2    C112469   0.358   2.803  14.340 -0.0525  0.6654 -0.6380
  849MPD2    C212470   0.483   2.816  14.376  0.6877  0.1697  0.3887
  849MPD2    C312471   0.562   2.703  14.401 -0.4889 -0.6275 -0.2064
  849MPD2    C412472   0.507   2.577  14.395 -0.0358  0.4405 -0.4141
  849MPD2    C512473   0.372   2.565  14.363  0.2856 -0.1028 -0.3352
  849MPD2     H12474   0.529   2.912  14.356  1.2241 -0.2731 -0.4985
  849MPD2    H112475   0.565   2.487  14.414 -0.0059  0.4924 -0.2626
  849MPD2    H212476   0.196   2.666  14.312  0.6123  0.2420 -1.5146
  849MPD2    H312477   0.326   2.469  14.341  2.5923 -0.8395 -1.9350
  849MPD2     N12478   0.703   2.714  14.430  0.1746 -0.0739  0.0272
  849MPD2    H512479   0.759   2.630  14.421 -0.2820 -0.2594 -1.0042
  849MPD2    N112480   0.302   2.914  14.276  0.2100 -0.5400  0.2955
  849MPD2    H712481   0.357   2.999  14.285  1.7507 -1.4960 -0.0335
  850MPD2     C12482   3.160   1.154  14.583 -0.1628  0.2940  1.2092
  850MPD2    C112483   3.169   1.255  14.673 -0.3851  0.9198  0.4773
  850MPD2    C212484   3.288   1.325  14.689  0.0779 -0.6800 -0.0340
  850MPD2    C312485   3.404   1.297  14.620 -0.2825 -0.2196 -0.6091
  850MPD2    C412486   3.392   1.201  14.528  0.2082 -0.2439 -0.1279
  850MPD2    C512487   3.272   1.134  14.508  0.8509 -0.1954 -0.5588
  850MPD2     H12488   3.297   1.409  14.758  0.0042 -1.6747  1.1860
  850MPD2    H112489   3.472   1.178  14.459  0.8050 -1.1557  0.8578
  850MPD2    H212490   3.066   1.108  14.555 -0.8410  1.8960  0.8274
  850MPD2    H312491   3.269   1.059  14.429 -1.4622  0.6694 -1.2929
  850MPD2     N12492   3.528   1.350  14.652 -0.6327 -0.5893  0.0699
  850MPD2    H512493   3.606   1.323  14.593 -0.9359  2.6814 -1.8466
  850MPD2    N112494   3.053   1.293  14.741 -0.3263 -0.2026 -0.2306
  850MPD2    H712495   2.965   1.282  14.690  0.8517  1.5282 -2.6349
  851MPD2     C12496   3.753   1.150  15.217 -0.1540 -1.0166  0.0639
  851MPD2    C112497   3.653   1.091  15.139  0.0547  0.2275  0.7466
  851MPD2    C212498   3.663   0.959  15.095 -0.8177  0.4325 -0.5837
  851MPD2    C312499   3.773   0.884  15.127 -0.2673 -0.1906  0.1282
  851MPD2    C412500   3.864   0.938  15.216 -0.7792 -0.2890  0.0000
  851MPD2    C512501   3.860   1.073  15.247 -0.3964 -0.6604 -0.4503
  851MPD2     H12502   3.578   0.919  15.040  0.5577  1.4382 -3.4805
  851MPD2    H112503   3.956   0.885  15.241 -0.4259 -0.2063 -1.1044
  851MPD2    H212504   3.751   1.251  15.257  1.1818 -0.3055 -1.6561
  851MPD2    H312505   3.934   1.125  15.306 -0.9173 -1.7152  1.1500
  851MPD2     N12506   3.783   0.753  15.085 -0.1355  0.1246  0.4028
  851MPD2    H512507   3.709   0.726  15.022 -0.5133  0.8455  0.5415
  851MPD2    N112508   3.527   1.162  15.133  0.1748  0.4376  0.0008
  851MPD2    H712509   3.519   1.253  15.175  0.9484 -0.3684  1.8816
  852MPD2     C12510   3.672   3.827  10.144 -0.0437 -0.3464  0.0827
  852MPD2    C112511   3.707   3.914  10.239  0.0575 -0.4412  0.5885
  852MPD2    C212512   3.810   4.003  10.210  0.0283  0.2475  0.3087
  852MPD2    C312513   3.863   4.012  10.080 -0.3578 -0.0398  0.0981
  852MPD2    C412514   3.804   3.944   9.980  0.2507 -0.0287 -0.0842
  852MPD2    C512515   3.713   3.845  10.015  0.0868 -0.5272  0.3499
  852MPD2     H12516   3.850   4.061  10.292 -3.6287  0.9278  1.6277
  852MPD2    H112517   3.841   3.946   9.878 -0.5138  1.1767 -0.3397
  852MPD2    H212518   3.591   3.756  10.159  2.6598 -3.3401  0.4340
  852MPD2    H312519   3.673   3.773   9.943  0.7278 -1.1974  0.6703
  852MPD2     N12520   3.981   4.092  10.058  0.2112  0.3637  0.6199
  852MPD2    H512521   4.018   4.140  10.139  1.7478  0.8821 -0.4034
  852MPD2    N112522   3.647   3.906  10.372  0.6275 -0.1368 -0.3208
  852MPD2    H712523   3.698   3.962  10.439  0.4091 -0.6777  0.2922
  853MPD2     C12524   0.854   3.558  12.703  0.5178 -0.3675  1.0531
  853MPD2    C112525   0.826   3.669  12.632  0.4339  0.3749 -0.2082
  853MPD2    C212526   0.807   3.651  12.499 -0.6570 -0.1334  0.0194
  853MPD2    C312527   0.810   3.525  12.440  0.3917  0.0174  0.2538
  853MPD2    C412528   0.829   3.411  12.521  0.6315  0.3601 -0.1969
  853MPD2    C512529   0.865   3.431  12.653  0.3781  0.1282  0.2754
  853MPD2     H12530   0.783   3.737  12.438 -0.6614  0.4736  0.8748
  853MPD2    H112531   0.839   3.319  12.463 -0.2164  0.3055 -0.2637
  853MPD2    H212532   0.871   3.570  12.809 -0.1708  2.5332  0.8516
  853MPD2    H312533   0.892   3.353  12.723 -1.7242 -0.7666  0.0821
  853MPD2     N12534   0.795   3.506  12.302 -0.1165  0.1596  0.2511
  853MPD2    H512535   0.774   3.410  12.277 -1.7212  0.8387 -1.0116
  853MPD2    N112536   0.808   3.790  12.700 -0.3374 -0.2510 -0.6060
  853MPD2    H712537   0.804   3.788  12.801 -0.9236  0.8145 -0.6057
  854MPD2     C12538   2.331   3.032  13.042  0.0162 -0.1402 -0.4800
  854MPD2    C112539   2.418   3.120  12.976 -0.1593 -0.3721  0.4704
  854MPD2    C212540   2.550   3.083  12.973 -0.1495  0.3843 -0.2606
  854MPD2    C312541   2.599   2.971  13.044 -0.8333 -0.4221 -0.6940
  854MPD2    C412542   2.506   2.888  13.106 -0.2289 -0.0721 -0.1609
  854MPD2    C512543   2.370   2.920  13.105 -0.8054  0.0468  0.3280
  854MPD2     H12544   2.622   3.148  12.924  1.9018 -1.1605  0.7249
  854MPD2    H112545   2.533   2.811  13.178  1.1303  1.9280  1.4671
  854MPD2    H212546   2.225   3.037  13.021 -0.5138 -0.8772  1.9476
  854MPD2    H312547   2.294   2.859  13.153 -0.0262  0.5267  2.1666
  854MPD2     N12548   2.735   2.925  13.060  0.5555  0.0518 -0.2487
  854MPD2    H512549   2.756   2.849  13.124  0.3546 -0.0384 -0.2895
  854MPD2    N112550   2.376   3.243  12.930  0.4963  0.4395  0.3336
  854MPD2    H712551   2.276   3.257  12.938  0.1468 -0.1072 -3.1494
  855MPD2     C12552   3.450   3.071  13.680  0.2791 -0.3332  0.2510
  855MPD2    C112553   3.321   3.047  13.664 -0.3964 -0.0381 -0.0711
  855MPD2    C212554   3.269   3.018  13.540  0.0316 -0.1949  0.2856
  855MPD2    C312555   3.354   2.987  13.441 -1.0476  0.0341  0.2983
  855MPD2    C412556   3.491   3.005  13.457 -0.2489  0.1053 -0.7095
  855MPD2    C512557   3.536   3.051  13.577 -0.0682  0.5585  0.7470
  855MPD2     H12558   3.162   3.004  13.532  0.2331 -0.5385 -1.7366
  855MPD2    H112559   3.554   2.967  13.376 -0.1654  0.6488 -0.8975
  855MPD2    H212560   3.486   3.101  13.778  1.8035 -1.0359 -0.1055
  855MPD2    H312561   3.641   3.074  13.590  0.0271  0.8720 -0.6356
  855MPD2     N12562   3.298   2.947  13.315  0.4812  0.3879  0.7036
  855MPD2    H512563   3.357   2.958  13.233  0.2273  2.6797  0.8402
  855MPD2    N112564   3.229   3.062  13.766  0.2208  0.5807 -0.1776
  855MPD2    H712565   3.136   3.041  13.731  0.2945 -0.0484  0.0023
  856MPD2     C12566   4.431   4.443  14.051 -0.3681  0.2013 -0.6225
  856MPD2    C112567   4.479   4.569  14.074  0.0646 -0.1963  0.5841
  856MPD2    C212568   4.407   4.685  14.054  0.4888  0.1617  0.1936
  856MPD2    C312569   4.274   4.677  14.023  0.4687 -0.1269 -0.6480
  856MPD2    C412570   4.222   4.551  13.992  0.7351 -0.5143  0.4350
  856MPD2    C512571   4.305   4.445  14.005  0.0707 -0.1414 -0.3239
  856MPD2     H12572   4.453   0.055  14.072  0.2198 -0.2021  2.8041
  856MPD2    H112573   4.125   4.540  13.945  0.7002 -0.4376  0.4897
  856MPD2    H212574   4.478   4.348  14.073  1.5129  1.6761  1.7900
  856MPD2    H312575   4.267   4.348  13.974 -0.0348 -0.3518  0.4832
  856MPD2     N12576   4.203   0.075  14.011  0.1540  0.4424  0.4595
  856MPD2    H512577   4.108   0.052  13.982 -0.1467 -0.8872  2.5265
  856MPD2    N112578   4.613   4.598  14.121 -0.5988  0.0133  0.1600
  856MPD2    H712579   4.648   4.693  14.114 -0.8856  0.1004 -0.0917
  857MPD2     C12580   0.976   1.735  13.280  0.5926  0.2326  0.3390
  857MPD2    C112581   1.079   1.717  13.190 -0.0329  0.2796 -0.0684
  857MPD2    C212582   1.136   1.823  13.123 -0.1783  0.3132  0.2784
  857MPD2    C312583   1.083   1.948  13.134  0.2345 -0.1776  0.4004
  857MPD2    C412584   0.977   1.967  13.224 -0.2150  0.7958  0.2044
  857MPD2    C512585   0.926   1.862  13.298  0.3011  0.4622 -0.4088
  857MPD2     H12586   1.225   1.810  13.062  0.0972  0.5091  0.6383
  857MPD2    H112587   0.944   2.068  13.243  0.4443  1.0448  0.0049
  857MPD2    H212588   0.922   1.656  13.331  1.4361 -0.0992  0.7115
  857MPD2    H312589   0.840   1.873  13.364 -0.1435 -1.5000 -0.6474
  857MPD2     N12590   1.138   2.052  13.056  0.2434 -0.2436  0.5443
  857MPD2    H512591   1.216   2.023  12.998 -2.9828 -0.6507 -3.6908
  857MPD2    N112592   1.130   1.582  13.163 -0.5217  0.3137  0.7743
  857MPD2    H712593   1.103   1.512  13.231 -0.0400 -0.3660  0.2668
  858MPD2     C12594   1.888   0.985  16.555  0.7181 -0.4847 -0.2369
  858MPD2    C112595   2.012   0.928  16.563 -0.7445  0.0176  0.2965
  858MPD2    C212596   2.087   0.944  16.677  0.5527 -0.6314  0.4648
  858MPD2    C312597   2.042   1.017  16.786 -0.1266 -0.5345 -0.1748
  858MPD2    C412598   1.918   1.075  16.774 -0.2219  0.4864  0.6409
  858MPD2    C512599   1.841   1.059  16.655 -0.6350 -0.0944  0.6117
  858MPD2     H12600   2.184   0.896  16.677  0.0182 -1.6981  0.9993
  858MPD2    H112601   1.893   1.155  16.842  0.6558  1.4715 -0.1836
  858MPD2    H212602   1.818   0.961  16.475 -2.5629  2.1873  1.8585
  858MPD2    H312603   1.750   1.118  16.643  0.0968  0.6120 -1.3045
  858MPD2     N12604   2.121   1.063  16.889  0.0597  0.2412 -0.2085
  858MPD2    H512605   2.089   1.128  16.960  1.0698  0.0350  0.4364
  858MPD2    N112606   2.062   0.863  16.448 -0.0807  0.1834  0.6908
  858MPD2    H712607   2.012   0.862  16.360  1.7287 -1.9347 -0.3324
  859MPD2     C12608   0.581   2.831  15.613  0.2122  0.0560  0.4886
  859MPD2    C112609   0.593   2.845  15.477  0.4296 -0.1385 -0.6668
  859MPD2    C212610   0.561   2.749  15.390  0.2337 -0.2233  0.0799
  859MPD2    C312611   0.494   2.635  15.441  0.4317  0.8011 -0.9633
  859MPD2    C412612   0.485   2.619  15.577  0.1447 -0.2888  0.2003
  859MPD2    C512613   0.522   2.719  15.663 -0.3512  0.0498 -0.1035
  859MPD2     H12614   0.577   2.781  15.288 -0.3607  0.1031  0.0885
  859MPD2    H112615   0.443   2.529  15.620  4.0948 -1.3069  1.8947
  859MPD2    H212616   0.596   2.911  15.685  0.0929 -0.0570  0.6379
  859MPD2    H312617   0.515   2.704  15.771 -2.3485 -0.9252 -0.3740
  859MPD2     N12618   0.451   2.521  15.365 -0.6721 -0.0066 -0.0071
  859MPD2    H512619   0.434   2.436  15.418 -3.0425  1.0282  0.8662
  859MPD2    N112620   0.636   2.962  15.418  0.7434 -0.1628  0.1044
  859MPD2    H712621   0.637   2.978  15.317 -1.0314 -1.3773 -0.1010
  860MPD2     C12622   3.442   3.459  11.422 -0.0600 -0.6401 -0.9806
  860MPD2    C112623   3.439   3.512  11.547 -0.2180  0.5806 -0.6975
  860MPD2    C212624   3.358   3.449  11.636  0.0293  0.2778  0.2087
  860MPD2    C312625   3.280   3.342  11.611 -0.5552  0.1930  0.7957
  860MPD2    C412626   3.266   3.297  11.482  0.1312 -0.1767 -0.6243
  860MPD2    C512627   3.348   3.361  11.385 -0.5551 -0.1408  0.1978
  860MPD2     H12628   3.356   3.476  11.741  1.8267  1.5742 -0.0954
  860MPD2    H112629   3.199   3.213  11.464  1.2188 -1.0968 -0.3754
  860MPD2    H212630   3.501   3.497  11.339  1.4041  0.4996  0.5960
  860MPD2    H312631   3.335   3.329  11.282  1.1437  1.5143 -0.5244
  860MPD2     N12632   3.221   3.287  11.721  0.5404 -0.0551 -0.1715
  860MPD2    H512633   3.220   3.344  11.805  3.2920 -1.4720  0.8545
  860MPD2    N112634   3.531   3.608  11.599  0.4072 -0.5445  0.1371
  860MPD2    H712635   3.526   3.631  11.698  0.3131 -0.7617  0.1843
  861MPD2     C12636   2.004   1.339  11.055 -0.7555 -0.6957  0.3852
  861MPD2    C112637   1.965   1.445  11.136 -0.3010  0.5622 -0.0504
  861MPD2    C212638   1.925   1.567  11.080 -0.6497 -0.2936 -0.2707
  861MPD2    C312639   1.912   1.583  10.947  0.2439  0.1260 -0.5996
  861MPD2    C412640   1.962   1.483  10.865 -0.2106 -0.8016 -0.3494
  861MPD2    C512641   2.004   1.360  10.924  0.5857 -0.5720  0.5876
  861MPD2     H12642   1.901   1.640  11.156  2.8622 -0.1228  0.6847
  861MPD2    H112643   1.977   1.494  10.758  0.8971 -3.0411 -0.4273
  861MPD2    H212644   2.043   1.246  11.095 -0.0425  0.3482  2.1346
  861MPD2    H312645   2.059   1.287  10.866 -0.8989  0.1691 -1.7915
  861MPD2     N12646   1.859   1.698  10.886 -0.4846  0.7936 -0.0298
  861MPD2    H512647   1.854   1.693  10.785  1.7679 -2.0480  0.0055
  861MPD2    N112648   1.973   1.423  11.276 -0.0887 -0.1963  0.7210
  861MPD2    H712649   1.930   1.489  11.339  1.0776 -0.4186  1.7569
  862MPD2     C12650   1.628   1.933  10.243 -0.0885  0.1038 -0.2062
  862MPD2    C112651   1.691   1.850  10.330  0.3269 -0.7292 -0.0344
  862MPD2    C212652   1.702   1.713  10.303 -0.5639 -0.2266  0.0418
  862MPD2    C312653   1.644   1.665  10.183 -0.5976  0.0240  0.1670
  862MPD2    C412654   1.583   1.744  10.090 -0.6028  0.4084 -0.0257
  862MPD2    C512655   1.584   1.878  10.126  0.3277  0.2961  0.1899
  862MPD2     H12656   1.750   1.646  10.373  0.0785 -2.6987 -2.7684
  862MPD2    H112657   1.531   1.706  10.003 -1.1668 -0.6347  0.7696
  862MPD2    H212658   1.609   2.038  10.262 -0.4290 -0.1701  1.0021
  862MPD2    H312659   1.536   1.960  10.074 -0.5023  0.0439  0.5460
  862MPD2     N12660   1.637   1.528  10.159  0.0620 -0.2062  0.0571
  862MPD2    H512661   1.576   1.503  10.081  3.3966  0.0212 -2.6271
  862MPD2    N112662   1.742   1.892  10.453 -0.1198 -0.5436  0.4095
  862MPD2    H712663   1.782   1.812  10.502  1.3847  0.6946  1.2074
  863MPD2     C12664   4.539   0.078  16.976 -0.2114  0.0740  0.3563
  863MPD2    C112665   4.630   0.080  16.875 -0.0342 -0.1567  0.9401
  863MPD2    C212666   0.042   0.079  16.910 -0.1468  0.1433 -0.5669
  863MPD2    C312667   0.078   0.053  17.039 -0.0330 -0.0700 -0.2695
  863MPD2    C412668   4.707   0.058  17.137 -0.1459  0.2576 -1.3239
  863MPD2    C512669   4.574   0.068  17.104 -0.0027 -0.0759 -0.8718
  863MPD2     H12670   0.111   0.063  16.828  1.9337  0.9338  1.0506
  863MPD2    H112671   0.003   0.049  17.243 -2.2284 -2.9916 -1.1526
  863MPD2    H212672   4.435   0.086  16.948 -0.5154  1.4899  1.9321
  863MPD2    H312673   4.500   0.094  17.179  0.5069  0.4367 -0.5433
  863MPD2     N12674   0.209   0.027  17.084  0.0735  0.0657  0.0668
  863MPD2    H512675   0.221   0.006  17.183  0.6765 -0.6003 -0.1522
  863MPD2    N112676   4.582   0.101  16.746 -0.0844  0.0786 -0.0206
  863MPD2    H712677   4.482   0.105  16.729  0.1066  0.2481 -1.1240
  864MPD2     C12678   0.793   0.736  17.386 -0.5251 -0.5224 -0.2215
  864MPD2    C112679   0.824   0.675  17.267  0.0053 -0.6494 -0.0902
  864MPD2    C212680   0.896   0.749  17.175 -0.3540  0.3792 -0.7233
  864MPD2    C312681   0.941   0.880  17.202 -0.0066 -0.5639  0.2271
  864MPD2    C412682   0.908   0.928  17.318  0.0388  0.5209  0.1152
  864MPD2    C512683   0.838   0.860  17.415  0.1692  0.3465  0.6474
  864MPD2     H12684   0.907   0.719  17.072 -1.0917  0.0524 -0.7102
  864MPD2    H112685   0.949   1.026  17.339 -0.8664  1.2635 -1.5803
  864MPD2    H212686   0.737   0.679  17.459  0.8254 -0.4978  0.8232
  864MPD2    H312687   0.816   0.913  17.507 -1.7437  1.4603 -0.4668
  864MPD2     N12688   1.008   0.958  17.103 -0.1302 -0.7753 -0.4455
  864MPD2    H512689   1.028   1.055  17.125 -0.5122 -0.1519 -2.8334
  864MPD2    N112690   0.757   0.554  17.240  0.2545 -0.4768  0.2223
  864MPD2    H712691   0.698   0.512  17.311 -0.1389 -1.3293 -0.6091
  865MPD2     C12692   1.226   1.421  16.427 -0.6971  0.4070  0.3308
  865MPD2    C112693   1.170   1.318  16.503 -0.0646  0.1973 -0.6842
  865MPD2    C212694   1.146   1.331  16.638  0.3745  0.6825  0.4773
  865MPD2    C312695   1.168   1.452  16.700  0.0871  0.2225 -0.0779
  865MPD2    C412696   1.216   1.560  16.625  0.0297  0.0330  0.0991
  865MPD2    C512697   1.251   1.542  16.492  0.6091 -0.4908  0.1469
  865MPD2     H12698   1.096   1.246  16.684 -2.7571  1.1018 -2.1755
  865MPD2    H112699   1.227   1.657  16.671  1.9364 -0.6612  1.0721
  865MPD2    H212700   1.254   1.414  16.322 -1.0678  0.2146  0.2418
  865MPD2    H312701   1.300   1.622  16.438  0.0864 -0.0845  0.2764
  865MPD2     N12702   1.154   1.472  16.838 -0.2225 -0.0961  0.1944
  865MPD2    H512703   1.142   1.570  16.861 -0.4849 -0.1469  0.2709
  865MPD2    N112704   1.158   1.200  16.431 -0.1121  0.5125 -0.1908
  865MPD2    H712705   1.182   1.198  16.333 -0.2748 -0.1834 -0.2160
  866MPD2     C12706   2.528   1.545  11.657  0.1470 -0.4236  0.3948
  866MPD2    C112707   2.586   1.611  11.557  0.3244 -0.7911 -0.3442
  866MPD2    C212708   2.524   1.714  11.489 -0.9172 -0.7997  0.0852
  866MPD2    C312709   2.399   1.749  11.523 -0.1530 -0.2036 -0.2277
  866MPD2    C412710   2.340   1.686  11.627 -0.4032  0.4000 -0.1253
  866MPD2    C512711   2.402   1.582  11.694 -0.0718 -0.5730  0.0014
  866MPD2     H12712   2.578   1.781  11.423 -1.8255  0.4777  0.6381
  866MPD2    H112713   2.240   1.714  11.656  0.2937  2.0650  0.6948
  866MPD2    H212714   2.560   1.446  11.688  1.5906 -1.0033 -2.9025
  866MPD2    H312715   2.351   1.524  11.771  1.5076  0.0939  1.5609
  866MPD2     N12716   2.319   1.845  11.455  0.1771 -0.5019  0.1607
  866MPD2    H512717   2.229   1.865  11.497  0.2897 -1.7307  0.9801
  866MPD2    N112718   2.716   1.565  11.533  0.6956 -0.5299  0.2587
  866MPD2    H712719   2.764   1.503  11.598  1.9041 -0.6428 -0.7387
  867MPD2     C12720   4.337   1.171  16.492 -0.3981  0.1697  0.4343
  867MPD2    C112721   4.417   1.173  16.606 -0.0244  0.6917 -0.4724
  867MPD2    C212722   4.458   1.299  16.658 -0.3320  0.0621  0.6954
  867MPD2    C312723   4.428   1.414  16.589 -0.0593 -0.1508  0.1804
  867MPD2    C412724   4.347   1.410  16.480  0.1518 -0.3954  0.1401
  867MPD2    C512725   4.295   1.291  16.433  0.2633 -0.3080 -0.3174
  867MPD2     H12726   4.510   1.304  16.753  0.7727  2.8071 -0.0498
  867MPD2    H112727   4.328   1.501  16.425  1.9489 -0.5016 -0.6568
  867MPD2    H212728   4.305   1.072  16.459 -1.3726  0.8257 -0.5670
  867MPD2    H312729   4.235   1.291  16.344 -0.2918  0.1364  0.0596
  867MPD2     N12730   4.477   1.540  16.616  0.4719  0.7089  0.5037
  867MPD2    H512731   4.443   1.619  16.561 -1.2079  0.6835  1.5101
  867MPD2    N112732   4.465   1.055  16.659 -0.3102 -0.9328  0.6530
  867MPD2    H712733   4.439   0.974  16.604 -0.3552 -0.0588 -0.6067
  868MPD2     C12734   1.381   4.540  13.030  0.3668 -0.4759 -0.7230
  868MPD2    C112735   1.483   4.632  13.048  0.1341 -0.3048  0.3818
  868MPD2    C212736   1.454   0.022  13.115 -0.3345  0.8715  0.1795
  868MPD2    C312737   1.323   0.047  13.162  0.2397  0.0511  0.7464
  868MPD2    C412738   1.217   4.682  13.132 -0.7817  0.7589  0.5125
  868MPD2    C512739   1.248   4.568  13.066 -0.2479  0.7683 -0.3709
  868MPD2     H12740   1.538   0.081  13.151  0.3444 -0.6944  1.1394
  868MPD2    H112741   1.116   4.682  13.170 -0.3299 -0.3466  1.7228
  868MPD2    H212742   1.401   4.446  12.980  1.4791 -1.1277  0.9279
  868MPD2    H312743   1.185   4.480  13.056  2.6873 -1.5103  1.4031
  868MPD2     N12744   1.296   0.165  13.244  0.5164  0.2911 -1.0491
  868MPD2    H512745   1.371   0.230  13.266  1.0131 -0.0656 -1.6957
  868MPD2    N112746   1.616   4.594  13.021 -0.0096 -0.1056  0.4401
  868MPD2    H712747   1.644   4.497  13.007 -1.2458 -0.4998  0.6903
  869MPD2     C12748   3.289   3.461   2.381 -0.3210 -0.2284  0.1059
  869MPD2    C112749   3.158   3.417   2.359 -0.1749  0.1013 -0.3497
  869MPD2    C212750   3.126   3.389   2.227  0.8090  0.1377 -0.7934
  869MPD2    C312751   3.212   3.417   2.124  0.4705 -0.0419 -0.1065
  869MPD2    C412752   3.332   3.474   2.148 -0.3214 -0.3551 -0.7551
  869MPD2    C512753   3.376   3.490   2.281 -0.6135 -0.0024 -0.2074
  869MPD2     H12754   3.046   3.319   2.206 -0.0353  1.1141 -0.8541
  869MPD2    H112755   3.401   3.502   2.068 -0.6394  0.8338 -0.6143
  869MPD2    H212756   3.334   3.462   2.480 -0.8018 -1.0034  0.3398
  869MPD2    H312757   3.478   3.510   2.311 -0.6442  0.8111 -0.6390
  869MPD2     N12758   3.179   3.382   1.989  0.3266  0.7398 -0.3474
  869MPD2    H512759   3.258   3.384   1.925 -0.3515  0.9102 -1.1753
  869MPD2    N112760   3.087   3.362   2.464 -0.0793  0.0015  0.1889
  869MPD2    H712761   3.128   3.376   2.556 -2.0607  2.4423  0.7277
  870MPD2     C12762   2.703   2.073   1.885  0.5827 -0.1577 -0.2265
  870MPD2    C112763   2.573   2.035   1.882  0.1326 -0.9003 -0.3915
  870MPD2    C212764   2.518   1.996   1.762 -0.6924  0.0769  0.8270
  870MPD2    C312765   2.595   1.973   1.653  0.3655 -0.4743  0.1723
  870MPD2    C412766   2.732   1.991   1.660  0.4940 -0.2629 -0.5573
  870MPD2    C512767   2.785   2.048   1.771 -0.1922 -0.2652 -0.9344
  870MPD2     H12768   2.413   1.973   1.753 -0.6484  0.8058 -1.5577
  870MPD2    H112769   2.800   1.981   1.576 -0.1718  2.3259 -1.3869
  870MPD2    H212770   2.750   2.121   1.970  1.3878  1.1469 -1.4120
  870MPD2    H312771   2.887   2.085   1.775 -0.6580  0.9546 -0.3499
  870MPD2     N12772   2.535   1.943   1.530  0.1355  0.5320  0.0581
  870MPD2    H512773   2.434   1.940   1.525  0.3849  0.0461 -4.0331
  870MPD2    N112774   2.500   2.042   2.001  0.2260  0.5650  0.0176
  870MPD2    H712775   2.540   2.098   2.076 -1.4571  0.1196  1.2569
  871MPD2     C12776   3.448   1.206  16.072  0.7384  0.7940  0.0806
  871MPD2    C112777   3.400   1.124  16.170 -0.6973 -0.3807 -0.1980
  871MPD2    C212778   3.403   0.989  16.155 -0.1257  0.2969 -0.3781
  871MPD2    C312779   3.450   0.936  16.040  0.0888 -0.4519  0.2167
  871MPD2    C412780   3.479   1.017  15.933  0.3738  0.1317 -0.6833
  871MPD2    C512781   3.483   1.151  15.948  0.0073 -0.5320  0.2283
  871MPD2     H12782   3.367   0.922  16.232  0.7570  1.0153  0.6478
  871MPD2    H112783   3.507   0.977  15.836 -1.8028  0.5235 -1.4806
  871MPD2    H212784   3.455   1.313  16.088  0.7207  0.8668 -0.4058
  871MPD2    H312785   3.522   1.213  15.868 -1.7557  1.0931  0.6454
  871MPD2     N12786   3.464   0.794  16.030 -0.6044 -0.0092 -0.1083
  871MPD2    H512787   3.422   0.743  16.107  0.0041 -0.1550  0.1268
  871MPD2    N112788   3.354   1.192  16.287  0.3242 -0.0791 -0.5467
  871MPD2    H712789   3.382   1.289  16.287 -2.3565  0.6896 -1.7775
  872MPD2     C12790   4.239   3.702  14.197  0.0056 -0.0869 -0.1194
  872MPD2    C112791   4.150   3.718  14.097 -0.3347 -0.2793 -0.1487
  872MPD2    C212792   4.033   3.651  14.096 -0.1901  0.3947  0.0100
  872MPD2    C312793   4.001   3.572  14.205 -0.3030  0.1320 -0.2104
  872MPD2    C412794   4.090   3.562  14.308 -0.2701  0.6294 -0.4611
  872MPD2    C512795   4.207   3.625  14.309 -0.2250  0.0520 -0.2163
  872MPD2     H12796   3.970   3.654  14.009  0.1741  1.2376 -0.2159
  872MPD2    H112797   4.064   3.499  14.392 -1.5791 -1.4044 -2.3930
  872MPD2    H212798   4.340   3.743  14.193  0.4766 -1.1405  0.7772
  872MPD2    H312799   4.283   3.610  14.385 -0.4381  0.8862  0.1657
  872MPD2     N12800   3.878   3.504  14.225 -0.1931 -0.7403 -0.4167
  872MPD2    H512801   3.872   3.453  14.312 -1.5260 -1.0496 -0.6915
  872MPD2    N112802   4.183   3.800  13.983  0.1669  0.1795  0.2064
  872MPD2    H712803   4.123   3.799  13.902  0.3356  0.2452  0.0810
  873MPD2     C12804   0.932   3.970   0.834 -0.1475  0.7074  0.7383
  873MPD2    C112805   1.010   3.907   0.924 -0.6987 -0.3758  0.6596
  873MPD2    C212806   1.111   3.818   0.885 -0.3834 -0.0143 -0.0163
  873MPD2    C312807   1.129   3.779   0.753 -0.1965  0.9979  0.0456
  873MPD2    C412808   1.053   3.852   0.663 -0.3204  0.0858 -0.4792
  873MPD2    C512809   0.952   3.934   0.702  0.4563 -0.7801 -0.7584
  873MPD2     H12810   1.169   3.761   0.957 -0.3663 -1.0609 -0.8541
  873MPD2    H112811   1.066   3.825   0.559 -0.6173 -0.8583 -0.2750
  873MPD2    H212812   0.858   4.045   0.861  1.6338  1.8135  2.4866
  873MPD2    H312813   0.897   3.980   0.620  0.6691  0.9959  0.0970
  873MPD2     N12814   1.206   3.665   0.706  0.2586  0.0276  0.4170
  873MPD2    H512815   1.204   3.651   0.605  0.2805  1.1182  0.2646
  873MPD2    N112816   0.972   3.941   1.058  0.6614  0.4214  0.2138
  873MPD2    H712817   0.889   3.997   1.073  0.6634  0.2333  0.9491
  874MPD2     C12818   0.641   4.008  15.800 -0.7247 -0.2349 -0.1369
  874MPD2    C112819   0.690   3.901  15.873 -0.5520 -0.0443 -0.4803
  874MPD2    C212820   0.816   3.903  15.939  0.4317 -0.6987  0.4631
  874MPD2    C312821   0.894   4.016  15.916 -0.5601 -0.2375 -0.3040
  874MPD2    C412822   0.856   4.118  15.833  0.7396 -0.2399 -0.5026
  874MPD2    C512823   0.732   4.111  15.775 -0.5035 -0.3733  0.3698
  874MPD2     H12824   0.859   3.824  15.999 -2.6865 -2.3240  0.5609
  874MPD2    H112825   0.922   4.200  15.804 -0.7133  1.7625  1.9439
  874MPD2    H212826   0.546   4.014  15.748 -0.7322  0.4910 -0.0429
  874MPD2    H312827   0.694   4.186  15.706  0.3451 -2.0746 -1.9482
  874MPD2     N12828   1.021   4.015  15.977  0.4250 -0.0922 -0.4153
  874MPD2    H512829   1.039   3.935  16.036  2.3223  0.7168  0.1021
  874MPD2    N112830   0.598   3.798  15.903  0.0829 -0.4533 -0.5809
  874MPD2    H712831   0.503   3.823  15.879 -0.3632 -2.4154 -0.8586
  875MPD2     C12832   2.075   2.153  14.460  0.7029  0.0784  0.0691
  875MPD2    C112833   1.940   2.174  14.499 -0.2716  0.2291 -0.2433
  875MPD2    C212834   1.917   2.214  14.632  0.3775  0.6779 -0.3799
  875MPD2    C312835   2.028   2.237  14.715 -0.7494  0.2964  0.5281
  875MPD2    C412836   2.158   2.248  14.667 -0.3814 -0.1717  0.1251
  875MPD2    C512837   2.181   2.188  14.550 -0.6037 -0.6355 -0.2744
  875MPD2     H12838   1.815   2.232  14.665 -0.7534 -1.4502 -2.6983
  875MPD2    H112839   2.231   2.255  14.746 -0.6882 -0.9320  0.4793
  875MPD2    H212840   2.098   2.123  14.359 -1.2592 -0.1896 -0.2917
  875MPD2    H312841   2.277   2.198  14.500 -0.3873  0.5142  0.3556
  875MPD2     N12842   2.023   2.268  14.855  0.2798  0.1118  0.4315
  875MPD2    H512843   2.104   2.313  14.897  0.9675  0.8835 -1.7246
  875MPD2    N112844   1.842   2.155  14.401  0.3767 -0.0930 -0.1489
  875MPD2    H712845   1.755   2.200  14.429  0.3497 -0.8063  0.9032
  876MPD2     C12846   0.569   3.333  15.721 -0.3530 -0.0575  0.2896
  876MPD2    C112847   0.697   3.331  15.784  0.3611  0.3521  0.0826
  876MPD2    C212848   0.734   3.222  15.859  0.0480  0.1717 -0.7637
  876MPD2    C312849   0.639   3.125  15.881  0.1571  0.1648  0.4899
  876MPD2    C412850   0.514   3.140  15.837 -0.4068 -0.2158  0.0043
  876MPD2    C512851   0.487   3.233  15.742 -0.5113  0.5573 -0.3500
  876MPD2     H12852   0.834   3.210  15.900 -1.2281 -1.2085  1.8748
  876MPD2    H112853   0.440   3.064  15.858 -0.4487 -0.1169  0.2043
  876MPD2    H212854   0.543   3.414  15.654 -1.5329  1.2760  2.3756
  876MPD2    H312855   0.396   3.221  15.685 -0.5418 -0.1945 -0.1434
  876MPD2     N12856   0.681   3.013  15.950 -0.5765 -0.9017  0.2914
  876MPD2    H512857   0.780   2.994  15.958 -0.6750 -0.6627  2.2158
  876MPD2    N112858   0.775   3.446  15.765  0.2103 -0.3731 -0.9298
  876MPD2    H712859   0.737   3.514  15.701  0.2978  0.1168 -0.4587
  877MPD2     C12860   0.742   3.766  15.246  0.0748 -0.5368  0.0677
  877MPD2    C112861   0.873   3.797  15.266  0.5344  0.3570 -0.0404
  877MPD2    C212862   0.960   3.772  15.160  1.2869  0.0230  0.5392
  877MPD2    C312863   0.926   3.730  15.034  0.7967 -0.3364 -0.4399
  877MPD2    C412864   0.791   3.698  15.019 -0.2610 -0.4584 -0.1960
  877MPD2    C512865   0.705   3.719  15.124 -0.3554  0.6720  0.1058
  877MPD2     H12866   1.067   3.782  15.178  1.3773  0.1987 -0.0947
  877MPD2    H112867   0.757   3.661  14.923  0.9113 -0.9450 -0.4314
  877MPD2    H212868   0.665   3.776  15.323 -1.4109 -1.4489 -1.3049
  877MPD2    H312869   0.604   3.685  15.104  0.0566 -0.3664 -0.1892
  877MPD2     N12870   1.012   3.735  14.928  0.1172  0.0170 -0.3938
  877MPD2    H512871   0.976   3.705  14.838  0.1299  0.8022 -0.6639
  877MPD2    N112872   0.937   3.823  15.395 -0.4789 -0.3226 -0.7621
  877MPD2    H712873   1.035   3.801  15.406 -0.8321 -2.1381 -1.2200
  878MPD2     C12874   0.238   3.129  13.241  0.5628  0.3165  0.1148
  878MPD2    C112875   0.348   3.185  13.299 -0.0243 -0.3005 -0.7055
  878MPD2    C212876   0.349   3.194  13.432 -0.9589 -0.2913 -0.5960
  878MPD2    C312877   0.247   3.133  13.505 -0.6046 -0.4713  0.7328
  878MPD2    C412878   0.140   3.076  13.448  0.2578 -0.1938 -0.2640
  878MPD2    C512879   0.132   3.083  13.311 -0.5201  0.1277 -0.3792
  878MPD2     H12880   0.421   3.256  13.484 -0.1854 -2.0047  0.3782
  878MPD2    H112881   0.045   3.060  13.498  0.8486  1.0735  1.2594
  878MPD2    H212882   0.230   3.114  13.134  0.2278 -0.1204  0.1961
  878MPD2    H312883   0.046   3.043  13.259  0.2199 -1.8817 -0.0700
  878MPD2     N12884   0.255   3.146  13.647 -0.3249 -0.4645  0.0339
  878MPD2    H512885   0.321   3.212  13.686 -1.3578  0.5991 -0.0177
  878MPD2    N112886   0.440   3.259  13.214 -0.6478  0.1679 -0.6662
  878MPD2    H712887   0.417   3.256  13.115 -0.9175  2.4562 -0.6748
  879MPD2     C12888   0.845   0.060  16.801 -0.4743 -0.0790 -0.9262
  879MPD2    C112889   0.908   4.667  16.831  0.0420  0.1618 -1.0299
  879MPD2    C212890   0.852   4.548  16.787 -0.3945 -0.3826  0.2370
  879MPD2    C312891   0.738   4.549  16.713 -0.2107 -0.6549 -0.1143
  879MPD2    C412892   0.676   4.673  16.693  0.6517  0.9088  0.5739
  879MPD2    C512893   0.731   0.066  16.734 -0.1381 -0.0374 -0.7674
  879MPD2     H12894   0.906   4.457  16.811  0.4376 -0.5737 -2.2915
  879MPD2    H112895   0.593   4.687  16.625  2.3389  0.5378 -1.5545
  879MPD2    H212896   0.888   0.158  16.817  2.1466 -1.8205  2.5850
  879MPD2    H312897   0.700   0.165  16.705 -2.7203  0.2345  2.8664
  879MPD2     N12898   0.683   4.435  16.656 -0.3743  0.3921  0.3105
  879MPD2    H512899   0.622   4.442  16.575  1.5755  0.4586 -1.1536
  879MPD2    N112900   1.036   4.680  16.894  0.1106  0.0860 -0.0288
  879MPD2    H712901   1.053   0.047  16.931 -0.4172  0.1857 -0.0386
  880MPD2     C12902   3.013   1.041  17.601 -0.0319  0.2665  0.5497
  880MPD2    C112903   2.954   1.026   0.019  0.8942 -0.1381  0.1448
  880MPD2    C212904   2.957   0.898   0.073 -0.4577 -0.8663  0.4194
  880MPD2    C312905   3.014   0.788   0.001 -0.1525 -0.4084 -0.6906
  880MPD2    C412906   3.060   0.814  17.578 -0.3964  0.0056 -0.4156
  880MPD2    C512907   3.060   0.938  17.525  0.0194 -0.2264  0.4056
  880MPD2     H12908   2.914   0.868   0.168 -2.9441  1.2071 -0.0639
  880MPD2    H112909   3.096   0.738  17.509  0.4175  1.0639 -1.1482
  880MPD2    H212910   3.033   1.137  17.556 -0.3173  0.2161  0.3242
  880MPD2    H312911   3.107   0.963  17.430 -2.1971  1.7394 -0.1804
  880MPD2     N12912   3.005   0.663   0.060 -0.6713  0.0159  0.4730
  880MPD2    H512913   2.962   0.662   0.152 -1.0853 -0.1096  0.2750
  880MPD2    N112914   2.889   1.131   0.075 -0.2320  0.3701  0.6856
  880MPD2    H712915   2.902   1.215   0.020  0.8982  0.0866  0.5227
  881MPD2     C12916   2.412   1.921  17.470  0.3253  0.0534  0.9345
  881MPD2    C112917   2.471   1.805  17.426 -0.1865 -0.0538 -0.7667
  881MPD2    C212918   2.524   1.715  17.519 -0.1043 -0.4972 -0.2391
  881MPD2    C312919   2.519   1.738  17.655  0.2009 -0.5359  0.1836
  881MPD2    C412920   2.460   1.850  17.695  0.3637 -0.9277  0.4195
  881MPD2    C512921   2.406   1.938  17.609 -0.3036  0.7835  0.0990
  881MPD2     H12922   2.588   1.633  17.487  0.2978 -0.4395  0.4287
  881MPD2    H112923   2.459   1.863   0.097  1.1251  0.6143  0.2351
  881MPD2    H212924   2.414   2.013  17.413  0.4503 -0.4863  0.0755
  881MPD2    H312925   2.368   2.032  17.648  0.6827  1.0128  0.5048
  881MPD2     N12926   2.557   1.642   0.044 -0.0663  0.7995 -0.0789
  881MPD2    H512927   2.560   1.662   0.144  2.6747 -0.0413  0.0068
  881MPD2    N112928   2.521   1.801  17.294  0.3955  0.6529 -0.4542
  881MPD2    H712929   2.491   1.873  17.229 -1.2294 -1.2610 -1.8530
  882MPD2     C12930   0.943   3.618  14.155 -1.1440 -0.3137 -0.1028
  882MPD2    C112931   0.913   3.715  14.247 -0.3139  0.2265 -0.2446
  882MPD2    C212932   0.792   3.787  14.231 -0.0433  0.1463 -0.5944
  882MPD2    C312933   0.704   3.757  14.130  0.5726 -0.1540  0.5828
  882MPD2    C412934   0.737   3.663  14.039  0.0845  0.3468  0.2694
  882MPD2    C512935   0.857   3.593  14.051  0.5148  0.7133 -0.4371
  882MPD2     H12936   0.773   3.868  14.300 -0.4187  0.9002 -1.5750
  882MPD2    H112937   0.672   3.649  13.954 -0.7083  2.2392  0.5556
  882MPD2    H212938   1.029   3.552  14.163 -2.4686 -1.9741  0.3544
  882MPD2    H312939   0.880   3.517  13.976 -1.4374 -0.7008  0.3931
  882MPD2     N12940   0.574   3.813  14.114 -0.7282 -0.4656  0.0389
  882MPD2    H512941   0.514   3.771  14.045 -0.0980 -0.9209 -0.2363
  882MPD2    N112942   1.007   3.737  14.352  0.1891 -0.2833 -0.1650
  882MPD2    H712943   1.084   3.671  14.351 -0.6702 -1.2705 -1.9796
  883MPD2     C12944   3.085   3.875  16.592 -0.5747  0.6825  0.2874
  883MPD2    C112945   3.131   3.931  16.473  0.1836 -0.0140  0.0126
  883MPD2    C212946   3.248   4.001  16.475 -0.5995  0.5474  0.0317
  883MPD2    C312947   3.318   4.023  16.591  0.5821 -0.0991  0.4403
  883MPD2    C412948   3.277   3.959  16.707 -0.1681 -0.3800  0.0012
  883MPD2    C512949   3.163   3.887  16.703  0.3856 -0.5644 -0.0528
  883MPD2     H12950   3.288   4.052  16.389 -0.2289  1.6534  0.8642
  883MPD2    H112951   3.328   3.973  16.802 -1.1512 -2.8085  0.8872
  883MPD2    H212952   2.994   3.819  16.609  0.1037  0.0644  1.9058
  883MPD2    H312953   3.132   3.842  16.796  2.3903 -0.7360  0.5473
  883MPD2     N12954   3.430   4.098  16.567 -0.2585  0.7272  0.3286
  883MPD2    H512955   3.449   4.124  16.471  0.1836  2.8957  0.9944
  883MPD2    N112956   3.057   3.902  16.348 -0.4346  0.3812 -0.0335
  883MPD2    H712957   3.099   3.942  16.265  0.6547  1.6014  1.1064
  884MPD2     C12958   4.555   4.200  15.257 -0.1378 -0.3901 -0.3030
  884MPD2    C112959   4.548   4.306  15.171 -1.5796 -0.5646 -0.1695
  884MPD2    C212960   4.444   4.391  15.199  0.4093 -0.0742 -0.3019
  884MPD2    C312961   4.349   4.371  15.300 -0.2819  0.0681  0.1817
  884MPD2    C412962   4.360   4.261  15.380 -0.3761  1.6459 -0.0749
  884MPD2    C512963   4.470   4.182  15.363  0.0905  0.4179  0.4063
  884MPD2     H12964   4.441   4.482  15.141  0.6812  0.2326  0.1623
  884MPD2    H112965   4.288   4.232  15.456  0.1212  1.7188  0.4288
  884MPD2    H212966   4.624   4.118  15.243 -0.1493 -0.8031  2.0918
  884MPD2    H312967   4.478   4.091  15.422  1.7029 -0.1546 -0.6937
  884MPD2     N12968   4.241   4.470  15.318 -0.7415 -0.7709 -0.0141
  884MPD2    H512969   4.255   4.551  15.258  1.4427  0.8777  2.6807
  884MPD2    N112970   4.640   4.345  15.072 -0.3588 -0.3632  0.2117
  884MPD2    H712971   4.610   4.420  15.011 -2.6267 -2.2561 -1.0092
  885MPD2     C12972   2.972   4.157  17.700 -0.1315 -0.1115 -0.1737
  885MPD2    C112973   3.078   4.244  17.693 -0.3756 -0.3190 -0.0380
  885MPD2    C212974   3.093   4.330  17.589 -0.0678  0.2097  0.6264
  885MPD2    C312975   2.999   4.324  17.481  0.0645  0.0992 -0.3071
  885MPD2    C412976   2.889   4.235  17.494 -0.2834  0.0970  0.4707
  885MPD2    C512977   2.872   4.148  17.603 -0.2516 -0.3200  0.1325
  885MPD2     H12978   3.175   4.401  17.589 -0.8479  1.1130 -1.9560
  885MPD2    H112979   2.815   4.224  17.416  0.9751 -1.3245 -0.5221
  885MPD2    H212980   2.958   4.098   0.085  1.7031 -1.3901 -0.7539
  885MPD2    H312981   2.786   4.085  17.619  0.4346 -1.2492  0.1584
  885MPD2     N12982   3.012   4.412  17.371  0.4488 -0.5432 -0.1768
  885MPD2    H512983   3.094   4.471  17.368  0.3265 -0.2537  1.8793
  885MPD2    N112984   3.161   4.243   0.102 -0.1662 -0.4427 -0.5947
  885MPD2    H712985   3.159   4.157   0.156 -1.8556 -1.0324 -1.6005
  886MPD2     C12986   4.138   3.048  15.538  0.4786 -0.0593  0.3257
  886MPD2    C112987   4.228   3.024  15.439 -0.6131  0.2921  0.3471
  886MPD2    C212988   4.282   3.130  15.372  0.6049 -0.2661 -0.4401
  886MPD2    C312989   4.241   3.262  15.400 -0.0592  0.0713  0.1325
  886MPD2    C412990   4.137   3.283  15.483 -0.0093 -0.4288 -0.2819
  886MPD2    C512991   4.083   3.175  15.548 -1.1321  0.1450  0.3421
  886MPD2     H12992   4.367   3.110  15.307 -1.1491  0.8648 -3.0587
  886MPD2    H112993   4.092   3.379  15.502  1.7103  0.2855  0.2214
  886MPD2    H212994   4.086   2.968  15.589  1.3838 -1.0495 -0.2853
  886MPD2    H312995   3.999   3.195  15.613 -0.8750  1.4795  0.2558
  886MPD2     N12996   4.304   3.374  15.345  0.1727 -0.3310 -0.3409
  886MPD2    H512997   4.260   3.465  15.360  1.1079  0.2457 -1.0665
  886MPD2    N112998   4.283   2.900  15.403  0.3966  0.2037  0.4647
  886MPD2    H712999   4.342   2.893  15.321 -2.2938 -0.4012 -1.4347
  887MPD2     C13000   0.177   2.906  15.339  0.6632  0.5123 -0.2138
  887MPD2    C113001   0.040   2.936  15.349 -0.3415 -0.2731  0.3037
  887MPD2    C213002   0.005   3.062  15.394 -0.0650  0.0227 -0.0353
  887MPD2    C313003   0.103   3.160  15.418 -0.7134  0.1672 -0.5888
  887MPD2    C413004   0.236   3.124  15.390 -0.6047 -0.0278 -0.1369
  887MPD2    C513005   0.268   2.999  15.356  0.2973  0.5526  0.0474
  887MPD2     H13006   4.627   3.092  15.404 -0.0820 -0.7816  2.0995
  887MPD2    H113007   0.315   3.199  15.387  0.0276 -0.6211  1.8247
  887MPD2    H213008   0.209   2.808  15.308 -1.9555  0.0561 -1.4956
  887MPD2    H313009   0.372   2.975  15.338 -0.2053 -0.1267 -1.9032
  887MPD2     N13010   0.072   3.290  15.466  0.2100 -0.0408  0.0306
  887MPD2    H513011   4.700   3.318  15.464  0.8157  2.0030 -0.2839
  887MPD2    N113012   4.664   2.842  15.330 -0.5576  0.7256  0.2112
  887MPD2    H713013   4.567   2.867  15.348 -0.0916  1.4840  1.6219
  888MPD2     C13014   1.916   3.009  14.965  0.3237  0.3636 -0.0753
  888MPD2    C113015   1.861   3.082  15.070  0.1825 -0.6690  0.4020
  888MPD2    C213016   1.910   3.210  15.079 -0.2147 -0.2912 -0.2831
  888MPD2    C313017   1.989   3.281  14.987 -0.4514 -0.3543  0.7108
  888MPD2    C413018   2.035   3.201  14.883  0.2320 -0.1718  0.4688
  888MPD2    C513019   2.005   3.068  14.873  0.4393  0.0524 -0.2882
  888MPD2     H13020   1.872   3.253  15.171  1.2011  3.7267 -1.5502
  888MPD2    H113021   2.096   3.232  14.799 -0.4337  2.4579  0.9382
  888MPD2    H213022   1.907   2.902  14.957 -1.8603  0.5860 -0.3718
  888MPD2    H313023   2.036   2.998  14.796 -2.0835  2.1375 -3.1811
  888MPD2     N13024   2.014   3.420  15.001 -0.1080 -0.0790  0.3719
  888MPD2    H513025   1.974   3.466  15.082  0.5740  2.6292 -0.8418
  888MPD2    N113026   1.771   3.025  15.162 -0.4093 -0.1206 -0.1630
  888MPD2    H713027   1.740   3.086  15.238 -0.1616 -1.4392  1.0048
  889MPD2     C13028   0.982   2.767  12.752  0.0764  0.4206  0.6934
  889MPD2    C113029   1.091   2.766  12.839  0.7396  0.2575 -0.1443
  889MPD2    C213030   1.107   2.878  12.922 -0.2871 -0.4300 -0.0854
  889MPD2    C313031   1.022   2.986  12.914 -0.0154  0.3067 -0.1193
  889MPD2    C413032   0.919   2.993  12.817 -0.1297  0.1205  0.7785
  889MPD2    C513033   0.904   2.884  12.737  0.0449 -0.2313 -0.0463
  889MPD2     H13034   1.174   2.868  13.006 -0.2428  0.9925  0.0416
  889MPD2    H113035   0.850   3.075  12.802 -0.9081 -0.3888  1.5698
  889MPD2    H213036   0.957   2.680  12.693 -0.3903  1.7509 -1.0418
  889MPD2    H313037   0.813   2.872  12.679  0.5544  0.7542 -1.0365
  889MPD2     N13038   1.043   3.092  13.007 -0.2604  0.7902 -0.6446
  889MPD2    H513039   1.104   3.078  13.086  0.0019  4.1936 -0.2535
  889MPD2    N113040   1.140   2.638  12.858 -0.4678  0.1263  0.3469
  889MPD2    H713041   1.097   2.567  12.799 -1.5964  2.1311 -1.2071
  890MPD2     C13042   0.923   4.280  14.472 -0.1596 -0.2044  0.5245
  890MPD2    C113043   1.018   4.327  14.558 -0.1440  0.0349  0.0314
  890MPD2    C213044   1.004   4.300  14.691  0.6094  0.2461 -0.6925
  890MPD2    C313045   0.915   4.209  14.738 -0.1930 -0.2083 -0.6034
  890MPD2    C413046   0.827   4.148  14.650  0.5121  0.8427 -0.3316
  890MPD2    C513047   0.832   4.189  14.517  0.0986 -0.1363  0.2483
  890MPD2     H13048   1.077   4.334  14.765  1.3699 -1.0346 -0.8481
  890MPD2    H113049   0.759   4.066  14.672  2.8819 -1.3549 -1.2610
  890MPD2    H213050   0.918   4.316  14.370 -3.4282  1.3124  1.2209
  890MPD2    H313051   0.771   4.138  14.443 -0.7156  1.5787 -0.2404
  890MPD2     N13052   0.926   4.180  14.875 -0.2402 -0.6429  0.0463
  890MPD2    H513053   1.006   4.219  14.924 -0.6613  0.6675 -0.3012
  890MPD2    N113054   1.115   4.418  14.511 -0.1843  0.1965 -0.5673
  890MPD2    H713055   1.105   4.451  14.415  0.2492  3.5121  0.5288
  891MPD2     C13056   3.618   3.074  16.528  0.3289 -0.4869  0.0426
  891MPD2    C113057   3.541   3.103  16.641 -0.9804  1.1090  0.2657
  891MPD2    C213058   3.566   3.026  16.752 -1.1235  0.7222  0.0301
  891MPD2    C313059   3.663   2.922  16.756 -0.4631  1.2932  0.9107
  891MPD2    C413060   3.740   2.904  16.647 -0.6835  0.8072  0.1608
  891MPD2    C513061   3.723   2.988  16.539 -0.2302  0.0749 -0.1457
  891MPD2     H13062   3.511   3.049  16.842 -1.0654 -2.1401  0.8026
  891MPD2    H113063   3.814   2.824  16.641 -1.0633  0.3205  1.9962
  891MPD2    H213064   3.612   3.146  16.447  1.3883  1.1332  1.4027
  891MPD2    H313065   3.785   2.968  16.452 -0.6230 -1.8928  0.0079
  891MPD2     N13066   3.667   2.845  16.873  0.4796 -0.3342  0.0687
  891MPD2    H513067   3.594   2.853  16.943 -0.2234 -1.3567 -0.5441
  891MPD2    N113068   3.448   3.208  16.635  0.5507 -0.1399  0.8889
  891MPD2    H713069   3.435   3.257  16.547  0.7593 -1.2277  0.2534
  892MPD2     C13070   0.041   3.955  14.918  0.4450  0.3006  0.6031
  892MPD2    C113071   4.682   4.008  14.822 -0.7383  0.0424  0.6480
  892MPD2    C213072   0.006   4.026  14.696  0.7428  0.4885 -0.2625
  892MPD2    C313073   0.133   3.988  14.661  0.0380 -0.0248  0.3336
  892MPD2    C413074   0.211   3.920  14.756  0.0934  0.4769 -0.4607
  892MPD2    C513075   0.162   3.910  14.877 -0.0222  0.5030  0.5228
  892MPD2     H13076   4.669   4.084  14.630 -0.6813 -1.5717 -0.7187
  892MPD2    H113077   0.310   3.877  14.741 -0.3075 -0.2902 -0.9027
  892MPD2    H213078   0.011   3.929  15.019  0.6407 -1.6121  0.1657
  892MPD2    H313079   0.224   3.850  14.943 -2.3888 -0.5744  1.7553
  892MPD2     N13080   0.175   3.988  14.530  0.7489  0.0904  0.0506
  892MPD2    H513081   0.267   3.947  14.518  0.4514  0.4574 -3.5167
  892MPD2    N113082   4.552   4.046  14.856 -0.4839 -0.1327 -0.6063
  892MPD2    H713083   4.505   4.099  14.783  0.3434 -0.7348 -1.5777
  893MPD2     C13084   2.223   2.197   1.530  0.0280  0.2884 -0.0050
  893MPD2    C113085   2.254   2.206   1.661 -0.1335 -0.8085  0.1792
  893MPD2    C213086   2.180   2.134   1.751 -0.1251 -0.4012 -0.2898
  893MPD2    C313087   2.079   2.047   1.704 -0.2749 -0.5871  0.5302
  893MPD2    C413088   2.058   2.033   1.567  0.0079 -0.4319 -0.3699
  893MPD2    C513089   2.129   2.110   1.486 -0.7858 -0.7363 -0.2808
  893MPD2     H13090   2.200   2.140   1.857  0.2397  1.2337 -0.4456
  893MPD2    H113091   1.985   1.968   1.520  1.6087 -2.6721  0.2588
  893MPD2    H213092   2.266   2.263   1.455  0.4578  1.5951  1.3986
  893MPD2    H313093   2.111   2.109   1.379  2.5874 -0.3152 -0.8619
  893MPD2     N13094   2.008   1.969   1.791  0.0384 -0.0372  0.1777
  893MPD2    H513095   1.956   1.891   1.750  0.6253  0.7462 -2.0880
  893MPD2    N113096   2.361   2.292   1.695  0.6497  0.0449  0.1446
  893MPD2    H713097   2.422   2.320   1.619  0.7240  0.6220  0.4143
  894MPD2     C13098   4.702   0.124   0.673 -0.6906  0.0201  0.1903
  894MPD2    C113099   0.043   0.145   0.790 -0.4983 -0.0322  0.2067
  894MPD2    C213100   0.169   0.202   0.774  0.1373  0.3513 -0.2092
  894MPD2    C313101   0.230   0.237   0.653 -0.4548 -0.2501 -0.3396
  894MPD2    C413102   0.163   0.205   0.538  0.5381  0.2641  0.2392
  894MPD2    C513103   0.037   0.156   0.550  0.3906  0.0371  0.2624
  894MPD2     H13104   0.216   0.239   0.864  0.8084  0.3992 -0.5742
  894MPD2    H113105   0.197   0.216   0.436 -2.2968 -0.2429 -0.7433
  894MPD2    H213106   4.613   0.062   0.674 -1.1053  0.6081 -0.7680
  894MPD2    H313107   4.699   0.119   0.470 -0.5682 -1.4248  1.7081
  894MPD2     N13108   0.358   0.295   0.659 -0.3302  0.2192 -0.1027
  894MPD2    H513109   0.389   0.319   0.752 -0.6204 -0.0158  0.0536
  894MPD2    N113110   4.715   0.129   0.921  0.2117 -0.8941 -0.1516
  894MPD2    H713111   0.059   0.142   0.994  0.0710  1.0788 -0.3716
  895MPD2     C13112   4.309   2.862  13.468  0.6542  0.2095  0.4801
  895MPD2    C113113   4.253   2.859  13.345 -0.0283 -0.6245  0.0473
  895MPD2    C213114   4.243   2.732  13.290 -0.6972 -0.8553  0.2218
  895MPD2    C313115   4.279   2.612  13.363 -0.3139 -0.1897 -0.4809
  895MPD2    C413116   4.333   2.628  13.493 -0.9510  1.1208 -1.1773
  895MPD2    C513117   4.353   2.758  13.547 -1.0406 -0.6903 -0.0614
  895MPD2     H13118   4.181   2.715  13.203 -0.3115  1.2603 -0.4553
  895MPD2    H113119   4.372   2.540  13.541 -2.1079  1.9522  1.2870
  895MPD2    H213120   4.315   2.952  13.529 -0.5092  0.3798  0.3432
  895MPD2    H313121   4.404   2.771  13.641 -0.6873  1.1025 -0.5065
  895MPD2     N13122   4.279   2.482  13.314 -0.1235 -0.2516  0.0925
  895MPD2    H513123   4.318   2.416  13.381 -0.3735  1.3220  1.7671
  895MPD2    N113124   4.224   2.976  13.263  0.5399 -0.0704 -0.0141
  895MPD2    H713125   4.182   2.963  13.171  0.7365 -2.6985  0.2611
  896MPD2     C13126   1.518   0.691   1.812 -0.6034 -0.7079 -0.4761
  896MPD2    C113127   1.584   0.746   1.704 -0.1018 -0.1033 -0.0865
  896MPD2    C213128   1.543   0.706   1.574 -0.3158  0.0700  0.6108
  896MPD2    C313129   1.449   0.606   1.556 -0.2015 -0.1710 -0.3652
  896MPD2    C413130   1.394   0.549   1.673  0.5023  1.1956  0.5760
  896MPD2    C513131   1.416   0.602   1.795 -0.4578  0.3956 -0.1227
  896MPD2     H13132   1.589   0.744   1.483 -0.4351 -1.7480 -0.1993
  896MPD2    H113133   1.329   0.462   1.667 -0.1877  1.8014 -1.0298
  896MPD2    H213134   1.529   0.733   1.911  1.3696 -3.0316  0.2929
  896MPD2    H313135   1.364   0.557   1.879 -2.5284  0.2949 -1.4698
  896MPD2     N13136   1.417   0.565   1.424  0.5932 -0.4333  0.3822
  896MPD2    H513137   1.445   0.625   1.347 -1.5057 -0.2262 -0.2154
  896MPD2    N113138   1.687   0.837   1.712  0.0042 -0.3870 -1.0156
  896MPD2    H713139   1.723   0.870   1.623  0.3733 -0.4673 -0.8930
  897MPD2     C13140   3.200   3.037  10.888  0.1834 -0.4954  0.2464
  897MPD2    C113141   3.144   2.999  10.767  0.4276  0.1873  1.0276
  897MPD2    C213142   3.054   2.893  10.766  0.3720 -0.4269  0.2796
  897MPD2    C313143   3.013   2.827  10.882  0.2226 -0.0219 -0.3347
  897MPD2    C413144   3.084   2.857  10.994 -0.6271  0.4987 -0.8696
  897MPD2    C513145   3.174   2.957  11.000  0.2695 -0.2151 -0.0875
  897MPD2     H13146   2.988   2.883  10.681 -0.2762 -0.9899  0.8356
  897MPD2    H113147   3.057   2.805  11.085 -1.6513  0.5931 -1.1180
  897MPD2    H213148   3.256   3.129  10.900 -1.1348  0.1833  1.3370
  897MPD2    H313149   3.220   2.982  11.095 -0.1758  0.0358  0.0566
  897MPD2     N13150   2.898   2.744  10.870 -0.5556 -0.7102  0.1566
  897MPD2    H513151   2.860   2.739  10.776 -0.5495  0.9537  0.0756
  897MPD2    N113152   3.178   3.071  10.648 -0.0779  0.0684 -0.0722
  897MPD2    H713153   3.222   3.162  10.658  0.3713 -0.2813  1.0835
  898MPD2     C13154   4.645   3.109  17.086  0.1996  0.0544  0.6988
  898MPD2    C113155   0.027   3.143  17.164 -0.2748 -0.4554 -0.5783
  898MPD2    C213156   0.050   3.278  17.195  0.8225 -0.6442  0.0301
  898MPD2    C313157   4.689   3.381  17.154  0.3894  0.1489 -0.1511
  898MPD2    C413158   4.572   3.341  17.090 -0.0314 -1.3686 -0.5668
  898MPD2    C513159   4.558   3.209  17.052  0.1323 -0.3097  0.1236
  898MPD2     H13160   0.131   3.317  17.255  2.4975 -2.6436 -0.9461
  898MPD2    H113161   4.491   3.411  17.073  0.6119 -0.6774 -0.8044
  898MPD2    H213162   4.617   3.007  17.065 -3.4173  1.4574 -1.4166
  898MPD2    H313163   4.472   3.192  16.988  0.8608  0.0994 -0.9665
  898MPD2     N13164   4.714   3.515  17.194  0.3581 -0.3547 -0.3900
  898MPD2    H513165   0.081   3.545  17.222  0.1107  0.8431 -0.8411
  898MPD2    N113166   0.128   3.050  17.196  0.0248 -0.1251  0.3770
  898MPD2    H713167   0.201   3.078  17.260  1.6086 -2.3814 -0.4257
  899MPD2     C13168   0.596   4.084  17.398  0.3762 -0.5939  0.5890
  899MPD2    C113169   0.514   4.193  17.408 -0.5010  0.3898 -0.6950
  899MPD2    C213170   0.432   4.198  17.521  0.3539  0.2823 -0.2939
  899MPD2    C313171   0.441   4.112  17.628  0.8140 -0.3957 -0.3384
  899MPD2    C413172   0.529   4.013  17.618  0.0206  0.2069  0.5047
  899MPD2    C513173   0.605   3.999  17.503 -0.4756  0.2634 -0.1672
  899MPD2     H13174   0.358   4.276  17.530  0.9783  0.9310 -0.7225
  899MPD2    H113175   0.536   3.939  17.697 -0.0459 -0.1596  0.1637
  899MPD2    H213176   0.658   4.064  17.311 -0.3860 -0.9723  0.1294
  899MPD2    H313177   0.672   3.914  17.489  0.3792  0.5826  2.0315
  899MPD2     N13178   0.366   4.137   0.039 -0.0868  0.5242 -0.0525
  899MPD2    H513179   0.316   4.225   0.041 -2.1598 -0.6689 -0.0692
  899MPD2    N113180   0.517   4.293  17.311 -0.0457  0.3838 -0.5416
  899MPD2    H713181   0.549   4.267  17.218  0.4384 -0.3563 -0.1656
  900MPD2     C13182   0.348   1.100  12.454 -0.4477  0.3599 -0.3263
  900MPD2    C113183   0.315   1.026  12.342  0.2527  0.3624  0.1325
  900MPD2    C213184   0.234   1.086  12.247  0.1231 -0.3247  0.3636
  900MPD2    C313185   0.191   1.215  12.257  0.2499 -0.4015  0.3914
  900MPD2    C413186   0.229   1.289  12.370  0.6307  0.3869 -0.3922
  900MPD2    C513187   0.304   1.228  12.466  0.4214 -0.7278  0.6747
  900MPD2     H13188   0.204   1.033  12.158 -0.0624 -0.1938  0.3485
  900MPD2    H113189   0.207   1.395  12.379  0.9686  0.5209 -1.1106
  900MPD2    H213190   0.404   1.058  12.537  0.7075  3.5021  0.4723
  900MPD2    H313191   0.345   1.284  12.550 -0.3963  0.3779  0.3405
  900MPD2     N13192   0.099   1.270  12.156  0.0815 -0.1314  0.4811
  900MPD2    H513193   0.058   1.209  12.086  1.2747  0.8636 -1.0912
  900MPD2    N113194   0.362   0.889  12.341 -0.8038  0.8462 -0.0138
  900MPD2    H713195   0.408   0.855  12.425 -1.2899  1.5838  0.5585
  901MPD2     C13196   0.438   0.041  12.880 -0.1412  0.6371 -0.4276
  901MPD2    C113197   0.563   0.082  12.841  0.2679  0.6522  0.1433
  901MPD2    C213198   0.575   0.190  12.751 -0.4422  0.3434  0.1150
  901MPD2    C313199   0.462   0.257  12.705 -0.0348 -0.2431  0.1853
  901MPD2    C413200   0.339   0.207  12.741  0.6424 -0.3738 -0.6846
  901MPD2    C513201   0.335   0.102  12.827  0.4403  0.0124 -0.2221
  901MPD2     H13202   0.675   0.224  12.726  0.1259 -1.3865 -0.0093
  901MPD2    H113203   0.247   0.250  12.703 -0.2069  0.4650  2.3544
  901MPD2    H213204   0.424   4.680  12.943 -0.6285  0.6754 -0.4801
  901MPD2    H313205   0.234   0.067  12.845  0.5667 -1.1847 -1.8276
  901MPD2     N13206   0.488   0.362  12.607  0.7182 -0.2537  0.6977
  901MPD2    H513207   0.585   0.378  12.584  0.4960 -0.0557 -0.1022
  901MPD2    N113208   0.672   0.011  12.891  0.4463 -0.5932 -0.3265
  901MPD2    H713209   0.650   4.654  12.945 -1.4162 -0.1412 -0.3886
  902MPD2     C13210   3.817   3.178  12.253 -0.1475 -0.8333 -1.2985
  902MPD2    C113211   3.871   3.262  12.157  1.1275  0.7611 -0.0554
  902MPD2    C213212   3.884   3.217  12.025 -0.2671 -0.6181 -0.6934
  902MPD2    C313213   3.836   3.098  11.989  0.7794  0.8487  0.0684
  902MPD2    C413214   3.786   3.010  12.085  0.2394 -0.6946 -0.5569
  902MPD2    C513215   3.775   3.056  12.218 -0.8987  0.1086 -0.3236
  902MPD2     H13216   3.939   3.278  11.954  0.8474 -0.1884  0.5316
  902MPD2    H113217   3.742   2.915  12.055 -2.8651  0.6563 -0.2972
  902MPD2    H213218   3.804   3.199  12.358 -0.7310  0.5827 -1.6527
  902MPD2    H313219   3.734   2.980  12.283 -1.2859  1.3419  0.8681
  902MPD2     N13220   3.849   3.068  11.848 -0.4627 -0.2395 -0.1664
  902MPD2    H513221   3.897   3.131  11.786  2.2656  0.1464  2.3846
  902MPD2    N113222   3.924   3.380  12.201  0.1838 -0.3580 -0.2038
  902MPD2    H713223   3.938   3.380  12.302 -2.3984 -3.6644  0.1947
  903MPD2     C13224   4.346   3.254  11.677 -0.6076 -0.0825 -0.2854
  903MPD2    C113225   4.231   3.237  11.610 -0.1934  0.4828 -0.9226
  903MPD2    C213226   4.132   3.334  11.596  0.2466 -0.0783 -0.1786
  903MPD2    C313227   4.166   3.461  11.636 -0.2155  0.3884 -0.3023
  903MPD2    C413228   4.281   3.472  11.717 -0.7274  0.1999  0.2758
  903MPD2    C513229   4.375   3.372  11.730  0.2376  0.4385 -0.2411
  903MPD2     H13230   4.033   3.318  11.555  0.7903 -0.3201 -1.3836
  903MPD2    H113231   4.309   3.564  11.767  1.4626 -0.7230  0.7696
  903MPD2    H213232   4.400   3.170  11.719 -0.7102 -0.4950 -0.9930
  903MPD2    H313233   4.469   3.383  11.784 -0.5611  0.1762  1.1904
  903MPD2     N13234   4.068   3.562  11.619 -0.4170 -0.0347 -0.7950
  903MPD2    H513235   3.987   3.533  11.566 -1.1946 -0.9626  0.9014
  903MPD2    N113236   4.205   3.106  11.559  0.1352 -0.1541 -0.4170
  903MPD2    H713237   4.262   3.030  11.596 -1.1566 -1.6957 -1.6000
  904MPD2     C13238   4.217   2.363  13.754  0.3428  0.1990  0.6437
  904MPD2    C113239   4.172   2.491  13.736  0.8750  0.0465  0.3562
  904MPD2    C213240   4.240   2.589  13.809 -0.3085 -0.0564 -0.3323
  904MPD2    C313241   4.347   2.561  13.898 -0.7998  0.1064  0.1162
  904MPD2    C413242   4.386   2.432  13.909  0.5281 -0.9318 -0.2430
  904MPD2    C513243   4.314   2.334  13.847  0.8517  0.0745  0.1532
  904MPD2     H13244   4.218   2.694  13.792  0.4880  0.4033  1.4729
  904MPD2    H113245   4.465   2.398  13.976  0.2297 -0.8099  0.1754
  904MPD2    H213246   4.165   2.278  13.712  0.2718  1.6140 -2.1208
  904MPD2    H313247   4.336   2.230  13.865 -0.6042 -0.0271  1.2932
  904MPD2     N13248   4.401   2.669  13.965  0.4486  0.3247  0.1723
  904MPD2    H513249   4.355   2.758  13.953  1.9475  1.1229  0.2583
  904MPD2    N113250   4.071   2.531  13.643  0.0764  0.1434 -0.2707
  904MPD2    H713251   4.028   2.621  13.661 -0.1002 -0.4530  2.2808
  905MPD2     C13252   3.728   2.031  13.148 -0.6026 -0.6237 -0.4566
  905MPD2    C113253   3.796   2.147  13.119  0.1255  0.1413 -0.3464
  905MPD2    C213254   3.898   2.146  13.027  0.3728  0.0111 -0.3854
  905MPD2    C313255   3.927   2.033  12.956 -0.3750 -0.2718 -0.4519
  905MPD2    C413256   3.849   1.922  12.978 -0.0442  0.5477  0.0047
  905MPD2    C513257   3.756   1.918  13.079  0.2022  0.6316  0.7199
  905MPD2     H13258   3.947   2.236  12.992 -1.0405  1.1459  0.5271
  905MPD2    H113259   3.855   1.835  12.914 -0.2299 -0.3555  1.1993
  905MPD2    H213260   3.641   2.032  13.212 -0.7987 -1.4156 -0.7204
  905MPD2    H313261   3.694   1.830  13.091 -1.6469  2.0357  1.4372
  905MPD2     N13262   4.031   2.024  12.868 -0.5435  0.4104  0.0334
  905MPD2    H513263   4.032   1.954  12.795 -0.3732 -0.0870  0.5191
  905MPD2    N113264   3.750   2.257  13.198 -0.5574  0.3031 -0.0514
  905MPD2    H713265   3.685   2.249  13.276 -1.7230 -0.3250 -1.0751
  906MPD2     C13266   1.459   2.794  11.580  0.0429  0.6667 -0.2077
  906MPD2    C113267   1.439   2.675  11.509 -0.1630  0.5233  0.1886
  906MPD2    C213268   1.360   2.575  11.562 -0.6763 -0.1719  0.3208
  906MPD2    C313269   1.285   2.594  11.681  0.6531  0.5410 -0.2243
  906MPD2    C413270   1.295   2.720  11.746  0.1194 -0.3393 -0.4548
  906MPD2    C513271   1.395   2.801  11.700 -0.1380 -0.0272  0.2234
  906MPD2     H13272   1.363   2.479  11.512  0.4909 -0.8796  1.7348
  906MPD2    H113273   1.244   2.724  11.842  0.1135 -0.5398 -0.4499
  906MPD2    H213274   1.528   2.872  11.554  1.5544 -0.7543 -0.4860
  906MPD2    H313275   1.414   2.887  11.763 -0.7015  0.3804 -0.1562
  906MPD2     N13276   1.209   2.490  11.737 -0.3423  0.0127 -0.5004
  906MPD2    H513277   1.163   2.516  11.823 -0.4616  1.3378 -0.9613
  906MPD2    N113278   1.496   2.654  11.385  0.1763 -0.4778 -0.5454
  906MPD2    H713279   1.452   2.586  11.324  2.6985  0.1195 -3.0773
  907MPD2     C13280   4.606   1.823  15.455 -0.0527 -0.0491 -0.1130
  907MPD2    C113281   4.647   1.694  15.474 -0.3369 -0.6547  0.1937
  907MPD2    C213282   4.703   1.660  15.602  0.1442 -0.0334 -0.1382
  907MPD2    C313283   4.726   1.751  15.702 -0.0131  0.1720  0.3994
  907MPD2    C413284   4.691   1.886  15.672 -0.6063  0.3218 -0.3593
  907MPD2    C513285   4.627   1.918  15.558 -0.1467  0.4865  0.9192
  907MPD2     H13286   0.015   1.561  15.625  0.8030  0.7554  2.1882
  907MPD2    H113287   4.701   1.965  15.745 -1.6484 -0.1708  0.3110
  907MPD2    H213288   4.553   1.852  15.364  0.5525  0.6225 -0.2582
  907MPD2    H313289   4.585   2.016  15.539  1.9170  0.9315 -1.3690
  907MPD2     N13290   0.053   1.705  15.824  0.2105 -0.3756 -0.0101
  907MPD2    H513291   0.090   1.610  15.823 -1.2126 -0.9375  0.1950
  907MPD2    N113292   4.653   1.599  15.366 -0.2677  0.4104 -0.0103
  907MPD2    H713293   4.670   1.505  15.398 -0.5237  0.4686  0.2947
  908MPD2     C13294   3.823   2.843   9.912 -0.2081 -0.2124  0.3769
  908MPD2    C113295   3.734   2.754   9.978  0.7327  0.8503 -0.5453
  908MPD2    C213296   3.619   2.802  10.039  0.4456  0.7621  0.6712
  908MPD2    C313297   3.582   2.938  10.036  0.8494  0.4242  0.1749
  908MPD2    C413298   3.664   3.019   9.965  0.0245  0.2711  0.6598
  908MPD2    C513299   3.783   2.971   9.908  0.3919 -0.3795 -0.7191
  908MPD2     H13300   3.552   2.731  10.087  0.9079  0.4876  0.9028
  908MPD2    H113301   3.640   3.119   9.931 -1.2763 -0.0129  0.7595
  908MPD2    H213302   3.919   2.816   9.869 -0.7478 -2.2840  0.4760
  908MPD2    H313303   3.843   3.037   9.846  0.9274  3.1305  3.5220
  908MPD2     N13304   3.471   2.994  10.112  0.2669  0.1567  0.1703
  908MPD2    H513305   3.421   2.934  10.177 -2.1164  2.9503  0.8933
  908MPD2    N113306   3.761   2.618   9.990  0.5478  0.4402 -1.0038
  908MPD2    H713307   3.685   2.564  10.033  1.5197 -1.5902 -1.8329
  909MPD2     C13308   2.942   0.575  11.666 -0.4759 -0.6995  0.3003
  909MPD2    C113309   2.997   0.701  11.698 -0.0173  0.1298  0.0208
  909MPD2    C213310   2.956   0.761  11.812 -0.2995  0.3722 -0.6550
  909MPD2    C313311   2.853   0.712  11.885 -0.2888 -0.0843 -0.1370
  909MPD2    C413312   2.781   0.599  11.838  0.0513  0.0757  0.4515
  909MPD2    C513313   2.827   0.523  11.733 -0.0702 -0.2181 -0.5202
  909MPD2     H13314   3.010   0.847  11.850  0.9812 -1.6774  2.2149
  909MPD2    H113315   2.701   0.558  11.898 -0.6421  0.4846 -0.1824
  909MPD2    H213316   2.982   0.511  11.588  2.4894  2.0996 -0.4812
  909MPD2    H313317   2.783   0.429  11.701  1.1927 -1.2612  0.7772
  909MPD2     N13318   2.823   0.767  12.009  0.7412  0.0684  0.1632
  909MPD2    H513319   2.854   0.860  12.036  1.3210 -0.6786  2.0753
  909MPD2    N113320   3.123   0.749  11.644 -0.7318 -0.1697 -0.0579
  909MPD2    H713321   3.155   0.840  11.676 -0.1143 -0.1777 -0.6488
  910MPD2     C13322   4.008   2.375  15.356 -0.9310 -0.5413  0.5195
  910MPD2    C113323   4.128   2.312  15.333  0.1212 -0.3334 -0.8279
  910MPD2    C213324   4.189   2.333  15.211  0.4193  0.2411 -0.0343
  910MPD2    C313325   4.126   2.396  15.109 -0.0290  0.2481  0.1582
  910MPD2    C413326   4.014   2.469  15.132 -0.3954 -0.6046  0.4383
  910MPD2    C513327   3.952   2.453  15.257 -0.3917 -0.3979 -0.1564
  910MPD2     H13328   4.292   2.300  15.204 -0.3721 -2.0600 -0.6954
  910MPD2    H113329   3.968   2.533  15.057 -0.1110 -0.5304  0.3237
  910MPD2    H213330   3.960   2.378  15.453 -2.1764 -2.6054 -0.0363
  910MPD2    H313331   3.855   2.501  15.270  0.2249  0.1175  2.6329
  910MPD2     N13332   4.174   2.416  14.979  0.2472 -0.0338 -0.0491
  910MPD2    H513333   4.104   2.449  14.913 -0.8446 -1.6753  0.2784
  910MPD2    N113334   4.190   2.240  15.433  0.4449 -0.1463  0.3410
  910MPD2    H713335   4.266   2.177  15.409  0.9601  0.4889  0.3044
  911MPD2     C13336   1.832   2.633  16.331  0.6228 -0.3317  0.7053
  911MPD2    C113337   1.884   2.760  16.328 -0.3733  0.0409  0.2042
  911MPD2    C213338   1.823   2.860  16.242 -0.1649  0.3160 -0.5040
  911MPD2    C313339   1.716   2.825  16.167 -0.0426  0.1216  0.2002
  911MPD2    C413340   1.663   2.694  16.172  0.1680  0.0969  0.3499
  911MPD2    C513341   1.718   2.602  16.259 -0.0625  0.5434 -0.6971
  911MPD2     H13342   1.870   2.958  16.238 -1.0477  0.7411 -0.4856
  911MPD2    H113343   1.571   2.667  16.122  0.1950 -0.9555  0.8671
  911MPD2    H213344   1.884   2.561  16.394  0.3581 -1.8363 -0.7772
  911MPD2    H313345   1.662   2.509  16.263  0.6884  0.1101 -0.3178
  911MPD2     N13346   1.636   2.914  16.092  0.3665  0.8039  0.3861
  911MPD2    H513347   1.551   2.867  16.062  1.2613  0.4061 -1.5284
  911MPD2    N113348   2.009   2.789  16.394  0.5586  0.3428  0.3570
  911MPD2    H713349   2.062   2.712  16.433  0.0041  0.2062  0.8363
  912MPD2     C13350   1.258   2.842  15.472 -0.9642 -0.4496 -0.7909
  912MPD2    C113351   1.270   2.838  15.607 -0.0449 -0.4331  0.2094
  912MPD2    C213352   1.260   2.713  15.668  0.5004 -0.1387 -0.9853
  912MPD2    C313353   1.225   2.604  15.597  0.7795 -0.3790 -0.5713
  912MPD2    C413354   1.200   2.612  15.463  0.4825 -0.3482 -0.3244
  912MPD2    C513355   1.218   2.730  15.397 -0.2063 -0.9061 -0.1311
  912MPD2     H13356   1.268   2.687  15.773  1.2752  2.9609 -0.2888
  912MPD2    H113357   1.177   2.523  15.405 -0.1379  0.4898 -1.3550
  912MPD2    H213358   1.274   2.933  15.415 -2.4209  1.3898  1.7221
  912MPD2    H313359   1.207   2.748  15.291 -0.1609  1.8216  0.3231
  912MPD2     N13360   1.211   2.484  15.674 -0.6710 -0.3868  0.1245
  912MPD2    H513361   1.233   2.488  15.773 -1.2108 -1.0061  0.2670
  912MPD2    N113362   1.311   2.957  15.671  0.0285 -0.0897  0.2075
  912MPD2    H713363   1.325   3.044  15.620  1.8415 -1.1087 -1.0462
  913MPD2     C13364   2.735   3.777  11.193  0.6852 -0.1438 -0.3627
  913MPD2    C113365   2.632   3.684  11.196 -0.3386  0.0591 -0.0304
  913MPD2    C213366   2.574   3.646  11.075  0.4386 -0.2625  0.2515
  913MPD2    C313367   2.622   3.699  10.962  0.2755 -0.7871  0.7645
  913MPD2    C413368   2.723   3.786  10.959  0.6818  0.4379 -0.2513
  913MPD2    C513369   2.785   3.827  11.076  0.2046 -0.5978  0.2810
  913MPD2     H13370   2.486   3.585  11.084  1.4564 -1.9625 -1.5032
  913MPD2    H113371   2.757   3.832  10.866  1.8370  1.3479  0.6165
  913MPD2    H213372   2.783   3.798  11.288  0.0638  1.6068 -0.4354
  913MPD2    H313373   2.873   3.889  11.088  0.2518 -0.7003  0.4687
  913MPD2     N13374   2.567   3.673  10.834 -0.0497 -0.2366  0.5231
  913MPD2    H513375   2.616   3.732  10.767  0.0496 -1.8834 -0.8356
  913MPD2    N113376   2.579   3.631  11.316  0.7717 -0.1151 -0.8217
  913MPD2    H713377   2.531   3.542  11.320 -0.1031  0.3834  0.0818
  914MPD2     C13378   1.045   4.368  12.166  0.0303 -0.7022 -0.1652
  914MPD2    C113379   1.077   4.495  12.207  0.6720 -0.4620 -0.4667
  914MPD2    C213380   1.090   4.529  12.343 -0.0816 -0.0524 -1.0653
  914MPD2    C313381   1.068   4.434  12.442  0.1308  0.0035 -0.2828
  914MPD2    C413382   1.033   4.305  12.397 -0.1128 -0.8787  0.7104
  914MPD2    C513383   1.032   4.272  12.267 -0.2162 -0.0101 -0.0036
  914MPD2     H13384   1.125   4.627  12.371 -1.7947  0.0128  0.8423
  914MPD2    H113385   0.996   4.230  12.467 -0.5414 -1.3100  0.0308
  914MPD2    H213386   1.023   4.346  12.062 -0.5281  0.8657 -0.3677
  914MPD2    H313387   1.012   4.168  12.244  0.0910 -0.0956  0.1230
  914MPD2     N13388   1.074   4.478  12.579  0.1245 -0.0446  0.0396
  914MPD2    H513389   1.091   4.577  12.592  2.2925 -0.5057  0.8324
  914MPD2    N113390   1.118   4.599  12.118  0.2739 -0.2075 -0.5731
  914MPD2    H713391   1.151   4.687  12.154  1.2108  0.0781 -2.1411
  915MPD2     C13392   3.169   4.208  15.266 -0.0420 -0.4272  0.0518
  915MPD2    C113393   3.052   4.285  15.245  0.6393 -0.0017  1.0157
  915MPD2    C213394   2.988   4.347  15.356  0.2825 -0.3558  0.5264
  915MPD2    C313395   3.052   4.339  15.481  0.4017  0.0244 -0.1370
  915MPD2    C413396   3.172   4.277  15.495  0.4213 -0.0303 -0.8486
  915MPD2    C513397   3.223   4.210  15.387 -0.4007 -0.1072 -0.2149
  915MPD2     H13398   2.892   4.397  15.352  0.3009 -0.1770  2.4473
  915MPD2    H113399   3.223   4.268  15.590  1.3271  3.4301 -0.9899
  915MPD2    H213400   3.212   4.145  15.189  0.5822 -2.6694  2.2397
  915MPD2    H313401   3.305   4.144  15.411 -1.1717 -1.0757 -0.2713
  915MPD2     N13402   2.982   4.404  15.589  0.5447 -0.0522 -0.0608
  915MPD2    H513403   2.897   4.455  15.568  1.6924  1.9442  0.1309
  915MPD2    N113404   2.995   4.291  15.115 -0.2978  0.2404 -0.4433
  915MPD2    H713405   3.021   4.223  15.043  0.3035 -1.5044  1.4300
  916MPD2     C13406   0.874   2.541  15.611  0.8027  0.2195  0.0115
  916MPD2    C113407   0.834   2.478  15.726 -0.7595 -0.4354 -0.4290
  916MPD2    C213408   0.781   2.351  15.722 -0.3564  0.7615 -0.1821
  916MPD2    C313409   0.770   2.290  15.597 -0.4751 -1.2607 -0.2426
  916MPD2    C413410   0.812   2.353  15.483 -0.2604 -0.3463 -0.0493
  916MPD2    C513411   0.865   2.479  15.489 -0.6842 -0.4605  0.3647
  916MPD2     H13412   0.760   2.294  15.811  0.1888 -1.2977 -1.3710
  916MPD2    H113413   0.791   2.305  15.388  0.8059 -2.0326  0.5705
  916MPD2    H213414   0.925   2.637  15.612 -0.4880  0.9023 -0.5836
  916MPD2    H313415   0.897   2.529  15.398 -2.7038 -1.0213 -0.6687
  916MPD2     N13416   0.739   2.155  15.600 -0.0785  0.1859  0.3830
  916MPD2    H513417   0.712   2.109  15.686 -0.2017  0.1573  0.3292
  916MPD2    N113418   0.858   2.554  15.842 -0.3334  0.2301  0.1756
  916MPD2    H713419   0.903   2.645  15.842  0.7313 -0.2895  1.6065
  917MPD2     C13420   1.771   4.503  11.002 -0.0503  0.5407  0.6363
  917MPD2    C113421   1.843   4.605  11.058  0.4830 -0.1945 -0.5089
  917MPD2    C213422   1.922   4.688  10.973  0.9164  1.0880 -0.4470
  917MPD2    C313423   1.927   4.663  10.832 -0.9362 -0.2048  0.9047
  917MPD2    C413424   1.859   4.557  10.783  0.0799 -0.5715 -0.2883
  917MPD2    C513425   1.787   4.477  10.868 -0.1787  0.5878  0.0688
  917MPD2     H13426   1.972   0.046  11.020  1.6253  0.7958 -0.6839
  917MPD2    H113427   1.835   4.541  10.678 -2.6388 -1.0424  0.4129
  917MPD2    H213428   1.711   4.428  11.054 -1.0366 -0.2747 -1.6591
  917MPD2    H313429   1.739   4.391  10.822 -0.1363 -0.4874  2.0329
  917MPD2     N13430   1.971   0.034  10.738  0.1282  0.0974  0.8691
  917MPD2    H513431   1.970   0.000  10.642  2.1011 -1.1191  1.2681
  917MPD2    N113432   1.851   4.625  11.199  0.0243 -0.2786 -0.3864
  917MPD2    H713433   1.792   4.568  11.259 -0.6388  2.1797  1.2901
  918MPD2     C13434   2.300   0.510  11.896 -0.0062  0.0838  0.1593
  918MPD2    C113435   2.315   0.382  11.936  0.1694  0.1608 -0.3092
  918MPD2    C213436   2.272   0.276  11.855  0.1029  0.6164  1.0948
  918MPD2    C313437   2.208   0.304  11.736  0.0465 -0.1562  0.5616
  918MPD2    C413438   2.189   0.433  11.695 -0.0799 -0.4846 -0.6254
  918MPD2    C513439   2.232   0.536  11.777 -0.0061 -0.2158 -0.7240
  918MPD2     H13440   2.291   0.175  11.889 -1.8440 -0.1432 -0.0835
  918MPD2    H113441   2.127   0.460  11.610 -1.5239  1.8047  1.1493
  918MPD2    H213442   2.332   0.600  11.947  0.5815 -0.7294  1.2340
  918MPD2    H313443   2.206   0.637  11.745 -0.8343 -0.2317 -0.0856
  918MPD2     N13444   2.146   0.208  11.661  0.5868  0.0741 -0.3220
  918MPD2    H513445   2.115   0.235  11.568 -1.3418 -1.1727 -0.0288
  918MPD2    N113446   2.384   0.346  12.050 -0.1778  0.1598  0.4023
  918MPD2    H713447   2.418   0.251  12.051  0.2079  0.2985  0.6630
  919MPD2     C13448   2.728   4.086  12.220 -0.0832 -0.0840 -0.0950
  919MPD2    C113449   2.652   4.006  12.132  0.0364 -0.3743 -0.1621
  919MPD2    C213450   2.635   4.055  12.007 -0.1408  0.3123 -0.2045
  919MPD2    C313451   2.674   4.186  11.971  0.4621  0.6084 -0.2966
  919MPD2    C413452   2.730   4.267  12.069  0.6037  0.2621 -0.3985
  919MPD2    C513453   2.762   4.214  12.188  0.6032 -0.6394  0.2544
  919MPD2     H13454   2.571   4.004  11.936 -0.1964 -1.7146  1.3116
  919MPD2    H113455   2.748   4.372  12.049  1.4365  0.3424  0.7660
  919MPD2    H213456   2.742   4.046  12.320  0.1734  2.0413  0.7187
  919MPD2    H313457   2.801   4.287  12.258 -3.1119  1.6349 -0.0220
  919MPD2     N13458   2.638   4.238  11.842 -0.3593  0.0217  0.1733
  919MPD2    H513459   2.633   4.339  11.837  2.6792  0.2472  1.7672
  919MPD2    N113460   2.632   3.867  12.146  0.1954 -0.0194  0.0815
  919MPD2    H713461   2.585   3.818  12.071 -0.0682 -2.1898  1.6596
  920MPD2     C13462   2.695   4.568  10.852  0.4453  0.0400 -0.6161
  920MPD2    C113463   2.625   4.445  10.853  0.6231  0.0545  0.3118
  920MPD2    C213464   2.586   4.386  10.978  0.1710 -0.0676  0.8709
  920MPD2    C313465   2.635   4.438  11.095  0.8978 -0.3283 -0.0789
  920MPD2    C413466   2.705   4.563  11.097 -0.6509  0.4473  0.0712
  920MPD2    C513467   2.740   4.617  10.970  0.0840 -0.7327  0.9010
  920MPD2     H13468   2.523   4.298  10.985  0.0358 -0.0044  0.4388
  920MPD2    H113469   2.756   4.608  11.182  0.6068 -0.6485 -0.1134
  920MPD2    H213470   2.707   4.636  10.769  1.3900  0.0347 -0.4840
  920MPD2    H313471   2.799   4.709  10.969  1.9866 -1.9830 -2.2445
  920MPD2     N13472   2.608   4.362  11.211  0.1600 -0.3560 -0.1047
  920MPD2    H513473   2.569   4.269  11.202  1.0037 -0.7752  0.5476
  920MPD2    N113474   2.568   4.390  10.746 -0.0210  0.3777  0.1467
  920MPD2    H713475   2.527   4.297  10.751 -0.7117  0.8234  2.4738
  921MPD2     C13476   2.606   3.526  16.817 -0.1358  0.9508 -0.7443
  921MPD2    C113477   2.691   3.432  16.766 -0.1125 -0.0664 -0.2810
  921MPD2    C213478   2.631   3.314  16.713  0.0819 -0.3165  0.3121
  921MPD2    C313479   2.498   3.289  16.700  0.2682 -0.4539 -0.0201
  921MPD2    C413480   2.415   3.385  16.757  0.4542  0.7605  0.0162
  921MPD2    C513481   2.472   3.499  16.810  0.6207 -0.0659 -0.3863
  921MPD2     H13482   2.706   3.246  16.675 -1.0567 -0.8555 -0.9690
  921MPD2    H113483   2.308   3.369  16.757  0.6694 -0.7116  0.7499
  921MPD2    H213484   2.644   3.614  16.866  0.9646  0.4112 -0.6300
  921MPD2    H313485   2.405   3.568  16.858 -0.9494 -0.5461 -1.8785
  921MPD2     N13486   2.437   3.175  16.637  0.0833 -0.1663 -0.6464
  921MPD2    H513487   2.336   3.172  16.629  0.0375 -1.3796  0.5801
  921MPD2    N113488   2.830   3.466  16.764 -0.0524 -0.2476 -0.1860
  921MPD2    H713489   2.856   3.559  16.795  0.7858  0.7261 -3.6956
  922MPD2     C13490   3.728   0.735  16.555 -0.6774 -0.2020  0.0518
  922MPD2    C113491   3.770   0.759  16.685 -0.4342  0.3247  0.2894
  922MPD2    C213492   3.727   0.671  16.783  0.3044  0.7380  0.7233
  922MPD2    C313493   3.645   0.560  16.763 -0.1531  0.3522  0.6513
  922MPD2    C413494   3.595   0.544  16.635 -0.8877  0.1381  0.5247
  922MPD2    C513495   3.637   0.633  16.530 -0.4361 -0.1332 -0.9527
  922MPD2     H13496   3.753   0.706  16.882 -0.6698 -1.9111  1.9133
  922MPD2    H113497   3.529   0.463  16.609  1.7700 -2.2289  1.1061
  922MPD2    H213498   3.757   0.792  16.468  1.3346  0.7385  1.3325
  922MPD2    H313499   3.600   0.625  16.429  0.3470 -0.2020 -1.2383
  922MPD2     N13500   3.618   0.473  16.869 -0.3230  0.8158 -0.4017
  922MPD2    H513501   3.638   0.499  16.964 -1.1767 -0.0666  0.0224
  922MPD2    N113502   3.849   0.871  16.730  1.1434 -0.3431 -0.0676
  922MPD2    H713503   3.879   0.865  16.827 -0.7358 -4.9355  0.2136
  923MPD2     C13504   0.330   3.030   9.074  0.4025 -0.4799 -0.2834
  923MPD2    C113505   0.326   3.070   9.206  0.4397  0.6147  0.6208
  923MPD2    C213506   0.421   3.016   9.295  0.2421  0.2753 -0.8850
  923MPD2    C313507   0.528   2.937   9.251  0.1337  0.0315  0.6167
  923MPD2    C413508   0.528   2.902   9.121  0.3390  0.5161 -0.9899
  923MPD2    C513509   0.438   2.956   9.029 -0.4897  0.4757  0.3054
  923MPD2     H13510   0.406   3.044   9.399 -0.9554 -1.3634 -0.6328
  923MPD2    H113511   0.606   2.838   9.081 -1.1129 -1.6012 -0.4467
  923MPD2    H213512   0.259   3.067   9.001  0.4594  1.6555  0.7388
  923MPD2    H313513   0.458   2.933   8.925  1.3481  2.0829  0.3062
  923MPD2     N13514   0.629   2.898   9.339  0.3118 -0.7387 -0.1392
  923MPD2    H513515   0.696   2.837   9.293  0.2866 -0.3170 -0.7349
  923MPD2    N113516   0.224   3.167   9.235 -0.2023 -0.2612 -0.3362
  923MPD2    H713517   0.154   3.178   9.162 -0.8771 -2.5259 -0.0348
  924MPD2     C13518   0.362   1.112  16.559 -0.0560  0.3159 -0.3571
  924MPD2    C113519   0.265   1.098  16.456 -0.4293 -0.0224 -0.2831
  924MPD2    C213520   0.274   1.180  16.345  1.0876  0.0918  0.1127
  924MPD2    C313521   0.374   1.276  16.341 -0.5005 -0.0319  0.2118
  924MPD2    C413522   0.476   1.283  16.439 -0.3612  0.6854  0.3935
  924MPD2    C513523   0.466   1.202  16.545 -0.3846 -0.4482  0.3551
  924MPD2     H13524   0.219   1.154  16.255 -0.7785 -2.4043  1.9772
  924MPD2    H113525   0.556   1.357  16.440 -0.2274  0.5351  0.8131
  924MPD2    H213526   0.365   1.046  16.646 -0.4336  0.1419 -0.4774
  924MPD2    H313527   0.541   1.216  16.622 -0.4250 -0.4959  0.4030
  924MPD2     N13528   0.380   1.378  16.246 -0.5982 -0.1018  0.8769
  924MPD2    H513529   0.457   1.442  16.261 -0.5539 -0.0267  0.3432
  924MPD2    N113530   0.163   0.995  16.473  0.4078 -0.3330 -0.5455
  924MPD2    H713531   0.180   0.922  16.541  0.0438  1.5830  1.5765
  925MPD2     C13532   3.592   3.133  14.796 -0.3512  0.5761 -0.2037
  925MPD2    C113533   3.498   3.221  14.740 -0.0654 -0.4464 -0.1969
  925MPD2    C213534   3.405   3.268  14.830  0.7800  0.3272 -0.2067
  925MPD2    C313535   3.410   3.222  14.963  0.6051 -0.1977 -0.8727
  925MPD2    C413536   3.514   3.136  15.014  0.9194 -0.0935 -0.0916
  925MPD2    C513537   3.608   3.097  14.922  0.0044  0.5756  0.1098
  925MPD2     H13538   3.332   3.347  14.810  1.2374  1.1969  1.6311
  925MPD2    H113539   3.508   3.111  15.119 -2.7346 -2.2418 -0.8068
  925MPD2    H213540   3.672   3.086  14.739  0.0463 -0.4342  1.1833
  925MPD2    H313541   3.686   3.028  14.949  0.5250  0.7779 -0.8633
  925MPD2     N13542   3.313   3.245  15.059 -0.2869 -0.5043  0.2414
  925MPD2    H513543   3.334   3.203  15.149  2.1788 -1.8525 -0.9751
  925MPD2    N113544   3.499   3.263  14.607 -0.0616  0.1218 -0.0274
  925MPD2    H713545   3.424   3.323  14.577 -0.9015 -0.7139  0.3767
  926MPD2     C13546   2.628   2.116  13.287 -0.2722  0.1263 -0.7582
  926MPD2    C113547   2.547   2.212  13.223  0.1826 -0.1941  0.7187
  926MPD2    C213548   2.584   2.243  13.095  0.5727  0.1183  0.2200
  926MPD2    C313549   2.702   2.192  13.032 -0.0381 -0.1277  0.3711
  926MPD2    C413550   2.783   2.105  13.101 -0.3709 -0.3625 -0.4178
  926MPD2    C513551   2.740   2.066  13.222  0.4551  0.1942  0.2248
  926MPD2     H13552   2.516   2.304  13.036  1.6347  0.2183 -0.9014
  926MPD2    H113553   2.874   2.070  13.053  0.1979  0.7597 -0.1529
  926MPD2    H213554   2.615   2.079  13.388  2.3621  1.6207  0.1248
  926MPD2    H313555   2.803   2.001  13.280  1.4498  1.3161  0.4097
  926MPD2     N13556   2.743   2.230  12.902  0.0807 -0.6133 -0.1750
  926MPD2    H513557   2.836   2.199  12.875  0.2922 -0.7915  0.7701
  926MPD2    N113558   2.430   2.268  13.286  0.2911 -0.5700  0.0463
  926MPD2    H713559   2.393   2.347  13.235 -0.4036 -2.5933 -2.5587
  927MPD2     C13560   2.396   3.928   0.300  0.7151  0.9431  0.0180
  927MPD2    C113561   2.272   3.934   0.237  0.0354  0.2460  0.7830
  927MPD2    C213562   2.268   3.979   0.109  0.6251  0.5810 -0.5209
  927MPD2    C313563   2.378   4.017   0.034  0.0492 -0.6721  0.4737
  927MPD2    C413564   2.502   4.008   0.101  0.2601 -0.3139 -0.2913
  927MPD2    C513565   2.514   3.965   0.231  0.2652 -0.2265  0.0338
  927MPD2     H13566   2.172   3.994   0.061  1.2492  0.9019 -1.6585
  927MPD2    H113567   2.596   4.051   0.069  0.2143  1.3718  1.8508
  927MPD2    H213568   2.402   3.888   0.401  2.2683  0.1863 -0.3699
  927MPD2    H313569   2.609   3.962   0.283 -0.2103  0.8148  0.9781
  927MPD2     N13570   2.353   4.070  17.614 -0.5811  0.2725 -0.3292
  927MPD2    H513571   2.259   4.080  17.577 -0.8561  0.6649  0.4733
  927MPD2    N113572   2.161   3.901   0.318 -0.0675 -0.1155 -0.5216
  927MPD2    H713573   2.176   3.889   0.418 -1.1388  1.7528 -0.1247
  928MPD2     C13574   1.166   2.965   0.873 -0.0977  0.2049  0.2362
  928MPD2    C113575   1.040   2.924   0.830  0.1188 -0.5175 -0.7207
  928MPD2    C213576   1.013   2.938   0.691 -0.1483 -0.1066 -0.3314
  928MPD2    C313577   1.116   2.964   0.602 -0.0368 -0.3310 -0.0635
  928MPD2    C413578   1.244   2.994   0.652 -0.2963  0.0360 -0.0656
  928MPD2    C513579   1.269   2.990   0.785  0.4746 -0.5208 -0.5663
  928MPD2     H13580   0.911   2.920   0.659 -0.6360  0.8082  0.6938
  928MPD2    H113581   1.328   3.005   0.585 -0.7346 -0.4610 -0.7037
  928MPD2    H213582   1.200   2.960   0.976 -0.1933 -0.2932  0.2440
  928MPD2    H313583   1.371   3.006   0.818  0.5884 -2.9509  0.2964
  928MPD2     N13584   1.101   2.979   0.459 -0.1843  0.0416 -0.1730
  928MPD2    H513585   1.190   2.992   0.411  1.6018 -1.7761  2.6550
  928MPD2    N113586   0.951   2.903   0.936  0.0653  0.4718  0.3845
  928MPD2    H713587   0.981   2.915   1.032 -0.2955  0.0217  0.5535
  929MPD2     C13588   0.657   3.060  10.394 -0.1339  0.9646 -0.2584
  929MPD2    C113589   0.562   2.977  10.446  0.1801  0.0112 -0.2539
  929MPD2    C213590   0.457   2.941  10.358 -0.3415  0.0888  0.3492
  929MPD2    C313591   0.426   3.015  10.244  0.4901 -0.1621  0.1124
  929MPD2    C413592   0.521   3.104  10.209  0.1732  0.1734 -0.0752
  929MPD2    C513593   0.638   3.120  10.272  0.0122  0.2755 -0.1312
  929MPD2     H13594   0.374   2.881  10.393  0.6757  0.4152  3.2770
  929MPD2    H113595   0.506   3.156  10.115  0.1385  0.4109  0.0632
  929MPD2    H213596   0.753   3.073  10.441 -0.0933  0.4535 -0.1999
  929MPD2    H313597   0.699   3.201  10.232 -0.2575 -0.2156 -1.5218
  929MPD2     N13598   0.307   3.001  10.169 -0.9457 -0.2682  0.2256
  929MPD2    H513599   0.292   3.065  10.092 -0.7298 -0.4603  0.0245
  929MPD2    N113600   0.580   2.925  10.577 -0.0569  0.4721 -0.2749
  929MPD2    H713601   0.665   2.943  10.629  0.4005  0.6090 -1.0661
  930MPD2     C13602   1.819   0.592  13.797 -0.1612  0.4601 -0.5026
  930MPD2    C113603   1.907   0.507  13.862  0.6267  0.4770  0.1485
  930MPD2    C213604   1.885   0.373  13.866 -0.4499  0.2450  0.2668
  930MPD2    C313605   1.801   0.315  13.777  0.5061  0.1059  0.0988
  930MPD2    C413606   1.712   0.397  13.703  0.5078 -0.0085  0.1497
  930MPD2    C513607   1.719   0.537  13.722  0.0440  0.0947  0.1038
  930MPD2     H13608   1.946   0.315  13.934 -1.3605 -0.5853  0.3797
  930MPD2    H113609   1.649   0.356  13.624 -1.3528 -0.7954  2.0451
  930MPD2    H213610   1.835   0.699  13.797 -0.7266  0.5549  1.8762
  930MPD2    H313611   1.649   0.592  13.660  1.3182  0.9633 -0.5385
  930MPD2     N13612   1.809   0.180  13.744  0.1755  0.0732  0.1938
  930MPD2    H513613   1.755   0.156  13.662 -1.2116  1.4410  0.7029
  930MPD2    N113614   2.004   0.570  13.946 -0.9949  0.4331 -0.2258
  930MPD2    H713615   1.993   0.669  13.965  0.1889  0.4827  0.2276
  931MPD2     C13616   2.270   3.618   0.796  1.3605  0.1960 -0.0659
  931MPD2    C113617   2.152   3.668   0.834  0.2245 -0.1787 -0.0842
  931MPD2    C213618   2.092   3.628   0.946 -0.5302  0.1603 -0.4417
  931MPD2    C313619   2.150   3.536   1.031  0.2182 -0.2984  0.3594
  931MPD2    C413620   2.275   3.489   0.997  0.6848 -0.5568 -0.6585
  931MPD2    C513621   2.335   3.528   0.877 -0.4432  0.0232 -0.0600
  931MPD2     H13622   1.990   3.651   0.973  0.1082  1.6586  0.6305
  931MPD2    H113623   2.320   3.406   1.050  1.3595  0.2966  0.0978
  931MPD2    H213624   2.312   3.650   0.701  1.4666  0.1749 -0.0264
  931MPD2    H313625   2.429   3.477   0.859 -0.2347 -0.4493  2.2572
  931MPD2     N13626   2.103   3.476   1.144  0.0213  0.6038 -0.2541
  931MPD2    H513627   2.166   3.402   1.173  0.3622  1.5147  1.2803
  931MPD2    N113628   2.098   3.755   0.738 -0.1634  0.0571  0.2301
  931MPD2    H713629   2.159   3.784   0.662 -1.5167  0.2742 -0.7864
  932MPD2     C13630   4.517   3.823  11.515 -0.4805  0.2377 -0.8020
  932MPD2    C113631   4.572   3.830  11.387  0.4492  0.4444  0.4099
  932MPD2    C213632   4.503   3.789  11.278 -0.5282  0.7670  0.0414
  932MPD2    C313633   4.381   3.724  11.287 -0.1697 -0.9522  0.8724
  932MPD2    C413634   4.331   3.703  11.412 -0.1557 -0.8034  0.3456
  932MPD2    C513635   4.400   3.761  11.517  0.6600  0.3868  0.2903
  932MPD2     H13636   4.547   3.819  11.184 -1.4979 -2.4859 -1.4592
  932MPD2    H113637   4.230   3.668  11.428 -0.3025 -0.1628  0.8193
  932MPD2    H213638   4.558   3.857  11.610 -1.0258  1.2205 -0.9170
  932MPD2    H313639   4.361   3.740  11.616  0.8502  2.4875  0.8004
  932MPD2     N13640   4.312   3.676  11.166  0.2457 -0.2647  0.2805
  932MPD2    H513641   4.236   3.610  11.183 -0.9809  0.5711 -1.9955
  932MPD2    N113642   4.699   3.887  11.363 -0.9129 -0.6686 -0.4384
  932MPD2    H713643   4.718   3.888  11.263 -1.0418 -1.2116 -0.4667
  933MPD2     C13644   0.270   3.024   1.511  0.0229  0.6339 -0.0624
  933MPD2    C113645   0.306   3.057   1.380 -0.5652  0.5503 -0.1609
  933MPD2    C213646   0.238   3.159   1.314  0.1556  0.4606  0.3879
  933MPD2    C313647   0.136   3.223   1.379  0.2497  0.0552 -0.0342
  933MPD2    C413648   0.097   3.187   1.507  0.0953  0.0994  0.1047
  933MPD2    C513649   0.164   3.087   1.568  0.4099  0.1380  0.4523
  933MPD2     H13650   0.258   3.178   1.210  2.0796  0.2370  0.7249
  933MPD2    H113651   0.009   3.229   1.556 -0.3505 -0.1019 -0.5293
  933MPD2    H213652   0.323   2.946   1.563 -3.0535 -0.1990  1.8601
  933MPD2    H313653   0.137   3.061   1.670 -0.1616 -0.5707  0.1199
  933MPD2     N13654   0.064   3.333   1.315  0.1199  0.4148 -0.4427
  933MPD2    H513655   0.098   3.362   1.224  0.7157  0.3371 -0.2409
  933MPD2    N113656   0.419   2.986   1.331 -0.2879 -0.6348 -0.1633
  933MPD2    H713657   0.466   2.934   1.405  0.6296  0.3325 -0.0534
  934MPD2     C13658   1.268   0.492   2.137 -0.0185 -0.1208 -0.3969
  934MPD2    C113659   1.344   0.394   2.076 -0.1657 -0.2502  0.4919
  934MPD2    C213660   1.308   0.316   1.967  0.2294  0.1431 -0.3959
  934MPD2    C313661   1.179   0.320   1.919  0.0753  0.1678 -0.1442
  934MPD2    C413662   1.099   0.416   1.977  0.0888 -0.1830  0.0762
  934MPD2    C513663   1.141   0.493   2.082  0.0047  0.6886  0.4303
  934MPD2     H13664   1.382   0.258   1.912 -1.9620 -5.6327  2.8283
  934MPD2    H113665   0.994   0.426   1.950  0.8583  2.3867 -1.8572
  934MPD2    H213666   1.287   0.557   2.222 -0.2883  1.3875 -1.4877
  934MPD2    H313667   1.079   0.569   2.127  1.5002  3.2942 -1.9048
  934MPD2     N13668   1.131   0.252   1.809 -0.6647  0.2116  0.0042
  934MPD2    H513669   1.040   0.278   1.772 -1.0441 -1.5888 -0.2999
  934MPD2    N113670   1.480   0.383   2.108  0.8873 -0.1666  0.0250
  934MPD2    H713671   1.538   0.326   2.048 -0.9088 -1.8066 -0.1402
  935MPD2     C13672   1.353   4.161   1.220 -0.2476 -0.3827  0.0517
  935MPD2    C113673   1.279   4.248   1.148 -0.2031  0.7169  0.3628
  935MPD2    C213674   1.220   4.353   1.216 -0.5586 -0.5918 -0.1348
  935MPD2    C313675   1.236   4.374   1.353  0.3094 -0.1812 -0.8462
  935MPD2    C413676   1.306   4.283   1.422 -0.0592 -0.3702  0.0278
  935MPD2    C513677   1.366   4.179   1.359 -0.2950  0.1442 -0.1776
  935MPD2     H13678   1.162   4.418   1.152 -0.2618 -2.2125 -2.0388
  935MPD2    H113679   1.321   4.292   1.529  1.4042  1.0160 -0.2824
  935MPD2    H213680   1.403   4.075   1.177 -0.1346 -0.2946  0.0062
  935MPD2    H313681   1.413   4.106   1.423  0.0151  1.4866  1.1320
  935MPD2     N13682   1.191   4.490   1.420  0.1647  0.7154 -0.2090
  935MPD2    H513683   1.217   4.489   1.519 -0.8221  1.6186  0.0632
  935MPD2    N113684   1.254   4.243   1.010 -0.3789 -0.3381  0.1831
  935MPD2    H713685   1.183   4.307   0.974 -0.1520 -0.6863 -0.8772
  936MPD2     C13686   4.513   1.339  12.538 -0.1786  0.1525  0.2696
  936MPD2    C113687   4.543   1.322  12.672 -0.4902  0.5015 -0.0167
  936MPD2    C213688   4.659   1.377  12.725 -0.4052  0.1951  0.0891
  936MPD2    C313689   0.011   1.458  12.650 -0.1337 -0.1248 -0.6294
  936MPD2    C413690   4.694   1.497  12.521  0.2741  0.2434 -0.2969
  936MPD2    C513691   4.580   1.438  12.466 -0.0940 -0.0046 -0.4181
  936MPD2     H13692   4.693   1.352  12.825  0.7357  0.0431 -0.3334
  936MPD2    H113693   0.025   1.564  12.458  2.1712  0.3943  1.5964
  936MPD2    H213694   4.434   1.283  12.490 -0.2032  2.3983 -2.3045
  936MPD2    H313695   4.549   1.454  12.364  1.8370 -2.1132 -1.3342
  936MPD2     N13696   0.127   1.520  12.707  0.0625  0.2608  0.3318
  936MPD2    H513697   0.160   1.609  12.672  2.7895 -1.2607 -0.9223
  936MPD2    N113698   4.475   1.242  12.762  0.4763  0.2778  0.3611
  936MPD2    H713699   4.514   1.238  12.856  0.8141 -1.2160  0.1593
  937MPD2     C13700   2.740   3.291  11.725 -0.4760  0.3359  0.0831
  937MPD2    C113701   2.759   3.418  11.769 -0.2916  0.1863  0.2892
  937MPD2    C213702   2.831   3.495  11.689  0.5950  0.4834  0.4275
  937MPD2    C313703   2.886   3.459  11.568 -0.5239 -0.1210  0.6589
  937MPD2    C413704   2.855   3.334  11.524  0.0378  0.3422 -0.1891
  937MPD2    C513705   2.782   3.247  11.602  0.7434  0.4577  0.3564
  937MPD2     H13706   2.852   3.593  11.730  1.5604  1.5124 -2.5843
  937MPD2    H113707   2.903   3.295  11.435  3.5029 -1.2186  2.3874
  937MPD2    H213708   2.702   3.219  11.797 -1.4009  0.2776 -0.4591
  937MPD2    H313709   2.771   3.143  11.573 -1.2679  0.3712  1.4512
  937MPD2     N13710   2.970   3.553  11.499  0.6061  0.1578 -0.1009
  937MPD2    H513711   2.977   3.630  11.564 -1.2629 -1.1749  1.7165
  937MPD2    N113712   2.710   3.469  11.893 -0.9282  0.4423  0.0168
  937MPD2    H713713   2.758   3.548  11.934  2.6852 -0.8489 -1.6891
  938MPD2     C13714   4.679   4.501   0.882  0.3734 -0.3083  0.0257
  938MPD2    C113715   0.075   4.503   0.936  0.3008 -0.1168  0.4067
  938MPD2    C213716   0.088   4.469   1.072  0.3919 -0.6444 -0.0644
  938MPD2    C313717   4.706   4.417   1.143 -0.0765 -0.1822  0.4036
  938MPD2    C413718   4.578   4.419   1.087 -0.0030  0.7701 -0.2505
  938MPD2    C513719   4.573   4.467   0.961 -0.2760 -0.5333 -0.7905
  938MPD2     H13720   0.185   4.482   1.118 -0.9507  0.0580  2.5439
  938MPD2    H113721   4.500   4.368   1.144  0.0733  0.3359 -0.5449
  938MPD2    H213722   4.649   4.546   0.788 -0.9613 -1.2376 -0.0071
  938MPD2    H313723   4.474   4.458   0.919 -0.7713 -1.0718  0.4917
  938MPD2     N13724   4.715   4.350   1.272  0.5684  0.2742 -0.8459
  938MPD2    H513725   4.625   4.322   1.310 -0.3004  2.6523 -1.1025
  938MPD2    N113726   0.186   4.550   0.856  0.2024  0.3484  0.0511
  938MPD2    H713727   0.274   4.562   0.906 -1.6415  1.6770  2.9879
  939MPD2     C13728   1.618   1.182   1.164 -0.3264  0.3755 -0.0155
  939MPD2    C113729   1.515   1.175   1.071  0.6007 -0.2589  0.1256
  939MPD2    C213730   1.550   1.145   0.943  0.2352 -0.4180  0.3070
  939MPD2    C313731   1.673   1.124   0.894  0.0548  0.1474 -0.2404
  939MPD2    C413732   1.779   1.143   0.982 -0.4153  0.0353 -0.7770
  939MPD2    C513733   1.751   1.170   1.117  0.0477 -0.8945  0.7402
  939MPD2     H13734   1.477   1.146   0.863 -0.1371  1.5279  0.6685
  939MPD2    H113735   1.883   1.131   0.955 -0.4581 -1.2224 -0.3954
  939MPD2    H213736   1.595   1.201   1.268 -0.9872 -1.8637  0.2534
  939MPD2    H313737   1.832   1.195   1.185 -0.5713 -1.8297  1.8179
  939MPD2     N13738   1.690   1.099   0.762 -0.3475  0.6801 -0.4768
  939MPD2    H513739   1.612   1.072   0.703 -0.9072  0.0142  0.5516
  939MPD2    N113740   1.383   1.198   1.119  0.0735 -0.3614 -0.1920
  939MPD2    H713741   1.373   1.210   1.219  0.8809 -3.4482  0.2440
  940MPD2     C13742   0.592   2.094  13.174  0.2740  0.4926  0.1757
  940MPD2    C113743   0.582   1.974  13.249 -0.1412  0.1285 -0.5563
  940MPD2    C213744   0.621   1.857  13.189 -0.0394 -0.0977 -0.5433
  940MPD2    C313745   0.679   1.862  13.068 -0.1076  0.5544  0.0515
  940MPD2    C413746   0.693   1.983  12.998  0.0234 -0.1332  0.5160
  940MPD2    C513747   0.642   2.097  13.050 -0.7368  0.4520  0.2818
  940MPD2     H13748   0.597   1.760  13.232 -1.6643  0.5459  0.0098
  940MPD2    H113749   0.748   1.982  12.904 -0.0223  0.5744  0.4829
  940MPD2    H213750   0.556   2.190  13.208  0.8139  1.0807 -0.9105
  940MPD2    H313751   0.658   2.187  12.991 -2.9568  1.0226  0.5524
  940MPD2     N13752   0.724   1.747  12.997 -0.4313 -0.7502 -0.3476
  940MPD2    H513753   0.780   1.778  12.919 -1.6136 -0.4166 -1.0621
  940MPD2    N113754   0.521   1.955  13.380  0.3761  0.4971 -0.0067
  940MPD2    H713755   0.516   1.864  13.423 -0.5523  0.9920  0.9374
  941MPD2     C13756   4.726   1.097   9.426 -0.9320  0.4463 -0.1446
  941MPD2    C113757   0.056   1.030   9.532  0.4228  0.0622 -0.3397
  941MPD2    C213758   0.037   0.890   9.556 -0.0762  0.0240  0.2597
  941MPD2    C313759   4.685   0.819   9.462  0.1081  0.3959  0.2766
  941MPD2    C413760   4.630   0.889   9.364  0.4615 -0.3291  0.3917
  941MPD2    C513761   4.655   1.025   9.332  0.0350 -0.4742  0.5115
  941MPD2     H13762   0.086   0.845   9.642 -1.3698 -3.3070 -0.7923
  941MPD2    H113763   4.544   0.851   9.309 -0.0727  1.8414 -0.2623
  941MPD2    H213764   0.010   1.204   9.411 -3.2756  0.4736 -1.5181
  941MPD2    H313765   4.597   1.068   9.251 -0.5790 -0.1846  1.0975
  941MPD2     N13766   4.646   0.685   9.481 -0.0251  0.5443  0.1587
  941MPD2    H513767   4.588   0.658   9.402  0.7514  0.4974 -0.4017
  941MPD2    N113768   0.117   1.109   9.636  1.0841  0.5486  0.0169
  941MPD2    H713769   0.141   1.062   9.723  1.0258 -0.6091 -0.5807
  942MPD2     C13770   0.381   2.385   8.974 -0.3356  0.3352  0.0890
  942MPD2    C113771   0.241   2.393   8.974  0.1098 -0.3945 -0.6994
  942MPD2    C213772   0.191   2.498   9.055  0.0281 -0.1499  0.4340
  942MPD2    C313773   0.266   2.589   9.124  0.0503 -1.1023 -0.6813
  942MPD2    C413774   0.403   2.572   9.125  0.0290  0.3357  0.3277
  942MPD2    C513775   0.455   2.478   9.043 -0.2127 -0.4189 -0.5613
  942MPD2     H13776   0.083   2.506   9.068 -0.4901 -4.5158 -0.9603
  942MPD2    H113777   0.476   2.627   9.182  1.2831 -0.7390 -0.2284
  942MPD2    H213778   0.435   2.317   8.909  1.3624  1.1123  0.6653
  942MPD2    H313779   0.562   2.463   9.039 -0.4523 -2.0255 -0.9972
  942MPD2     N13780   0.214   2.678   9.216 -1.0927  0.1401 -0.8140
  942MPD2    H513781   0.281   2.716   9.283 -1.6425 -0.4467  0.0582
  942MPD2    N113782   0.150   2.307   8.895 -0.1128 -0.7472 -0.6405
  942MPD2    H713783   0.055   2.301   8.930  0.5728  0.9139  1.5245
  943MPD2     C13784   2.273   4.100   9.157  0.1795  0.2344 -0.3274
  943MPD2    C113785   2.378   4.143   9.235 -0.1464  0.2884  0.2615
  943MPD2    C213786   2.417   4.275   9.221 -0.4165  0.8175  0.3475
  943MPD2    C313787   2.364   4.370   9.137 -0.1985 -0.3883 -0.3394
  943MPD2    C413788   2.262   4.316   9.059  0.3235  0.5996 -0.4918
  943MPD2    C513789   2.219   4.186   9.068 -0.0541  0.5553  0.0962
  943MPD2     H13790   2.497   4.311   9.285 -1.6756  0.0920  2.3358
  943MPD2    H113791   2.213   4.388   8.994  1.7600 -0.5191 -2.8326
  943MPD2    H213792   2.244   3.995   9.160 -0.0664  0.2982 -0.5154
  943MPD2    H313793   2.144   4.148   9.000  0.8189 -1.5603  0.3136
  943MPD2     N13794   2.395   4.504   9.128  1.2175 -0.7795 -0.4469
  943MPD2    H513795   2.334   4.560   9.069  1.2375 -1.5820 -1.2427
  943MPD2    N113796   2.437   4.050   9.322 -0.3011 -0.2206 -0.1313
  943MPD2    H713797   2.399   3.957   9.319 -0.5200 -0.1318 -0.0745
  944MPD2     C13798   2.822   4.073  11.333  0.0780  0.3195 -0.4805
  944MPD2    C113799   2.903   4.165  11.270 -0.2362 -0.1070 -0.4897
  944MPD2    C213800   2.997   4.239  11.340  0.1909  0.0832 -0.1232
  944MPD2    C313801   2.997   4.233  11.482 -0.2713  0.3143 -0.7743
  944MPD2    C413802   2.907   4.154  11.541 -0.3662  1.0060  0.7868
  944MPD2    C513803   2.824   4.069  11.470 -0.3420  0.3337  0.5795
  944MPD2     H13804   3.062   4.307  11.287  2.1429 -2.5026 -1.0507
  944MPD2    H113805   2.912   4.136  11.648  3.0667  0.9912  0.6513
  944MPD2    H213806   2.747   4.021  11.274  1.4194 -0.6022 -1.3601
  944MPD2    H313807   2.756   4.006  11.526 -0.2423  2.4028  3.0371
  944MPD2     N13808   3.075   4.313  11.571 -0.6686  0.6790 -0.0664
  944MPD2    H513809   3.063   4.287  11.669  2.4027  1.5795  0.5511
  944MPD2    N113810   2.884   4.186  11.134  0.1839 -0.1853 -0.3134
  944MPD2    H713811   2.797   4.147  11.097  1.1487 -1.7037 -0.9853
    1TCq1    O113812   1.634   0.400  14.416 -0.4016  0.0308 -0.3931
    1TCq1    C113813   1.503   0.408  14.462 -0.1563 -0.3277  0.1226
    1TCq1    O213814   1.440   0.312  14.507 -0.1956  0.2407 -0.3141
    1TCq1    C213815   1.439   0.533  14.425  0.2194 -0.0195  0.0253
    1TCq1    C313816   1.302   0.529  14.419  0.2007  0.3529  0.9686
    1TCq1    C413817   1.229   0.640  14.398  0.1554 -0.4681  0.0453
    1TCq1    C513818   1.286   0.761  14.410  1.2463 -0.8855  0.5260
    1TCq1    C613819   1.419   0.770  14.423 -0.3922  0.2209  0.3972
    1TCq1    C713820   1.500   0.652  14.422 -0.5140  0.1693 -0.4412
    1TCq1    C813821   1.480   0.875  14.503 -0.7255  0.2651 -0.2726
    1TCq1    O413822   1.593   0.855  14.554  0.3189  0.4587 -0.7873
    1TCq1    C913823   1.088   0.633  14.380  0.5961 -0.0895 -0.7256
    1TCq1    O513824   1.013   0.729  14.417 -0.4128  0.3643  0.2004
    1TCq1    O613825   1.044   0.527  14.328  0.5850 -0.6503  0.8218
    1TCq1    H113826   1.657   0.482  14.367 -1.0843 -0.3007 -1.2746
    1TCq1    H213827   1.258   0.430  14.422 -2.4145  1.5538  1.9937
    1TCq1    H313828   1.227   0.851  14.420  0.5200 -1.3051 -0.0365
    1TCq1    H413829   1.606   0.660  14.446 -0.7322  1.9499 -0.0489
    2MPD2     C13830   1.440   1.289  14.801 -0.4694  0.2537 -0.0041
    2MPD2    C113831   1.366   1.305  14.693  0.0320 -0.0649  0.4189
    2MPD2    C213832   1.349   1.202  14.600  1.1584 -0.2593  0.2962
    2MPD2    C313833   1.425   1.088  14.614 -0.2811  0.2419 -0.0222
    2MPD2    C413834   1.514   1.081  14.715  0.0702  0.1059  1.2176
    2MPD2    C513835   1.522   1.182  14.805  0.2649 -0.1423 -0.1592
    2MPD2     H13836   1.279   1.215  14.518 -0.2667 -1.1682  1.3743
    2MPD2    H113837   1.592   1.007  14.719  0.0236 -0.0034  0.2349
    2MPD2    H213838   1.442   1.369  14.874 -1.8271 -1.1989  1.6200
    2MPD2    H313839   1.592   1.178  14.887 -1.3556 -1.1231  1.1687
    2MPD2     N13840   1.402   0.988  14.519  0.3292 -0.1070 -0.3711
    2MPD2    H513841   1.333   0.989  14.445 -1.2930  2.9144  1.2062
    2MPD2    N113842   1.286   1.420  14.697  0.5111 -0.6349  0.0101
    2MPD2    H713843   1.275   1.481  14.777 -1.7353 -0.9100 -0.0879
    3TMC2    C113844   1.102   1.556  14.635 -0.7080 -0.4771 -0.1775
    3TMC2    C213845   1.072   1.564  14.768  0.3527  0.2606  0.7034
    3TMC2    C313846   0.995   1.668  14.809  0.3363 -0.2595  0.0647
    3TMC2    C413847   1.054   1.649  14.539 -0.8236  0.2709 -0.1569
    3TMC2    C513848   0.961   1.743  14.578  0.6089  0.9824  0.5025
    3TMC2    C613849   0.932   1.751  14.714  0.4379  0.2514  0.3355
    3TMC2     C13850   1.202   1.455  14.596  0.8292 -0.1459 -0.1959
    3TMC2     O13851   1.228   1.448  14.480  0.1637 -0.3253  1.0707
    3TMC2     H13852   1.088   1.475  14.828  0.2519 -0.7224 -0.7241
    3TMC2    H113853   1.076   1.629  14.435  1.9369  0.8472  0.3194
    3TMC2    H213854   0.877   1.839  14.748  0.3088  0.9046 -1.5802
    3TMC2    C713855   0.901   1.843  14.498 -0.9939  0.3028  0.1513
    3TMC2    C813856   0.962   1.670  14.949 -0.2792 -0.3114 -0.0658
    3TMC2    O113857   0.796   1.895  14.533  0.1198 -0.3012  0.1000
    3TMC2    O213858   0.857   1.709  14.992  0.5088 -0.2646  0.6903
    3TMC2    O513859   1.056   1.602  15.025  0.4282 -0.8442 -0.2796
    3TMC2    H513860   1.140   1.597  14.975 -0.4797  0.5434 -1.9384
    4MPD2     C13861   1.387   2.791  13.513 -0.5899  0.1607 -0.0362
    4MPD2    C113862   1.269   2.755  13.578 -0.0415  0.9487  0.6739
    4MPD2    C213863   1.270   2.651  13.662 -0.3082  0.6895  0.2171
    4MPD2    C313864   1.381   2.569  13.673  0.4797  0.2407 -0.6589
    4MPD2    C413865   1.501   2.600  13.611  0.2100 -0.6136  0.2776
    4MPD2    C513866   1.501   2.719  13.532 -0.2743  0.1662 -0.2672
    4MPD2     H13867   1.184   2.616  13.717  0.9762  0.1092  1.8812
    4MPD2    H113868   1.589   2.540  13.626  1.1866  0.1843 -2.3001
    4MPD2    H213869   1.398   2.884  13.458 -1.1472  1.1512  1.5422
    4MPD2    H313870   1.591   2.748  13.479  0.1085  0.3022  0.4531
    4MPD2     N13871   1.359   2.443  13.736  0.3056  0.1557  0.7534
    4MPD2    H513872   1.264   2.418  13.763 -0.2254  1.2168 -0.1354
    4MPD2    N113873   1.149   2.828  13.551  0.0991 -0.0158  1.0722
    4MPD2    H713874   1.150   2.883  13.466  3.8521 -0.3939  0.8746
    5TCq2    C113875   1.464   2.353  13.762 -0.4317  0.1743  0.1628
    5TCq2    O213876   1.586   2.373  13.761 -0.4814 -0.6818 -0.4400
    5TCq2    C213877   1.422   2.217  13.787 -0.1138 -0.5745  0.2968
    5TCq2    C313878   1.522   2.129  13.773 -0.2245  0.0141  0.5147
    5TCq2    C413879   1.498   1.995  13.779 -0.1060 -0.4477  0.0550
    5TCq2    C513880   1.369   1.955  13.802  0.4919  0.3251  0.6629
    5TCq2    C613881   1.274   2.047  13.822 -0.8547 -0.3553  0.0512
    5TCq2    C713882   1.295   2.181  13.817  0.6958  0.6026 -0.6446
    5TCq2    C813883   1.174   1.992  13.912 -0.3400 -0.3963  0.1093
    5TCq2    O413884   1.191   1.883  13.964  0.2482  0.3543  0.1944
    5TCq2    C913885   1.605   1.900  13.757  0.4361  0.6910 -0.4243
    5TCq2    O513886   1.580   1.775  13.769 -0.2539 -0.4445 -0.2432
    5TCq2    O613887   1.722   1.944  13.723 -0.3398  0.1404  0.1060
    5TCq2    H213888   1.623   2.166  13.785  0.1152 -0.7546  0.0673
    5TCq2    H313889   1.354   1.849  13.784 -2.3367  0.5693  1.5420
    5TCq2    H413890   1.217   2.253  13.839  0.5196 -0.0764  0.9342
    6MPD1     C13891   4.402   1.867  13.810 -0.0272  0.0459 -0.5675
    6MPD1    C113892   4.340   1.924  13.697  0.0086 -0.4742 -0.2749
    6MPD1    C213893   4.405   2.033  13.635 -0.1672  1.0772 -0.3921
    6MPD1    C313894   4.529   2.084  13.677  0.7110 -0.4623  0.0660
    6MPD1    C413895   4.577   2.025  13.791 -0.8096 -0.0524  0.5100
    6MPD1    C513896   4.523   1.917  13.851 -0.2879 -0.1242 -0.2967
    6MPD1     H13897   4.356   2.082  13.553 -0.1258 -1.4629 -1.9380
    6MPD1    H113898   4.677   2.053  13.823 -0.0952 -0.7149 -1.1799
    6MPD1    H213899   4.350   1.782  13.852  0.5007 -0.6214 -1.2748
    6MPD1    H313900   4.573   1.871  13.936  0.5014  1.8692  0.3191
    6MPD1     N13901   4.597   2.201  13.628  0.0393 -1.1952  0.1656
    6MPD1    H513902   4.669   2.238  13.689  0.5128 -1.2931 -0.3387
    6MPD1    N113903   4.210   1.887  13.654  0.0381  0.4520 -0.3867
    6MPD1    H613904   4.207   1.789  13.680  1.1323  0.2630 -1.0030
    6MPD1    H713905   4.201   1.889  13.553 -1.5065  1.0789 -0.2424
    7MPD2     C13906   0.324   2.618  13.967  0.0313 -0.3717  0.5669
    7MPD2    C113907   0.297   2.694  13.856 -0.1050 -0.4545  0.5939
    7MPD2    C213908   0.389   2.780  13.807  0.4017  0.5139  0.0650
    7MPD2    C313909   0.510   2.799  13.876 -0.4640  0.3855  0.7249
    7MPD2    C413910   0.530   2.733  13.995 -0.1707  0.3618  0.3983
    7MPD2    C513911   0.440   2.634  14.032 -0.4849 -0.4038  0.2689
    7MPD2     H13912   0.374   2.826  13.710 -0.7106  1.0224  0.4801
    7MPD2    H113913   0.611   2.755  14.064  0.8528  0.7638 -0.9554
    7MPD2    H213914   0.253   2.543  14.000 -1.1918 -0.8713 -3.1727
    7MPD2    H313915   0.460   2.572  14.119  0.1648  1.8673  1.7193
    7MPD2     N13916   0.612   2.887  13.828 -0.0447 -0.5785 -0.1540
    7MPD2    H513917   0.702   2.881  13.875 -0.0792 -0.7848 -0.1146
    7MPD2    N113918   0.174   2.690  13.784 -0.1947 -0.6032 -0.6591
    7MPD2    H713919   0.155   2.764  13.718 -0.2076 -1.1761 -1.2921
    8TMC3    C113920   0.728   3.011  13.665 -0.1424 -0.2038  0.8311
    8TMC3    C213921   0.836   2.924  13.695 -0.0088  0.1489 -0.2704
    8TMC3    C313922   0.925   2.906  13.593 -0.2948 -0.3803 -0.2509
    8TMC3    C413923   0.714   3.058  13.538 -0.0029  0.7379 -0.3438
    8TMC3    C513924   0.792   3.015  13.438  0.3218  0.0647  0.1886
    8TMC3    C613925   0.902   2.945  13.466  0.5758 -0.1554 -0.1687
    8TMC3     C13926   0.603   2.956  13.710 -0.4716 -0.1841  0.0436
    8TMC3     O13927   0.502   2.983  13.645  0.0003 -0.1337  0.2649
    8TMC3     H13928   0.857   2.907  13.799 -0.5707 -0.9207 -0.3299
    8TMC3    H113929   0.629   3.120  13.514 -1.7603 -1.2599  0.6960
    8TMC3    H213930   0.964   2.905  13.387  0.1422  0.4730 -0.8193
    8TMC3    C713931   0.718   2.950  13.325  0.4771 -0.6845 -0.2195
    8TMC3    C813932   1.038   2.826  13.625 -0.0116 -0.5099 -0.3654
    8TMC3    O113933   0.777   2.941  13.217 -0.1549 -0.0191  0.2900
    8TMC3    O213934   1.032   2.772  13.733  0.2930 -0.0123 -0.0102
    9TMC3    C113935   4.612   2.420  13.559 -0.7544  0.1729  0.2244
    9TMC3    C213936   4.627   2.503  13.449 -0.6900 -0.5399 -0.8333
    9TMC3    C313937   4.694   2.618  13.464 -0.6178 -0.1471 -1.0221
    9TMC3    C413938   4.646   2.464  13.679 -0.2277 -0.3390  0.1677
    9TMC3    C513939   4.704   2.589  13.691  0.6221 -0.3376  0.0708
    9TMC3    C613940   0.003   2.665  13.583 -0.5627  0.3458  0.4205
    9TMC3     C13941   4.539   2.288  13.543 -0.5403  0.2512 -0.2973
    9TMC3     O13942   4.474   2.260  13.445 -0.1049 -0.2203 -0.7298
    9TMC3     H13943   4.588   2.480  13.351 -1.5975 -0.8153 -0.4114
    9TMC3    H113944   4.633   2.407  13.770  2.4242 -1.6148 -0.2711
    9TMC3    H213945   0.042   2.764  13.601 -2.5805  0.7808  2.4030
    9TMC3    C713946   0.058   2.622  13.814 -0.3142 -0.7543 -0.4570
    9TMC3    C813947   0.045   2.658  13.350 -0.1892 -0.9941 -0.4447
    9TMC3    O113948   0.035   2.548  13.910 -0.5440  0.4590 -0.2748
    9TMC3    O213949   4.725   2.643  13.239 -0.6526 -0.6544 -0.0674
   10MPD2     C13950   0.496   2.810  13.164 -1.0483  0.1526 -0.0042
   10MPD2    C113951   0.489   2.848  13.301 -0.2249  0.2221  0.1228
   10MPD2    C213952   0.380   2.806  13.377  0.4433 -1.1945  0.2566
   10MPD2    C313953   0.273   2.740  13.314  0.4300 -0.7743  0.1608
   10MPD2    C413954   0.281   2.719  13.171 -0.0047  0.2936  0.0193
   10MPD2    C513955   0.403   2.742  13.103  0.1102  0.5170  0.2459
   10MPD2     H13956   0.382   2.841  13.480  1.4002 -0.6190  0.0494
   10MPD2    H113957   0.202   2.674  13.112  1.0405  0.4121 -1.4951
   10MPD2    H213958   0.585   2.843  13.112  0.8468 -0.6442  2.7621
   10MPD2    H313959   0.399   2.722  12.996  3.0424  0.2104  0.1896
   10MPD2     N13960   0.159   2.715  13.393 -0.2399  0.2799 -0.3290
   10MPD2    H513961   0.171   2.717  13.494 -3.4760  1.3022  0.0081
   10MPD2    N113962   0.591   2.914  13.370 -0.2625  0.3208  0.1416
   10MPD2    H713963   0.566   2.935  13.466 -3.7030  0.4607 -0.7734
   11MPD2     C13964   0.797   1.981  14.250 -0.5226 -0.1680 -0.7857
   11MPD2    C113965   0.925   1.934  14.269 -0.7070  1.2231 -0.4822
   11MPD2    C213966   1.012   1.969  14.169 -0.0947  0.1494  0.0718
   11MPD2    C313967   0.981   2.047  14.053  0.1344 -0.1423 -0.2526
   11MPD2    C413968   0.856   2.102  14.053 -0.1502 -0.1810 -0.1185
   11MPD2    C513969   0.766   2.066  14.153 -0.6610  0.2468 -0.1452
   11MPD2     H13970   1.116   1.941  14.186  0.1080  1.2708  0.6875
   11MPD2    H113971   0.815   2.155  13.967 -1.7100 -3.4746 -1.4255
   11MPD2    H213972   0.715   1.953  14.315  0.9666 -0.1850  1.0872
   11MPD2    H313973   0.665   2.101  14.135 -1.9981 -3.6510 -0.2472
   11MPD2     N13974   1.070   2.075  13.942  0.7515 -0.0924 -0.2956
   11MPD2    H513975   1.042   2.150  13.881 -0.4560 -1.6272 -1.6374
   11MPD2    N113976   0.969   1.860  14.378 -1.1407 -0.7610 -0.1393
   11MPD2    H713977   1.066   1.836  14.364 -0.9829 -0.2206  0.0371
    1MPD1     C13978   3.240   3.668  17.182  0.5306 -0.5458  0.1677
    1MPD1    C113979   3.272   3.541  17.221  0.4707 -0.7843  0.0280
    1MPD1    C213980   3.394   3.487  17.187 -1.0636 -0.4093 -0.3857
    1MPD1    C313981   3.487   3.556  17.119 -0.2553 -0.9186 -0.0967
    1MPD1    C413982   3.454   3.680  17.079 -0.1462  0.5206 -0.0429
    1MPD1    C513983   3.334   3.739  17.116 -0.2492  0.1543 -0.4452
    1MPD1     H13984   3.420   3.393  17.234  1.0610 -1.3573 -3.4229
    1MPD1    H113985   3.523   3.741  17.021  1.6677 -2.8478 -1.4404
    1MPD1    H213986   3.148   3.719  17.210  0.7259 -1.0335  1.7170
    1MPD1    H313987   3.317   3.845  17.101 -0.0752  0.5941  2.4260
    1MPD1     N13988   3.616   3.515  17.100 -0.1913  0.0919 -0.6489
    1MPD1    H513989   3.684   3.587  17.074 -0.8406  1.1092  0.4689
    1MPD1    N113990   3.193   3.466  17.312  0.2424  0.0125 -0.2304
    1MPD1    H613991   3.096   3.494  17.326 -0.5708 -1.7354 -2.4393
    1MPD1    H713992   3.200   3.367  17.293  1.8400 -0.0661  0.7559
    2MPD1     C13993   4.201   2.715  17.289  0.3855  0.2874  0.1457
    2MPD1    C113994   4.125   2.791  17.374 -0.0213 -0.4134 -0.4168
    2MPD1    C213995   4.061   2.897  17.316 -0.2015  0.0920 -0.6184
    2MPD1    C313996   4.080   2.933  17.182  0.4398  0.6760 -0.2546
    2MPD1    C413997   4.161   2.850  17.105  0.2390 -0.1468  0.9894
    2MPD1    C513998   4.221   2.744  17.159  0.0107 -0.2545 -0.0790
    2MPD1     H13999   3.986   2.951  17.373  0.9500  0.4943  0.5124
    2MPD1    H114000   4.174   2.860  16.998 -0.0594 -1.8738  0.7885
    2MPD1    H214001   4.249   2.630  17.336 -3.2404 -0.8712  1.7681
    2MPD1    H314002   4.295   2.688  17.103  0.7976  1.4249 -0.7144
    2MPD1     N14003   4.015   3.047  17.136 -0.0602  0.2851  0.4961
    2MPD1    H514004   3.962   3.097  17.207 -0.2073  1.9182 -0.7504
    2MPD1    N114005   4.086   2.744  17.503 -0.3231  0.2489  0.3607
    2MPD1    H614006   4.068   2.825  17.561  1.7589  0.1266  1.1909
    2MPD1    H714007   4.161   2.684  17.538 -0.2135 -0.2280 -0.7085
    3TMC3    C114008   3.967   3.227  16.996 -0.0261  0.2858 -0.2374
    3TMC3    C214009   4.049   3.336  16.965 -1.0023 -0.0150 -0.4197
    3TMC3    C314010   4.005   3.461  17.008  0.6119  0.1980 -0.6739
    3TMC3    C414011   3.850   3.246  17.060 -0.3270  0.6182 -0.0573
    3TMC3    C514012   3.809   3.373  17.093  0.2621  0.0322 -0.0749
    3TMC3    C614013   3.892   3.481  17.081  0.5186  1.0292 -0.2918
    3TMC3     C14014   4.033   3.102  17.010 -0.5368  0.7173 -0.1878
    3TMC3     O14015   4.114   3.076  16.923 -0.2387  0.0225  0.4773
    3TMC3     H14016   4.148   3.328  16.921 -0.8889 -1.4852  0.1136
    3TMC3    H114017   3.785   3.163  17.086 -2.5493  1.7204 -1.9855
    3TMC3    H214018   3.869   3.582  17.113 -0.0224  0.2881  1.6433
    3TMC3    C714019   3.666   3.389  17.118 -0.2521 -0.1431 -0.1210
    3TMC3    C814020   4.099   3.574  16.997 -0.5455 -0.6501  0.5519
    3TMC3    O114021   3.607   3.281  17.133  0.5996 -0.1131  0.4641
    3TMC3    O214022   4.212   3.541  16.965 -0.2590 -0.2928  0.2439
    4MPD1     C14023   4.246   4.056  17.071  0.1742 -0.6860 -0.1846
    4MPD1    C114024   4.107   4.053  17.079 -0.2939  0.5842  0.1805
    4MPD1    C214025   4.035   3.933  17.055  0.0985  0.7371 -0.6785
    4MPD1    C314026   4.112   3.820  17.031  0.1925 -0.4665 -0.1456
    4MPD1    C414027   4.245   3.830  16.999 -0.3332  0.0941  0.8734
    4MPD1    C514028   4.310   3.945  17.029 -0.4218  0.7044 -0.0633
    4MPD1     H14029   3.927   3.928  17.060  0.3494 -1.5008  2.7844
    4MPD1    H114030   4.306   3.751  16.957 -2.2239 -1.1447  0.4377
    4MPD1    H214031   4.290   4.155  17.077 -0.6309 -0.2833 -1.0059
    4MPD1    H314032   4.413   3.952  16.996 -0.6062 -1.7104 -1.1519
    4MPD1     N14033   4.049   3.697  17.024  0.6138 -0.0841 -0.0152
    4MPD1    H514034   3.949   3.698  17.040  0.7151  0.5731  0.5786
    4MPD1    N114035   4.030   4.175  17.094  0.7192  0.0483 -0.0605
    4MPD1    H614036   3.938   4.147  17.129  0.0139  3.4571  0.7908
    4MPD1    H714037   4.064   4.256  17.144  0.4474  0.2952 -0.2806
    1TCq1    O114038   4.526   1.643  11.192 -0.5733  0.5131  0.2583
    1TCq1    C114039   4.425   1.719  11.243  0.2469 -0.9578 -0.1400
    1TCq1    O214040   4.366   1.680  11.340  0.0718 -0.1920 -0.0736
    1TCq1    C214041   4.422   1.853  11.179  0.5375  0.1104 -0.1202
    1TCq1    C314042   4.381   1.955  11.264  0.4909  0.8146 -0.0693
    1TCq1    C414043   4.405   2.086  11.224  0.3735  0.2495  0.2759
    1TCq1    C514044   4.445   2.107  11.095  0.0593  0.8382  0.0322
    1TCq1    C614045   4.480   2.002  11.011  0.2009 -0.5266  0.4365
    1TCq1    C714046   4.468   1.877  11.054 -0.6962 -0.3120  0.8592
    1TCq1    C814047   4.564   2.035  10.893  0.0140 -0.3277 -0.1041
    1TCq1    O414048   4.568   1.944  10.804 -0.3400  0.4873  0.2977
    1TCq1    C914049   4.329   2.193  11.290  0.3937  0.4456 -0.0322
    1TCq1    O514050   4.349   2.311  11.255 -0.1651 -0.1708 -0.7210
    1TCq1    O614051   4.280   2.172  11.397 -0.0903 -0.2935 -0.2733
    1TCq1    H114052   4.582   1.691  11.127  0.9146 -0.6657  0.6697
    1TCq1    H214053   4.355   1.928  11.365  1.9959  1.2227  0.4244
    1TCq1    H314054   4.419   2.200  11.047  0.5057  0.3126 -1.2197
    1TCq1    H414055   4.493   1.796  10.985  1.0497  0.4325  0.6123
    2MPD1     C14056   0.058   2.367  10.587 -0.4221 -0.2388 -0.5944
    2MPD1    C114057   0.034   2.429  10.706  0.0672  0.5711 -0.0310
    2MPD1    C214058   4.710   2.355  10.805  0.3327  0.4898 -0.4055
    2MPD1    C314059   4.682   2.222  10.785 -1.1886  0.0684  0.9610
    2MPD1    C414060   4.704   2.161  10.663  0.0700  0.0109 -0.0841
    2MPD1    C514061   0.033   2.233  10.559 -0.0096 -0.7966  0.7737
    2MPD1     H14062   4.699   2.399  10.904  0.6192  1.1521 -0.6687
    2MPD1    H114063   4.668   2.062  10.636 -0.1916 -0.0167  0.3730
    2MPD1    H214064   0.083   2.426  10.500  2.3134  0.1104  0.4433
    2MPD1    H314065   0.036   2.196  10.457  2.1924  0.6188  0.3046
    2MPD1     N14066   4.612   2.159  10.892  0.0222 -0.2376 -0.1765
    2MPD1    H514067   4.591   2.211  10.977  0.6113  0.8366 -0.6875
    2MPD1    N114068   0.092   2.555  10.731  0.0942 -0.6523  0.4169
    2MPD1    H614069   0.035   2.598  10.803 -0.1195 -1.3178  0.6427
    2MPD1    H714070   0.089   2.619  10.652 -0.0603 -0.4715  0.5699
    1TCq1    O114071   3.546   1.654  17.131  0.4518  0.7121  0.3577
    1TCq1    C114072   3.557   1.551  17.210  0.1632 -0.2614 -0.4787
    1TCq1    O214073   3.511   1.439  17.187 -0.1413  0.0795 -0.3942
    1TCq1    C214074   3.591   1.578  17.350 -0.4595  0.2115 -0.4808
    1TCq1    C314075   3.620   1.467  17.430 -0.1981  0.2067  0.2980
    1TCq1    C414076   3.637   1.487  17.562  0.3728  0.0095 -0.3002
    1TCq1    C514077   3.633   1.617  17.612  0.2628 -0.2894 -0.4288
    1TCq1    C614078   3.592   1.721  17.534  1.1878 -0.3667 -0.1266
    1TCq1    C714079   3.566   1.706  17.399  0.2073 -0.5253  0.3938
    1TCq1    C814080   3.574   1.851  17.594  0.3195 -0.3079  0.2189
    1TCq1    O414081   3.586   1.952  17.528 -0.0749  0.1219 -0.1253
    1TCq1    C914082   3.721   1.397  17.633  0.1148 -0.2918 -0.5400
    1TCq1    O514083   3.723   1.279  17.592  0.1381  0.0527 -0.5002
    1TCq1    O614084   3.812   1.443  17.704  0.2366 -0.5283 -0.3766
    1TCq1    H114085   3.597   1.729  17.168 -0.7455  0.4370  2.5179
    1TCq1    H214086   3.652   1.375  17.382 -1.1733 -0.1189  0.2686
    1TCq1    H314087   3.686   1.639  17.704 -1.0219  1.0400 -0.0137
    1TCq1    H414088   3.537   1.785  17.330  0.8815 -0.5069  0.1303
    2MPD1     C14089   3.504   2.115   0.315 -0.1841  0.4864  0.0495
    2MPD1    C114090   3.521   1.986   0.351  0.3359 -0.0944 -0.3441
    2MPD1    C214091   3.544   1.901   0.251 -0.2798 -0.1429  0.5273
    2MPD1    C314092   3.539   1.932   0.117 -0.2840 -0.7205 -0.6367
    2MPD1    C414093   3.520   2.057   0.083 -0.2242 -0.1343 -0.0787
    2MPD1    C514094   3.506   2.157   0.185 -0.0194 -0.0794 -0.4721
    2MPD1     H14095   3.562   1.797   0.272  1.7737 -0.4751 -2.9533
    2MPD1    H114096   3.513   2.092  17.686 -1.9298  2.3444  0.9037
    2MPD1    H214097   3.470   2.189   0.386  1.6973  0.8692  0.5644
    2MPD1    H314098   3.488   2.260   0.158  1.7656  0.8251  1.7909
    2MPD1     N14099   3.551   1.828   0.022 -0.6525  0.3059 -0.6895
    2MPD1    H514100   3.554   1.731   0.053 -0.1729  0.8875  1.0702
    2MPD1    N114101   3.526   1.943   0.485  0.5556 -0.2491 -0.0048
    2MPD1    H614102   3.478   2.009   0.546 -2.1944 -0.6488 -1.7276
    2MPD1    H714103   3.476   1.857   0.506 -0.4364 -0.3044 -2.6034
    1MPD1     C14104   1.994   2.254  11.959  0.0112 -0.0597  0.2710
    1MPD1    C114105   1.972   2.357  11.885 -0.0857  0.1380  0.9226
    1MPD1    C214106   1.916   2.463  11.947 -0.0462  0.7197 -0.1647
    1MPD1    C314107   1.844   2.452  12.066  0.8465  0.1266  0.8449
    1MPD1    C414108   1.841   2.329  12.128 -0.0724  0.1842 -0.6677
    1MPD1    C514109   1.916   2.226  12.069 -0.1858  0.0533 -0.2707
    1MPD1     H14110   1.926   2.558  11.896 -0.0073  0.3442 -0.8487
    1MPD1    H114111   1.824   2.313  12.233  0.3652  2.0718 -0.3165
    1MPD1    H214112   2.056   2.172  11.926 -0.8318 -1.5898  2.4345
    1MPD1    H314113   1.925   2.130  12.118 -1.5238  0.0605 -0.0101
    1MPD1     N14114   1.802   2.574  12.131  0.5971 -0.2849  0.0864
    1MPD1    H514115   1.799   2.658  12.075 -1.6045 -1.2270 -1.2239
    1MPD1    N114116   2.048   2.364  11.764 -0.3326  0.0833  0.0673
    1MPD1    H614117   2.052   2.278  11.710 -1.7852  0.5759 -0.8508
    1MPD1    H714118   1.994   2.427  11.705  0.0805 -4.3163 -5.0015
    2MPD1     C14119   0.657   2.474  10.811 -0.4851 -0.1062 -0.0891
    2MPD1    C114120   0.713   2.572  10.730 -0.0738 -0.1753  0.0225
    2MPD1    C214121   0.827   2.629  10.777 -0.0710 -0.9822 -0.2193
    2MPD1    C314122   0.877   2.602  10.904  0.1933  0.4532 -0.9618
    2MPD1    C414123   0.819   2.511  10.986 -0.2894  0.2952 -0.0577
    2MPD1    C514124   0.712   2.446  10.939  0.0931  0.1871  0.6124
    2MPD1     H14125   0.876   2.696  10.707  1.1671  0.0754  1.6231
    2MPD1    H114126   0.849   2.502  11.089 -0.7649 -0.7843 -0.0078
    2MPD1    H214127   0.574   2.415  10.773  0.9043 -2.2197  0.1954
    2MPD1    H314128   0.662   2.374  11.002  1.2520  0.2884  1.6569
    2MPD1     N14129   0.988   2.667  10.956  0.3225  0.5785 -0.6877
    2MPD1    H514130   1.013   2.637  11.050 -0.5801  0.1699 -0.5815
    2MPD1    N114131   0.676   2.594  10.597  0.2896  0.2338  0.4214
    2MPD1    H614132   0.578   2.573  10.578  0.1398  1.6728 -0.3321
    2MPD1    H714133   0.691   2.689  10.564 -1.4486  0.0733 -0.8182
    3MPD1     C14134   1.933   3.229  10.865 -0.3619 -0.1753 -0.5601
    3MPD1    C114135   1.901   3.249  11.001  0.3477  0.6585  0.1140
    3MPD1    C214136   1.777   3.198  11.034  0.6565  0.4352 -0.1054
    3MPD1    C314137   1.697   3.120  10.954  0.0321  0.6155  0.1933
    3MPD1    C414138   1.755   3.080  10.838  0.2107 -0.5483  0.2853
    3MPD1    C514139   1.872   3.125  10.794 -0.0600  0.0694 -0.2813
    3MPD1     H14140   1.739   3.217  11.134  1.8552 -1.3776  0.6951
    3MPD1    H114141   1.717   2.999  10.776  0.9159  0.1682 -1.0853
    3MPD1    H214142   2.016   3.280  10.815 -1.4597  0.1326 -2.0847
    3MPD1    H314143   1.905   3.095  10.695  1.5859 -0.8043  0.5242
    3MPD1     N14144   1.570   3.073  10.997 -0.6549 -0.4710 -0.1043
    3MPD1    H514145   1.532   3.112  11.083 -0.9431 -2.8577  0.8261
    3MPD1    N114146   1.980   3.334  11.076  0.3576  0.0630  0.2340
    3MPD1    H614147   1.969   3.312  11.175 -2.3244 -1.9565 -0.5050
    3MPD1    H714148   2.078   3.339  11.049  0.9466 -0.9539  2.1335
    4MPD2     C14149   1.207   3.007  12.465 -0.2372 -0.6924 -0.4626
    4MPD2    C114150   1.315   3.048  12.389 -0.8200  0.5872  0.3182
    4MPD2    C214151   1.309   3.161  12.314  0.2205 -0.3585 -0.0171
    4MPD2    C314152   1.183   3.207  12.269 -0.7777  0.1316  0.1921
    4MPD2    C414153   1.071   3.157  12.336 -0.0583  0.0342  0.2173
    4MPD2    C514154   1.085   3.062  12.438 -0.1699  0.2293 -0.0974
    4MPD2     H14155   1.400   3.209  12.281  0.0727 -0.0280  0.0490
    4MPD2    H114156   0.975   3.202  12.317  0.4468  1.1091  0.2036
    4MPD2    H214157   1.209   2.938  12.548 -0.4499 -0.7828 -0.5334
    4MPD2    H314158   0.993   3.030  12.485 -0.0057  0.5597  0.4566
    4MPD2     N14159   1.176   3.317  12.178  0.4091  0.1522  0.0025
    4MPD2    H514160   1.266   3.351  12.145  0.1394  2.3031  1.4344
    4MPD2    N114161   1.441   2.994  12.401 -0.3281 -0.0935 -0.6306
    4MPD2    H714162   1.517   3.036  12.347 -0.4369 -2.1744 -2.3824
    5TMC3    C114163   1.614   2.857  12.455 -0.0379 -0.3868  0.0404
    5TMC3    C214164   1.633   2.726  12.418 -0.1388  0.1805  0.1383
    5TMC3    C314165   1.705   2.715  12.302 -0.5067 -0.0137 -0.3911
    5TMC3    C414166   1.682   2.965  12.412  0.3675 -0.2206 -0.5189
    5TMC3    C514167   1.759   2.941  12.300 -0.5284 -0.0879 -0.0403
    5TMC3    C614168   1.763   2.822  12.239  0.1386 -0.0134  0.7227
    5TMC3     C14169   1.474   2.885  12.477 -0.6487 -0.2072  0.5356
    5TMC3     O14170   1.400   2.801  12.526 -0.0411 -0.0830 -0.1875
    5TMC3     H14171   1.585   2.640  12.464  2.8748  0.6151  4.1672
    5TMC3    H114172   1.674   3.058  12.467 -0.6046 -1.1581  0.9199
    5TMC3    H214173   1.820   2.816  12.147 -0.2861  1.4038  0.3771
    5TMC3    C714174   1.734   3.059  12.214  0.6256 -0.6014 -0.3773
    5TMC3    C814175   1.738   2.577  12.256 -0.1012  0.1038  0.2243
    5TMC3    O114176   1.655   3.140  12.263  0.3902  0.1461  0.1782
    5TMC3    O214177   1.717   2.484  12.333 -0.7432  0.4863 -0.3903
    6TMC3    C114178   1.171   2.823  10.975 -0.0905  0.0583  1.2162
    6TMC3    C214179   1.277   2.876  10.913 -0.1375  0.3684 -0.7039
    6TMC3    C314180   1.368   2.953  10.983 -0.4650  0.0538 -0.0001
    6TMC3    C414181   1.150   2.836  11.112 -0.2441  0.1128 -0.0925
    6TMC3    C514182   1.226   2.930  11.176  0.2699 -0.1731 -0.8109
    6TMC3    C614183   1.338   2.989  11.109  0.0872  0.4938 -0.3964
    6TMC3     C14184   1.068   2.760  10.895 -0.2518  0.1951 -0.0140
    6TMC3     O14185   1.054   2.806  10.783 -0.0549  0.6292 -0.3437
    6TMC3     H14186   1.283   2.874  10.805  0.0632 -0.4138 -0.6720
    6TMC3    H114187   1.074   2.776  11.160 -1.2561  0.6939 -0.9669
    6TMC3    H214188   1.383   3.074  11.159 -1.4130  0.7006  0.6281
    6TMC3    C714189   1.187   2.998  11.301 -0.6403  0.2075  0.1792
    6TMC3    C814190   1.493   2.983  10.923 -0.1730  0.1809 -0.2211
    6TMC3    O114191   1.275   3.067  11.356  0.1556  0.4825 -0.2763
    6TMC3    O214192   1.523   2.913  10.826  0.6137  0.1249  0.5208
    7MPD2     C14193   1.646   3.264  11.758  0.4787 -0.0622 -0.9067
    7MPD2    C114194   1.594   3.297  11.878 -0.5420 -0.3992  0.5465
    7MPD2    C214195   1.636   3.232  11.985  0.2606  0.7543  0.0901
    7MPD2    C314196   1.730   3.128  11.976  0.2280  0.4022  0.0327
    7MPD2    C414197   1.771   3.091  11.853  0.2776  0.2580  0.9629
    7MPD2    C514198   1.735   3.159  11.740 -0.0699  0.1144 -0.1518
    7MPD2     H14199   1.589   3.260  12.078  2.4904  1.2412  1.0776
    7MPD2    H114200   1.848   3.015  11.844  0.9477  0.9259  1.0102
    7MPD2    H214201   1.622   3.311  11.663 -0.3197 -1.7638 -1.5606
    7MPD2    H314202   1.786   3.137  11.648 -3.6869 -2.8366 -1.4684
    7MPD2     N14203   1.779   3.043  12.085 -0.0665  0.1541 -0.9358
    7MPD2    H514204   1.847   2.974  12.055 -0.9409 -0.7516 -0.8613
    7MPD2    N114205   1.489   3.396  11.877 -0.3249  0.2029  0.7523
    7MPD2    H714206   1.467   3.433  11.785  0.8421  0.1580  0.4537
    8TMC3    C114207   1.308   3.522  11.949  0.3699  0.0302  0.4129
    8TMC3    C214208   1.267   3.507  11.822 -0.2687 -0.0152  0.0783
    8TMC3    C314209   1.137   3.461  11.791  0.1593 -0.4430  0.2064
    8TMC3    C414210   1.222   3.520  12.054 -0.8346 -0.0174  0.5737
    8TMC3    C514211   1.105   3.456  12.024  0.2088 -0.2696 -0.0316
    8TMC3    C614212   1.059   3.421  11.899 -0.0144 -0.1327 -0.6970
    8TMC3     C14213   1.421   3.438  11.987  1.1631 -0.3252  0.3781
    8TMC3     O14214   1.422   3.392  12.100 -0.5382 -0.2571  0.5947
    8TMC3     H14215   1.335   3.530  11.741 -0.5914 -0.0572 -0.2034
    8TMC3    H114216   1.258   3.542  12.154  1.9145 -0.1213 -0.3951
    8TMC3    H214217   0.962   3.373  11.892  1.0739 -2.3016 -1.0149
    8TMC3    C714218   1.062   3.366  12.122  0.5792 -0.2725 -0.0904
    8TMC3    C814219   1.106   3.391  11.667 -0.2852 -0.3418  0.3477
    8TMC3    O114220   0.951   3.311  12.110  0.2138  0.4536 -0.2380
    8TMC3    O214221   1.203   3.364  11.595  0.7319 -0.2538 -0.2024
    9MPD2     C14222   0.805   3.191  11.597  0.3216  0.5597 -0.5318
    9MPD2    C114223   0.928   3.234  11.582 -0.2685  0.8308 -0.0338
    9MPD2    C214224   1.012   3.157  11.504  0.3724 -0.2004  0.8787
    9MPD2    C314225   0.968   3.061  11.415 -0.1100  0.2937  0.7230
    9MPD2    C414226   0.831   3.028  11.420 -0.2010 -1.0522  0.5888
    9MPD2    C514227   0.757   3.097  11.511 -0.8504 -0.2235 -0.2248
    9MPD2     H14228   1.118   3.176  11.506  0.9176 -2.9513 -2.3544
    9MPD2    H114229   0.795   2.954  11.349 -0.0124  0.6331 -1.2660
    9MPD2    H214230   0.739   3.238  11.669  1.5285  1.0711  0.2448
    9MPD2    H314231   0.653   3.066  11.523 -1.2114  1.0928 -0.0133
    9MPD2     N14232   1.052   2.985  11.322 -0.2300  0.3084 -0.6684
    9MPD2    H514233   1.003   2.919  11.262 -1.6265  0.4456  0.3264
    9MPD2    N114234   0.973   3.346  11.658  0.5028  0.3129 -0.7785
    9MPD2    H714235   0.910   3.391  11.724  3.3414  2.9590  0.1453
    1MPD1     C14236   1.487   2.303  16.232 -0.1632  0.1503 -0.2325
    1MPD1    C114237   1.444   2.214  16.136 -0.1162  0.4439 -0.2471
    1MPD1    C214238   1.341   2.132  16.177 -0.0799  0.3753 -0.4730
    1MPD1    C314239   1.293   2.135  16.309 -0.3766 -0.1732  0.5941
    1MPD1    C414240   1.329   2.229  16.398 -0.1874 -0.1010 -0.2104
    1MPD1    C514241   1.436   2.305  16.366  0.2678 -0.0090  0.8086
    1MPD1     H14242   1.295   2.068  16.103  1.9124  0.9655 -2.2050
    1MPD1    H114243   1.293   2.232  16.500  0.4770 -0.1212  0.0228
    1MPD1    H214244   1.573   2.365  16.209 -1.1517  1.2695 -0.8981
    1MPD1    H314245   1.483   2.371  16.438 -0.7554  1.5436  0.0676
    1MPD1     N14246   1.197   2.050  16.354  0.3677 -0.2524 -0.2180
    1MPD1    H514247   1.147   2.074  16.439  1.4088  2.5910 -0.4166
    1MPD1    N114248   1.470   2.235  16.005 -0.0509 -0.4154  0.2660
    1MPD1    H614249   1.565   2.272  16.000  0.5825 -2.0011  0.4668
    1MPD1    H714250   1.453   2.151  15.949 -0.4414 -1.3117  1.7109
    2MPD1     C14251   0.769   1.221  16.778 -0.2084 -0.3093  0.2136
    2MPD1    C114252   0.753   1.345  16.841  0.0624 -0.1187  0.2264
    2MPD1    C214253   0.771   1.463  16.763  0.1073 -0.7755 -0.2705
    2MPD1    C314254   0.802   1.446  16.629 -0.1525 -0.1311 -0.4517
    2MPD1    C414255   0.817   1.320  16.574  0.1207 -0.0500 -0.0227
    2MPD1    C514256   0.803   1.209  16.651  0.6582 -0.1869  0.1581
    2MPD1     H14257   0.760   1.565  16.797 -0.5316 -1.6790  2.2736
    2MPD1    H114258   0.859   1.312  16.475 -1.1408  0.6702 -0.6158
    2MPD1    H214259   0.761   1.126  16.829  0.8924  0.9845  2.8247
    2MPD1    H314260   0.805   1.112  16.604  0.5533  0.4817 -1.2246
    2MPD1     N14261   0.836   1.557  16.550 -0.1636  0.5163  0.6520
    2MPD1    H514262   0.851   1.648  16.593 -1.6130 -0.3734  3.0024
    2MPD1    N114263   0.696   1.361  16.970 -0.8259 -0.2223 -0.0854
    2MPD1    H614264   0.730   1.444  17.018 -1.6502  0.6872 -1.0898
    2MPD1    H714265   0.710   1.280  17.030  2.1322 -0.4533 -1.0458
    3TCq2    C114266   0.867   1.566  16.413  0.3602 -0.4462  0.0685
    3TCq2    O214267   0.874   1.481  16.328  0.5618  0.7043  0.2093
    3TCq2    C214268   0.882   1.704  16.378  1.0021 -0.3835  0.0511
    3TCq2    C314269   0.785   1.785  16.435  0.2345  0.3642 -0.1226
    3TCq2    C414270   0.802   1.918  16.437  0.1716  0.0642 -0.1617
    3TCq2    C514271   0.921   1.976  16.405  0.4559  0.2727  0.0470
    3TCq2    C614272   1.013   1.893  16.342  0.0465  0.5069 -0.2010
    3TCq2    C714273   0.991   1.759  16.323  0.7778  0.9497 -0.0739
    3TCq2    C814274   1.141   1.944  16.291 -0.3767 -1.0480  0.1442
    3TCq2    O414275   1.183   1.886  16.194 -0.0670  0.0745 -1.4132
    3TCq2    C914276   0.700   1.998  16.491  0.3884  0.1348 -0.1775
    3TCq2    O514277   0.619   1.929  16.562 -0.2173  0.2969  0.0351
    3TCq2    O614278   0.697   2.124  16.474 -0.2856  0.3766 -0.3732
    3TCq2    H214279   0.691   1.739  16.463 -0.0135  0.7138 -0.3778
    3TCq2    H314280   0.935   2.082  16.427 -0.8464  0.8972 -2.1650
    3TCq2    H414281   1.064   1.710  16.259 -0.6956  1.3805 -2.0761
    1TCq1    O114282   3.188   0.725  12.736 -0.2718 -0.1752 -0.8390
    1TCq1    C114283   3.227   0.704  12.606  0.2080  0.9207 -0.1910
    1TCq1    O214284   3.247   0.795  12.523 -0.4518  0.0651 -0.7186
    1TCq1    C214285   3.325   0.595  12.624 -0.0186 -0.2402 -0.5647
    1TCq1    C314286   3.290   0.480  12.701  0.0507  0.7091  0.0118
    1TCq1    C414287   3.392   0.395  12.750 -0.0220  0.3986 -0.1386
    1TCq1    C514288   3.516   0.443  12.746 -0.3315  0.0344  0.4810
    1TCq1    C614289   3.544   0.558  12.671  0.2845 -0.2551 -0.1126
    1TCq1    C714290   3.453   0.624  12.589 -0.1046  0.2947  0.1733
    1TCq1    C814291   3.677   0.611  12.668  0.2738 -0.7467  0.6602
    1TCq1    O414292   3.700   0.692  12.576 -0.2114  0.4256  0.2991
    1TCq1    C914293   3.353   0.280  12.829 -0.1952 -0.2237  0.4688
    1TCq1    O514294   3.450   0.220  12.877  0.0909  0.1176 -0.6459
    1TCq1    O614295   3.245   0.227  12.790  0.1766  0.2981 -0.3961
    1TCq1    H114296   3.229   0.652  12.787 -1.6909  1.1210  2.1658
    1TCq1    H214297   3.184   0.468  12.723 -0.0413  0.5908 -0.5143
    1TCq1    H314298   3.595   0.386  12.793  0.0867  1.7541  1.8459
    1TCq1    H414299   3.472   0.712  12.530  0.7193  1.7246  2.5607
    2MPD2     C14300   3.958   0.696  12.720  0.4145  0.5042 -0.4673
    2MPD2    C114301   3.879   0.624  12.813 -0.1455  0.3582  0.2450
    2MPD2    C214302   3.928   0.608  12.947 -0.3022  0.5623  0.1469
    2MPD2    C314303   4.047   0.672  12.983 -0.0566  0.3813  0.1108
    2MPD2    C414304   4.122   0.728  12.883  0.1398  0.9153 -0.0375
    2MPD2    C514305   4.074   0.744  12.757  0.1902 -0.5461 -0.0416
    2MPD2     H14306   3.862   0.561  13.018 -0.7534  0.0258 -0.6274
    2MPD2    H114307   4.221   0.766  12.905  0.1703  1.3057 -0.8567
    2MPD2    H214308   3.937   0.689  12.614  1.8469  1.0330 -0.7845
    2MPD2    H314309   4.130   0.790  12.676 -1.1741  0.9199 -0.1393
    2MPD2     N14310   4.092   0.668  13.122 -0.3232 -0.4905  0.9090
    2MPD2    H514311   4.043   0.607  13.186 -0.7165 -1.2420 -0.1041
    2MPD2    N114312   3.757   0.569  12.778 -0.3618  0.4234 -0.3788
    2MPD2    H714313   3.713   0.512  12.850 -2.3378  1.8154 -0.4555
    3TCq1    O114314   4.346   1.025  13.522 -0.5336  0.0302  0.0980
    3TCq1    C114315   4.324   0.907  13.589  0.3291  0.0148 -0.3284
    3TCq1    O214316   4.355   0.885  13.704 -0.0871 -0.8130  0.4445
    3TCq1    C214317   4.338   0.798  13.490 -0.3207 -0.0729  0.5402
    3TCq1    C314318   4.397   0.679  13.521 -0.0936 -0.6703  0.3300
    3TCq1    C414319   4.381   0.577  13.429 -0.3379  0.2843 -0.5481
    3TCq1    C514320   4.298   0.591  13.321  0.3986 -0.3810  0.1584
    3TCq1    C614321   4.229   0.707  13.304 -0.1576  0.5271 -0.3360
    3TCq1    C714322   4.250   0.814  13.388 -0.2465 -0.7433  0.1376
    3TCq1    C814323   4.199   0.747  13.170 -0.9531 -0.3716  0.4648
    3TCq1    O414324   4.276   0.826  13.117 -0.2207 -0.1121 -0.0762
    3TCq1    C914325   4.442   0.449  13.454  0.0577 -0.1527  0.3954
    3TCq1    O514326   4.432   0.366  13.364 -0.2513  0.2696 -0.1578
    3TCq1    O614327   4.485   0.428  13.572 -0.5253  0.2094 -0.6193
    3TCq1    H114328   4.374   1.011  13.429 -0.6782 -1.0689  0.2238
    3TCq1    H214329   4.458   0.668  13.610  1.9621 -1.5690 -1.1887
    3TCq1    H314330   4.281   0.514  13.247 -0.8264  0.9046 -0.8910
    3TCq1    H414331   4.198   0.907  13.370 -0.0976 -1.0204 -1.6721
    1MPD2     C14332   4.128   1.764  14.631  0.5606  0.2884 -0.0045
    1MPD2    C114333   3.994   1.747  14.607 -0.3010 -0.4201 -0.0384
    1MPD2    C214334   3.957   1.679  14.494 -0.2636 -0.9351 -0.9777
    1MPD2    C314335   4.041   1.619  14.403  0.2158 -0.2983  0.0146
    1MPD2    C414336   4.178   1.631  14.433 -0.2532 -0.2445 -0.0127
    1MPD2    C514337   4.218   1.708  14.543 -0.3362 -1.1699  0.6166
    1MPD2     H14338   3.851   1.670  14.479 -0.3170  1.5116 -1.9801
    1MPD2    H114339   4.257   1.586  14.374 -0.5751  0.2445 -0.8031
    1MPD2    H214340   4.159   1.828  14.713  0.1455  0.4064  0.0642
    1MPD2    H314341   4.323   1.707  14.569  0.4183  0.6905 -2.3443
    1MPD2     N14342   3.985   1.539  14.304  0.7987 -0.5305 -0.1329
    1MPD2    H514343   3.884   1.534  14.289  1.0378 -1.2492 -1.5162
    1MPD2    N114344   3.900   1.811  14.697  0.1218 -0.1681  0.3799
    1MPD2    H714345   3.946   1.863  14.771 -0.0199  0.6252 -0.0794
    2TMC3    C114346   3.686   1.890  14.766 -0.2088 -0.3150 -0.5914
    2TMC3    C214347   3.568   1.820  14.789 -0.1579  0.3211  0.5012
    2TMC3    C314348   3.446   1.883  14.776  0.3585 -0.6802 -0.6089
    2TMC3    C414349   3.682   2.020  14.722 -0.1739 -0.5990  0.1977
    2TMC3    C514350   3.563   2.083  14.713 -0.3298  0.9056 -0.3315
    2TMC3    C614351   3.443   2.016  14.740  0.3358 -0.5377  0.2733
    2TMC3     C14352   3.765   1.799  14.686  0.5801  0.5847 -0.0427
    2TMC3     O14353   3.696   1.723  14.618  0.0914  0.2375 -0.0064
    2TMC3     H14354   3.573   1.715  14.815 -0.6043  0.1296 -0.1871
    2TMC3    H114355   3.774   2.068  14.690  0.0771  0.0585  1.9222
    2TMC3    H214356   3.346   2.056  14.715  0.6520  0.6906  0.9762
    2TMC3    C714357   3.566   2.213  14.653 -1.0651  0.0094  0.0490
    2TMC3    C814358   3.352   1.810  14.698 -0.0796 -0.0329 -0.2834
    2TMC3    O114359   3.674   2.241  14.599  0.4191 -0.1355 -0.1448
    2TMC3    O214360   3.233   1.834  14.711  0.0226  0.0612  0.2744
    3TCq1    O114361   3.673   2.764  13.709  0.0438 -0.2998 -0.4420
    3TCq1    C114362   3.798   2.748  13.764 -0.0825 -0.5583 -0.8284
    3TCq1    O214363   3.905   2.765  13.714 -0.0865  0.2701 -0.4824
    3TCq1    C214364   3.796   2.707  13.903 -0.1083 -0.2844 -0.5711
    3TCq1    C314365   3.918   2.693  13.964 -0.2719  0.5229 -0.4062
    3TCq1    C414366   3.908   2.665  14.098 -0.1543  0.7255 -0.0457
    3TCq1    C514367   3.797   2.647  14.162  0.8830 -0.0648 -0.7482
    3TCq1    C614368   3.677   2.673  14.101 -0.3085 -0.3077 -0.4959
    3TCq1    C714369   3.677   2.719  13.973  0.1385  0.2862 -0.0638
    3TCq1    C814370   3.547   2.638  14.166  0.2058  1.0478  0.8937
    3TCq1    O414371   3.444   2.696  14.131  0.5819 -0.2101 -0.0080
    3TCq1    C914372   4.023   2.635  14.174  0.4497 -0.4171 -0.1639
    3TCq1    O514373   4.025   2.542  14.255  0.3345 -0.4904  0.6842
    3TCq1    O614374   4.134   2.671  14.119 -0.3441  0.3416  0.1370
    3TCq1    H114375   3.608   2.702  13.748 -0.3699 -2.2460 -4.1854
    3TCq1    H214376   4.015   2.712  13.920  0.9098  0.2507  2.1127
    3TCq1    H314377   3.815   2.636  14.268  1.6217  2.4546 -0.6115
    3TCq1    H414378   3.586   2.747  13.922 -0.8469 -2.5224  0.1463
    4MPD2     C14379   3.367   2.611  14.402  0.1478  0.0482  0.1098
    4MPD2    C114380   3.479   2.534  14.382 -0.1514  0.2156 -0.1857
    4MPD2    C214381   3.500   2.430  14.468 -0.2614 -0.2263 -0.8363
    4MPD2    C314382   3.419   2.393  14.570  0.0508  0.3968  0.0637
    4MPD2    C414383   3.307   2.470  14.588 -0.7071 -0.1084 -0.8028
    4MPD2    C514384   3.275   2.570  14.498  0.1168 -0.3620 -0.0706
    4MPD2     H14385   3.588   2.369  14.447  0.6421  1.2350 -1.3154
    4MPD2    H114386   3.233   2.443  14.662 -1.1803 -1.4817 -1.7685
    4MPD2    H214387   3.348   2.696  14.337  5.3042  1.7956  0.8495
    4MPD2    H314388   3.182   2.618  14.526 -0.9869 -2.5817  0.1038
    4MPD2     N14389   3.449   2.283  14.654  0.0996  0.6171 -0.0471
    4MPD2    H514390   3.378   2.266  14.724  0.9281  1.1133  0.9180
    4MPD2    N114391   3.570   2.556  14.275 -0.5580 -0.2454  0.1162
    4MPD2    H714392   3.654   2.500  14.265 -0.0293  0.2647  1.7298
    5TMC2    C114393   3.714   1.367  14.179  0.1990  1.0566 -0.2990
    5TMC2    C214394   3.703   1.265  14.263  0.2859 -0.1507  0.0432
    5TMC2    C314395   3.820   1.208  14.309 -0.5154  0.0135 -0.0494
    5TMC2    C414396   3.836   1.413  14.134 -0.0176 -0.1416  0.2123
    5TMC2    C514397   3.948   1.349  14.188  0.4438 -0.5083  0.1728
    5TMC2    C614398   3.942   1.245  14.272  0.2884 -0.4285 -0.3791
    5TMC2     C14399   3.629   1.472  14.232  0.2448  0.2460 -0.0005
    5TMC2     O14400   3.689   1.575  14.254  0.0915 -0.1953 -0.1306
    5TMC2     H14401   3.612   1.253  14.321 -0.9513 -0.4138 -1.9749
    5TMC2    H114402   3.837   1.512  14.089 -1.9363 -0.1565  0.1629
    5TMC2    H214403   4.030   1.219  14.330  0.1920 -0.2445 -0.1489
    5TMC2    C714404   4.044   1.442  14.231 -0.5651  0.6835  0.3805
    5TMC2    C814405   3.813   1.148  14.442  1.2278  0.7662  0.0315
    5TMC2    O114406   4.153   1.394  14.247  0.1033 -0.6089 -0.0471
    5TMC2    O214407   3.726   1.171  14.524  0.3227  0.0950 -0.9890
    5TMC2    O514408   3.889   1.035  14.456  0.5414 -0.1480  0.2321
    5TMC2    H514409   3.966   1.031  14.396 -0.8999  1.0417 -1.6939
    6MPD2     C14410   3.226   1.623  14.500  0.3547  0.0914  0.1931
    6MPD2    C114411   3.365   1.644  14.512 -0.2955 -0.2931 -0.4894
    6MPD2    C214412   3.453   1.594  14.425 -0.1081  0.5649  0.7091
    6MPD2    C314413   3.408   1.502  14.331  0.3639  0.0939 -0.7099
    6MPD2    C414414   3.274   1.468  14.321 -0.0700 -0.2973 -0.7380
    6MPD2    C514415   3.181   1.528  14.402  0.1350  0.8419  0.4727
    6MPD2     H14416   3.560   1.604  14.436 -0.0134 -0.9016  1.1370
    6MPD2    H114417   3.243   1.393  14.250 -1.6306  0.2808 -0.6508
    6MPD2    H214418   3.155   1.659  14.573  0.9981  2.0162 -0.1137
    6MPD2    H314419   3.075   1.504  14.403  0.1712  0.7128  1.5212
    6MPD2     N14420   3.493   1.439  14.243 -0.2421 -0.7506 -0.4118
    6MPD2    H514421   3.452   1.360  14.192 -1.0071  0.0556 -1.0461
    6MPD2    N114422   3.421   1.734  14.605 -0.0572  0.0189  0.5090
    6MPD2    H714423   3.522   1.743  14.606  0.0803 -1.3917 -1.2516
  945NH4     N114424   2.479   3.274   1.336  0.8269 -0.2296  0.1955
  945NH4     H214425   2.474   3.361   1.280 -1.0608  0.5412  1.5258
  945NH4     H314426   2.384   3.246   1.368 -0.2723  0.7393 -2.2587
  945NH4     H414427   2.548   3.280   1.414  0.4069  1.3244  0.4541
  945NH4     H514428   2.510   3.198   1.273  1.0168 -0.6373  0.7722
  946SOD     NA14429   1.724   4.221  13.397 -0.1258  0.2821  0.2641
  947SOD     NA14430   1.742   1.848   2.591 -0.3229 -0.0734 -0.3016
  948SOD     NA14431   2.434   1.337   6.728 -0.3797 -0.2923 -0.0078
  949SOD     NA14432   3.466   4.037  15.867  0.0887 -0.2148 -0.3388
  950SOD     NA14433   3.645   1.407   3.895 -0.4024 -0.3194  0.3380
  951SOD     NA14434   1.051   3.981  17.278 -0.4235 -0.2433  0.0883
  952SOD     NA14435   0.274   0.116  16.630  0.1184 -0.1367  0.3431
  953SOD     NA14436   0.086   1.155  10.332  0.4931  0.0104  0.1781
  954SOD     NA14437   2.985   4.599  13.323  0.3467  0.0715 -0.4666
  955SOD     NA14438   2.248   0.496  16.994  0.3925  0.4771  0.2959
  956SOD     NA14439   2.214   0.310  12.758 -0.2537 -0.3955  0.1453
  957SOD     NA14440   4.683   3.601  10.374  0.0367 -0.3910 -0.2194
  958SOD     NA14441   3.120   0.262  15.051  0.0257  0.3698 -0.0594
  959SOD     NA14442   3.764   1.026  10.482  0.0710  0.3598 -0.1192
  960SOD     NA14443   3.322   2.620  11.180 -0.1654 -0.1821  0.4463
  961SOD     NA14444   2.054   0.179   0.392 -0.1333  0.3615  0.0591
  962SOD     NA14445   2.074   0.865  10.987 -0.4649  0.3316  0.3443
  963SOD     NA14446   2.084   3.331   9.625 -0.6283 -0.3786 -0.3415
  964SOD     NA14447   1.672   3.808   0.947 -0.2364 -0.2145 -0.4046
  965SOD     NA14448   2.282   2.799   9.764  0.2705  0.3307  0.1924
  966SOD     NA14449   2.759   4.616   1.183  0.1027  0.4923  0.0829
  967SOD     NA14450   4.520   1.231  11.474 -0.1865  0.0409  0.1350
  968SOD     NA14451   4.051   4.096  10.666 -0.2683  0.3174 -0.0021
  969SOD     NA14452   4.644   0.370   3.376  0.2851 -0.4994  0.4419
  970SOD     NA14453   1.162   1.565   2.438 -0.2188  0.6927  0.5952
  971SOD     NA14454   0.345   3.117  17.694  0.4986  0.0603 -0.0640
  972SOD     NA14455   4.552   3.183  16.154 -0.0553 -0.1968  0.9109
  973SOD     NA14456   3.972   2.332  14.284  0.1482 -0.0398 -0.0799
  974SOD     NA14457   3.212   3.871   9.992 -0.4935 -0.1023  0.4206
  975SOD     NA14458   4.015   1.041   0.966  0.0997 -0.2438 -0.1390
  976SOD     NA14459   1.863   1.755  13.747  0.1392 -0.0631  0.2102
  977SOD     NA14460   0.142   2.742  14.858  0.0893 -0.0400 -0.3008
  978SOD     NA14461   2.755   4.337   9.531 -0.2488 -0.1728  0.1321
  979SOD     NA14462   4.142   1.896  16.936 -0.0185 -0.2873  0.4248
  980SOD     NA14463   3.109   0.550  13.838  0.8046 -0.4444  0.4072
  981SOD     NA14464   0.329   1.506  11.377  0.1287  0.0502 -0.0184
  982SOD     NA14465   0.115   1.402  11.585  0.0748 -0.3781  0.0017
  983SOD     NA14466   0.457   1.417  15.071  0.0741 -0.3504  0.0414
  984SOD     NA14467   4.547   3.874   7.263  0.3353  0.3206 -0.6538
  985SOD     NA14468   0.667   0.575   2.166 -1.0791  0.5752 -0.2130
  986SOD     NA14469   4.589   2.389  14.238  0.0500  0.2239  0.7431
  987SOD     NA14470   0.295   1.333  14.727 -0.3761  0.0420  0.4723
  988SOD     NA14471   0.193   1.884  15.369  0.0034  0.3300  0.1005
  989SOD     NA14472   3.268   0.553   9.903 -0.2106 -0.2853  0.2848
  990SOD     NA14473   1.230   2.314  10.986  0.0287 -0.3005 -0.0483
  991SOD     NA14474   3.588   0.130  11.165 -0.3370  0.0275 -0.0750
  992SOD     NA14475   1.765   4.244  14.952 -0.1083  0.2210  0.2323
  993SOD     NA14476   1.380   4.684  15.965 -0.2412  0.0794 -0.0738
  994SOD     NA14477   4.237   2.515  14.219  0.0581  0.5012 -0.0191
  995SOD     NA14478   0.064   2.815   5.692 -0.1822  0.3855 -0.0109
  996SOD     NA14479   3.056   0.162  12.716  0.2058  0.0081 -0.5539
  997SOD     NA14480   3.203   2.362   8.758  0.2217 -0.7186 -0.4283
  998SOD     NA14481   4.358   1.525  11.504 -0.0678 -0.1627  0.1234
  999SOD     NA14482   0.832   1.831  13.707  0.2844 -0.0390 -0.2147
 1000SOD     NA14483   2.927   1.460  10.755 -0.0249  0.0476 -0.3148
 1001SOD     NA14484   0.604   2.261  16.015 -0.1411  0.2758 -0.1723
 1002SOD     NA14485   2.326   3.983   3.337 -0.7407 -0.0467  0.9169
 1003SOD     NA14486   3.249   3.870   9.687  0.1695  0.0218 -0.3308
 1004SOD     NA14487   0.481   1.768  15.161  0.3489 -0.4033  0.0190
 1005SOD     NA14488   1.381   2.877   2.580 -0.2170  0.4624 -0.2475
 1006SOD     NA14489   4.519   0.407  13.166  0.2572 -0.1814 -0.4157
 1007SOD     NA14490   0.845   2.415  13.158 -0.2666  0.0837 -0.4802
 1008SOD     NA14491   2.907   2.154  11.379  0.1414 -0.6231  0.2927
 1009SOD     NA14492   0.141   3.521  12.434 -0.1450 -0.3873  0.1110
 1010SOD     NA14493   2.598   0.043  10.480  0.8168 -0.7860  0.1476
 1011SOL     OW14494   1.989   2.702   3.606  0.7306 -0.0244 -0.4418
 1011SOL    HW114495   1.921   2.702   3.539  0.6271 -0.6986 -0.3382
 1011SOL    HW214496   2.002   2.795   3.626  0.4046  0.3037 -1.7347
 1012SOL     OW14497   1.704   3.588   0.914  0.4498 -0.5384  0.0105
 1012SOL    HW114498   1.761   3.558   0.844 -1.1604 -1.9921 -0.6752
 1012SOL    HW214499   1.756   3.559   0.988  1.7924 -0.5966 -0.9518
 1013SOL     OW14500   4.584   2.209   0.944  0.1447 -0.0708 -0.0892
 1013SOL    HW114501   4.638   2.143   0.988 -2.1347 -1.6195  0.3728
 1013SOL    HW214502   4.504   2.205   0.996 -0.2951  1.2403 -0.6716
 1014SOL     OW14503   1.090   2.929   6.056  0.4342 -0.2117  0.3078
 1014SOL    HW114504   1.113   2.929   6.149 -0.5221 -1.3571  0.5436
 1014SOL    HW214505   1.031   2.855   6.045 -0.4630  0.4949  0.4011
 1015SOL     OW14506   4.150   0.271  16.085  0.6828  0.3368  0.2861
 1015SOL    HW114507   4.128   0.276  16.178  0.5529  1.8851  0.1860
 1015SOL    HW214508   4.215   0.342  16.079  1.1449 -0.1524 -0.4326
 1016SOL     OW14509   4.326   3.754   9.681  0.4962  0.6595  0.0491
 1016SOL    HW114510   4.417   3.730   9.660  0.1860  1.0348 -1.7575
 1016SOL    HW214511   4.284   3.721   9.602 -1.7464 -0.1134  1.5778
 1017SOL     OW14512   3.939   3.065   5.140  0.2278  0.2222  0.2064
 1017SOL    HW114513   4.016   3.067   5.083 -0.6594 -0.9764 -1.0467
 1017SOL    HW214514   3.892   3.148   5.128  0.3858  0.3447  0.4355
 1018SOL     OW14515   3.825   2.418  17.459 -0.7324 -0.0645  0.3211
 1018SOL    HW114516   3.879   2.393  17.384 -1.5101 -0.3071 -0.1591
 1018SOL    HW214517   3.766   2.343  17.460  0.4127 -1.0278 -2.5363
 1019SOL     OW14518   1.964   0.220   2.544 -0.0111  0.2457  0.4983
 1019SOL    HW114519   1.945   0.307   2.510  1.6395  0.1855 -0.5714
 1019SOL    HW214520   2.049   0.208   2.502 -0.7181  1.0014 -1.1671
 1020SOL     OW14521   4.236   3.292   0.566  0.0095 -0.2357  0.1070
 1020SOL    HW114522   4.304   3.226   0.550  1.6187  1.4845 -0.0834
 1020SOL    HW214523   4.173   3.232   0.606  0.0888  0.9142  1.9915
 1021SOL     OW14524   2.781   1.615   4.209  0.0079  0.6037 -0.5830
 1021SOL    HW114525   2.823   1.697   4.236 -0.7011  1.1613 -1.1591
 1021SOL    HW214526   2.751   1.570   4.288 -2.2269 -0.9898 -2.3542
 1022SOL     OW14527   2.196   1.264   3.211  0.4532 -0.1627  0.1362
 1022SOL    HW114528   2.263   1.290   3.148  0.2141 -2.4557 -1.0612
 1022SOL    HW214529   2.141   1.341   3.221 -0.4880 -0.7457 -0.5376
 1023SOL     OW14530   2.845   2.495   4.324  0.1778 -0.3499  0.0083
 1023SOL    HW114531   2.927   2.466   4.285 -1.1895 -0.2320 -2.9696
 1023SOL    HW214532   2.869   2.542   4.403 -1.0988  1.6752 -0.7995
 1024SOL     OW14533   1.871   2.555  13.653  0.2730 -0.6994  0.3401
 1024SOL    HW114534   1.842   2.568  13.563  0.9190  0.7865  0.3459
 1024SOL    HW214535   1.882   2.460  13.657 -0.8445 -0.8996 -1.2669
 1025SOL     OW14536   0.504   3.723   0.104  0.1459 -0.0928  0.0739
 1025SOL    HW114537   0.469   3.668   0.174 -1.5300  1.4782  0.4766
 1025SOL    HW214538   0.471   3.807   0.137 -1.2066 -0.8452  0.6151
 1026SOL     OW14539   3.689   2.234   4.191  0.0517 -0.5660  0.4420
 1026SOL    HW114540   3.627   2.304   4.169  0.7037  0.0384  0.5415
 1026SOL    HW214541   3.656   2.166   4.133 -0.2980  0.0104 -0.0398
 1027SOL     OW14542   4.161   2.103   3.929  0.6261 -0.3913 -0.0581
 1027SOL    HW114543   4.198   2.016   3.946 -1.4484 -1.3362 -0.3134
 1027SOL    HW214544   4.228   2.165   3.955  2.2265 -1.4509 -1.6914
 1028SOL     OW14545   2.529   4.144   4.690  0.4867 -0.3168  0.4447
 1028SOL    HW114546   2.509   4.186   4.773 -1.3800 -2.3085  0.9956
 1028SOL    HW214547   2.538   4.221   4.633 -0.1844 -0.1920  0.5186
 1029SOL     OW14548   2.009   4.399   6.772 -0.1800  0.8971  0.2863
 1029SOL    HW114549   2.041   4.444   6.850  2.2282  2.4580 -1.6253
 1029SOL    HW214550   2.079   4.334   6.771  0.4418  1.6009 -2.4463
 1030SOL     OW14551   4.160   1.044  15.782  0.5071 -0.2184  0.3769
 1030SOL    HW114552   4.174   1.123  15.834 -0.5578 -0.2373  0.6876
 1030SOL    HW214553   4.069   1.055  15.754  0.7863 -0.6210 -0.7086
 1031SOL     OW14554   4.075   4.190  15.666 -0.1212 -0.2357  0.4447
 1031SOL    HW114555   4.071   4.249  15.590 -1.7418 -1.3174 -0.3078
 1031SOL    HW214556   4.128   4.118  15.631  1.2147  0.4548  1.0315
 1032SOL     OW14557   2.106   2.472   3.696  0.1377 -0.6949  0.2522
 1032SOL    HW114558   2.052   2.398   3.668 -1.2832 -0.0188  1.2050
 1032SOL    HW214559   2.050   2.543   3.664 -2.3399 -2.1011  1.4422
 1033SOL     OW14560   3.008   0.178   0.523  0.4241  0.1508  0.2911
 1033SOL    HW114561   2.921   0.143   0.505  0.6871  1.3735 -3.4855
 1033SOL    HW214562   3.038   0.167   0.432 -1.2986 -0.4520 -0.1947
 1034SOL     OW14563   4.584   4.619   7.365 -0.2980 -0.1294  0.2535
 1034SOL    HW114564   4.551   4.677   7.296  0.1286  0.1811  0.3110
 1034SOL    HW214565   4.635   4.684   7.414 -0.8210  1.0930 -0.8164
 1035SOL     OW14566   1.739   1.161   6.724 -0.0845 -0.2266 -0.0432
 1035SOL    HW114567   1.750   1.236   6.783 -0.4907 -0.4670  0.3350
 1035SOL    HW214568   1.828   1.144   6.691  0.3143 -1.1376  1.4528
 1036SOL     OW14569   0.620   4.054   7.251 -0.0061  0.1862  0.2177
 1036SOL    HW114570   0.712   4.034   7.234 -0.4338 -0.9741 -0.7110
 1036SOL    HW214571   0.646   4.136   7.294  0.8145 -0.4956  1.0116
 1037SOL     OW14572   0.823   4.647   9.207  0.6743 -0.2981  0.2115
 1037SOL    HW114573   0.775   0.004   9.214  1.8424  0.2713  1.6952
 1037SOL    HW214574   0.784   4.588   9.271 -0.5187  0.0172 -0.2249
 1038SOL     OW14575   0.521   3.240   2.647  0.3814 -0.1850 -0.3160
 1038SOL    HW114576   0.526   3.308   2.580 -2.5447 -0.9576 -1.3374
 1038SOL    HW214577   0.431   3.207   2.643 -1.1186  3.6473  1.9287
 1039SOL     OW14578   2.885   4.618   3.686  0.2866  0.0759  0.0198
 1039SOL    HW114579   2.793   4.620   3.659  0.1878  1.0581  0.4223
 1039SOL    HW214580   2.915   4.529   3.664  0.6776 -0.4075  2.4686
 1040SOL     OW14581   0.756   1.271  13.373 -0.0193 -0.1446  0.8414
 1040SOL    HW114582   0.727   1.259  13.464  1.7707 -0.2622  1.3920
 1040SOL    HW214583   0.674   1.246  13.331 -0.3509  1.1653  0.7215
 1041SOL     OW14584   4.094   3.718   2.918  0.5527  0.0923  0.1763
 1041SOL    HW114585   4.173   3.671   2.946 -1.0428 -2.5564  0.2675
 1041SOL    HW214586   4.122   3.809   2.921  0.4082  0.1367  0.1669
 1042SOL     OW14587   3.344   1.513   0.952 -0.3454 -0.3124 -0.2294
 1042SOL    HW114588   3.395   1.433   0.939  1.7286  0.8148  1.1218
 1042SOL    HW214589   3.276   1.485   1.014 -0.2130 -1.9869 -0.8396
 1043SOL     OW14590   0.720   1.676   3.443 -0.9928 -0.5102  0.1475
 1043SOL    HW114591   0.739   1.584   3.426  3.3719  0.2970  0.7637
 1043SOL    HW214592   0.630   1.679   3.412 -1.5488 -0.0456  1.7848
 1044SOL     OW14593   1.315   3.264  13.113  0.2001 -0.0959  0.0574
 1044SOL    HW114594   1.341   3.341  13.164  1.2662 -0.0493 -0.5612
 1044SOL    HW214595   1.302   3.317  13.035 -0.5894 -0.3985 -0.0082
 1045SOL     OW14596   3.780   3.850  16.085  0.5957 -0.3070 -0.1663
 1045SOL    HW114597   3.726   3.790  16.137 -2.4634  2.3146 -0.3365
 1045SOL    HW214598   3.846   3.867  16.153 -0.3269  0.7139  0.4752
 1046SOL     OW14599   0.346   0.813   1.365 -0.2611 -0.4287 -0.7671
 1046SOL    HW114600   0.251   0.826   1.368 -0.6437 -3.3241 -0.6377
 1046SOL    HW214601   0.370   0.835   1.275 -1.5597  2.2054 -0.4871
 1047SOL     OW14602   3.715   3.551   3.507  0.1607  0.2996 -0.3538
 1047SOL    HW114603   3.696   3.468   3.551 -3.5464  0.2828 -1.9580
 1047SOL    HW214604   3.810   3.558   3.506  0.1794  0.2844  1.2685
 1048SOL     OW14605   2.769   0.154   9.682 -0.2176  0.3024  0.4914
 1048SOL    HW114606   2.831   0.186   9.617 -0.2162 -2.3817 -0.8340
 1048SOL    HW214607   2.708   0.227   9.690  2.2484  2.3144  0.8067
 1049SOL     OW14608   4.405   3.879   7.071 -0.0527 -0.3062  1.3014
 1049SOL    HW114609   4.369   3.955   7.025 -2.7144 -1.2167  1.8866
 1049SOL    HW214610   4.334   3.815   7.062 -0.9970  1.0307 -0.9002
 1050SOL     OW14611   0.858   2.670   4.055  0.0400 -0.0617  0.0641
 1050SOL    HW114612   0.813   2.741   4.010  0.4120  0.3968  0.4103
 1050SOL    HW214613   0.943   2.666   4.012 -0.3148  0.9184 -0.7139
 1051SOL     OW14614   4.170   3.776   7.538  0.0812  0.7320 -0.0251
 1051SOL    HW114615   4.236   3.808   7.600  1.3313 -0.7124 -0.6202
 1051SOL    HW214616   4.110   3.851   7.546  2.4225  2.7216 -1.0382
 1052SOL     OW14617   4.686   3.722   6.706  0.4088 -0.2189 -0.1719
 1052SOL    HW114618   0.047   3.715   6.668  0.8369 -1.1478  0.9924
 1052SOL    HW214619   4.629   3.727   6.628  2.4170  1.8518 -1.5092
 1053SOL     OW14620   1.459   4.425  11.167  0.4101 -0.0886  0.7867
 1053SOL    HW114621   1.478   4.357  11.102  1.7741  2.6010 -1.6074
 1053SOL    HW214622   1.363   4.419  11.162  0.3908 -0.2449  1.3829
 1054SOL     OW14623   4.625   0.327   5.888 -0.0972  0.2532 -0.5580
 1054SOL    HW114624   4.685   0.401   5.895 -0.6559  0.5393  1.0164
 1054SOL    HW214625   4.656   0.273   5.815 -0.5798 -0.8361  0.0496
 1055SOL     OW14626   3.598   3.978  17.007 -0.3467 -0.1118 -0.2175
 1055SOL    HW114627   3.538   4.034  17.057 -0.9706 -1.4247  0.4942
 1055SOL    HW214628   3.579   4.017  16.921  1.3327  1.2954  0.0418
 1056SOL     OW14629   0.529   1.442  11.287 -0.3855  0.3243  0.1354
 1056SOL    HW114630   0.558   1.354  11.266  1.4537  0.4210  2.3612
 1056SOL    HW214631   0.610   1.474  11.326  1.3285 -0.8764 -2.4008
 1057SOL     OW14632   3.978   0.425   7.632 -0.2886 -0.5264 -0.0271
 1057SOL    HW114633   4.002   0.457   7.545  0.2053  0.2068  0.3767
 1057SOL    HW214634   3.918   0.357   7.603 -0.5163  0.0755 -0.9463
 1058SOL     OW14635   0.945   2.213   5.693  0.1663  0.0998  0.2889
 1058SOL    HW114636   0.859   2.239   5.726 -0.8596  1.1074 -3.1730
 1058SOL    HW214637   0.938   2.119   5.708  2.0757  0.2256  1.8864
 1059SOL     OW14638   0.499   2.402   0.447 -0.3032  0.2310 -0.8018
 1059SOL    HW114639   0.556   2.328   0.467 -3.8701 -1.4332  3.3250
 1059SOL    HW214640   0.450   2.361   0.376 -0.8594 -0.8226  0.1978
 1060SOL     OW14641   0.414   3.190   3.327  0.2224  0.0699 -0.4105
 1060SOL    HW114642   0.386   3.108   3.369  0.2478 -0.3522 -1.2185
 1060SOL    HW214643   0.506   3.167   3.333  0.5447  0.8135 -2.6950
 1061SOL     OW14644   0.298   1.273  15.159  0.0572  0.2653  0.0271
 1061SOL    HW114645   0.257   1.229  15.085 -0.2876 -0.1729  0.4827
 1061SOL    HW214646   0.316   1.201  15.218 -2.6077  1.2566  2.0561
 1062SOL     OW14647   1.158   0.797   2.000  0.2623 -0.0219  0.3223
 1062SOL    HW114648   1.204   0.848   1.934 -2.2051  0.2443 -1.1723
 1062SOL    HW214649   1.079   0.766   1.955 -0.8637  2.3179  0.7068
 1063SOL     OW14650   4.725   3.890   6.928 -0.5810 -0.0757  0.1151
 1063SOL    HW114651   4.693   3.831   6.860 -2.2128 -1.1916  1.8479
 1063SOL    HW214652   4.681   3.858   7.007 -1.4111  1.1907  0.1843
 1064SOL     OW14653   4.640   2.993  12.202  0.5315  0.5007 -0.3863
 1064SOL    HW114654   4.613   3.002  12.111  1.1365  3.4150 -0.2705
 1064SOL    HW214655   4.704   3.064  12.212  0.8605 -0.0878  1.8064
 1065SOL     OW14656   1.892   2.850   7.746  0.4327  0.4246  0.2750
 1065SOL    HW114657   1.804   2.827   7.715 -0.2803  2.0524  1.1256
 1065SOL    HW214658   1.889   2.933   7.794 -0.8020 -0.7837  2.3093
 1066SOL     OW14659   1.679   1.723   6.551 -0.5460  0.7595 -0.0138
 1066SOL    HW114660   1.706   1.720   6.643 -0.7813 -0.3242  0.0168
 1066SOL    HW214661   1.707   1.812   6.528 -0.2744  0.6421 -0.1315
 1067SOL     OW14662   3.555   2.885   8.702  0.4690 -0.3332  0.2698
 1067SOL    HW114663   3.628   2.840   8.659 -0.6249 -1.2890 -0.6313
 1067SOL    HW214664   3.506   2.919   8.627  1.3245  0.4250  0.0639
 1068SOL     OW14665   4.055   4.464  11.611 -0.1973  1.1641 -0.0251
 1068SOL    HW114666   4.133   4.460  11.667 -0.3654  0.0929  0.1370
 1068SOL    HW214667   4.024   4.374  11.615 -1.1797  1.5124  0.4828
 1069SOL     OW14668   0.447   1.005   2.796  0.0540 -0.5146 -0.6041
 1069SOL    HW114669   0.474   1.085   2.753 -2.6404  0.3221 -0.7651
 1069SOL    HW214670   0.523   0.990   2.853 -0.4022 -2.0233 -0.3842
 1070SOL     OW14671   1.570   2.650   5.215 -0.0960 -0.2113 -0.3015
 1070SOL    HW114672   1.654   2.628   5.176 -0.2337 -2.3028  0.5813
 1070SOL    HW214673   1.498   2.618   5.160  0.2521  3.9474 -3.1650
 1071SOL     OW14674   2.918   2.518  13.820  0.0990  0.4768  0.0953
 1071SOL    HW114675   2.865   2.459  13.874  0.3007  0.1000 -0.1154
 1071SOL    HW214676   2.931   2.465  13.741  0.7188  1.0088 -0.1647
 1072SOL     OW14677   0.316   4.003   3.133  0.1378 -0.0544  0.1889
 1072SOL    HW114678   0.272   3.941   3.075  1.9524  0.2325 -1.4843
 1072SOL    HW214679   0.313   4.076   3.070 -0.3971 -1.2341 -1.1506
 1073SOL     OW14680   4.541   0.046   9.158  0.6599  0.1226  0.2900
 1073SOL    HW114681   4.482   0.055   9.233 -1.1163  0.7536 -1.1769
 1073SOL    HW214682   4.623   0.035   9.207  0.9657 -0.2434 -0.3070
 1074SOL     OW14683   2.080   2.247   7.862 -0.0026  0.6638 -0.0148
 1074SOL    HW114684   2.101   2.167   7.910 -1.3852  0.6047  0.4778
 1074SOL    HW214685   2.118   2.231   7.775 -1.6951  0.8396 -0.7844
 1075SOL     OW14686   2.152   2.534  16.484 -0.0129  0.2576  0.0111
 1075SOL    HW114687   2.125   2.448  16.450  3.5026 -0.9251  0.1689
 1075SOL    HW214688   2.113   2.527  16.571 -1.1952 -0.3945 -0.5733
 1076SOL     OW14689   2.787   2.513   8.504 -0.1994  0.3899  0.1700
 1076SOL    HW114690   2.846   2.587   8.488  0.5278  0.2088  2.0781
 1076SOL    HW214691   2.847   2.458   8.552 -1.1018  0.4350  1.3538
 1077SOL     OW14692   1.036   3.956   5.498  0.3745 -0.0779  0.6357
 1077SOL    HW114693   0.951   3.923   5.469 -0.0794  0.4600  1.3429
 1077SOL    HW214694   1.018   4.047   5.475  2.8490 -0.1462 -1.4290
 1078SOL     OW14695   0.182   4.284  14.572 -0.3019  0.7748 -0.2259
 1078SOL    HW114696   0.128   4.208  14.547 -0.5937  1.3292 -1.2510
 1078SOL    HW214697   0.254   4.244  14.621 -1.4809  0.5978  1.3661
 1079SOL     OW14698   4.331   1.591  15.300  0.0831  0.5543  0.3941
 1079SOL    HW114699   4.275   1.547  15.364  1.1754  1.2731  1.8534
 1079SOL    HW214700   4.366   1.670  15.342 -1.2702  1.4896 -0.2491
 1080SOL     OW14701   3.433   0.923   2.268 -0.3979 -0.3666 -0.1048
 1080SOL    HW114702   3.459   1.002   2.316  2.1671 -0.5378 -1.1807
 1080SOL    HW214703   3.519   0.891   2.239  0.5039  1.8050  0.1773
 1081SOL     OW14704   3.766   1.008   4.758  0.3436  1.1553 -0.2295
 1081SOL    HW114705   3.826   1.082   4.744 -0.8177  2.3479  1.0703
 1081SOL    HW214706   3.732   1.027   4.846 -1.4251 -0.5381 -0.5338
 1082SOL     OW14707   2.684   4.305   8.936  0.5947  0.3958 -0.4122
 1082SOL    HW114708   2.728   4.266   8.860 -2.9866  0.0290 -2.3289
 1082SOL    HW214709   2.594   4.287   8.908 -0.4673  1.1629  2.4429
 1083SOL     OW14710   2.896   3.533   2.832  0.1394  0.3110 -0.2613
 1083SOL    HW114711   2.855   3.509   2.915 -1.4125  2.6629 -0.3257
 1083SOL    HW214712   2.974   3.479   2.837 -1.2840 -1.7884 -0.9778
 1084SOL     OW14713   0.838   1.715   5.120 -0.0970  0.1144 -0.4439
 1084SOL    HW114714   0.814   1.645   5.059 -2.1602 -0.6880  1.2832
 1084SOL    HW214715   0.840   1.663   5.201 -1.4339  0.3983 -0.2415
 1085SOL     OW14716   1.873   3.130   4.675  0.0982 -0.0912 -0.2183
 1085SOL    HW114717   1.850   3.047   4.716 -1.5227  1.7090  2.4758
 1085SOL    HW214718   1.794   3.179   4.698  1.1074  1.7811 -0.7559
 1086SOL     OW14719   2.416   2.399  10.536  0.0031 -0.4111  0.3461
 1086SOL    HW114720   2.426   2.328  10.599 -0.1073 -0.6685  0.0770
 1086SOL    HW214721   2.327   2.427  10.557 -0.3358 -2.4684  1.5719
 1087SOL     OW14722   1.124   2.583   5.853  0.8011 -0.8231  0.7909
 1087SOL    HW114723   1.060   2.605   5.920  0.8295 -1.7586  1.1237
 1087SOL    HW214724   1.194   2.538   5.900  0.0338 -1.7869  1.0196
 1088SOL     OW14725   3.963   1.190   4.740 -0.0814 -0.2634 -0.2068
 1088SOL    HW114726   4.029   1.251   4.706 -1.0834  1.1096  0.3124
 1088SOL    HW214727   3.992   1.187   4.831 -1.1447  0.9619  0.1624
 1089SOL     OW14728   2.342   1.027   0.198 -0.4783  0.4748 -0.4121
 1089SOL    HW114729   2.374   0.999   0.284  0.3791 -0.5053 -1.0498
 1089SOL    HW214730   2.300   0.947   0.166 -2.9182  1.4727  0.2658
 1090SOL     OW14731   3.613   1.152  11.039 -0.1541 -0.6208 -0.2383
 1090SOL    HW114732   3.709   1.156  11.038 -0.1029 -1.8365 -0.7988
 1090SOL    HW214733   3.601   1.086  10.971 -1.6904  0.7776 -1.3278
 1091SOL     OW14734   1.107   0.423   6.060  0.1290 -0.0395 -0.3517
 1091SOL    HW114735   1.035   0.413   6.123  2.5564 -1.8041  2.1387
 1091SOL    HW214736   1.055   0.458   5.988 -3.2374 -3.6710  0.2868
 1092SOL     OW14737   3.207   3.955   3.158 -0.2867 -0.3736 -0.0689
 1092SOL    HW114738   3.170   3.888   3.100  0.0976  0.6356 -1.4593
 1092SOL    HW214739   3.167   3.930   3.241  0.7559 -0.6759  0.3510
 1093SOL     OW14740   0.428   2.072  14.274  0.2037  0.1773 -0.1168
 1093SOL    HW114741   0.409   1.998  14.332 -0.7088 -0.6012 -1.3964
 1093SOL    HW214742   0.385   2.138  14.329 -0.3161  0.1141 -0.4454
 1094SOL     OW14743   1.694   3.753   2.129  0.5403  0.1852  0.5925
 1094SOL    HW114744   1.736   3.682   2.079  0.0673  0.5056 -0.2511
 1094SOL    HW214745   1.664   3.803   2.053  0.0009  0.6827  1.1415
 1095SOL     OW14746   0.184   1.404   2.771  0.2566  0.4068  0.4615
 1095SOL    HW114747   0.167   1.326   2.718  0.3353  0.3277  0.5536
 1095SOL    HW214748   0.276   1.385   2.791  0.9374  1.8534 -1.1983
 1096SOL     OW14749   1.074   2.568   3.600  0.1239  0.4553  0.2423
 1096SOL    HW114750   1.141   2.572   3.668 -0.2500 -3.8432  0.8548
 1096SOL    HW214751   1.099   2.641   3.542 -0.1434  0.5111  0.1982
 1097SOL     OW14752   0.927   0.107  12.480 -0.5934  0.2021 -0.2308
 1097SOL    HW114753   0.910   0.125  12.573 -3.0140 -0.0444 -0.6149
 1097SOL    HW214754   0.855   0.045  12.470  0.7192 -1.7520  2.3170
 1098SOL     OW14755   2.027   1.540   0.631  0.3717  0.3295  0.1473
 1098SOL    HW114756   2.100   1.517   0.689  0.6096  3.1663  0.9970
 1098SOL    HW214757   1.963   1.475   0.659  0.3948 -0.2187 -1.0857
 1099SOL     OW14758   0.010   3.984   6.573  0.3644  0.2838 -0.3013
 1099SOL    HW114759   0.099   3.975   6.609 -1.1603  1.2112  3.6539
 1099SOL    HW214760   0.013   4.065   6.521  0.7157  0.6129  0.2224
 1100SOL     OW14761   1.747   0.813  16.901 -0.1634 -0.0991 -0.3094
 1100SOL    HW114762   1.705   0.899  16.896 -1.4495 -0.8256 -1.8973
 1100SOL    HW214763   1.666   0.766  16.882 -1.0741  1.2211  0.2885
 1101SOL     OW14764   1.067   1.324   4.259  0.2525  0.2086  0.2658
 1101SOL    HW114765   1.158   1.340   4.236  0.1163  2.3598  1.2839
 1101SOL    HW214766   1.019   1.381   4.200 -2.2899 -0.6478  1.4699
 1102SOL     OW14767   3.137   2.899  16.825 -0.3542  0.1505 -0.1053
 1102SOL    HW114768   3.116   2.943  16.908  0.1226 -0.0859  0.1393
 1102SOL    HW214769   3.182   2.970  16.779 -1.8871 -0.2751 -2.2769
 1103SOL     OW14770   2.086   3.297  13.053 -0.7249  0.3471  0.2792
 1103SOL    HW114771   2.099   3.246  13.133  1.9563  1.0800  0.2930
 1103SOL    HW214772   2.010   3.246  13.024  0.7000 -2.1813  0.9835
 1104SOL     OW14773   1.741   3.461   8.827 -0.5985 -0.2813 -0.4277
 1104SOL    HW114774   1.818   3.475   8.882 -0.1116  0.3456 -1.2746
 1104SOL    HW214775   1.772   3.431   8.742 -1.6466 -1.7300 -0.3064
 1105SOL     OW14776   1.952   4.506   2.584  0.4362 -0.2899 -0.1534
 1105SOL    HW114777   1.969   4.568   2.514  0.5083 -0.3787 -0.2131
 1105SOL    HW214778   2.037   4.477   2.616  0.0894 -1.2801 -0.1336
 1106SOL     OW14779   1.075   1.625   3.491 -0.2723 -0.2634 -0.0960
 1106SOL    HW114780   1.133   1.590   3.558  0.5103 -1.5904 -1.4419
 1106SOL    HW214781   1.067   1.717   3.514  2.9801 -0.3222  1.1889
 1107SOL     OW14782   0.055   0.953   6.753  0.2570 -0.4254  0.8388
 1107SOL    HW114783   0.119   0.912   6.695 -0.4068  0.9943 -0.8882
 1107SOL    HW214784   0.111   0.969   6.829  0.4438 -2.0385  1.0512
 1108SOL     OW14785   2.872   4.152   3.919  0.4769  1.2551 -0.2204
 1108SOL    HW114786   2.869   4.220   3.986 -0.4666  0.0549  0.9449
 1108SOL    HW214787   2.936   4.089   3.950 -2.1022  0.4550  3.4234
 1109SOL     OW14788   0.923   0.125  10.830 -0.6613 -0.4285 -0.2879
 1109SOL    HW114789   0.909   0.217  10.853  0.3060 -0.7088  1.4219
 1109SOL    HW214790   0.834   0.092  10.818 -0.9947  0.4532 -0.2449
 1110SOL     OW14791   2.520   0.066   5.008  0.1703  0.1381 -1.5625
 1110SOL    HW114792   2.604   0.103   4.983  0.0505 -0.1653 -2.4070
 1110SOL    HW214793   2.462   0.101   4.940 -2.4131 -0.4750  0.2920
 1111SOL     OW14794   4.382   1.067   6.987  0.5201  0.2602 -0.2074
 1111SOL    HW114795   4.430   1.097   6.909 -1.4535 -0.9134 -1.9002
 1111SOL    HW214796   4.381   0.971   6.978 -1.6982  0.0588  2.3139
 1112SOL     OW14797   2.565   4.211  16.776  0.0532  0.4834  0.1594
 1112SOL    HW114798   2.618   4.277  16.820 -0.5781  0.6356  0.6971
 1112SOL    HW214799   2.501   4.183  16.842 -1.8868  1.1778 -1.4057
 1113SOL     OW14800   0.035   2.297  16.796  0.1247  0.2580 -0.3865
 1113SOL    HW114801   0.075   2.349  16.865 -0.7651 -0.6729  0.8195
 1113SOL    HW214802   0.117   2.272  16.754 -0.8885 -1.2375 -1.4981
 1114SOL     OW14803   2.844   2.809  11.331 -0.2545 -0.1377  0.1363
 1114SOL    HW114804   2.800   2.734  11.370  1.8876 -0.8872  1.1529
 1114SOL    HW214805   2.857   2.786  11.238  1.2084  1.8609 -0.1478
 1115SOL     OW14806   0.532   1.752   2.355  0.0522  0.3556 -0.2543
 1115SOL    HW114807   0.473   1.809   2.305 -0.8892  0.3889  0.8817
 1115SOL    HW214808   0.491   1.665   2.354 -0.3437  0.5514 -1.1895
 1116SOL     OW14809   3.014   2.725   5.492 -0.6085  0.4514  0.4728
 1116SOL    HW114810   3.087   2.750   5.435 -0.6131 -1.0682 -0.1955
 1116SOL    HW214811   3.018   2.633   5.466 -0.6918  0.6207 -0.1438
 1117SOL     OW14812   4.542   3.043  16.356  0.0670 -0.1902  0.8350
 1117SOL    HW114813   4.634   3.027  16.377  1.1724  2.7847 -1.7869
 1117SOL    HW214814   4.493   2.974  16.401  0.4922 -0.8404  0.2872
 1118SOL     OW14815   3.408   2.255   6.951 -0.5018  0.0315  0.5731
 1118SOL    HW114816   3.481   2.215   6.998  0.7695 -0.0761 -1.5227
 1118SOL    HW214817   3.376   2.316   7.018 -2.6462  0.7709 -1.1153
 1119SOL     OW14818   0.062   0.522   6.708 -0.3676  0.1892 -0.1450
 1119SOL    HW114819   0.064   0.551   6.799  0.9235  0.0258 -0.1251
 1119SOL    HW214820   4.709   0.468   6.697 -0.2956  0.3958 -1.6388
 1120SOL     OW14821   3.382   3.722   4.646  0.0627  0.0706  0.6138
 1120SOL    HW114822   3.309   3.779   4.673  0.8968  0.6484  1.6408
 1120SOL    HW214823   3.324   3.653   4.616  0.6298 -0.4098  0.6345
 1121SOL     OW14824   1.321   1.983  12.845 -0.1958 -0.0565  0.4818
 1121SOL    HW114825   1.319   1.889  12.826 -2.6938  1.1323 -5.1848
 1121SOL    HW214826   1.389   2.020  12.789  1.8918 -0.9156  2.4493
 1122SOL     OW14827   2.684   3.931   4.712  0.2563 -0.2736 -0.7230
 1122SOL    HW114828   2.674   3.919   4.618  0.5484  3.4006 -1.2321
 1122SOL    HW214829   2.632   4.011   4.717  3.0832  1.5436 -0.2024
 1123SOL     OW14830   3.239   1.968   3.459  0.0055 -0.2299  0.2758
 1123SOL    HW114831   3.152   1.982   3.497 -0.1214 -0.1142 -0.0652
 1123SOL    HW214832   3.259   1.891   3.513 -0.6930 -1.6771 -1.5222
 1124SOL     OW14833   3.911   3.776  14.763 -0.1995 -0.2968  0.8955
 1124SOL    HW114834   3.876   3.826  14.837  2.0835  0.9061  1.1646
 1124SOL    HW214835   3.960   3.703  14.802 -2.2103 -1.8444  0.5116
 1125SOL     OW14836   0.029   0.836   6.096 -0.3145 -0.1869  0.1321
 1125SOL    HW114837   4.699   0.896   6.047 -0.3376 -0.3530 -0.0475
 1125SOL    HW214838   0.116   0.851   6.061  0.0507 -3.0005 -0.1503
 1126SOL     OW14839   3.490   3.016  11.960  0.4252  0.2982 -0.7524
 1126SOL    HW114840   3.413   2.966  11.932 -0.3315 -1.0033  3.6443
 1126SOL    HW214841   3.562   2.969  11.918 -1.2168 -1.3535 -1.7531
 1127SOL     OW14842   0.242   2.272  17.590  0.5956 -0.2880 -0.0386
 1127SOL    HW114843   0.210   2.194  17.636 -1.1335  1.3484  1.5090
 1127SOL    HW214844   0.168   2.289  17.532  1.7531 -0.2121 -1.5008
 1128SOL     OW14845   3.725   3.157   0.614  0.2129 -0.2243  0.3377
 1128SOL    HW114846   3.714   3.167   0.519 -1.3456 -1.5929  0.3783
 1128SOL    HW214847   3.674   3.077   0.624 -0.9871  0.4641 -0.2218
 1129SOL     OW14848   0.282   3.043  16.172  0.2196 -0.2331  0.5785
 1129SOL    HW114849   0.268   2.995  16.254  1.3287  0.5291  1.2106
 1129SOL    HW214850   0.359   2.999  16.137 -0.1325 -0.8761  0.5979
 1130SOL     OW14851   1.238   2.174  12.563  0.2188  0.6542 -0.0582
 1130SOL    HW114852   1.332   2.171  12.577  0.1270 -4.3092 -0.6278
 1130SOL    HW214853   1.231   2.152  12.470 -0.1119 -2.2169  0.6453
 1131SOL     OW14854   2.939   2.600   3.075 -0.0348 -0.2230  0.5205
 1131SOL    HW114855   2.912   2.615   2.985  1.1148  1.4628  0.4420
 1131SOL    HW214856   3.011   2.538   3.068 -1.0270 -1.4927  1.7091
 1132SOL     OW14857   3.024   4.636   3.135 -0.0110 -0.6646 -0.0046
 1132SOL    HW114858   3.020   4.725   3.170  1.0038  0.0886 -1.7870
 1132SOL    HW214859   3.102   4.647   3.080 -1.2721  1.2521 -1.4005
 1133SOL     OW14860   3.409   2.757  11.025  0.5132  0.4189 -0.2192
 1133SOL    HW114861   3.412   2.812  10.948  0.5285 -1.2291 -1.3896
 1133SOL    HW214862   3.496   2.719  11.017  0.5959 -0.0133  2.3973
 1134SOL     OW14863   0.383   1.514   2.377  0.0634  0.1327  0.3190
 1134SOL    HW114864   0.428   1.525   2.461  2.7453  1.5573 -1.3174
 1134SOL    HW214865   0.293   1.535   2.402 -0.0633  1.6866 -1.4467
 1135SOL     OW14866   1.453   0.722  10.305  0.4016 -0.2628 -0.1314
 1135SOL    HW114867   1.365   0.759  10.306 -0.0980 -1.5206  2.7043
 1135SOL    HW214868   1.455   0.681  10.218 -1.9440 -1.0815  0.1995
 1136SOL     OW14869   3.602   0.780   5.847  0.3419 -0.2918 -0.3750
 1136SOL    HW114870   3.508   0.772   5.864  0.1331  0.0719 -1.3787
 1136SOL    HW214871   3.602   0.867   5.806  0.9565 -0.1746 -0.1185
 1137SOL     OW14872   1.493   1.397   0.513  0.6774 -0.2687  0.3667
 1137SOL    HW114873   1.473   1.395   0.607  0.8685 -0.3578  0.4043
 1137SOL    HW214874   1.422   1.458   0.490  0.8987 -0.0271  0.3212
 1138SOL     OW14875   4.498   4.056   6.768 -0.0951  0.0721 -0.5633
 1138SOL    HW114876   4.581   4.010   6.760  0.8693  1.6178  0.5957
 1138SOL    HW214877   4.522   4.123   6.832  0.3059  1.6757 -2.4047
 1139SOL     OW14878   1.003   0.472  17.456  0.3204  0.2049  0.4174
 1139SOL    HW114879   0.955   0.473  17.539  1.2346 -1.2262  0.9595
 1139SOL    HW214880   1.026   0.564  17.441 -1.4799  0.3013 -1.7106
 1140SOL     OW14881   0.437   2.575   1.243  0.7195  0.4093  0.0383
 1140SOL    HW114882   0.474   2.495   1.281 -1.2433 -0.2670  0.5532
 1140SOL    HW214883   0.461   2.643   1.307 -0.9702  1.0887 -0.0328
 1141SOL     OW14884   3.762   2.063  13.845  0.0223  0.1506 -0.1746
 1141SOL    HW114885   3.748   1.985  13.900  0.3630  0.0060 -0.2957
 1141SOL    HW214886   3.854   2.056  13.823 -0.2803 -1.7046 -0.8910
 1142SOL     OW14887   2.616   2.839   7.495  0.0638 -0.2268  0.1062
 1142SOL    HW114888   2.602   2.744   7.491 -1.1101 -0.0427 -0.1961
 1142SOL    HW214889   2.588   2.866   7.407 -2.3482 -2.2987  0.2351
 1143SOL     OW14890   3.996   1.531   4.958  1.1036  0.7721 -0.6594
 1143SOL    HW114891   4.082   1.503   4.926 -0.0130 -1.9073 -1.2590
 1143SOL    HW214892   3.980   1.440   4.983  1.5342  0.4515 -1.5702
 1144SOL     OW14893   0.202   3.476   4.780  0.1739 -0.1285  0.2978
 1144SOL    HW114894   0.226   3.389   4.812 -0.7524  0.5316  2.7947
 1144SOL    HW214895   0.138   3.451   4.714  0.5938  1.9213 -0.8926
 1145SOL     OW14896   0.765   3.625   2.855  0.0280  0.2789  0.3503
 1145SOL    HW114897   0.858   3.646   2.852  0.2855 -0.5967  2.7063
 1145SOL    HW214898   0.763   3.614   2.760 -2.1609  0.9871  0.2975
 1146SOL     OW14899   1.286   1.198   7.728  0.4119  0.7782  0.2154
 1146SOL    HW114900   1.354   1.221   7.791  1.4261 -2.8016  0.4035
 1146SOL    HW214901   1.255   1.118   7.771 -0.4899  1.2334  0.4234
 1147SOL     OW14902   2.206   3.954   2.257  0.3039 -0.5534  0.5250
 1147SOL    HW114903   2.114   3.936   2.236 -0.8018  1.2019  3.8415
 1147SOL    HW214904   2.197   4.002   2.340 -4.1495 -0.8912  0.2451
 1148SOL     OW14905   1.612   3.488   2.388  0.4731 -0.7230  0.4588
 1148SOL    HW114906   1.690   3.543   2.397  0.0913  0.1882 -1.7825
 1148SOL    HW214907   1.637   3.422   2.323  1.7809 -0.6126  0.8395
 1149SOL     OW14908   4.051   3.241  16.484  0.6756  0.2851  0.2595
 1149SOL    HW114909   4.054   3.148  16.505 -4.4762  0.3054  1.0816
 1149SOL    HW214910   4.144   3.264  16.487  1.0370 -1.1417 -0.0921
 1150SOL     OW14911   0.952   1.315   4.702 -0.4414  0.2328 -0.0163
 1150SOL    HW114912   0.969   1.260   4.625 -2.3112  1.8316 -1.5844
 1150SOL    HW214913   0.979   1.403   4.674 -0.9326  0.4919  0.3300
 1151SOL     OW14914   0.270   3.118   2.096  0.3478 -0.5471  0.0115
 1151SOL    HW114915   0.209   3.054   2.133 -0.6191  0.1149 -0.4591
 1151SOL    HW214916   0.210   3.159   2.035 -0.9861  2.7707  3.5694
 1152SOL     OW14917   2.685   3.997   6.840 -0.2926 -0.5986  0.3499
 1152SOL    HW114918   2.734   3.993   6.922  4.6892 -1.6236 -2.6854
 1152SOL    HW214919   2.757   3.984   6.778  0.0506 -1.3845  0.9065
 1153SOL     OW14920   3.824   0.658   2.999 -0.6836  0.1023  0.2026
 1153SOL    HW114921   3.803   0.629   3.088 -3.6231 -0.2854 -0.6291
 1153SOL    HW214922   3.742   0.704   2.981  1.3316  3.0815 -1.5375
 1154SOL     OW14923   2.134   4.271   4.500  0.2405 -0.3939 -0.3412
 1154SOL    HW114924   2.205   4.208   4.514  1.5599  0.8965 -1.1897
 1154SOL    HW214925   2.135   4.292   4.407  0.8463  1.0196 -0.0134
 1155SOL     OW14926   2.689   4.504  11.766  0.0030 -0.5953  0.2438
 1155SOL    HW114927   2.759   4.570  11.769  0.3078 -0.8563 -1.1586
 1155SOL    HW214928   2.660   4.522  11.676  4.0788  1.3091 -0.7005
 1156SOL     OW14929   3.147   3.751   7.068 -0.3000 -0.0473  0.3086
 1156SOL    HW114930   3.126   3.686   7.135  1.7629  0.5911  1.5658
 1156SOL    HW214931   3.112   3.825   7.117  1.6036  0.4555  0.9128
 1157SOL     OW14932   4.251   3.853   6.258  0.0054 -0.5136  0.4114
 1157SOL    HW114933   4.279   3.906   6.333  1.7756 -2.1138  0.8727
 1157SOL    HW214934   4.270   3.916   6.188 -1.1563 -0.2513  0.3244
 1158SOL     OW14935   1.212   4.415   3.067 -0.5922  1.0614 -0.0083
 1158SOL    HW114936   1.272   4.422   2.993  0.2006  0.8954  0.6177
 1158SOL    HW214937   1.254   4.368   3.138  0.0942 -0.2932 -1.3145
 1159SOL     OW14938   0.511   4.577   4.704 -0.1090 -0.3743  0.2649
 1159SOL    HW114939   0.438   4.576   4.766 -0.4634  0.8368 -0.1299
 1159SOL    HW214940   0.537   4.485   4.713  0.8322 -0.2729 -1.3547
 1160SOL     OW14941   1.842   3.758   9.976  0.5796 -0.2839 -0.6016
 1160SOL    HW114942   1.865   3.847   9.947  3.3128 -0.2184  1.7571
 1160SOL    HW214943   1.919   3.712  10.010 -0.7788 -0.4410  2.2630
 1161SOL     OW14944   1.214   1.772   2.468 -0.2952  0.1818  0.0938
 1161SOL    HW114945   1.250   1.855   2.436  0.3509  0.5563  1.7835
 1161SOL    HW214946   1.162   1.808   2.540  0.7442  1.0422  0.4176
 1162SOL     OW14947   0.483   2.593   3.348 -0.0598  0.5118 -0.3664
 1162SOL    HW114948   0.435   2.524   3.302 -0.5563 -0.5436  1.7110
 1162SOL    HW214949   0.446   2.591   3.437  1.2683  1.6594  0.1998
 1163SOL     OW14950   4.196   3.950   5.955 -0.1866  0.3218 -0.1140
 1163SOL    HW114951   4.185   3.972   5.863 -0.7413  2.6204  0.4831
 1163SOL    HW214952   4.180   3.856   5.950 -0.0961  0.1757  2.2507
 1164SOL     OW14953   3.628   2.550  14.767  0.2875 -0.0354  0.7814
 1164SOL    HW114954   3.583   2.608  14.828  2.1810  1.3961  0.8352
 1164SOL    HW214955   3.554   2.510  14.722  0.2945 -0.8749  1.5227
 1165SOL     OW14956   1.542   2.067   1.493  0.2723  0.5219  0.2813
 1165SOL    HW114957   1.524   2.030   1.406 -1.8236  1.1470  0.4533
 1165SOL    HW214958   1.460   2.044   1.536 -1.1216  0.5552 -2.3340
 1166SOL     OW14959   3.091   1.662   9.808 -0.1696 -0.0905  0.4221
 1166SOL    HW114960   3.185   1.662   9.824 -0.1581  0.2530  0.3541
 1166SOL    HW214961   3.049   1.650   9.893 -1.2077 -0.2163 -0.1081
 1167SOL     OW14962   4.725   4.522   5.039 -0.4935 -0.1412  0.0708
 1167SOL    HW114963   4.631   4.503   5.044 -0.4151 -0.1517  1.3711
 1167SOL    HW214964   0.028   4.461   4.972  0.0352  1.2550 -0.9770
 1168SOL     OW14965   2.084   2.941   3.697  0.0541 -0.0149 -0.2673
 1168SOL    HW114966   2.144   2.948   3.623  0.5583 -1.5939 -0.0093
 1168SOL    HW214967   2.143   2.964   3.769 -1.2025  1.0940  0.3866
 1169SOL     OW14968   1.074   1.048   6.018  0.1857  0.1908 -0.0853
 1169SOL    HW114969   1.150   1.050   6.076 -0.8964  1.7661  1.2655
 1169SOL    HW214970   1.080   0.957   5.987 -0.4022 -0.0599  0.5201
 1170SOL     OW14971   2.133   0.379  17.158 -0.4282  0.5255 -0.7488
 1170SOL    HW114972   2.129   0.351  17.250 -0.7864  0.0220 -0.9170
 1170SOL    HW214973   2.048   0.348  17.127 -0.8489  0.6273  0.3074
 1171SOL     OW14974   2.450   0.365   5.543 -0.5100 -0.9386 -0.1557
 1171SOL    HW114975   2.456   0.455   5.576  0.0146 -1.0804  0.1418
 1171SOL    HW214976   2.497   0.320   5.613  1.2772  1.6563  0.3065
 1172SOL     OW14977   4.606   3.923   7.480  0.0430  0.0945  0.4775
 1172SOL    HW114978   4.565   3.894   7.561 -0.7846  1.3228  0.4919
 1172SOL    HW214979   4.699   3.919   7.504 -0.0782 -0.1344  0.9083
 1173SOL     OW14980   2.211   0.968   9.030  0.0818 -0.4888  0.3347
 1173SOL    HW114981   2.176   1.020   8.958 -2.1444 -0.3431  1.5095
 1173SOL    HW214982   2.219   0.885   8.983 -2.3401 -0.6571  0.2472
 1174SOL     OW14983   3.984   0.436   6.295 -0.3655 -0.4413 -0.1419
 1174SOL    HW114984   3.950   0.397   6.376 -1.5374  0.3633 -0.2585
 1174SOL    HW214985   3.967   0.358   6.242  2.6479 -1.6581  0.6218
 1175SOL     OW14986   4.098   3.110   2.034  0.3801  0.0328  0.1427
 1175SOL    HW114987   4.049   3.079   1.957  0.6016 -1.4911  0.6066
 1175SOL    HW214988   4.023   3.116   2.093 -0.1842  0.8109 -0.6482
 1176SOL     OW14989   2.854   1.720   2.190  0.2033 -0.5413  0.3349
 1176SOL    HW114990   2.891   1.707   2.103  1.1853 -0.1262  0.6877
 1176SOL    HW214991   2.928   1.681   2.236  0.5308  0.2450  0.4743
 1177SOL     OW14992   0.460   3.913   6.170 -0.2570 -0.3867  0.2790
 1177SOL    HW114993   0.492   3.991   6.124  0.7856 -1.5763 -0.9879
 1177SOL    HW214994   0.393   3.948   6.229 -1.2036  0.7362 -1.4999
 1178SOL     OW14995   1.235   1.754   0.405 -0.0633 -0.1102 -0.0377
 1178SOL    HW114996   1.207   1.673   0.364  3.7399 -0.8759 -1.1398
 1178SOL    HW214997   1.254   1.802   0.324  3.7423 -0.0848  0.8765
 1179SOL     OW14998   1.955   4.542   3.648 -0.5312  0.5888  0.4234
 1179SOL    HW114999   1.887   4.587   3.597  0.1293  0.2424 -0.7644
 1179SOL    HW215000   1.991   4.607   3.708  1.2031  0.7966 -0.8326
 1180SOL     OW15001   3.844   3.997  10.554 -0.2049 -0.2234  0.1959
 1180SOL    HW115002   3.923   4.020  10.505  0.6767 -1.6299  0.9686
 1180SOL    HW215003   3.871   3.909  10.578  1.1643  0.2014  0.2328
 1181SOL     OW15004   2.338   0.797  12.199 -0.3633  0.2182  0.0700
 1181SOL    HW115005   2.329   0.705  12.223  1.3867  0.3184  1.0478
 1181SOL    HW215006   2.283   0.840  12.265  0.4982  3.2671 -1.1763
 1182SOL     OW15007   1.789   4.658   3.027 -0.2137  0.5740 -0.0726
 1182SOL    HW115008   1.869   4.613   3.000  0.1182  1.8673 -1.2284
 1182SOL    HW215009   1.810   0.020   2.997 -2.5827 -0.5601 -4.9856
 1183SOL     OW15010   3.346   1.034   4.940  0.2975  0.4349  0.2614
 1183SOL    HW115011   3.277   1.019   4.876  0.7494  0.6335 -0.2778
 1183SOL    HW215012   3.307   1.108   4.987 -1.0850 -0.2646  0.1859
 1184SOL     OW15013   3.850   4.193   6.226 -0.0501  0.4182  0.2964
 1184SOL    HW115014   3.769   4.242   6.238 -1.0606 -1.2724  0.3380
 1184SOL    HW215015   3.841   4.122   6.289  1.7510  1.9740  2.3099
 1185SOL     OW15016   2.450   1.741   0.592  0.0511 -0.4157  0.5903
 1185SOL    HW115017   2.530   1.689   0.583 -0.1801 -0.3233 -1.9529
 1185SOL    HW215018   2.467   1.796   0.669 -0.3301 -1.0445  1.1172
 1186SOL     OW15019   0.077   4.498  17.630  0.2965 -0.3805  0.1112
 1186SOL    HW115020   0.074   4.578  17.682 -1.9616  0.8709 -1.9671
 1186SOL    HW215021   0.158   4.452  17.652  1.0743  1.6498  1.4773
 1187SOL     OW15022   2.947   0.042   2.027  0.0847  0.0943 -0.2253
 1187SOL    HW115023   3.012   0.108   2.003 -1.7384  2.1085  0.3491
 1187SOL    HW215024   2.954   0.036   2.123 -0.7068 -1.0691 -0.2338
 1188SOL     OW15025   2.120   2.406  15.531 -0.5305 -0.3008 -0.2727
 1188SOL    HW115026   2.067   2.453  15.596 -2.1216 -1.2368 -0.8974
 1188SOL    HW215027   2.062   2.332  15.513  0.9214 -1.2405 -1.1066
 1189SOL     OW15028   4.367   1.555  10.048 -0.1625 -0.3509 -0.1151
 1189SOL    HW115029   4.373   1.631   9.989 -2.5804 -0.8910 -1.0624
 1189SOL    HW215030   4.459   1.546  10.070 -0.1363 -2.0690 -0.9587
 1190SOL     OW15031   3.190   3.481  12.230 -0.6493  0.5364 -0.5157
 1190SOL    HW115032   3.280   3.486  12.196 -0.7399 -0.9278 -0.9810
 1190SOL    HW215033   3.140   3.450  12.154 -0.1660  1.7204 -1.3250
 1191SOL     OW15034   0.874   0.409   3.135  0.2603  0.1943 -0.3430
 1191SOL    HW115035   0.963   0.428   3.106 -0.6873  3.0730 -1.3509
 1191SOL    HW215036   0.862   0.317   3.112 -0.0172  0.4357 -1.1691
 1192SOL     OW15037   0.566   3.697   5.222  0.0185  0.5288 -0.0722
 1192SOL    HW115038   0.558   3.621   5.164 -0.9537  0.8311 -0.3421
 1192SOL    HW215039   0.508   3.676   5.295  0.0853 -2.3909 -0.8540
 1193SOL     OW15040   4.598   4.603   5.568 -0.0155  0.2065  0.4571
 1193SOL    HW115041   4.608   4.513   5.538 -0.1442  1.2784 -2.8086
 1193SOL    HW215042   4.678   4.651   5.545  0.4226 -0.8450 -0.1945
 1194SOL     OW15043   3.573   1.939   7.153 -0.4972  0.5374 -0.5240
 1194SOL    HW115044   3.511   1.930   7.226 -0.8980 -0.1879 -0.9511
 1194SOL    HW215045   3.528   1.885   7.087  0.1779 -0.1838 -0.3912
 1195SOL     OW15046   1.715   3.332   9.970  0.2194  0.1100  0.8142
 1195SOL    HW115047   1.721   3.418  10.013  2.1787  0.4094 -0.0685
 1195SOL    HW215048   1.756   3.281  10.040  0.5654  0.3128  0.7582
 1196SOL     OW15049   0.254   4.039   4.337 -0.2211 -0.4093  0.2607
 1196SOL    HW115050   0.201   4.118   4.348  1.7480  1.0607 -0.8673
 1196SOL    HW215051   0.332   4.084   4.305 -1.5887 -0.2893 -3.0053
 1197SOL     OW15052   0.627   2.500  13.245  0.2390  0.3257 -0.5647
 1197SOL    HW115053   0.612   2.480  13.337  0.8006  0.8451 -0.3677
 1197SOL    HW215054   0.552   2.555  13.223  0.6551  1.6410  1.3350
 1198SOL     OW15055   1.436   0.219   3.492 -0.0807  0.4511  0.7904
 1198SOL    HW115056   1.348   0.248   3.466 -0.5252 -0.4693  1.2653
 1198SOL    HW215057   1.416   0.185   3.579  2.1256 -2.2755  0.2368
 1199SOL     OW15058   2.617   3.332   4.368 -0.3474  0.3038  0.3529
 1199SOL    HW115059   2.700   3.350   4.411  1.6738  0.6909 -3.7780
 1199SOL    HW215060   2.564   3.389   4.423 -2.2762 -0.9960 -0.1295
 1200SOL     OW15061   4.329   0.620  11.460  0.4577  0.0763  0.5706
 1200SOL    HW115062   4.424   0.606  11.459  0.2596 -0.9879 -3.1550
 1200SOL    HW215063   4.329   0.700  11.513 -0.4296  0.0948  0.5379
 1201SOL     OW15064   4.661   1.048   3.033  0.7023 -0.3965  0.2097
 1201SOL    HW115065   4.659   0.958   3.001  0.8150 -0.3043 -0.0468
 1201SOL    HW215066   0.029   1.063   3.042  0.6274  1.1025 -1.6178
 1202SOL     OW15067   1.859   4.534   6.513 -0.1277 -0.4500 -0.3947
 1202SOL    HW115068   1.946   4.537   6.552 -0.1634 -1.6650 -0.2304
 1202SOL    HW215069   1.812   4.598   6.566 -1.2994 -0.5604 -1.2953
 1203SOL     OW15070   2.139   2.107   6.274  0.0927  0.1751  0.5983
 1203SOL    HW115071   2.097   2.031   6.234  1.2706  0.5944 -1.4462
 1203SOL    HW215072   2.177   2.147   6.196  0.2414 -2.4155 -0.6526
 1204SOL     OW15073   3.352   0.909  11.001 -0.4239 -0.3824 -0.4468
 1204SOL    HW115074   3.422   0.947  10.949  0.9042 -1.5956  0.4329
 1204SOL    HW215075   3.311   0.987  11.040  1.0326 -0.4718  1.2885
 1205SOL     OW15076   3.104   2.984   8.110  0.2985  0.0990 -0.5027
 1205SOL    HW115077   3.045   2.935   8.167 -2.0434  0.4525 -2.5855
 1205SOL    HW215078   3.038   3.026   8.054 -1.2281  0.1943  1.3689
 1206SOL     OW15079   2.113   4.477   1.046 -0.0981  0.2490  0.5525
 1206SOL    HW115080   2.120   4.395   0.996 -1.1781 -1.2400  2.8179
 1206SOL    HW215081   2.140   4.445   1.133  0.0334 -1.2080 -0.0214
 1207SOL     OW15082   0.680   0.491   1.672 -0.6432 -0.7197  0.5353
 1207SOL    HW115083   0.698   0.578   1.707  0.5390 -0.9023  0.3806
 1207SOL    HW215084   0.600   0.509   1.622  0.8575  1.9632 -0.8566
 1208SOL     OW15085   2.414   2.637   7.158  0.1673  0.5347  0.1813
 1208SOL    HW115086   2.324   2.638   7.126  0.7452 -1.2797 -1.5378
 1208SOL    HW215087   2.402   2.590   7.241  0.8168  0.2073  0.0879
 1209SOL     OW15088   3.217   1.012   1.941  0.0239  0.1709 -0.3632
 1209SOL    HW115089   3.184   1.066   2.013 -1.8912  0.0320 -1.1180
 1209SOL    HW215090   3.304   1.048   1.932 -0.3660  1.3036  0.3768
 1210SOL     OW15091   1.519   0.593   4.953  0.5404  0.0603 -0.3588
 1210SOL    HW115092   1.517   0.584   5.048 -1.1753 -0.4935 -0.4395
 1210SOL    HW215093   1.469   0.518   4.921 -0.8322  0.7611  0.1072
 1211SOL     OW15094   3.645   3.713   8.009 -0.8501  0.1538 -0.1840
 1211SOL    HW115095   3.653   3.758   7.924  0.3057  3.0272  1.4349
 1211SOL    HW215096   3.569   3.756   8.050 -0.1640  1.0956  0.0993
 1212SOL     OW15097   1.069   3.890   8.493 -0.5013 -0.2948 -0.1445
 1212SOL    HW115098   1.070   3.835   8.415  1.9091  0.0331 -0.3411
 1212SOL    HW215099   1.162   3.890   8.516 -0.0640  0.8838 -1.9234
 1213SOL     OW15100   1.212   1.355   7.148 -0.0753 -0.3083 -0.1555
 1213SOL    HW115101   1.300   1.391   7.158  0.3038 -0.6127 -2.3170
 1213SOL    HW215102   1.220   1.268   7.185 -2.0603 -0.8469 -0.9994
 1214SOL     OW15103   2.722   1.009   3.994 -0.3229  0.7453  0.2037
 1214SOL    HW115104   2.720   0.949   4.069 -1.2365  0.8020  0.2239
 1214SOL    HW215105   2.723   0.957   3.914  1.8792 -1.5635  1.7230
 1215SOL     OW15106   2.354   4.443   3.939  0.3199  0.2747  0.6609
 1215SOL    HW115107   2.294   4.381   3.898 -0.8782  2.3846 -0.7962
 1215SOL    HW215108   2.302   4.521   3.920 -1.5690 -1.2107 -0.2962
 1216SOL     OW15109   3.168   2.481   6.336 -0.0060  0.1813  0.0981
 1216SOL    HW115110   3.259   2.496   6.310 -0.1592  0.8282 -0.0895
 1216SOL    HW215111   3.134   2.413   6.278  1.2545 -0.5845  0.2685
 1217SOL     OW15112   2.129   2.368   2.524 -0.4772 -0.0504 -0.6822
 1217SOL    HW115113   2.159   2.409   2.442 -1.9759  0.2418 -1.0766
 1217SOL    HW215114   2.099   2.283   2.491 -1.4372 -0.3692  1.0354
 1218SOL     OW15115   0.549   2.793   3.161 -0.3813 -0.1278 -0.1417
 1218SOL    HW115116   0.455   2.798   3.141 -0.7909  0.5426  1.9350
 1218SOL    HW215117   0.544   2.725   3.227 -2.4318  0.4104  0.2747
 1219SOL     OW15118   4.101   0.258  15.809 -0.5706  0.2940  0.4802
 1219SOL    HW115119   4.101   0.354  15.811 -2.2922  0.2858  0.5875
 1219SOL    HW215120   4.110   0.242  15.903  1.0162 -1.4585  0.0424
 1220SOL     OW15121   4.162   1.625   6.201 -0.0277  0.2583 -0.3099
 1220SOL    HW115122   4.166   1.555   6.267  0.8573 -1.1110 -1.8016
 1220SOL    HW215123   4.069   1.648   6.207  0.1557  1.3203 -1.6859
 1221SOL     OW15124   3.459   0.902   7.566  0.3453 -0.5581  0.6273
 1221SOL    HW115125   3.363   0.896   7.569  0.2212  0.9480  0.0357
 1221SOL    HW215126   3.475   0.996   7.553  0.1463 -0.3963  1.5882
 1222SOL     OW15127   3.233   0.270  14.854  0.4515 -0.2729 -0.0054
 1222SOL    HW115128   3.271   0.353  14.826  1.4986 -1.0737 -0.9304
 1222SOL    HW215129   3.158   0.262  14.796 -1.4112  3.4061  1.8755
 1223SOL     OW15130   2.152   0.479   2.661 -0.5358  0.1248  0.0154
 1223SOL    HW115131   2.077   0.477   2.601 -0.2025 -0.1948 -0.3955
 1223SOL    HW215132   2.199   0.546   2.612  0.6605 -1.2069 -0.6611
 1224SOL     OW15133   2.513   2.479   8.037 -0.2780 -0.4220  0.0297
 1224SOL    HW115134   2.571   2.554   8.024  0.5664 -0.7757  1.7550
 1224SOL    HW215135   2.480   2.485   8.127  0.2130  0.6807  0.1330
 1225SOL     OW15136   4.432   3.058   8.954 -0.3167 -0.0984 -0.0399
 1225SOL    HW115137   4.519   3.059   8.915 -0.5315  2.3960 -0.4846
 1225SOL    HW215138   4.439   3.099   9.040 -0.0122  1.5635 -0.8473
 1226SOL     OW15139   3.412   1.748   5.989 -0.6111 -0.0287 -0.4891
 1226SOL    HW115140   3.432   1.824   6.043 -0.7580  1.8556 -3.1224
 1226SOL    HW215141   3.351   1.707   6.051 -0.4819 -1.9596 -1.6307
 1227SOL     OW15142   0.859   1.778   6.152 -0.3849  0.1731 -0.4417
 1227SOL    HW115143   0.952   1.792   6.168 -0.4801 -1.9292  2.0903
 1227SOL    HW215144   0.867   1.713   6.082 -1.8302  1.7857 -2.0935
 1228SOL     OW15145   2.845   0.029  15.353  0.3062  0.0021  0.2312
 1228SOL    HW115146   2.764   0.002  15.309 -0.4213  0.1769  1.4524
 1228SOL    HW215147   2.914   4.707  15.306  2.2342  1.5576  1.4805
 1229SOL     OW15148   2.657   0.557  11.203  0.1075  0.1323  0.4719
 1229SOL    HW115149   2.707   0.626  11.159 -0.4716 -0.0535 -0.4854
 1229SOL    HW215150   2.583   0.607  11.234  0.9525  1.7806 -0.1850
 1230SOL     OW15151   3.832   3.410   1.782  0.4128  0.6250  0.2767
 1230SOL    HW115152   3.812   3.474   1.714 -0.8698  2.3484  2.3057
 1230SOL    HW215153   3.922   3.435   1.802  0.7397 -0.0849 -0.2780
 1231SOL     OW15154   1.905   1.178   0.119 -0.3374 -0.0989 -0.7752
 1231SOL    HW115155   1.926   1.218   0.035  0.0707 -2.4590 -1.8088
 1231SOL    HW215156   1.811   1.161   0.119 -0.1411 -1.1685  0.1841
 1232SOL     OW15157   2.875   4.466  14.546 -0.3184  0.4425 -0.0696
 1232SOL    HW115158   2.885   4.552  14.586  1.0699  0.7288 -1.0178
 1232SOL    HW215159   2.890   4.498  14.457  0.8602  0.1133  0.0070
 1233SOL     OW15160   0.517   3.501   4.638 -0.3050 -0.1644  0.6989
 1233SOL    HW115161   0.582   3.436   4.665 -0.4562  0.1436  1.8107
 1233SOL    HW215162   0.461   3.442   4.587  1.9565 -0.9625 -0.8743
 1234SOL     OW15163   2.117   0.265   7.438  0.2830  0.5018 -0.3785
 1234SOL    HW115164   2.138   0.173   7.454  1.3756  0.9144  0.5791
 1234SOL    HW215165   2.143   0.300   7.523 -1.4753 -0.1561  0.4135
 1235SOL     OW15166   1.945   2.307   1.117 -0.5639  0.4038 -0.1700
 1235SOL    HW115167   1.988   2.375   1.168 -0.8094  1.3790 -1.2597
 1235SOL    HW215168   2.015   2.274   1.061 -2.5569  1.0493 -3.0446
 1236SOL     OW15169   3.428   3.573   7.624  0.1197  0.7071 -0.4796
 1236SOL    HW115170   3.342   3.590   7.661  0.7866 -1.2778  2.0262
 1236SOL    HW215171   3.411   3.601   7.534 -0.5843  0.6434 -0.3668
 1237SOL     OW15172   3.352   1.535  10.745  0.1120 -0.0943  0.3639
 1237SOL    HW115173   3.401   1.502  10.820 -0.6538 -4.8671 -1.2675
 1237SOL    HW215174   3.411   1.605  10.717 -1.9984  1.5784  0.0794
 1238SOL     OW15175   2.117   0.665  11.112  0.2137 -0.0255 -0.2468
 1238SOL    HW115176   2.106   0.575  11.083  2.3243 -0.6251  0.8412
 1238SOL    HW215177   2.173   0.644  11.186  2.2299 -1.6450 -2.2547
 1239SOL     OW15178   1.025   4.305   6.530 -0.0818  0.0674 -0.2325
 1239SOL    HW115179   0.974   4.324   6.451 -0.3365  1.3196  0.2243
 1239SOL    HW215180   0.988   4.367   6.594  0.6724 -1.2085  1.4119
 1240SOL     OW15181   0.612   0.523   4.694 -0.3101  0.2578  0.0969
 1240SOL    HW115182   0.665   0.479   4.627 -0.7554  1.3464 -0.9700
 1240SOL    HW215183   0.639   0.612   4.673 -0.5983  0.3625  0.1765
 1241SOL     OW15184   3.664   1.952   3.112  0.2025  0.1837 -0.3093
 1241SOL    HW115185   3.599   1.965   3.181  1.0055  4.6533 -0.4017
 1241SOL    HW215186   3.679   2.041   3.080  1.3049  0.4019  0.8153
 1242SOL     OW15187   4.701   1.272  17.508  0.0342 -0.8920  0.1061
 1242SOL    HW115188   4.704   1.321  17.426  0.5155 -0.2892  0.4866
 1242SOL    HW215189   4.614   1.285  17.545 -0.6461  0.6915 -2.0613
 1243SOL     OW15190   0.610   1.828  14.726 -0.0550 -0.0513 -0.4692
 1243SOL    HW115191   0.611   1.734  14.713  0.8094  0.2013 -2.2007
 1243SOL    HW215192   0.679   1.851  14.664 -0.0025 -0.1164 -0.4351
 1244SOL     OW15193   3.370   0.821  15.708 -0.6081 -0.0266 -0.6531
 1244SOL    HW115194   3.465   0.809  15.716 -0.4126  0.3346 -2.3052
 1244SOL    HW215195   3.351   0.780  15.623  3.3951 -2.8749 -0.2100
 1245SOL     OW15196   1.569   3.560  11.153 -0.5389  0.1779 -0.2799
 1245SOL    HW115197   1.478   3.567  11.180 -0.4473 -0.2552  0.1388
 1245SOL    HW215198   1.570   3.541  11.059 -0.2282 -0.6860 -0.1037
 1246SOL     OW15199   0.723   3.926  10.141  0.2616 -0.7720 -0.8698
 1246SOL    HW115200   0.709   3.868  10.066 -0.4227  0.8823 -2.0234
 1246SOL    HW215201   0.759   4.001  10.093 -0.3874 -1.2363 -2.0841
 1247SOL     OW15202   2.725   1.130   2.048  0.2271  0.7818 -0.7624
 1247SOL    HW115203   2.686   1.117   2.135  0.4837  0.1887 -0.7399
 1247SOL    HW215204   2.669   1.203   2.023 -0.4527  0.7604  0.6645
 1248SOL     OW15205   2.564   3.321   1.084  0.1795  0.5607  0.6025
 1248SOL    HW115206   2.630   3.269   1.131 -0.2645 -1.3424 -0.8835
 1248SOL    HW215207   2.594   3.309   0.994 -1.1919 -2.3017  0.5260
 1249SOL     OW15208   3.041   4.133  11.852  0.4892  0.0898  0.6233
 1249SOL    HW115209   3.102   4.095  11.915  1.4125 -0.3111 -0.5062
 1249SOL    HW215210   2.958   4.089  11.868 -0.3877  1.3702 -0.4318
 1250SOL     OW15211   4.406   4.106  15.765 -0.1558  0.0098 -0.4402
 1250SOL    HW115212   4.359   4.081  15.686  4.0045  1.6926 -3.5036
 1250SOL    HW215213   4.335   4.090  15.827  0.2258 -1.0583 -0.2726
 1251SOL     OW15214   0.171   3.388   2.386 -0.4195 -0.2963 -0.0328
 1251SOL    HW115215   0.260   3.368   2.357 -0.3189 -2.3537  1.6194
 1251SOL    HW215216   0.185   3.478   2.416 -0.1185 -0.0594 -0.8852
 1252SOL     OW15217   2.853   1.259   8.833  0.4179 -0.4311  0.1823
 1252SOL    HW115218   2.801   1.265   8.913 -2.2792 -1.8341 -1.4543
 1252SOL    HW215219   2.937   1.254   8.877 -0.0050 -0.4824  0.9869
 1253SOL     OW15220   0.773   3.688   1.577 -0.1462  0.0882  0.1050
 1253SOL    HW115221   0.698   3.744   1.597  0.6550  1.7562 -1.5273
 1253SOL    HW215222   0.839   3.726   1.634 -2.6541 -0.1650  3.1593
 1254SOL     OW15223   3.548   4.697   4.194  0.5021  0.6013  0.4224
 1254SOL    HW115224   3.599   0.009   4.122  0.5983  0.9082  0.6531
 1254SOL    HW215225   3.466   4.690   4.145  0.4169  0.0014  0.6526
 1255SOL     OW15226   1.499   0.950   6.315  0.5739  0.4017 -0.2214
 1255SOL    HW115227   1.537   1.037   6.324 -0.3310  0.6666  0.9744
 1255SOL    HW215228   1.582   0.903   6.307  1.2821  1.6916 -0.4042
 1256SOL     OW15229   3.284   3.951   7.887  0.2975 -0.0651 -0.4169
 1256SOL    HW115230   3.353   4.012   7.861  0.3250 -0.1083 -0.4462
 1256SOL    HW215231   3.299   3.948   7.981  0.3596  0.3475 -0.4146
 1257SOL     OW15232   2.718   4.173   4.971 -0.3093 -0.0506 -0.2250
 1257SOL    HW115233   2.639   4.138   5.013 -0.1579 -2.0424 -1.6619
 1257SOL    HW215234   2.780   4.102   4.986 -0.4803 -0.0552  0.4693
 1258SOL     OW15235   0.143   0.011   8.344  0.2226  0.7390  0.0572
 1258SOL    HW115236   0.059   4.692   8.357  1.6626 -2.6125 -2.3515
 1258SOL    HW215237   0.113   0.084   8.288 -0.3958 -0.4196 -1.1325
 1259SOL     OW15238   4.218   0.868  16.553 -0.2969 -0.0950  0.5868
 1259SOL    HW115239   4.160   0.873  16.477  0.2585  0.4139  0.1981
 1259SOL    HW215240   4.205   0.775  16.573 -3.0528  0.0370 -0.6452
 1260SOL     OW15241   0.622   4.111   8.309  0.0690  0.4684  0.2624
 1260SOL    HW115242   0.693   4.078   8.364 -0.3888 -0.5436  0.2536
 1260SOL    HW215243   0.544   4.093   8.362  0.1619 -0.1714  0.1819
 1261SOL     OW15244   0.921   2.119   1.108 -0.1898  0.2407 -0.0131
 1261SOL    HW115245   0.893   2.113   1.199  1.0708 -2.5666  0.2015
 1261SOL    HW215246   0.859   2.058   1.067  0.3345  0.4917 -1.1857
 1262SOL     OW15247   1.532   3.296  17.169  0.2262  0.1168 -0.2063
 1262SOL    HW115248   1.436   3.298  17.179 -0.0502  0.1617 -2.6420
 1262SOL    HW215249   1.545   3.233  17.098  0.9585 -0.4306  0.4232
 1263SOL     OW15250   0.407   3.237   7.981 -0.2706  0.0406  0.3440
 1263SOL    HW115251   0.317   3.220   8.009 -0.4614  1.0222  0.3593
 1263SOL    HW215252   0.398   3.333   7.982  2.0705  0.2695 -0.9201
 1264SOL     OW15253   0.108   2.749   5.024 -0.1098 -0.1501  0.6147
 1264SOL    HW115254   0.179   2.688   5.044  1.1341  0.4392 -1.9938
 1264SOL    HW215255   0.093   2.711   4.937 -1.2044  1.4247  0.1141
 1265SOL     OW15256   1.996   4.332   0.219  0.3390 -0.5211  0.6849
 1265SOL    HW115257   2.042   4.286   0.289 -1.1463 -2.8604  0.1051
 1265SOL    HW215258   2.003   4.418   0.261  0.9766  0.6508 -1.8153
 1266SOL     OW15259   3.207   3.371  13.632 -0.2828  0.2040 -0.3055
 1266SOL    HW115260   3.182   3.421  13.554  0.2171  0.5154 -0.2642
 1266SOL    HW215261   3.143   3.301  13.622 -0.9424  0.9190 -1.0078
 1267SOL     OW15262   1.767   1.070   2.730  0.2262  0.3967  0.3324
 1267SOL    HW115263   1.736   1.040   2.644 -2.3852 -0.6982  1.6488
 1267SOL    HW215264   1.756   1.165   2.737 -2.0773  0.0278  1.9628
 1268SOL     OW15265   3.186   1.652   2.512  0.1817  0.0563  0.4692
 1268SOL    HW115266   3.264   1.666   2.458 -0.6688  0.1394 -0.7229
 1268SOL    HW215267   3.207   1.717   2.580  0.0661 -0.2509  0.8029
 1269SOL     OW15268   2.594   0.806   8.298  0.2099  0.2307  0.1622
 1269SOL    HW115269   2.567   0.849   8.379 -2.0537  0.1792 -0.5917
 1269SOL    HW215270   2.634   0.728   8.337 -0.0343 -0.3927 -0.8383
 1270SOL     OW15271   0.043   1.966   4.545 -0.0681  0.5445 -0.3314
 1270SOL    HW115272   0.074   1.975   4.635  1.7805 -1.4437 -0.7657
 1270SOL    HW215273   0.037   2.054   4.508  0.2039  0.1128 -1.4083
 1271SOL     OW15274   0.015   1.074   7.570 -0.5171 -0.4743 -0.6801
 1271SOL    HW115275   4.673   1.103   7.509  0.3460  1.7699 -0.5562
 1271SOL    HW215276   4.714   0.982   7.577  0.4976 -0.7531 -0.3967
 1272SOL     OW15277   4.704   2.279   0.143  0.3554 -0.2965 -0.5502
 1272SOL    HW115278   4.636   2.257   0.207 -1.2723  2.3486 -1.3687
 1272SOL    HW215279   4.650   2.271   0.064 -2.2910  0.6738  1.1537
 1273SOL     OW15280   0.156   2.864   1.077 -0.0219 -0.2903  0.4209
 1273SOL    HW115281   0.182   2.779   1.111 -0.5690  0.0682  1.7602
 1273SOL    HW215282   0.200   2.851   0.993  1.4929 -1.1261  1.3492
 1274SOL     OW15283   3.469   1.366   5.786 -0.2508  0.3351 -0.2337
 1274SOL    HW115284   3.442   1.346   5.875  1.5147 -3.4327 -0.5233
 1274SOL    HW215285   3.512   1.282   5.767  1.5656  1.3367 -0.6074
 1275SOL     OW15286   1.835   1.909  14.852 -0.2281 -0.0340  0.2703
 1275SOL    HW115287   1.817   2.002  14.868 -1.4433 -0.1862 -0.2179
 1275SOL    HW215288   1.853   1.905  14.758  0.5462 -1.5908  0.4932
 1276SOL     OW15289   0.495   2.255  14.062  0.0635  0.1839 -0.4749
 1276SOL    HW115290   0.549   2.331  14.082  0.4655 -0.7472  1.9379
 1276SOL    HW215291   0.482   2.223  14.151 -1.5372 -1.6536 -1.3557
 1277SOL     OW15292   3.295   0.645   1.752  0.1457 -0.4319 -0.1651
 1277SOL    HW115293   3.335   0.674   1.834 -0.7975  1.1008 -0.2386
 1277SOL    HW215294   3.239   0.722   1.739  0.5883 -0.2411 -1.0092
 1278SOL     OW15295   2.705   4.662   9.889 -0.1551 -0.2764  0.5143
 1278SOL    HW115296   2.728   0.013   9.836 -3.0556  1.5240  1.8536
 1278SOL    HW215297   2.617   4.684   9.919 -0.1914 -1.1583  1.0526
 1279SOL     OW15298   0.591   1.529  10.343 -0.7486  0.6476  0.0921
 1279SOL    HW115299   0.584   1.565  10.431 -0.7800 -0.9751  0.7579
 1279SOL    HW215300   0.542   1.447  10.351 -1.0072  0.6112 -1.7254
 1280SOL     OW15301   1.657   4.566   9.594 -0.3983  0.2063 -0.6872
 1280SOL    HW115302   1.688   4.493   9.647  0.6726  2.0007  1.1827
 1280SOL    HW215303   1.562   4.560   9.610 -0.4518  0.7717 -0.7827
 1281SOL     OW15304   2.543   0.364   6.780  0.1435 -0.4847  0.0149
 1281SOL    HW115305   2.505   0.452   6.785 -2.0091 -1.4226  0.1848
 1281SOL    HW215306   2.629   0.392   6.811  0.1795  0.1913 -0.6717
 1282SOL     OW15307   3.137   0.669   2.198  0.2938 -0.4625  0.1641
 1282SOL    HW115308   3.071   0.627   2.142  0.0472 -0.4112  0.4176
 1282SOL    HW215309   3.082   0.709   2.266  1.6227 -1.1793  1.6482
 1283SOL     OW15310   0.260   1.814  15.572 -0.4310 -0.6712 -0.6782
 1283SOL    HW115311   0.198   1.851  15.635  1.2428  2.7525 -1.0595
 1283SOL    HW215312   0.302   1.751  15.630  2.4772 -0.1802 -2.2791
 1284SOL     OW15313   1.059   1.912   0.530  0.2199  0.2191 -0.0895
 1284SOL    HW115314   1.122   1.850   0.493 -0.2349  2.1818 -4.1695
 1284SOL    HW215315   1.052   1.987   0.471 -3.8226 -0.5667 -0.6679
 1285SOL     OW15316   2.899   4.696  11.697  0.1020 -0.4480 -0.0773
 1285SOL    HW115317   2.894   4.670  11.605 -0.0747 -0.6637 -0.0073
 1285SOL    HW215318   2.902   0.065  11.682 -0.6650 -0.1626  1.6062
 1286SOL     OW15319   3.103   0.202  12.483  0.4404 -0.2228  0.0336
 1286SOL    HW115320   3.042   0.175  12.415 -0.4232  1.3250  0.2054
 1286SOL    HW215321   3.183   0.230  12.438  1.1053  0.8111  1.8313
 1287SOL     OW15322   3.432   1.702  11.083  0.2712  0.3360  0.4505
 1287SOL    HW115323   3.344   1.664  11.073  0.0893  0.5955  1.0720
 1287SOL    HW215324   3.473   1.650  11.152  1.8208  1.0121  0.0307
 1288SOL     OW15325   1.046   2.204   0.116 -0.0331  0.0674 -0.3888
 1288SOL    HW115326   1.088   2.190   0.201 -0.1069  0.1905 -0.3322
 1288SOL    HW215327   1.009   2.116   0.111 -0.3893  0.1400  0.8540
 1289SOL     OW15328   2.095   1.668   6.206 -0.6204  0.2806  0.5214
 1289SOL    HW115329   2.097   1.699   6.297  2.1685  1.7045 -0.0207
 1289SOL    HW215330   2.039   1.590   6.213  0.2648 -0.1504  2.8120
 1290SOL     OW15331   1.302   4.436  15.356 -0.8169  0.4015 -0.2790
 1290SOL    HW115332   1.255   4.407  15.434  0.1801  0.3424  0.2986
 1290SOL    HW215333   1.321   4.352  15.315 -0.0898  0.0233  0.8522
 1291SOL     OW15334   1.509   4.015   3.064  0.0514  0.1947 -0.8421
 1291SOL    HW115335   1.507   4.088   3.002  0.7223  1.7874  0.9869
 1291SOL    HW215336   1.433   3.962   3.039  0.3215 -1.1150  1.0968
 1292SOL     OW15337   2.111   2.433   7.237 -0.2685  0.3214 -0.1000
 1292SOL    HW115338   2.146   2.416   7.325  1.9302 -0.4933 -1.1475
 1292SOL    HW215339   2.057   2.512   7.245  0.1407  0.7119 -1.2852
 1293SOL     OW15340   2.248   3.008   3.426  0.6061 -0.4861  0.5366
 1293SOL    HW115341   2.274   3.092   3.465 -0.5880  0.4627 -0.7344
 1293SOL    HW215342   2.323   2.950   3.442 -0.5814 -2.3456 -0.7819
 1294SOL     OW15343   0.481   1.692  13.466  0.2896 -0.2353 -0.0728
 1294SOL    HW115344   0.548   1.647  13.414 -0.1727 -1.1423  0.1165
 1294SOL    HW215345   0.406   1.634  13.458  0.3510 -0.5857  1.8692
 1295SOL     OW15346   3.732   0.655   1.414  0.1650 -0.2804 -0.8927
 1295SOL    HW115347   3.733   0.743   1.450 -1.2828 -0.5238 -0.2628
 1295SOL    HW215348   3.701   0.598   1.484 -0.1908  0.3957 -0.4990
 1296SOL     OW15349   1.385   3.341   2.834 -0.2432 -0.1414 -0.3109
 1296SOL    HW115350   1.312   3.312   2.779 -1.2219  2.1855 -0.2575
 1296SOL    HW215351   1.427   3.406   2.777 -1.2288  1.6364  0.9902
 1297SOL     OW15352   2.047   4.698   9.682  0.7314  0.0112  0.0212
 1297SOL    HW115353   1.966   4.662   9.716 -0.1580  1.5182 -0.4887
 1297SOL    HW215354   2.112   4.688   9.752  1.1231 -2.7573 -0.7372
 1298SOL     OW15355   2.509   1.132   8.327 -0.9699  0.4602  0.4725
 1298SOL    HW115356   2.447   1.067   8.359  1.2365 -2.1387 -0.5080
 1298SOL    HW215357   2.574   1.148   8.396  0.8808 -0.1913 -1.1254
 1299SOL     OW15358   4.605   1.515   0.853 -0.4929 -0.1920 -0.4254
 1299SOL    HW115359   4.577   1.606   0.840 -0.9004 -0.0942  1.1985
 1299SOL    HW215360   4.583   1.480   0.767 -1.0410 -1.1460  0.1129
 1300SOL     OW15361   1.083   0.752  10.116 -0.2165 -0.3534  0.6956
 1300SOL    HW115362   1.138   0.827  10.140  0.7570 -1.0681  0.7378
 1300SOL    HW215363   0.997   0.791  10.102  0.6903  0.8054 -1.7546
 1301SOL     OW15364   1.786   3.194   2.622 -0.8252 -0.3016  0.7177
 1301SOL    HW115365   1.713   3.221   2.568 -0.6592  0.5184  0.9095
 1301SOL    HW215366   1.828   3.136   2.558 -2.5411  1.6121 -2.1223
 1302SOL     OW15367   1.117   4.282   7.340  0.7618  0.1401  0.3940
 1302SOL    HW115368   1.071   4.290   7.256  1.3886 -1.7005 -0.1149
 1302SOL    HW215369   1.151   4.195   7.322 -0.1254 -0.4129  1.3978
 1303SOL     OW15370   1.031   4.228  16.312  0.1393  0.2698  0.1855
 1303SOL    HW115371   1.028   4.166  16.385 -1.3628 -1.4243 -1.3048
 1303SOL    HW215372   1.114   4.273  16.325 -1.6652  3.7671 -0.0308
 1304SOL     OW15373   1.600   2.479   2.477  1.0420 -0.7250 -0.1735
 1304SOL    HW115374   1.594   2.571   2.451 -0.2595 -0.2655  1.7899
 1304SOL    HW215375   1.535   2.472   2.546 -0.2757  0.6175 -1.2873
 1305SOL     OW15376   1.153   3.907   7.023 -0.6855 -0.2918  0.7947
 1305SOL    HW115377   1.143   3.814   7.041  0.3468 -0.7190 -0.8164
 1305SOL    HW215378   1.095   3.928   6.949  0.1967 -2.4226 -0.4991
 1306SOL     OW15379   4.200   3.006  12.441 -0.1559 -0.1133 -0.0118
 1306SOL    HW115380   4.158   2.921  12.457 -1.0552  0.0510 -1.5144
 1306SOL    HW215381   4.267   2.976  12.380  0.0194  2.4317 -1.0912
 1307SOL     OW15382   4.223   0.508   4.236 -0.6551  0.3061  0.0165
 1307SOL    HW115383   4.316   0.491   4.222 -1.5482 -3.8701 -0.8243
 1307SOL    HW215384   4.194   0.545   4.153 -0.1206 -1.0882 -0.7825
 1308SOL     OW15385   1.699   0.961   8.462  0.8889  0.2188 -0.1098
 1308SOL    HW115386   1.720   0.873   8.431 -0.4157 -0.5655  1.1935
 1308SOL    HW215387   1.672   0.997   8.378 -0.2757  2.7602  1.3431
 1309SOL     OW15388   3.143   1.869   3.914 -0.1814 -0.4579 -1.1145
 1309SOL    HW115389   3.160   1.943   3.855 -0.4460 -2.0194 -3.1754
 1309SOL    HW215390   3.047   1.869   3.911 -0.2072 -0.4988 -0.3045
 1310SOL     OW15391   3.733   2.702   8.613 -0.1903  0.4999  0.6143
 1310SOL    HW115392   3.787   2.731   8.539 -0.8056  0.7931  0.2768
 1310SOL    HW215393   3.760   2.611   8.618  0.7582  0.8190  1.2528
 1311SOL     OW15394   3.575   0.329   5.109 -0.1848  0.3134  0.5718
 1311SOL    HW115395   3.540   0.248   5.145  2.0851  0.6647  3.5825
 1311SOL    HW215396   3.669   0.325   5.124 -0.0125 -0.4925 -0.7484
 1312SOL     OW15397   1.438   2.501   0.889 -0.2534  0.1211  0.1579
 1312SOL    HW115398   1.499   2.543   0.950  0.5986  2.4331 -2.2301
 1312SOL    HW215399   1.437   2.569   0.820 -3.4511 -1.2399 -1.1047
 1313SOL     OW15400   4.566   3.205   6.499 -0.1806 -0.0547  0.2255
 1313SOL    HW115401   4.560   3.148   6.422  0.0443  0.5620 -0.2538
 1313SOL    HW215402   4.530   3.149   6.568  3.3031 -2.6705 -0.0722
 1314SOL     OW15403   3.732   4.201   2.508 -0.2122 -0.0565 -0.2121
 1314SOL    HW115404   3.733   4.256   2.430 -1.1592 -1.1586 -1.0170
 1314SOL    HW215405   3.824   4.206   2.532 -0.2395 -2.3708  0.4193
 1315SOL     OW15406   3.985   1.249   1.400 -0.3200  0.1980  0.4297
 1315SOL    HW115407   4.033   1.204   1.469  1.2360  2.9430  1.1723
 1315SOL    HW215408   3.963   1.333   1.442  2.0097 -0.4238  2.8381
 1316SOL     OW15409   0.571   3.579  14.347  0.3092  0.3120 -0.5097
 1316SOL    HW115410   0.634   3.615  14.284  0.5833  0.6966 -0.0104
 1316SOL    HW215411   0.632   3.523  14.395 -1.3472 -1.7382 -0.8112
 1317SOL     OW15412   2.791   1.279   1.691 -0.1632 -0.3038 -0.2996
 1317SOL    HW115413   2.826   1.225   1.620  1.2991 -1.3747  1.2495
 1317SOL    HW215414   2.838   1.248   1.768 -0.1588 -0.3870 -0.3364
 1318SOL     OW15415   0.443   1.378  13.504  0.2913 -0.5049  0.3849
 1318SOL    HW115416   0.519   1.430  13.532 -3.8788  3.9500  3.2729
 1318SOL    HW215417   0.412   1.432  13.431  0.5448 -0.7815  0.0709
 1319SOL     OW15418   4.338   3.651   7.906  0.1579 -0.7766  0.2173
 1319SOL    HW115419   4.291   3.701   7.973  0.5640  0.3911 -0.3612
 1319SOL    HW215420   4.263   3.616   7.858 -0.3532 -0.0590  0.4955
 1320SOL     OW15421   2.143   2.947  13.452  0.2209  0.3135  0.1589
 1320SOL    HW115422   2.177   2.913  13.535 -1.6950 -3.3299 -0.5683
 1320SOL    HW215423   2.114   2.865  13.412 -1.1732  0.3956  1.0072
 1321SOL     OW15424   3.962   1.200   5.007  0.1197  0.1723  0.2253
 1321SOL    HW115425   4.021   1.136   5.047  2.9017  1.2063 -2.2273
 1321SOL    HW215426   3.895   1.198   5.075 -0.1114  1.1375  0.0304
 1322SOL     OW15427   1.563   2.053  12.258 -0.6065  0.6085 -0.1975
 1322SOL    HW115428   1.554   2.123  12.323 -1.2387 -0.0529  0.4304
 1322SOL    HW215429   1.492   1.998  12.290  1.0271 -2.5222 -1.8586
 1323SOL     OW15430   3.715   3.470   1.396  0.4214  0.6473  0.3723
 1323SOL    HW115431   3.778   3.463   1.324 -0.5406 -2.0055 -0.2172
 1323SOL    HW215432   3.727   3.384   1.436  0.6599  0.1568 -0.7515
 1324SOL     OW15433   1.401   0.169  11.067  0.6701  0.2368  0.1650
 1324SOL    HW115434   1.443   0.214  10.993  0.8564  0.1924  0.2417
 1324SOL    HW215435   1.444   0.083  11.071 -2.8271 -1.6360 -2.1951
 1325SOL     OW15436   4.696   3.699   9.208 -0.2781 -0.7972 -0.2556
 1325SOL    HW115437   4.619   3.653   9.242 -0.5719  0.4716  0.7941
 1325SOL    HW215438   4.708   3.777   9.261  2.2232 -1.4510  0.1446
 1326SOL     OW15439   0.869   4.651  14.649  0.3646 -0.1656 -0.2047
 1326SOL    HW115440   0.878   0.010  14.607  0.8766 -0.2987 -0.3569
 1326SOL    HW215441   0.925   4.658  14.726 -1.1299  0.9961  0.7862
 1327SOL     OW15442   3.677   1.447  10.652  0.1547 -0.1078 -0.1740
 1327SOL    HW115443   3.752   1.485  10.606  0.5942  1.3212  1.7400
 1327SOL    HW215444   3.608   1.513  10.643  1.1045  1.0079  0.6819
 1328SOL     OW15445   4.302   0.527   3.136 -0.5720  1.1356 -0.1721
 1328SOL    HW115446   4.239   0.597   3.119 -0.2192  1.5121  0.0711
 1328SOL    HW215447   4.292   0.478   3.055 -0.6318 -0.8137  1.0160
 1329SOL     OW15448   3.713   3.435  15.031 -0.9420  0.4955 -0.1074
 1329SOL    HW115449   3.700   3.396  15.117  0.0350  0.5441  0.0660
 1329SOL    HW215450   3.702   3.361  14.972  0.2742 -1.1946  1.7902
 1330SOL     OW15451   4.551   2.106   2.579 -0.4963 -0.1252 -0.6767
 1330SOL    HW115452   4.543   2.149   2.664  0.3835 -2.2510  0.4898
 1330SOL    HW215453   4.499   2.170   2.530 -0.5210  2.2059  2.4235
 1331SOL     OW15454   3.698   3.289   7.492  0.9140 -0.1829  0.2804
 1331SOL    HW115455   3.701   3.276   7.397  1.8266  0.2652  0.2466
 1331SOL    HW215456   3.717   3.197   7.514  1.0659 -0.4704 -1.0685
 1332SOL     OW15457   2.479   2.750  12.115 -0.4780 -0.2863 -0.0867
 1332SOL    HW115458   2.547   2.777  12.054 -0.6025 -1.6448 -0.8340
 1332SOL    HW215459   2.519   2.763  12.201 -0.7377  1.8813 -0.3054
 1333SOL     OW15460   0.439   3.184   3.831 -0.2050 -0.7762 -0.2365
 1333SOL    HW115461   0.367   3.190   3.769 -0.0110 -0.4236 -0.4271
 1333SOL    HW215462   0.408   3.115   3.890  0.5190 -0.6200  0.3292
 1334SOL     OW15463   3.661   0.031   3.039  0.4159  1.0886 -0.4333
 1334SOL    HW115464   3.606   4.688   3.075  3.1882 -1.2061 -0.6654
 1334SOL    HW215465   3.627   0.114   3.075  2.8172  0.4831  3.1267
 1335SOL     OW15466   0.126   2.310   0.817  0.3335 -0.1708  0.9157
 1335SOL    HW115467   0.032   2.292   0.813 -0.1444  2.8837 -1.4602
 1335SOL    HW215468   0.124   2.373   0.890  2.2367  1.1169 -0.1469
 1336SOL     OW15469   0.650   2.380   1.360  0.7081 -0.3113 -0.3366
 1336SOL    HW115470   0.641   2.415   1.448 -0.1673  0.3434 -0.6778
 1336SOL    HW215471   0.577   2.319   1.354  0.7293 -0.3714  0.0255
 1337SOL     OW15472   2.381   4.536   4.617  0.4639 -0.2503  0.0569
 1337SOL    HW115473   2.301   4.577   4.585 -0.9541 -1.8843  1.4610
 1337SOL    HW215474   2.439   4.611   4.630  0.7779 -0.4917  0.0480
 1338SOL     OW15475   2.742   2.771  13.337  0.6224  0.1260 -0.1835
 1338SOL    HW115476   2.667   2.808  13.383  0.7597  0.8644 -0.5514
 1338SOL    HW215477   2.797   2.725  13.400 -1.9124  0.6727  2.4337
 1339SOL     OW15478   4.180   1.182  17.283  0.2638  0.0733 -0.1433
 1339SOL    HW115479   4.120   1.131  17.337  1.9683 -3.6133 -1.7475
 1339SOL    HW215480   4.192   1.116  17.215 -2.4863  1.0723 -1.6011
 1340SOL     OW15481   4.570   1.281   5.038  0.1950 -0.1212  0.3977
 1340SOL    HW115482   4.520   1.314   5.112  0.9771 -1.7682  1.6622
 1340SOL    HW215483   4.595   1.360   4.990  0.1743  0.1586  0.8440
 1341SOL     OW15484   2.767   0.336   8.400  0.3452 -0.1817  0.4714
 1341SOL    HW115485   2.830   0.304   8.336 -0.9973 -1.9532  0.0195
 1341SOL    HW215486   2.715   0.256   8.409  2.5265 -1.6824 -0.3318
 1342SOL     OW15487   1.954   1.669   5.624 -0.3137 -0.8212  0.6288
 1342SOL    HW115488   2.013   1.627   5.561 -1.4490 -1.4966  0.0112
 1342SOL    HW215489   1.995   1.752   5.647  0.2168 -0.2629 -2.3739
 1343SOL     OW15490   2.100   2.249  10.426  0.4756  0.2487 -0.3407
 1343SOL    HW115491   2.148   2.277  10.504  0.7985 -2.2576  0.3617
 1343SOL    HW215492   2.154   2.302  10.367 -0.6241 -0.9390 -2.4333
 1344SOL     OW15493   2.150   0.781   1.991 -0.2365 -0.2217 -0.3092
 1344SOL    HW115494   2.100   0.710   1.950 -0.9461 -1.3710  2.5812
 1344SOL    HW215495   2.201   0.736   2.057 -1.6808 -0.9547  0.3030
 1345SOL     OW15496   3.436   2.829  15.170  0.2216 -0.4609  0.6192
 1345SOL    HW115497   3.495   2.789  15.234  1.1518 -1.1609 -0.6530
 1345SOL    HW215498   3.382   2.889  15.220 -2.3117 -2.0410 -0.2214
 1346SOL     OW15499   3.741   1.166  10.301  0.3334 -0.1774 -0.1271
 1346SOL    HW115500   3.831   1.172  10.271  0.8980 -0.2386  1.5761
 1346SOL    HW215501   3.725   1.258  10.282  1.8336  0.3204  1.0355
 1347SOL     OW15502   2.663   0.646  17.205 -0.8735 -0.4195  0.2710
 1347SOL    HW115503   2.747   0.610  17.175  0.7498  1.8314  2.1952
 1347SOL    HW215504   2.656   0.730  17.161  1.5819 -0.1725  0.3749
 1348SOL     OW15505   4.614   0.102  14.800 -0.7330  0.2608 -0.0274
 1348SOL    HW115506   4.585   0.185  14.761 -1.1158  0.0024 -0.2924
 1348SOL    HW215507   4.693   0.086  14.749 -0.5046  2.6698 -0.4442
 1349SOL     OW15508   0.213   4.228   4.970 -0.3899 -0.1501  0.3175
 1349SOL    HW115509   0.260   4.254   5.050 -2.4081 -0.2955  1.5356
 1349SOL    HW215510   0.277   4.263   4.907  1.9738 -3.2912  0.9555
 1350SOL     OW15511   4.510   3.444  14.613 -0.0740  0.3998 -0.1814
 1350SOL    HW115512   4.416   3.461  14.602 -0.4481 -1.7304 -0.2057
 1350SOL    HW215513   4.527   3.398  14.531 -0.1422 -1.0797  0.6399
 1351SOL     OW15514   3.396   3.154   9.721  0.5705 -0.0267  0.0478
 1351SOL    HW115515   3.487   3.157   9.691  1.3940 -0.8119  2.4399
 1351SOL    HW215516   3.401   3.144   9.816  1.0097  1.4305  0.1799
 1352SOL     OW15517   4.444   4.066  16.551  0.0273 -0.1117  0.5475
 1352SOL    HW115518   4.353   4.094  16.564  0.3869  0.7608  1.1925
 1352SOL    HW215519   4.489   4.138  16.595 -0.4356  1.2420 -1.2496
 1353SOL     OW15520   0.588   2.442   9.560  0.3864  0.3493  0.1828
 1353SOL    HW115521   0.647   2.442   9.484  1.4824  2.6370  1.0257
 1353SOL    HW215522   0.628   2.371   9.609 -0.5127 -0.3730 -0.1300
 1354SOL     OW15523   0.533   2.434   6.694 -0.3493 -0.0094 -0.3504
 1354SOL    HW115524   0.589   2.400   6.764 -0.2283  1.3099  0.1993
 1354SOL    HW215525   0.515   2.521   6.730 -0.6053 -0.1726 -0.0836
 1355SOL     OW15526   0.158   4.387  13.514 -0.0930 -0.4565  0.2861
 1355SOL    HW115527   0.166   4.435  13.597  2.3111  0.0579 -0.2646
 1355SOL    HW215528   0.248   4.394  13.485  0.5471  1.1946  2.6210
 1356SOL     OW15529   1.493   4.602   6.896  0.9507 -0.7670  0.7151
 1356SOL    HW115530   1.549   4.656   6.952  1.2176  1.5025 -1.7058
 1356SOL    HW215531   1.514   4.514   6.926  1.1796 -1.7303 -2.2593
 1357SOL     OW15532   4.614   1.807   7.241 -0.1065  0.1833  0.1757
 1357SOL    HW115533   4.616   1.859   7.322  1.9705 -0.1006  0.3125
 1357SOL    HW215534   4.541   1.857   7.205 -0.3213  1.0397  1.7756
 1358SOL     OW15535   1.889   1.056   4.087  0.1729  0.1077 -0.1215
 1358SOL    HW115536   1.861   1.145   4.111 -2.0952  0.0054 -2.3843
 1358SOL    HW215537   1.969   1.072   4.037 -0.7013 -1.0592 -1.8871
 1359SOL     OW15538   3.167   0.933   4.752 -0.1456  0.4686 -0.2959
 1359SOL    HW115539   3.088   0.900   4.709  0.1534  0.5983 -0.9390
 1359SOL    HW215540   3.227   0.861   4.736 -1.0353 -0.2066 -0.5805
 1360SOL     OW15541   3.335   2.170   6.318  0.0152 -0.6868  0.1139
 1360SOL    HW115542   3.371   2.215   6.395 -0.4836 -1.3524  0.7382
 1360SOL    HW215543   3.285   2.102   6.363 -1.4839 -0.1700 -0.8001
 1361SOL     OW15544   3.502   2.354   5.669  0.8742 -0.1315  0.7410
 1361SOL    HW115545   3.524   2.261   5.674 -1.2989 -0.7019 -0.6540
 1361SOL    HW215546   3.495   2.367   5.575 -4.2917 -1.1025  0.9979
 1362SOL     OW15547   0.570   3.173   6.332  0.0364 -0.3095  0.2831
 1362SOL    HW115548   0.483   3.193   6.368 -0.4803 -2.0400 -0.0095
 1362SOL    HW215549   0.571   3.081   6.308 -2.4859  0.2442 -1.9215
 1363SOL     OW15550   4.433   4.554   5.179  0.0432  0.9953 -0.4689
 1363SOL    HW115551   4.447   4.478   5.122  0.1106  0.9922 -0.4482
 1363SOL    HW215552   4.421   4.513   5.265  2.0497 -2.4136 -1.7973
 1364SOL     OW15553   2.056   4.518   8.779 -0.2000  0.1759  0.0530
 1364SOL    HW115554   2.056   4.551   8.869 -1.6446  0.1700  0.0472
 1364SOL    HW215555   2.118   4.582   8.744 -1.3984  1.5921  0.5154
 1365SOL     OW15556   3.760   2.288   0.648  0.0750  0.3814  0.4577
 1365SOL    HW115557   3.776   2.368   0.697 -0.5861  1.0228 -0.3788
 1365SOL    HW215558   3.814   2.284   0.569 -1.3697 -0.0270 -0.5196
 1366SOL     OW15559   0.084   0.439  10.916  0.1611  0.4639 -0.6974
 1366SOL    HW115560   0.090   0.462  11.009  0.6651 -1.0111 -0.3697
 1366SOL    HW215561   0.004   0.388  10.908  0.0167  0.3579  1.2868
 1367SOL     OW15562   0.700   4.249   1.956  0.0777  0.4358  0.1552
 1367SOL    HW115563   0.658   4.168   1.987 -1.6200  0.7836 -1.2244
 1367SOL    HW215564   0.782   4.244   2.005  0.7152  0.1406 -0.9337
 1368SOL     OW15565   0.394   0.870  14.002 -0.1229  0.4525  0.3317
 1368SOL    HW115566   0.345   0.951  13.993 -2.2473 -0.6327  2.2150
 1368SOL    HW215567   0.431   0.883  14.089 -1.0428  1.2261  0.6085
 1369SOL     OW15568   2.581   3.726   4.908 -0.1268 -0.1020  0.2432
 1369SOL    HW115569   2.524   3.695   4.838 -0.3621  2.5138 -0.7340
 1369SOL    HW215570   2.618   3.808   4.876  2.3707 -1.7471 -1.0982
 1370SOL     OW15571   1.849   3.478   5.022  0.3906  0.0609 -0.5751
 1370SOL    HW115572   1.790   3.420   4.973 -1.4734 -0.2717  2.0822
 1370SOL    HW215573   1.894   3.415   5.077 -2.4179  1.5102  3.3880
 1371SOL     OW15574   4.549   2.748   6.796 -0.2198 -0.3177 -0.1738
 1371SOL    HW115575   4.492   2.749   6.873  1.2383  1.9794  0.8639
 1371SOL    HW215576   4.516   2.674   6.745 -0.8391 -1.3325  1.7067
 1372SOL     OW15577   1.036   3.760   7.388  0.1935  0.6993  0.2102
 1372SOL    HW115578   1.094   3.701   7.436 -0.7778 -1.2803 -1.0567
 1372SOL    HW215579   1.103   3.803   7.336 -0.9265  0.9437 -1.0381
 1373SOL     OW15580   2.150   1.877   5.562 -0.3951  0.5952  0.0867
 1373SOL    HW115581   2.123   1.913   5.646  3.6247 -1.9350  2.4418
 1373SOL    HW215582   2.091   1.919   5.499 -0.6967 -1.2178 -0.8585
 1374SOL     OW15583   3.075   1.563   5.982  0.0010 -0.4518  0.8387
 1374SOL    HW115584   2.981   1.563   5.964 -0.0620  1.1126  1.1772
 1374SOL    HW215585   3.107   1.511   5.908 -1.6511  1.2121 -1.0326
 1375SOL     OW15586   1.274   3.742   2.687  0.0376  0.0901  0.0979
 1375SOL    HW115587   1.352   3.744   2.743  0.7336  1.1249 -0.9151
 1375SOL    HW215588   1.308   3.693   2.613 -1.5114 -0.5508 -0.1892
 1376SOL     OW15589   4.051   2.912   9.493 -0.2325 -0.0348 -0.0912
 1376SOL    HW115590   4.055   2.858   9.572 -1.1793 -1.8161 -1.2557
 1376SOL    HW215591   4.064   2.853   9.419 -2.2279 -0.4086 -0.1438
 1377SOL     OW15592   3.664   3.370   2.997 -0.2124  0.2273 -0.6489
 1377SOL    HW115593   3.572   3.387   3.019  0.1207 -0.4516  1.3070
 1377SOL    HW215594   3.702   3.452   3.028  2.3972 -0.6844 -1.4582
 1378SOL     OW15595   1.602   2.341   0.475  0.4324  0.1145  0.6780
 1378SOL    HW115596   1.627   2.379   0.560 -0.0173  0.3638  0.7031
 1378SOL    HW215597   1.567   2.423   0.439 -0.4968 -0.1412  0.9815
 1379SOL     OW15598   0.510   0.085   0.091  0.4045  0.3916  0.4635
 1379SOL    HW115599   0.489   0.021   0.023  0.7459 -1.5407  2.1770
 1379SOL    HW215600   0.556   0.025   0.150 -0.6859  1.8847  2.8479
 1380SOL     OW15601   3.058   3.235   1.247 -0.2153  0.1310  0.8633
 1380SOL    HW115602   3.066   3.174   1.320  1.6344 -1.5237 -0.7496
 1380SOL    HW215603   3.149   3.235   1.219 -0.1088 -1.4186  1.2197
 1381SOL     OW15604   0.071   2.537   1.424 -0.2626 -0.0614 -0.3830
 1381SOL    HW115605   0.112   2.477   1.486 -2.7401 -0.9048  0.4370
 1381SOL    HW215606   4.723   2.583   1.465  0.4466  0.7540 -0.0171
 1382SOL     OW15607   3.861   0.741   0.278  0.1872 -0.1204 -0.3094
 1382SOL    HW115608   3.776   0.701   0.262 -0.9669  1.1902  2.6326
 1382SOL    HW215609   3.886   0.677   0.344 -0.5865  0.9844  1.0490
 1383SOL     OW15610   1.266   2.057   2.761  0.2781  0.2620 -0.0193
 1383SOL    HW115611   1.224   1.972   2.748  0.7857 -0.1517  1.0549
 1383SOL    HW215612   1.222   2.110   2.694  1.4948  0.9286 -0.2892
 1384SOL     OW15613   3.020   2.944   4.696 -0.2713  0.1000 -0.9049
 1384SOL    HW115614   3.065   3.028   4.700  1.6028 -0.9686  0.5406
 1384SOL    HW215615   2.933   2.981   4.708 -0.1396 -0.1384  0.6874
 1385SOL     OW15616   4.622   2.766  15.967 -0.3422 -0.5077  0.0734
 1385SOL    HW115617   4.576   2.687  15.996 -3.0204  1.6358  1.6587
 1385SOL    HW215618   4.669   2.800  16.043 -0.8147 -0.7981  0.4923
 1386SOL     OW15619   3.334   0.211   7.411 -0.2187  0.4028 -0.6331
 1386SOL    HW115620   3.392   0.218   7.487  0.3383  0.6190 -1.0846
 1386SOL    HW215621   3.323   0.299   7.376 -0.6769  0.3110 -0.7337
 1387SOL     OW15622   3.992   3.989  13.245  0.4287 -0.0719 -0.0022
 1387SOL    HW115623   4.000   3.950  13.332 -0.3690 -1.5268 -0.5803
 1387SOL    HW215624   3.958   4.073  13.278  2.8054  0.7682  0.3557
 1388SOL     OW15625   1.512   3.365   8.249 -0.4003 -0.0532  0.3558
 1388SOL    HW115626   1.588   3.423   8.252  0.5499 -1.2506 -0.1322
 1388SOL    HW215627   1.498   3.331   8.337 -1.8483  0.0897  0.1716
 1389SOL     OW15628   4.069   4.481   2.416 -0.3419 -0.2380 -0.1596
 1389SOL    HW115629   4.078   4.466   2.322 -0.4834  1.3454 -0.4144
 1389SOL    HW215630   4.131   4.551   2.435 -1.3115  0.6390 -0.2805
 1390SOL     OW15631   3.824   3.842   4.512  0.2115  0.2006 -0.0594
 1390SOL    HW115632   3.759   3.777   4.539 -0.2660  0.8299  0.2873
 1390SOL    HW215633   3.777   3.920   4.539  1.9350  1.1174  0.3074
 1391SOL     OW15634   4.272   2.112   1.342  0.3249 -0.1480 -0.1903
 1391SOL    HW115635   4.356   2.125   1.384  0.4334  0.4822 -0.5990
 1391SOL    HW215636   4.257   2.022   1.371 -1.4436 -0.1405 -1.0407
 1392SOL     OW15637   3.873   3.408  11.403 -0.2960  0.5301  0.0497
 1392SOL    HW115638   3.867   3.328  11.352  1.1347 -0.0876  0.8516
 1392SOL    HW215639   3.797   3.457  11.371 -1.1281 -1.4531 -0.9709
 1393SOL     OW15640   2.354   2.547  15.514 -0.1512  0.4674  0.0339
 1393SOL    HW115641   2.270   2.505  15.533  0.4842 -0.1814  1.4283
 1393SOL    HW215642   2.418   2.485  15.551 -0.8403 -0.5796 -0.5216
 1394SOL     OW15643   1.493   4.686   1.863 -0.4084 -0.3085 -0.4342
 1394SOL    HW115644   1.495   4.604   1.812  2.3158 -0.0274 -0.7438
 1394SOL    HW215645   1.417   4.725   1.821  0.1210  1.5719  0.3786
 1395SOL     OW15646   1.528   4.554   8.057 -0.2017 -0.2356 -0.0858
 1395SOL    HW115647   1.553   4.545   7.965  1.3589 -3.4346  0.6502
 1395SOL    HW215648   1.452   4.495   8.057  0.2982 -0.9214  3.6573
 1396SOL     OW15649   4.674   4.196  10.801 -0.0661 -0.0123 -0.1714
 1396SOL    HW115650   4.671   4.124  10.738 -0.3844 -0.4847  0.3833
 1396SOL    HW215651   4.636   4.152  10.877 -0.5586 -0.2862 -0.5801
 1397SOL     OW15652   2.757   1.466   8.673  0.5124 -0.5326 -0.4605
 1397SOL    HW115653   2.827   1.531   8.681  0.4968 -0.9208  2.6915
 1397SOL    HW215654   2.768   1.421   8.756 -1.1928  0.5666  0.3634
 1398SOL     OW15655   0.278   0.981  11.885 -0.0458  0.1826 -0.1508
 1398SOL    HW115656   0.340   0.954  11.952 -1.0355  0.3321  0.8242
 1398SOL    HW215657   0.322   0.925  11.821 -1.3754 -0.9445 -0.0619
 1399SOL     OW15658   2.741   3.146   3.075 -0.4741  0.2395 -0.6852
 1399SOL    HW115659   2.701   3.092   3.008  0.4743  0.0600 -1.1061
 1399SOL    HW215660   2.835   3.128   3.076 -0.2966  1.2120  0.8051
 1400SOL     OW15661   2.136   2.902   8.563  0.8566 -0.3632  0.1103
 1400SOL    HW115662   2.196   2.977   8.560 -0.7253  0.8513 -1.9138
 1400SOL    HW215663   2.123   2.897   8.468  0.0506  0.4372  0.1749
 1401SOL     OW15664   3.069   0.717   3.797  0.4221  0.3967  0.4372
 1401SOL    HW115665   3.164   0.723   3.786  0.6015  0.3488  1.9642
 1401SOL    HW215666   3.056   0.767   3.878 -0.9716 -1.2188  1.2184
 1402SOL     OW15667   4.455   2.288   2.030 -0.2708  0.2486 -0.0024
 1402SOL    HW115668   4.432   2.364   2.083  1.9387  1.0906 -0.2636
 1402SOL    HW215669   4.520   2.327   1.971 -1.1705  0.4955 -0.8370
 1403SOL     OW15670   1.607   2.845  14.289  0.4519 -0.1020  0.3446
 1403SOL    HW115671   1.655   2.807  14.362  2.1323  1.0277 -0.1588
 1403SOL    HW215672   1.518   2.827  14.319  0.2090 -0.3696 -0.5295
 1404SOL     OW15673   4.105   3.497   6.808  0.3949 -0.9680  0.3563
 1404SOL    HW115674   4.131   3.534   6.892  3.0266  0.9674 -1.2957
 1404SOL    HW215675   4.053   3.568   6.770  1.1917 -1.1840 -1.1399
 1405SOL     OW15676   4.210   4.069   6.771 -0.0293 -0.0717 -0.0097
 1405SOL    HW115677   4.213   4.113   6.855 -2.2483 -1.0652  0.5792
 1405SOL    HW215678   4.303   4.050   6.760  0.2217  1.1729  0.0256
 1406SOL     OW15679   1.361   1.530   1.630 -0.0504  0.3297 -0.3913
 1406SOL    HW115680   1.275   1.550   1.592 -0.4872  0.2630  0.5622
 1406SOL    HW215681   1.322   1.502   1.713 -1.3085 -2.2244 -1.8577
 1407SOL     OW15682   3.626   1.404   8.968 -0.1509  0.0615  0.6267
 1407SOL    HW115683   3.555   1.383   9.028  0.4643 -0.6052  1.1183
 1407SOL    HW215684   3.703   1.366   9.010  0.1825  3.0186  2.6854
 1408SOL     OW15685   4.508   3.328  15.968  0.5243  0.2366 -0.3374
 1408SOL    HW115686   4.567   3.286  15.906  1.2433  0.9080 -0.1089
 1408SOL    HW215687   4.447   3.370  15.908  1.1341  0.7128 -0.6284
 1409SOL     OW15688   2.034   4.365  13.534  0.5505 -0.0963  0.4605
 1409SOL    HW115689   2.112   4.350  13.481  0.5541  1.0715  0.1281
 1409SOL    HW215690   2.014   4.273  13.551  0.4799 -0.0700  0.5196
 1410SOL     OW15691   4.656   2.674   0.323  0.2209 -0.0099  0.3697
 1410SOL    HW115692   4.602   2.602   0.355  0.0512  0.0711  0.2664
 1410SOL    HW215693   0.017   2.636   0.335 -0.6041 -1.7136  0.8922
 1411SOL     OW15694   4.725   0.823   2.899 -0.5417  0.0962 -0.1414
 1411SOL    HW115695   0.068   0.887   2.886 -1.1797  0.7893 -0.1042
 1411SOL    HW215696   0.023   0.765   2.826  1.5481  0.4374  0.2678
 1412SOL     OW15697   4.231   0.445   1.771 -0.5866 -0.1746  0.1573
 1412SOL    HW115698   4.211   0.353   1.790 -0.5995  0.0833  1.3884
 1412SOL    HW215699   4.282   0.432   1.691  0.7018 -0.3963  1.0262
 1413SOL     OW15700   0.327   2.301   6.300  0.3100  0.0524  0.0330
 1413SOL    HW115701   0.416   2.329   6.322 -0.1798  0.8201  1.0575
 1413SOL    HW215702   0.274   2.381   6.293  0.5097  0.3799  2.1641
 1414SOL     OW15703   4.349   0.670   7.426 -0.4965  0.3189 -0.0864
 1414SOL    HW115704   4.296   0.622   7.362 -1.5239  1.6425 -0.2340
 1414SOL    HW215705   4.309   0.639   7.507 -0.8451 -1.3518 -0.8768
 1415SOL     OW15706   0.488   2.496   2.632  0.5265 -0.3815  0.0365
 1415SOL    HW115707   0.442   2.428   2.583  0.5669  0.3512 -1.0172
 1415SOL    HW215708   0.561   2.525   2.578  0.7428 -0.0964  0.4826
 1416SOL     OW15709   3.096   0.751   5.899 -0.5015 -0.1872  0.4233
 1416SOL    HW115710   3.112   0.825   5.958 -2.1129 -1.3260  2.2389
 1416SOL    HW215711   3.041   0.791   5.832  1.2813 -0.7594 -1.4084
 1417SOL     OW15712   3.986   0.006   2.672  0.0623 -0.0428 -0.0826
 1417SOL    HW115713   4.002   4.640   2.693 -0.7009  0.2478  1.7836
 1417SOL    HW215714   3.945   0.009   2.586  2.2909  2.3021 -1.0640
 1418SOL     OW15715   3.922   4.326  10.397  0.0478  0.4875  0.2876
 1418SOL    HW115716   3.900   4.303  10.487 -1.5017  0.4829 -0.0876
 1418SOL    HW215717   3.990   4.259  10.384 -0.2272  0.3882 -0.6118
 1419SOL     OW15718   3.268   4.007   6.479 -0.7003 -0.2513 -0.2862
 1419SOL    HW115719   3.267   4.102   6.486  0.2690 -0.3911  1.7956
 1419SOL    HW215720   3.277   3.991   6.385 -1.5350  0.9510 -0.5746
 1420SOL     OW15721   0.126   1.497   9.346  0.0273 -0.3432  0.8405
 1420SOL    HW115722   0.167   1.444   9.415 -0.9898  1.5578  2.9384
 1420SOL    HW215723   0.191   1.567   9.335  0.5068 -1.1213 -1.2598
 1421SOL     OW15724   1.680   2.480   8.787  0.4131 -0.1227  0.3192
 1421SOL    HW115725   1.635   2.532   8.721 -1.0463  0.5505  1.8359
 1421SOL    HW215726   1.742   2.541   8.827 -1.0370  1.6410 -0.1252
 1422SOL     OW15727   1.930   1.827  13.952  0.1930 -0.0656 -0.1997
 1422SOL    HW115728   2.003   1.828  14.014  0.4950 -1.6455 -0.5267
 1422SOL    HW215729   1.860   1.814  14.016  1.3577 -0.5690  0.9720
 1423SOL     OW15730   3.911   0.834  17.008  0.0583 -0.3159 -0.6063
 1423SOL    HW115731   3.918   0.911  17.064 -1.7447 -1.0447  0.6060
 1423SOL    HW215732   3.837   0.791  17.050  0.1799  0.8964  0.8513
 1424SOL     OW15733   1.297   3.117   8.809 -0.2491 -0.2273 -0.0643
 1424SOL    HW115734   1.318   3.109   8.902 -1.0393 -0.1908  0.1126
 1424SOL    HW215735   1.381   3.099   8.767 -1.2268  0.1019 -2.1128
 1425SOL     OW15736   2.410   1.577   1.261  0.0159 -0.1245 -0.1477
 1425SOL    HW115737   2.391   1.486   1.283 -0.8957  0.6323  2.1687
 1425SOL    HW215738   2.342   1.619   1.313  0.2452  3.0008 -2.4006
 1426SOL     OW15739   4.111   1.202  15.003 -0.2286 -0.3440  0.0183
 1426SOL    HW115740   4.183   1.141  15.015  0.5827  0.6210 -0.0003
 1426SOL    HW215741   4.048   1.138  14.970 -0.5436  0.2784 -0.6036
 1427SOL     OW15742   3.854   4.242  10.658  0.0926  0.2424  0.7715
 1427SOL    HW115743   3.802   4.162  10.664 -0.6066  0.6484  0.0367
 1427SOL    HW215744   3.828   4.284  10.740  1.7301 -0.0474  1.4410
 1428SOL     OW15745   1.604   2.809   4.697 -0.5321 -0.4098 -0.3085
 1428SOL    HW115746   1.541   2.747   4.661  2.0723 -1.5212 -3.0263
 1428SOL    HW215747   1.565   2.831   4.781  0.8957  0.0569  0.2360
 1429SOL     OW15748   1.287   0.375   3.902  0.6234 -0.5232 -0.2869
 1429SOL    HW115749   1.267   0.296   3.953  0.3576 -1.4043 -1.7399
 1429SOL    HW215750   1.379   0.353   3.883  0.7993  1.8639 -2.1757
 1430SOL     OW15751   3.094   3.120   9.528 -0.0872 -0.4474  0.1212
 1430SOL    HW115752   3.067   3.196   9.477  1.3101  0.1113  0.2011
 1430SOL    HW215753   3.070   3.148   9.616 -2.8040  1.1510 -1.1208
 1431SOL     OW15754   2.637   3.971  17.305  0.4565 -0.5656  0.4104
 1431SOL    HW115755   2.723   3.967  17.348  0.3395 -1.1635  0.5898
 1431SOL    HW215756   2.664   4.029  17.234  0.5959 -1.5601 -0.3517
 1432SOL     OW15757   1.373   1.776   1.423 -0.0088 -0.3386  0.8600
 1432SOL    HW115758   1.281   1.800   1.435 -0.1118  0.9929 -2.8568
 1432SOL    HW215759   1.384   1.803   1.332 -1.3229  0.3724  0.9258
 1433SOL     OW15760   2.340   2.339   2.175 -0.1958 -0.1905 -0.0875
 1433SOL    HW115761   2.323   2.345   2.081 -1.3336 -0.5238  0.1051
 1433SOL    HW215762   2.282   2.407   2.209  0.6047  0.4752 -0.0364
 1434SOL     OW15763   3.813   1.930   6.461  0.8216 -0.5281 -0.2121
 1434SOL    HW115764   3.805   1.963   6.550  0.9981  1.8287 -1.0657
 1434SOL    HW215765   3.904   1.902   6.465  1.5873  1.9047 -0.6214
 1435SOL     OW15766   2.893   3.751   4.732  0.1645  0.1764  0.1034
 1435SOL    HW115767   2.844   3.683   4.685 -1.0724  1.6149 -0.6984
 1435SOL    HW215768   2.828   3.821   4.736 -0.2784 -0.0837 -2.8003
 1436SOL     OW15769   3.459   1.431   2.409  0.3630 -0.1923 -0.7902
 1436SOL    HW115770   3.534   1.489   2.391  0.7549 -0.0356  1.3836
 1436SOL    HW215771   3.427   1.405   2.323 -3.9627  2.6186 -0.0381
 1437SOL     OW15772   2.482   1.171   0.453 -0.6732  0.5513 -0.1488
 1437SOL    HW115773   2.499   1.108   0.524  1.5535  0.7371 -0.5214
 1437SOL    HW215774   2.390   1.189   0.474 -1.1608 -0.0348 -1.7910
 1438SOL     OW15775   1.503   1.023   6.651 -0.2075  0.0538  0.0132
 1438SOL    HW115776   1.419   1.058   6.678  0.1763 -0.8279  2.3465
 1438SOL    HW215777   1.563   1.096   6.665 -0.7835  0.4374  0.4845
 1439SOL     OW15778   3.543   1.352   0.898 -0.4720  0.3764 -0.7465
 1439SOL    HW115779   3.536   1.278   0.958 -2.2437  2.4291  1.5545
 1439SOL    HW215780   3.635   1.376   0.915 -0.5449 -0.9719  1.5659
 1440SOL     OW15781   3.729   2.261   8.877  0.0730 -0.2205 -0.1851
 1440SOL    HW115782   3.685   2.309   8.947 -1.2015  0.1935 -1.2848
 1440SOL    HW215783   3.689   2.177   8.900  2.9354 -1.3472  0.7018
 1441SOL     OW15784   3.591   1.223   7.096 -0.0403  0.3662 -0.2047
 1441SOL    HW115785   3.583   1.190   7.186  0.1614  1.7425  0.3115
 1441SOL    HW215786   3.643   1.302   7.105  0.1883  0.0143  1.6407
 1442SOL     OW15787   4.716   2.822  13.036  0.6010  0.1429 -0.0752
 1442SOL    HW115788   4.654   2.874  13.087 -0.6139  0.6537 -2.0794
 1442SOL    HW215789   0.019   2.765  13.107 -0.3980  1.2653  1.2221
 1443SOL     OW15790   3.373   0.775  15.124 -0.7769  0.3387 -0.0842
 1443SOL    HW115791   3.429   0.754  15.050  2.1294  3.2748  1.2666
 1443SOL    HW215792   3.362   0.868  15.107  1.6044  0.3879 -1.3013
 1444SOL     OW15793   1.497   0.351   0.674  0.0548 -0.1862 -0.0330
 1444SOL    HW115794   1.581   0.329   0.634  1.3177  1.7273  1.5802
 1444SOL    HW215795   1.443   0.367   0.596 -0.1016  0.2082  0.1575
 1445SOL     OW15796   1.127   2.129   4.061  0.3483 -0.1174  0.1751
 1445SOL    HW115797   1.104   2.148   4.152  3.9932  0.8680  0.9037
 1445SOL    HW215798   1.058   2.067   4.035  0.4004  0.3198 -0.9935
 1446SOL     OW15799   3.079   1.805  13.768 -0.3077  0.2713  0.2881
 1446SOL    HW115800   3.138   1.765  13.832  1.0049 -1.9597 -2.3078
 1446SOL    HW215801   2.997   1.761  13.793 -1.6225  1.3643 -2.0949
 1447SOL     OW15802   2.379   1.480   4.059 -0.7190  0.2870  0.6779
 1447SOL    HW115803   2.471   1.497   4.038 -1.0478  1.0648 -0.1391
 1447SOL    HW215804   2.388   1.427   4.138 -1.0598 -0.0228  0.5073
 1448SOL     OW15805   0.654   2.134   2.126 -0.1176 -0.0429  0.3362
 1448SOL    HW115806   0.725   2.119   2.189 -1.1535 -1.0053  1.2652
 1448SOL    HW215807   0.701   2.203   2.078 -1.0329 -1.0826 -2.0441
 1449SOL     OW15808   3.581   0.104   9.082  0.9187  0.1862  0.9277
 1449SOL    HW115809   3.543   0.125   9.167  0.0754 -0.8990  0.8218
 1449SOL    HW215810   3.531   0.028   9.053  0.0916  0.6759  1.0703
 1450SOL     OW15811   0.600   4.331   6.908  0.0940  0.4317 -0.4241
 1450SOL    HW115812   0.572   4.406   6.961  1.4671  0.8725 -0.3221
 1450SOL    HW215813   0.524   4.324   6.850  0.3956 -1.1869 -0.6210
 1451SOL     OW15814   3.251   0.936   8.496 -0.4270 -0.7720  0.0457
 1451SOL    HW115815   3.298   0.996   8.438  2.4276 -0.2983  2.8353
 1451SOL    HW215816   3.262   0.970   8.584  0.9506  0.8836 -0.7669
 1452SOL     OW15817   2.929   4.247   7.781 -0.5892  0.0879 -0.8372
 1452SOL    HW115818   2.884   4.292   7.852 -1.0590 -0.1134 -1.0059
 1452SOL    HW215819   2.903   4.156   7.796  0.8425 -0.5601 -2.2544
 1453SOL     OW15820   1.143   4.399   8.229 -0.2580  0.6752 -0.1239
 1453SOL    HW115821   1.053   4.425   8.246 -0.4671 -0.4509  0.4648
 1453SOL    HW215822   1.140   4.313   8.271  0.6070  0.5145 -0.3928
 1454SOL     OW15823   2.810   1.334   9.544  0.5050  0.0954 -0.2594
 1454SOL    HW115824   2.859   1.292   9.615 -0.4408  1.2257  1.0559
 1454SOL    HW215825   2.876   1.400   9.522  0.9245  0.4018  1.9323
 1455SOL     OW15826   3.374   1.591   7.971  0.7454 -1.2262 -0.3471
 1455SOL    HW115827   3.435   1.590   8.044  2.1278  0.4024 -1.4558
 1455SOL    HW215828   3.431   1.626   7.902  0.1646  0.1942 -0.0995
 1456SOL     OW15829   1.538   4.678  11.150 -0.5955 -0.0067  0.2866
 1456SOL    HW115830   1.527   4.586  11.126 -2.2617 -0.3561  2.4222
 1456SOL    HW215831   1.544   4.657  11.243  0.5454  2.0678  0.6756
 1457SOL     OW15832   2.268   3.283   6.796  0.5624  0.9113 -0.4577
 1457SOL    HW115833   2.312   3.348   6.742 -1.7803  2.2475 -0.7339
 1457SOL    HW215834   2.322   3.205   6.782  2.8634  2.2025  1.1743
 1458SOL     OW15835   2.238   1.771  15.915  0.6077  0.1439 -0.0410
 1458SOL    HW115836   2.188   1.852  15.909  1.5628  0.6188 -1.5768
 1458SOL    HW215837   2.171   1.710  15.946  1.2758  0.1790  1.4882
 1459SOL     OW15838   2.959   3.025   8.636  0.3611 -0.4816 -0.1110
 1459SOL    HW115839   3.041   3.004   8.680  0.1795  3.5415  2.1439
 1459SOL    HW215840   2.905   2.953   8.668 -1.5951  0.9801 -0.0524
 1460SOL     OW15841   0.481   4.027   3.618  0.7605  0.0456 -0.2949
 1460SOL    HW115842   0.467   3.991   3.531  2.5333  1.9933 -1.3792
 1460SOL    HW215843   0.458   3.956   3.679 -0.1223 -1.0752 -1.9337
 1461SOL     OW15844   1.710   1.807   5.053  0.1622  0.2752  0.6095
 1461SOL    HW115845   1.652   1.810   5.128  0.6350  1.0081  0.9470
 1461SOL    HW215846   1.652   1.794   4.978  0.5800  2.3752 -0.0798
 1462SOL     OW15847   0.301   1.056   2.412 -0.1436  0.7451 -0.0255
 1462SOL    HW115848   0.231   1.061   2.346  0.5675  1.5538 -0.7216
 1462SOL    HW215849   0.326   0.964   2.400 -1.9856  0.1219  1.0018
 1463SOL     OW15850   2.692   0.875   2.392  0.4159 -0.0704 -0.4834
 1463SOL    HW115851   2.636   0.839   2.323 -0.9467  0.7520  0.1999
 1463SOL    HW215852   2.714   0.958   2.349  1.5016  0.4454  1.0473
 1464SOL     OW15853   4.303   2.698   3.219 -0.5459  0.1469  0.4581
 1464SOL    HW115854   4.243   2.758   3.175  1.7576 -0.5426 -3.6132
 1464SOL    HW215855   4.241   2.626   3.225  0.3907 -0.7815 -1.1161
 1465SOL     OW15856   1.818   4.506   3.313  0.1228  0.3143  0.2509
 1465SOL    HW115857   1.848   4.580   3.259  0.4737  0.5191  0.7257
 1465SOL    HW215858   1.824   4.426   3.261 -2.8622 -0.1286  0.6139
 1466SOL     OW15859   2.291   0.775   7.877  0.6975  0.1697  0.1015
 1466SOL    HW115860   2.333   0.758   7.961 -0.1537 -1.7068  0.1500
 1466SOL    HW215861   2.353   0.744   7.810  0.9336  1.9733 -0.5110
 1467SOL     OW15862   4.025   2.942   6.456  0.6803 -0.6597 -0.3416
 1467SOL    HW115863   4.034   3.030   6.420 -0.0418  0.7720  2.9797
 1467SOL    HW215864   4.028   2.885   6.379 -0.8592  1.1008 -1.6778
 1468SOL     OW15865   1.723   4.394   6.768 -0.1695 -0.0370 -0.0441
 1468SOL    HW115866   1.818   4.394   6.764 -0.0720 -3.5879  1.7355
 1468SOL    HW215867   1.702   4.483   6.740 -0.7935 -0.6462 -1.5086
 1469SOL     OW15868   2.752   4.228  13.200 -0.2909  0.5530  0.2215
 1469SOL    HW115869   2.686   4.199  13.137  0.2573 -0.7599  0.2561
 1469SOL    HW215870   2.735   4.167  13.272 -0.8108  1.8279  1.1823
 1470SOL     OW15871   4.009   0.074   4.820 -0.0201  0.4315 -0.3435
 1470SOL    HW115872   4.032   0.098   4.731  0.5097  0.3144 -0.2420
 1470SOL    HW215873   4.073   0.126   4.870 -0.9608  2.4414 -1.2703
 1471SOL     OW15874   1.306   3.520   9.786 -0.5308  0.1823  0.0031
 1471SOL    HW115875   1.330   3.585   9.719  1.0085 -1.0414 -0.6425
 1471SOL    HW215876   1.248   3.462   9.737 -0.2121  0.5022 -0.7650
 1472SOL     OW15877   4.555   3.598  12.834  0.4804 -0.3861  0.3171
 1472SOL    HW115878   4.517   3.518  12.797  0.8928 -0.1147 -0.6870
 1472SOL    HW215879   4.470   3.642  12.838  1.1964  0.7431  2.7067
 1473SOL     OW15880   1.560   3.128   4.412 -0.7389 -0.4123 -0.1520
 1473SOL    HW115881   1.556   3.140   4.507 -1.4092 -0.2045 -0.2085
 1473SOL    HW215882   1.547   3.218   4.382  0.6530 -0.4243 -0.7734
 1474SOL     OW15883   4.369   1.368   8.803 -0.0653  0.0974 -0.2441
 1474SOL    HW115884   4.415   1.445   8.837 -1.6616  1.6305 -1.5276
 1474SOL    HW215885   4.382   1.374   8.709  3.8913 -1.6382  0.1878
 1475SOL     OW15886   4.161   2.051   0.451 -0.2137  0.3694  0.2636
 1475SOL    HW115887   4.076   2.033   0.410 -0.7477 -0.5667  1.7906
 1475SOL    HW215888   4.219   1.985   0.414 -0.0457  0.6420  0.0432
 1476SOL     OW15889   4.035   0.914   9.840 -0.2559  0.1612 -0.2217
 1476SOL    HW115890   3.998   0.927   9.927 -0.5184 -2.8588  0.1114
 1476SOL    HW215891   4.041   0.819   9.838  0.7471  0.2014  0.3844
 1477SOL     OW15892   3.394   2.797   2.604 -0.5786 -0.0657 -0.0466
 1477SOL    HW115893   3.344   2.715   2.607 -1.3265  0.3393 -1.1835
 1477SOL    HW215894   3.321   2.858   2.592 -1.0909 -0.3795  1.5173
 1478SOL     OW15895   3.423   4.034   7.085 -0.1829 -0.2965 -0.6078
 1478SOL    HW115896   3.394   4.122   7.108 -0.9421 -0.4737 -0.8707
 1478SOL    HW215897   3.416   4.052   6.991 -0.3447 -0.4269 -0.6227
 1479SOL     OW15898   1.851   3.897   9.480 -0.2691 -0.4241 -0.0453
 1479SOL    HW115899   1.856   3.841   9.558 -3.0333 -0.3818  0.1651
 1479SOL    HW215900   1.842   3.982   9.524 -0.1571  0.1600 -1.1482
 1480SOL     OW15901   4.566   1.112  10.011 -0.1334 -0.7637 -0.8127
 1480SOL    HW115902   4.566   1.016  10.010 -0.6438 -0.7591 -0.9207
 1480SOL    HW215903   4.652   1.127  10.051 -0.8552 -1.1181  0.8586
 1481SOL     OW15904   4.395   0.718  13.902 -0.4301  0.3716 -0.2600
 1481SOL    HW115905   4.362   0.780  13.837 -2.2114 -0.8712 -0.5665
 1481SOL    HW215906   4.486   0.747  13.906 -0.0436 -0.9741  0.8727
 1482SOL     OW15907   4.508   3.993   4.739 -0.0790 -0.4784 -0.0388
 1482SOL    HW115908   4.583   4.044   4.770 -0.7028 -0.5256  1.5136
 1482SOL    HW215909   4.454   4.064   4.703  1.5743 -0.0691 -1.7585
 1483SOL     OW15910   0.800   4.590   3.168 -0.4950  0.7614  0.5117
 1483SOL    HW115911   0.856   4.539   3.110  2.0277  1.3379  2.4174
 1483SOL    HW215912   0.764   4.516   3.217  0.3517 -0.3486 -0.5441
 1484SOL     OW15913   2.380   0.312  16.949 -0.5300 -0.4788  0.3426
 1484SOL    HW115914   2.378   0.216  16.955  1.8451 -0.5264  0.3824
 1484SOL    HW215915   2.445   0.328  16.881 -1.6537 -2.3589 -1.2046
 1485SOL     OW15916   0.417   1.394  10.739  0.1043  0.5314 -0.5425
 1485SOL    HW115917   0.329   1.413  10.769 -0.6223 -3.6369  0.0626
 1485SOL    HW215918   0.460   1.479  10.731 -0.3757  0.7211 -1.1184
 1486SOL     OW15919   4.001   1.907   9.865 -0.0966 -0.1172 -0.4352
 1486SOL    HW115920   3.949   1.833   9.896  1.7001 -0.7732  1.0121
 1486SOL    HW215921   3.974   1.897   9.774 -0.8050  3.3844 -0.6346
 1487SOL     OW15922   1.307   1.883   6.607  0.0685 -0.0485  0.3119
 1487SOL    HW115923   1.361   1.831   6.549 -2.4787 -0.7361 -1.4418
 1487SOL    HW215924   1.228   1.829   6.601 -1.4136  2.1498  0.0872
 1488SOL     OW15925   1.672   4.651  16.846  0.0660 -0.2680  0.4256
 1488SOL    HW115926   1.640   4.663  16.757 -2.6386 -2.0028  1.1953
 1488SOL    HW215927   1.762   4.628  16.822 -0.9156 -2.8496 -0.7697
 1489SOL     OW15928   2.955   1.178   2.580 -0.7567  0.1670  0.1811
 1489SOL    HW115929   3.038   1.132   2.583 -0.5290  0.3669 -2.4132
 1489SOL    HW215930   2.959   1.247   2.647 -0.7065 -0.1232  0.4747
 1490SOL     OW15931   3.383   2.760   7.468 -0.3204  0.6103 -0.2215
 1490SOL    HW115932   3.400   2.666   7.469 -0.8547  0.5274  0.6118
 1490SOL    HW215933   3.403   2.784   7.377 -1.9919  1.2399 -0.4339
 1491SOL     OW15934   1.061   0.655   3.355 -0.3400  0.7001  0.1281
 1491SOL    HW115935   1.067   0.649   3.451  0.0107  1.0760  0.1302
 1491SOL    HW215936   1.086   0.747   3.345  0.2213  0.7707  2.0617
 1492SOL     OW15937   4.233   2.298   8.605 -0.1400  0.3902 -0.4152
 1492SOL    HW115938   4.211   2.361   8.673 -1.3657 -0.3796 -0.0991
 1492SOL    HW215939   4.204   2.341   8.525  0.3766  0.5321 -0.5275
 1493SOL     OW15940   2.403   0.937   9.229  0.4459  0.2869  0.4914
 1493SOL    HW115941   2.368   0.958   9.316 -2.3991  0.0573 -0.5842
 1493SOL    HW215942   2.349   0.985   9.166  1.2798 -0.7934 -1.0408
 1494SOL     OW15943   0.646   0.408   8.176 -0.1017  0.1035 -0.8107
 1494SOL    HW115944   0.732   0.368   8.192 -0.6744  0.1174  2.1820
 1494SOL    HW215945   0.625   0.458   8.254 -1.1645 -0.6992 -0.5830
 1495SOL     OW15946   0.600   4.421   4.268 -0.6804  0.8200 -0.3658
 1495SOL    HW115947   0.625   4.378   4.186 -0.1550 -0.4414  0.4543
 1495SOL    HW215948   0.650   4.373   4.334  1.1183  4.2682  0.8088
 1496SOL     OW15949   3.668   1.204   5.523  0.2498  0.1849 -0.5869
 1496SOL    HW115950   3.573   1.192   5.533  0.2396  0.6390 -0.1486
 1496SOL    HW215951   3.683   1.297   5.507  0.9468  0.1366 -0.2251
 1497SOL     OW15952   2.092   2.183   7.174 -0.2044  0.3648 -0.1363
 1497SOL    HW115953   2.169   2.138   7.210 -1.5504 -0.4225  1.7607
 1497SOL    HW215954   2.104   2.275   7.195  1.0582  0.1933 -0.0770
 1498SOL     OW15955   2.663   3.807   0.859  0.4260  0.6186 -0.1346
 1498SOL    HW115956   2.683   3.861   0.936 -0.8984 -1.3652  1.5622
 1498SOL    HW215957   2.677   3.720   0.895 -0.5629  0.5722  0.1327
 1499SOL     OW15958   0.761   0.878   6.030  0.1658  0.4659 -0.1102
 1499SOL    HW115959   0.856   0.883   6.024  0.2247 -1.4137 -0.5755
 1499SOL    HW215960   0.740   0.971   6.022  0.0213  0.6896  2.7087
 1500SOL     OW15961   2.695   4.380   0.049 -0.3493  0.1276 -0.1234
 1500SOL    HW115962   2.637   4.443   0.007 -0.5358 -0.1043 -0.2114
 1500SOL    HW215963   2.683   4.313  17.687 -0.1960  0.1059 -0.1289
 1501SOL     OW15964   3.592   3.136   5.349 -0.2343  0.2659  0.5846
 1501SOL    HW115965   3.576   3.124   5.256  0.4561  1.1000  0.3677
 1501SOL    HW215966   3.610   3.229   5.342  1.1578  0.0546  1.2502
 1502SOL     OW15967   2.423   0.907   5.110  0.2447  0.0756  0.3391
 1502SOL    HW115968   2.361   0.949   5.051  0.2907 -1.3290 -0.7297
 1502SOL    HW215969   2.459   0.973   5.169  0.7392  0.5353 -0.4746
 1503SOL     OW15970   2.490   2.535   7.766  0.2350  0.3381 -0.1223
 1503SOL    HW115971   2.459   2.475   7.834 -1.1793  1.8462  0.5731
 1503SOL    HW215972   2.458   2.489   7.689 -1.1801 -1.9809  1.8243
 1504SOL     OW15973   2.871   3.567   2.338  0.0864  0.1627  0.8394
 1504SOL    HW115974   2.930   3.567   2.414 -0.6730 -2.6408  1.4206
 1504SOL    HW215975   2.842   3.477   2.328  2.0266 -0.0839 -2.8938
 1505SOL     OW15976   4.569   0.395   9.028  0.1346 -0.4575 -0.1878
 1505SOL    HW115977   4.520   0.379   9.108  3.6558 -0.7777  1.8898
 1505SOL    HW215978   4.634   0.325   9.035 -1.9546 -2.4753 -0.9259
 1506SOL     OW15979   3.027   3.732   8.676  0.4683  0.6373 -0.1519
 1506SOL    HW115980   2.999   3.641   8.690 -1.1880  1.3371  0.9857
 1506SOL    HW215981   3.057   3.743   8.585 -0.0730 -1.5532 -0.6061
 1507SOL     OW15982   0.174   0.445   1.316  0.3690  0.3768 -0.7516
 1507SOL    HW115983   0.183   0.510   1.386  1.1809 -0.5246 -0.0327
 1507SOL    HW215984   0.265   0.419   1.304  0.6060  0.2018  1.4653
 1508SOL     OW15985   1.552   0.765   7.663 -0.4490  0.1899 -0.6010
 1508SOL    HW115986   1.474   0.785   7.611  0.0467 -0.4204 -1.5843
 1508SOL    HW215987   1.518   0.700   7.726 -0.7180  1.2638  0.3568
 1509SOL     OW15988   3.060   3.777   5.621  0.0132  0.2731 -0.0184
 1509SOL    HW115989   3.045   3.720   5.697 -2.2839  2.6893  1.3630
 1509SOL    HW215990   2.969   3.807   5.615 -0.3240 -0.9249 -0.8326
 1510SOL     OW15991   3.686   3.533   7.646  0.2201 -0.3173 -0.2156
 1510SOL    HW115992   3.694   3.491   7.561  0.4541  1.2258 -0.9625
 1510SOL    HW215993   3.591   3.549   7.646  0.4987  1.3840 -0.2076
 1511SOL     OW15994   3.688   4.287   1.104  0.2101  0.6603 -0.1058
 1511SOL    HW115995   3.617   4.241   1.059  0.4559  0.7948 -0.6310
 1511SOL    HW215996   3.643   4.358   1.151 -1.4782  0.1849 -0.9998
 1512SOL     OW15997   4.071   2.547   1.082 -0.1600 -0.0759  0.0550
 1512SOL    HW115998   4.042   2.480   1.144  2.0448  0.2399  1.4212
 1512SOL    HW215999   4.157   2.566   1.121 -0.3682 -1.1800  1.0552
 1513SOL     OW16000   3.198   2.122   3.816 -0.0855  0.8109 -0.7121
 1513SOL    HW116001   3.146   2.141   3.894 -0.2528 -1.8958 -0.1595
 1513SOL    HW216002   3.133   2.127   3.746  0.7137  2.4371 -1.3293
 1514SOL     OW16003   4.363   0.265   2.104 -0.4160  0.2339  0.1759
 1514SOL    HW116004   4.277   0.268   2.062  1.1871 -0.1985 -3.1669
 1514SOL    HW216005   4.362   0.174   2.134 -0.2265  0.4838  0.9245
 1515SOL     OW16006   0.026   2.974   7.470  0.5285  0.5088 -0.2485
 1515SOL    HW116007   4.666   2.951   7.436  1.6554 -0.6545 -2.3415
 1515SOL    HW216008   0.065   3.024   7.398  0.3692  0.8531 -0.0915
 1516SOL     OW16009   3.099   1.472   3.370  0.3019 -0.7361 -0.5894
 1516SOL    HW116010   3.076   1.552   3.321 -0.0858 -0.5438 -0.0866
 1516SOL    HW216011   3.025   1.468   3.430 -0.3866 -0.0702 -1.3893
 1517SOL     OW16012   1.248   1.076   6.211  0.3614 -0.2263  0.7174
 1517SOL    HW116013   1.167   1.089   6.260 -2.1124 -2.0429 -2.8816
 1517SOL    HW216014   1.294   1.004   6.255 -0.4113 -1.4257 -0.4554
 1518SOL     OW16015   3.191   3.282   0.817  0.2603  0.0862  0.2882
 1518SOL    HW116016   3.125   3.342   0.851 -0.1776  0.4927 -1.2679
 1518SOL    HW216017   3.231   3.339   0.751 -2.0418  0.8112 -0.4646
 1519SOL     OW16018   4.577   2.102   2.184  0.7200 -0.0899  0.0933
 1519SOL    HW116019   4.671   2.122   2.179  0.8111 -0.5819 -0.2785
 1519SOL    HW216020   4.538   2.177   2.141  1.9198 -0.2542 -1.3134
 1520SOL     OW16021   0.524   2.802  12.677 -0.1443  0.5885  0.5775
 1520SOL    HW116022   0.502   2.801  12.584  2.0460 -2.5735  0.1052
 1520SOL    HW216023   0.542   2.711  12.702  0.3331  0.4639 -0.2119
 1521SOL     OW16024   2.662   3.042   9.634 -0.2610  0.5063  0.0378
 1521SOL    HW116025   2.726   2.970   9.632 -0.2745  0.4453  1.7968
 1521SOL    HW216026   2.719   3.118   9.647 -1.0373  1.1707 -0.4857
 1522SOL     OW16027   2.166   1.886  17.235 -0.0252 -0.0288 -0.5546
 1522SOL    HW116028   2.188   1.850  17.321 -0.4598  0.6542 -0.1523
 1522SOL    HW216029   2.156   1.805  17.184 -1.7253 -0.9884  1.2962
 1523SOL     OW16030   4.292   0.596   3.527 -0.4229 -0.4193 -0.1489
 1523SOL    HW116031   4.333   0.653   3.462  1.0761  0.4001  1.5376
 1523SOL    HW216032   4.301   0.634   3.614  1.0848 -1.7098  0.2580
 1524SOL     OW16033   1.733   3.874   5.366 -0.2502  0.3891 -0.2082
 1524SOL    HW116034   1.723   3.962   5.330  0.5085  0.6601  0.2471
 1524SOL    HW216035   1.735   3.899   5.458  0.6411 -0.8632  0.1191
 1525SOL     OW16036   1.231   2.864   3.281 -0.3141 -0.3705  0.1882
 1525SOL    HW116037   1.232   2.770   3.264  0.5920  0.2668 -3.3624
 1525SOL    HW216038   1.294   2.866   3.353 -2.2746 -1.8520  1.9351
 1526SOL     OW16039   1.480   2.860   7.988 -0.4647  0.3219 -0.2443
 1526SOL    HW116040   1.424   2.841   8.064 -0.8735  2.4881  0.0081
 1526SOL    HW216041   1.439   2.933   7.942  1.5198  1.8517  0.4429
 1527SOL     OW16042   1.210   3.316   7.057 -0.2528 -0.2234 -0.0847
 1527SOL    HW116043   1.291   3.355   7.024 -0.1808  0.2242  0.6040
 1527SOL    HW216044   1.236   3.234   7.014  2.5787 -0.0778  1.3472
 1528SOL     OW16045   0.175   4.492   2.322 -0.0827 -0.2746 -0.6178
 1528SOL    HW116046   0.207   4.430   2.256 -1.7803 -0.6343 -1.0952
 1528SOL    HW216047   0.097   4.541   2.295 -0.3991 -1.5125 -1.9822
 1529SOL     OW16048   4.316   1.840   5.895  0.3416  0.8031  0.4963
 1529SOL    HW116049   4.339   1.748   5.910 -0.7094  0.3746 -0.5277
 1529SOL    HW216050   4.402   1.869   5.865 -0.4901  2.8611  0.1485
 1530SOL     OW16051   0.276   3.480  13.515  0.1600 -0.4390 -0.3761
 1530SOL    HW116052   0.338   3.547  13.544 -0.1119 -0.9051  1.2792
 1530SOL    HW216053   0.295   3.491  13.421 -0.4728 -0.6934 -0.5357
 1531SOL     OW16054   2.291   3.489   4.198 -0.6178  0.4053  0.3475
 1531SOL    HW116055   2.278   3.583   4.192  2.8850  0.8521 -0.4127
 1531SOL    HW216056   2.386   3.476   4.189 -0.0798  2.6757  2.8402
 1532SOL     OW16057   1.846   0.851   5.618  0.2639 -0.2153 -0.2923
 1532SOL    HW116058   1.790   0.834   5.542  0.4319 -0.2993 -0.3969
 1532SOL    HW216059   1.806   0.924   5.665 -2.2455  0.0639 -2.7848
 1533SOL     OW16060   4.368   1.685   5.598 -0.2299  0.9049 -0.3352
 1533SOL    HW116061   4.396   1.728   5.517 -0.8452 -0.1259 -1.0924
 1533SOL    HW216062   4.280   1.722   5.595 -0.7003 -0.1696  0.6311
 1534SOL     OW16063   3.873   0.987   5.800 -0.0735  0.2945  0.1315
 1534SOL    HW116064   3.880   0.971   5.706  0.2636  0.5091  0.1204
 1534SOL    HW216065   3.790   1.034   5.810  1.4139  2.6633  1.5216
 1535SOL     OW16066   1.359   2.499   9.733 -0.1003  0.1380 -0.2989
 1535SOL    HW116067   1.374   2.432   9.799 -2.7863  1.6333  1.8114
 1535SOL    HW216068   1.430   2.559   9.756  0.1684 -0.5798  0.7065
 1536SOL     OW16069   0.024   0.530   1.059 -0.1018 -0.0734 -0.7828
 1536SOL    HW116070   0.082   0.517   0.984  0.3245 -1.4173 -0.2179
 1536SOL    HW216071   0.070   0.501   1.138  0.8613 -0.2140 -1.3989
 1537SOL     OW16072   4.186   4.595   6.291  0.6170 -0.2250 -0.0712
 1537SOL    HW116073   4.103   4.634   6.320  2.0803  0.9580  2.5046
 1537SOL    HW216074   4.181   4.507   6.329  1.1676  1.1065  3.1399
 1538SOL     OW16075   2.055   3.655   9.395  0.2767  0.6489 -0.2142
 1538SOL    HW116076   2.106   3.630   9.472  1.1416 -0.3211 -1.1010
 1538SOL    HW216077   1.979   3.707   9.421 -0.0945 -0.3474  0.6690
 1539SOL     OW16078   4.724   4.238   4.013 -0.2375  0.1224 -0.1920
 1539SOL    HW116079   0.084   4.210   3.982 -0.3476  2.2195 -2.3058
 1539SOL    HW216080   4.694   4.302   3.949  2.8853  2.5387  0.7940
 1540SOL     OW16081   4.448   3.108   0.382  0.3959  0.3870  0.0896
 1540SOL    HW116082   4.523   3.048   0.383  0.4937  0.4900 -1.2163
 1540SOL    HW216083   4.483   3.175   0.441  0.3252  1.3236 -0.9391
 1541SOL     OW16084   1.903   3.282  11.377  0.2489 -0.8183  0.0882
 1541SOL    HW116085   1.837   3.351  11.378  2.3735  1.1994  1.1536
 1541SOL    HW216086   1.856   3.210  11.418 -0.1815  0.3477  1.6357
 1542SOL     OW16087   4.039   4.211   6.024 -0.0585  0.3304 -0.6082
 1542SOL    HW116088   3.989   4.176   6.098  0.8373  0.6889  0.1744
 1542SOL    HW216089   4.085   4.142   5.975 -0.8484 -1.7262  1.5516
 1543SOL     OW16090   2.336   3.187   2.880  0.2664  0.4702 -0.6171
 1543SOL    HW116091   2.319   3.274   2.916 -1.7210 -0.5166  0.8152
 1543SOL    HW216092   2.354   3.199   2.786 -1.9386 -0.6187 -1.1793
 1544SOL     OW16093   3.895   3.228   2.858 -0.0499 -0.2751  0.1025
 1544SOL    HW116094   3.812   3.274   2.840  0.6338  0.9598  0.0950
 1544SOL    HW216095   3.866   3.139   2.875  0.5331 -0.5215 -0.2409
 1545SOL     OW16096   2.956   2.926  13.591 -0.5754  0.4652 -0.0847
 1545SOL    HW116097   2.895   2.853  13.607 -0.4935  0.1795 -1.0697
 1545SOL    HW216098   3.002   2.882  13.519 -0.3342 -1.7216  1.3934
 1546SOL     OW16099   1.848   3.883  12.975 -0.5717  0.0031 -0.4416
 1546SOL    HW116100   1.934   3.841  12.978 -0.1215  0.9263 -0.4167
 1546SOL    HW216101   1.797   3.807  12.947  2.2288 -2.2640  0.6066
 1547SOL     OW16102   0.571   2.764   7.126 -0.0781 -0.6186  0.1806
 1547SOL    HW116103   0.635   2.832   7.107  0.7953 -1.8167 -1.2445
 1547SOL    HW216104   0.484   2.803   7.119 -0.6646 -1.9524 -0.0992
 1548SOL     OW16105   1.295   4.626   9.124  0.2805  0.1493  0.5502
 1548SOL    HW116106   1.201   4.614   9.141  0.2183  0.2156  0.2661
 1548SOL    HW216107   1.310   4.555   9.062  0.7570  1.0358 -0.3468
 1549SOL     OW16108   4.421   0.288   1.373  0.3702  0.4916  0.2214
 1549SOL    HW116109   4.443   0.357   1.309  0.1502 -0.1097 -0.5045
 1549SOL    HW216110   4.502   0.282   1.423  0.4681 -0.3243 -0.0452
 1550SOL     OW16111   1.330   1.012   1.543  0.4849 -0.2919  0.4213
 1550SOL    HW116112   1.347   0.987   1.453  0.4931 -1.9446  0.8695
 1550SOL    HW216113   1.240   1.037   1.522  1.6363  1.5498 -2.1804
 1551SOL     OW16114   4.498   3.620   6.259 -0.2730 -0.0403  0.4098
 1551SOL    HW116115   4.448   3.567   6.322 -0.4722 -0.1408  0.1697
 1551SOL    HW216116   4.526   3.690   6.318 -2.4954  0.4787  0.8828
 1552SOL     OW16117   3.205   2.290   2.088  0.1382 -0.0374  0.0147
 1552SOL    HW116118   3.192   2.234   2.011 -1.3008  0.6817 -0.2778
 1552SOL    HW216119   3.158   2.369   2.062 -1.6249 -1.0680  0.0425
 1553SOL     OW16120   4.022   3.811   8.341  0.3127 -0.2886 -0.1278
 1553SOL    HW116121   3.974   3.751   8.285  0.7872 -0.2221 -0.6068
 1553SOL    HW216122   3.963   3.886   8.331  0.9302  0.0279 -1.4481
 1554SOL     OW16123   3.273   4.126   3.358  0.0275 -0.0043 -0.2866
 1554SOL    HW116124   3.281   4.074   3.278  0.2424 -0.3510 -0.0375
 1554SOL    HW216125   3.179   4.139   3.370  0.1693 -0.3327  1.2288
 1555SOL     OW16126   3.617   1.386   5.028 -0.3629 -0.6917 -0.3817
 1555SOL    HW116127   3.627   1.388   4.933  0.1276 -0.9560 -0.3351
 1555SOL    HW216128   3.573   1.470   5.036 -0.3551 -0.6890 -0.3669
 1556SOL     OW16129   4.331   2.384   9.571  0.7560 -0.0118  0.1701
 1556SOL    HW116130   4.305   2.317   9.634 -1.4576  0.9869  0.3097
 1556SOL    HW216131   4.247   2.424   9.549  0.2049 -2.0006 -1.3062
 1557SOL     OW16132   3.397   4.454   5.850 -0.3259 -0.1326 -0.1262
 1557SOL    HW116133   3.340   4.496   5.786 -1.5451 -2.0723 -0.2975
 1557SOL    HW216134   3.464   4.430   5.786 -1.4776 -1.6044 -0.7793
 1558SOL     OW16135   1.848   3.833   6.995  0.1455  0.1074  0.0029
 1558SOL    HW116136   1.832   3.837   6.900  0.4232  3.9004  0.1025
 1558SOL    HW216137   1.921   3.771   7.000 -1.2947 -1.5616  0.5070
 1559SOL     OW16138   0.216   0.622   4.849 -0.2283 -0.4402 -0.1623
 1559SOL    HW116139   0.197   0.529   4.840 -0.5836 -0.4514  0.7235
 1559SOL    HW216140   0.312   0.628   4.848 -0.3252  1.0943 -2.3424
 1560SOL     OW16141   2.079   2.944   2.068  0.4168  0.1279  0.4578
 1560SOL    HW116142   2.019   2.929   2.142 -2.8027  0.0219 -2.1722
 1560SOL    HW216143   2.018   2.948   1.995 -2.7128  0.7770  3.1210
 1561SOL     OW16144   1.192   4.060  14.412  0.3524  0.4105  0.2273
 1561SOL    HW116145   1.097   4.061  14.425  0.3210  0.1881  0.0210
 1561SOL    HW216146   1.225   4.103  14.491 -0.0382  1.3133 -0.0979
 1562SOL     OW16147   2.666   2.092   5.310 -0.6150 -0.6002 -0.7202
 1562SOL    HW116148   2.695   2.038   5.236  1.2531 -2.1061  1.0706
 1562SOL    HW216149   2.618   2.167   5.276 -0.2767 -0.3664 -0.6783
 1563SOL     OW16150   0.992   0.268  15.300 -0.5278 -0.1805  0.4400
 1563SOL    HW116151   0.954   0.268  15.213  0.7724  0.2373 -0.1285
 1563SOL    HW216152   0.994   0.363  15.313 -1.4347  0.2126 -2.4364
 1564SOL     OW16153   3.272   2.647   6.581  0.0996  0.6657 -0.0115
 1564SOL    HW116154   3.198   2.586   6.573  0.9758 -0.2121 -1.4739
 1564SOL    HW216155   3.251   2.707   6.509  1.0260  0.9842 -0.0087
 1565SOL     OW16156   3.383   3.423   9.871  0.4150 -0.0229 -0.0944
 1565SOL    HW116157   3.297   3.433   9.911  1.7403 -0.2110  2.7976
 1565SOL    HW216158   3.409   3.350   9.928  1.1194  0.9854  0.8533
 1566SOL     OW16159   4.476   4.028   8.096 -0.0604 -0.2075  0.0237
 1566SOL    HW116160   4.450   4.068   8.013  1.4791  0.5949 -0.0790
 1566SOL    HW216161   4.414   3.958   8.112  0.1966 -0.0293  1.8784
 1567SOL     OW16162   1.653   3.641   5.597 -0.4936  0.7185 -0.3387
 1567SOL    HW116163   1.692   3.600   5.519 -2.4698 -0.7135 -0.5640
 1567SOL    HW216164   1.730   3.671   5.645 -0.7408 -1.3918  1.3914
 1568SOL     OW16165   4.520   3.447   7.376 -0.1308 -0.1646 -0.0856
 1568SOL    HW116166   4.509   3.394   7.297 -3.5656 -0.6780  0.7342
 1568SOL    HW216167   4.615   3.457   7.375  0.0410 -1.6202  1.5213
 1569SOL     OW16168   3.089   3.705  12.321 -0.6654 -0.6898 -0.0275
 1569SOL    HW116169   3.131   3.621  12.307  0.1817 -0.6359  2.1897
 1569SOL    HW216170   3.146   3.750  12.259 -1.5427  3.2846  2.0367
 1570SOL     OW16171   4.108   4.715  16.090 -0.0431 -0.0099 -1.0706
 1570SOL    HW116172   4.134   0.082  16.084 -0.9832  0.2444 -1.2140
 1570SOL    HW216173   4.070   4.694  16.005  1.5786 -0.0557 -1.7857
 1571SOL     OW16174   4.638   1.057   2.549  0.1023  0.2049 -0.2437
 1571SOL    HW116175   4.607   1.022   2.466  0.6564 -2.4277  0.6587
 1571SOL    HW216176   4.564   1.047   2.608  1.0064  1.6207  1.1402
 1572SOL     OW16177   3.531   2.590   6.613 -0.3030 -0.0391 -0.1096
 1572SOL    HW116178   3.447   2.621   6.581 -1.0582 -2.0582 -0.1001
 1572SOL    HW216179   3.582   2.598   6.533  1.1112  0.3026  0.8278
 1573SOL     OW16180   3.016   0.103   3.526  0.1757  0.6570 -0.0264
 1573SOL    HW116181   3.110   0.093   3.542 -0.1268 -0.3343  1.2003
 1573SOL    HW216182   2.975   0.036   3.581 -4.5457  1.9539 -2.0477
 1574SOL     OW16183   4.086   1.890   6.420 -0.0357 -0.0203  0.4326
 1574SOL    HW116184   4.137   1.821   6.461 -0.7206 -1.6055 -1.3700
 1574SOL    HW216185   4.095   1.884   6.325 -0.2281 -1.8078  0.5261
 1575SOL     OW16186   3.994   2.958   6.721  0.0665 -1.1890  0.5038
 1575SOL    HW116187   4.018   3.051   6.711 -0.6669 -1.3310 -2.8648
 1575SOL    HW216188   4.002   2.927   6.630 -0.7086 -0.3761  0.1551
 1576SOL     OW16189   4.174   4.040   7.695 -0.1179 -0.0199  0.1684
 1576SOL    HW116190   4.146   3.980   7.764  0.7119  0.9959  1.3984
 1576SOL    HW216191   4.092   4.038   7.646 -0.0595  0.2674  0.0566
 1577SOL     OW16192   1.663   3.403  12.774  0.0489  0.3727  0.0312
 1577SOL    HW116193   1.682   3.332  12.835 -1.1166 -0.2264 -0.3014
 1577SOL    HW216194   1.656   3.354  12.692 -0.8086  1.2714 -0.4348
 1578SOL     OW16195   1.785   4.092   7.089 -0.0475 -0.3736 -0.5370
 1578SOL    HW116196   1.797   4.002   7.057 -2.3857 -1.2193  0.9475
 1578SOL    HW216197   1.747   4.119   7.005 -2.5654  1.6874  1.2848
 1579SOL     OW16198   2.199   3.552   9.653  0.4298  0.5090 -0.1693
 1579SOL    HW116199   2.281   3.532   9.609  0.7482 -2.4116  1.7861
 1579SOL    HW216200   2.220   3.637   9.691  0.4678  0.1296  0.6609
 1580SOL     OW16201   1.924   3.078   6.660  0.2554  0.2823  0.0833
 1580SOL    HW116202   1.929   3.108   6.751  0.4917 -2.8460  1.1146
 1580SOL    HW216203   1.990   3.010   6.649 -0.2228 -0.1748  0.0381
 1581SOL     OW16204   3.449   0.795   7.984  0.2686 -0.0842  0.5128
 1581SOL    HW116205   3.390   0.759   8.050  0.6197 -3.4011 -0.9473
 1581SOL    HW216206   3.524   0.812   8.040  0.8632  0.7640 -0.5273
 1582SOL     OW16207   2.134   2.272  16.101 -0.1157 -0.3175 -0.0385
 1582SOL    HW116208   2.145   2.365  16.080  1.5720  0.3749  3.9293
 1582SOL    HW216209   2.223   2.238  16.111  0.2553  0.5184 -0.4516
 1583SOL     OW16210   4.631   3.955   9.319  0.7032  0.3302 -0.0760
 1583SOL    HW116211   4.570   3.957   9.393 -0.7798 -0.9867 -1.2543
 1583SOL    HW216212   4.582   4.010   9.257  0.6881  1.7260  1.1908
 1584SOL     OW16213   0.623   0.231  14.377 -0.1769 -0.1683 -0.1143
 1584SOL    HW116214   0.546   0.193  14.335 -0.6272 -0.1128  0.6692
 1584SOL    HW216215   0.618   0.324  14.353  0.4303 -0.5043 -1.5627
 1585SOL     OW16216   2.581   3.592   8.806 -0.0886 -1.4975 -0.1152
 1585SOL    HW116217   2.504   3.545   8.835 -1.6363  1.6734  0.9694
 1585SOL    HW216218   2.606   3.529   8.739  0.8995  0.5545 -1.6637
 1586SOL     OW16219   1.446   2.054  17.518  0.2918 -0.2664  0.3627
 1586SOL    HW116220   1.523   2.062  17.574 -0.2425 -0.0725  1.0678
 1586SOL    HW216221   1.388   2.100  17.579 -1.3892 -1.1598 -0.5844
 1587SOL     OW16222   1.757   3.793   0.075 -0.2809  0.0269 -0.1546
 1587SOL    HW116223   1.726   3.818   0.162 -1.6873  0.9124 -0.9022
 1587SOL    HW216224   1.841   3.838   0.066 -0.1073 -0.3252 -0.3006
 1588SOL     OW16225   1.441   0.744   6.147  0.1667 -0.5270 -0.2018
 1588SOL    HW116226   1.443   0.827   6.195  1.1149 -0.5201 -0.2474
 1588SOL    HW216227   1.368   0.701   6.192  1.5281 -0.9485  1.6055
 1589SOL     OW16228   0.737   1.904  10.095  0.8455 -0.4113  0.1447
 1589SOL    HW116229   0.696   1.821  10.117  1.2581 -0.9195 -1.0026
 1589SOL    HW216230   0.823   1.877  10.065 -0.7300 -0.1422 -4.5649
 1590SOL     OW16231   2.967   4.458   1.620 -0.2274  0.4898  0.2953
 1590SOL    HW116232   2.931   4.372   1.643 -0.1918  0.5364  0.5219
 1590SOL    HW216233   2.949   4.513   1.696  0.1643  1.5015 -0.3510
 1591SOL     OW16234   0.655   1.768   3.017  0.3253 -0.0345 -0.7176
 1591SOL    HW116235   0.573   1.730   2.984  0.6192 -0.9443 -0.3960
 1591SOL    HW216236   0.617   1.817   3.090  0.7712  0.8644 -1.0782
 1592SOL     OW16237   3.445   0.523   4.126 -0.3876  0.6748 -0.7736
 1592SOL    HW116238   3.511   0.541   4.193 -0.1905 -2.3165 -0.1656
 1592SOL    HW216239   3.371   0.484   4.173  0.7315  0.3427  0.7256
 1593SOL     OW16240   2.733   0.050  13.641  0.2395 -0.2109  0.8757
 1593SOL    HW116241   2.708   0.138  13.667 -0.4438  0.0681 -0.7065
 1593SOL    HW216242   2.709   4.723  13.718 -0.5811  0.2282  0.9202
 1594SOL     OW16243   2.494   4.175   6.222  0.1633 -0.0183 -0.1379
 1594SOL    HW116244   2.423   4.213   6.272  0.3206  3.2661 -2.4397
 1594SOL    HW216245   2.574   4.205   6.266 -0.2940 -0.4524  0.9875
 1595SOL     OW16246   1.186   2.790   5.339  0.3383 -0.0458  0.0241
 1595SOL    HW116247   1.188   2.696   5.321 -1.0870 -0.3026  1.1755
 1595SOL    HW216248   1.279   2.812   5.339 -0.0770  1.6889 -1.0524
 1596SOL     OW16249   1.587   3.535  15.870 -0.0634  0.1646  0.0214
 1596SOL    HW116250   1.576   3.590  15.792 -1.8734 -0.4300 -0.1227
 1596SOL    HW216251   1.677   3.503  15.865  0.3420  1.4177 -0.6933
 1597SOL     OW16252   2.296   2.750   7.851  0.2744 -0.0188 -0.3194
 1597SOL    HW116253   2.380   2.705   7.854  0.5342  0.3743 -1.4032
 1597SOL    HW216254   2.307   2.815   7.781 -0.8921  1.0230  0.4671
 1598SOL     OW16255   2.859   4.136   5.682  0.2929  0.0040  0.3166
 1598SOL    HW116256   2.907   4.180   5.612  0.2627 -0.2820  0.1160
 1598SOL    HW216257   2.854   4.056   5.630 -1.6115  1.4675 -1.7376
 1599SOL     OW16258   1.067   3.481   9.651  0.5538 -0.4802 -0.1302
 1599SOL    HW116259   1.085   3.554   9.592  1.0425 -0.1713  0.4100
 1599SOL    HW216260   1.031   3.414   9.592 -0.7499  1.5803 -1.6724
 1600SOL     OW16261   1.985   2.714  10.241  0.2884 -0.1811 -0.5990
 1600SOL    HW116262   1.934   2.709  10.160 -1.2106  0.1051  0.3279
 1600SOL    HW216263   1.920   2.738  10.307  0.6104 -0.0320 -0.3394
 1601SOL     OW16264   0.471   0.510  10.908 -0.1659 -0.0043 -0.0357
 1601SOL    HW116265   0.547   0.542  10.858  0.6194  1.1062  1.8953
 1601SOL    HW216266   0.436   0.587  10.952 -1.9912 -0.4513 -0.6872
 1602SOL     OW16267   2.630   4.115   3.818 -0.6467 -0.3218 -0.6280
 1602SOL    HW116268   2.649   4.202   3.782  3.2895 -0.6710  0.6221
 1602SOL    HW216269   2.716   4.101   3.857 -0.4230  0.9978 -0.6256
 1603SOL     OW16270   2.638   4.294   9.750  0.6944  0.1989 -0.9746
 1603SOL    HW116271   2.553   4.280   9.709  0.1591 -1.4550  0.6607
 1603SOL    HW216272   2.622   4.328   9.838 -1.2924 -1.2189 -0.7801
 1604SOL     OW16273   0.529   3.898  14.859 -0.1445 -0.1014  0.2599
 1604SOL    HW116274   0.575   3.975  14.893  0.0430 -1.0906  2.2447
 1604SOL    HW216275   0.505   3.908  14.767  0.0754  0.2440  0.2405
 1605SOL     OW16276   4.471   0.351  15.138 -0.2072 -0.0159 -0.2001
 1605SOL    HW116277   4.533   0.288  15.101 -2.7629 -1.9469 -1.1798
 1605SOL    HW216278   4.392   0.301  15.121  0.0968 -0.0036 -1.6534
 1606SOL     OW16279   0.886   3.233  10.576  0.0243  0.2263  0.0028
 1606SOL    HW116280   0.905   3.140  10.569  0.9266  0.4750 -0.8957
 1606SOL    HW216281   0.955   3.261  10.637 -1.0222  0.9318  0.8794
 1607SOL     OW16282   0.674   0.605   3.961  0.1525 -0.1283 -0.0825
 1607SOL    HW116283   0.610   0.534   3.974 -1.0091  1.2484  1.7484
 1607SOL    HW216284   0.755   0.561   3.987  1.3316  1.0779 -1.7633
 1608SOL     OW16285   1.308   0.828   7.527 -0.0200  0.1777  0.5105
 1608SOL    HW116286   1.251   0.800   7.454 -1.4923 -0.9111  2.0810
 1608SOL    HW216287   1.243   0.868   7.585  0.3159  0.6803  0.5379
 1609SOL     OW16288   3.570   3.833   4.322 -0.0576  0.1199  0.1579
 1609SOL    HW116289   3.484   3.793   4.310 -0.0960  0.5501 -0.9956
 1609SOL    HW216290   3.549   3.923   4.298 -0.4027 -0.5135 -1.8841
 1610SOL     OW16291   2.579   3.067   2.273  0.3671 -0.0261  0.4000
 1610SOL    HW116292   2.572   3.154   2.312 -2.1862 -0.0997  0.0840
 1610SOL    HW216293   2.488   3.042   2.287  0.1202 -0.0681 -1.3353
 1611SOL     OW16294   2.209   2.815   7.053 -0.4565  0.3419  0.4209
 1611SOL    HW116295   2.195   2.793   6.960 -1.0218 -1.0435  0.8263
 1611SOL    HW216296   2.261   2.894   7.053 -0.1668  0.1492  1.1980
 1612SOL     OW16297   1.382   2.398  11.279  0.4497 -0.3765 -0.8335
 1612SOL    HW116298   1.464   2.351  11.294  1.1767  0.6106 -1.6858
 1612SOL    HW216299   1.326   2.331  11.239  1.7748 -2.1506  0.2558
 1613SOL     OW16300   1.784   2.245  16.343  0.0439  0.1505 -0.2871
 1613SOL    HW116301   1.792   2.312  16.410  1.6629  0.9012 -1.2245
 1613SOL    HW216302   1.733   2.185  16.398 -0.8485  1.1119 -0.0711
 1614SOL     OW16303   1.926   2.215   8.672 -0.0483 -0.4115 -0.6501
 1614SOL    HW116304   1.936   2.205   8.766  1.6141  0.3531 -0.7500
 1614SOL    HW216305   1.830   2.209   8.671 -0.0526 -0.4554  1.2226
 1615SOL     OW16306   0.292   2.130   8.015 -0.1247 -0.1847  0.2347
 1615SOL    HW116307   0.379   2.091   8.011 -0.1656 -0.1499 -1.2116
 1615SOL    HW216308   0.301   2.198   8.082 -2.6691  1.9386 -1.5562
 1616SOL     OW16309   4.236   2.873   8.901  0.4971 -0.0906  0.0349
 1616SOL    HW116310   4.294   2.839   8.833  2.1045 -0.7332  1.7356
 1616SOL    HW216311   4.297   2.935   8.941  1.1360  0.6763 -2.1316
 1617SOL     OW16312   0.380   2.393   1.025  0.1102 -0.5758 -0.9499
 1617SOL    HW116313   0.374   2.345   1.108 -1.7341  1.6631  0.2069
 1617SOL    HW216314   0.414   2.476   1.060  2.8986 -2.0783 -0.0972
 1618SOL     OW16315   2.222   0.793   2.589 -0.0137  0.1567  0.1852
 1618SOL    HW116316   2.253   0.831   2.671 -0.5699 -0.4827  0.6899
 1618SOL    HW216317   2.127   0.807   2.591 -0.1859 -1.0001  0.1650
 1619SOL     OW16318   0.749   2.246   6.310 -0.4454  0.0221  0.0957
 1619SOL    HW116319   0.782   2.190   6.240 -0.4569  1.0198 -0.7070
 1619SOL    HW216320   0.824   2.269   6.365 -0.9114  0.6229  0.4827
 1620SOL     OW16321   2.312   0.683  16.771  0.5833 -0.3892 -0.9076
 1620SOL    HW116322   2.306   0.759  16.828  1.8660  0.5837 -2.0587
 1620SOL    HW216323   2.318   0.715  16.681  1.6664  0.9919 -0.3396
 1621SOL     OW16324   2.982   2.701   8.451 -0.0963 -0.3372  0.4947
 1621SOL    HW116325   3.063   2.695   8.399 -0.4858 -1.9932  0.0751
 1621SOL    HW216326   2.937   2.771   8.402  0.5143  0.6931  1.4042
 1622SOL     OW16327   1.558   0.224   4.677 -0.6983  1.0374  0.9443
 1622SOL    HW116328   1.610   0.177   4.742  1.5817  1.5037 -0.5377
 1622SOL    HW216329   1.562   0.168   4.600 -2.0791 -0.2086  1.7766
 1623SOL     OW16330   0.650   1.277   2.950  0.0340  0.4218  0.2961
 1623SOL    HW116331   0.696   1.357   2.975  0.0938  0.5171 -0.1129
 1623SOL    HW216332   0.721   1.223   2.915  0.1394  2.1905 -2.2403
 1624SOL     OW16333   4.465   1.902   0.034 -0.5591  0.2404  0.5778
 1624SOL    HW116334   4.471   1.896   0.129  1.5707  1.8614  0.5425
 1624SOL    HW216335   4.382   1.951   0.026 -1.4268 -1.4085 -0.5078
 1625SOL     OW16336   2.319   2.412  12.648 -0.0938  0.4636  0.3530
 1625SOL    HW116337   2.387   2.394  12.713 -1.0716  0.1723  1.2872
 1625SOL    HW216338   2.240   2.368  12.677 -0.4561  1.6424  1.1879
 1626SOL     OW16339   1.423   3.347  11.386  0.1955  0.3192 -0.1910
 1626SOL    HW116340   1.384   3.416  11.440  0.5291  0.4985 -0.1832
 1626SOL    HW216341   1.378   3.355  11.302 -1.0165  2.0214  0.6109
 1627SOL     OW16342   4.705   3.236   2.497  0.0548 -0.1671 -0.0129
 1627SOL    HW116343   0.059   3.284   2.478  0.3925  0.3951  2.9190
 1627SOL    HW216344   4.650   3.265   2.424  1.4910 -0.2140 -1.1017
 1628SOL     OW16345   4.410   4.528   6.652 -0.1227 -0.1233 -0.2420
 1628SOL    HW116346   4.357   4.448   6.642 -1.0118  0.6622 -1.8521
 1628SOL    HW216347   4.362   4.603   6.686  1.3955 -0.5293  2.8200
 1629SOL     OW16348   0.795   3.498   2.349 -0.3743 -0.0187 -0.2667
 1629SOL    HW116349   0.840   3.413   2.352  3.2335  1.9434  1.3399
 1629SOL    HW216350   0.844   3.550   2.285 -1.9118 -0.2310 -1.6210
 1630SOL     OW16351   1.767   1.695   6.794  0.1745 -0.1109 -0.4037
 1630SOL    HW116352   1.703   1.727   6.857  1.7953  1.8362  0.2780
 1630SOL    HW216353   1.849   1.735   6.824 -1.5695  3.1420 -0.0312
 1631SOL     OW16354   2.638   2.488   8.764  0.0265  0.1313 -0.3916
 1631SOL    HW116355   2.629   2.516   8.673 -0.6714  0.6416 -0.1724
 1631SOL    HW216356   2.672   2.399   8.768 -1.7451 -0.4733  1.4554
 1632SOL     OW16357   1.711   2.190   2.288 -0.1945 -0.0400  0.0451
 1632SOL    HW116358   1.800   2.226   2.288 -0.4633  0.6376  0.0975
 1632SOL    HW216359   1.733   2.101   2.314  1.0251  0.3153  0.2493
 1633SOL     OW16360   2.061   2.282   2.869  0.6525  0.2497  0.2098
 1633SOL    HW116361   2.113   2.233   2.804  0.0097 -0.0970 -0.0417
 1633SOL    HW216362   1.974   2.276   2.830 -0.5191 -0.2959  2.9645
 1634SOL     OW16363   2.081   1.772   6.460  0.1321 -0.2729 -0.3797
 1634SOL    HW116364   2.075   1.862   6.492 -1.4469  0.0824 -1.6825
 1634SOL    HW216365   1.995   1.748   6.494  0.1873 -1.2632 -0.9405
 1635SOL     OW16366   1.277   1.533  17.565 -0.3877 -0.1094 -0.2835
 1635SOL    HW116367   1.182   1.526  17.557 -0.6457 -0.2031  2.9774
 1635SOL    HW216368   1.288   1.568  17.654  2.3308  1.5703 -1.2730
 1636SOL     OW16369   2.978   3.318   5.853 -0.4279 -0.1374 -0.2954
 1636SOL    HW116370   2.882   3.311   5.849 -0.4417  0.6462 -1.0403
 1636SOL    HW216371   3.019   3.235   5.830  0.2775  0.0222  0.3638
 1637SOL     OW16372   0.232   0.771  13.650 -1.0668 -1.0314  0.2453
 1637SOL    HW116373   0.234   0.851  13.596  0.5832 -1.1504  0.1251
 1637SOL    HW216374   0.210   0.712  13.578 -2.4701  0.6194 -0.6746
 1638SOL     OW16375   0.603   2.783   3.700  0.3780 -0.6132  0.2320
 1638SOL    HW116376   0.663   2.739   3.640  0.0778 -1.0619  0.2560
 1638SOL    HW216377   0.660   2.826   3.764  0.6737 -0.5137 -0.1004
 1639SOL     OW16378   1.428   4.678   5.881  0.1253  0.8949 -0.2380
 1639SOL    HW116379   1.373   4.666   5.804  0.2001  2.4433 -0.5374
 1639SOL    HW216380   1.408   4.603   5.937 -1.7798 -0.0269 -2.1986
 1640SOL     OW16381   1.717   0.195   2.449  0.3102  0.1479 -0.5303
 1640SOL    HW116382   1.780   0.219   2.381  0.1821 -1.6561 -1.2922
 1640SOL    HW216383   1.785   0.183   2.516  0.9838  1.3237 -0.9965
 1641SOL     OW16384   4.156   1.992   8.989 -0.4461 -0.0184  0.0153
 1641SOL    HW116385   4.119   2.080   8.984 -1.5717 -0.4799  0.1940
 1641SOL    HW216386   4.248   1.995   8.964 -0.1851 -0.2967  0.9149
 1642SOL     OW16387   0.450   1.397   2.794 -0.1108 -0.1347  0.4313
 1642SOL    HW116388   0.500   1.427   2.718 -0.1974 -0.9761  0.0386
 1642SOL    HW216389   0.521   1.348   2.836 -0.8542 -1.7801 -0.2264
 1643SOL     OW16390   3.125   0.446   9.781  0.3605  0.1688 -0.4081
 1643SOL    HW116391   3.118   0.359   9.743  0.2747  0.5832 -1.3501
 1643SOL    HW216392   3.031   0.465   9.771  0.8494  2.5621 -0.5639
 1644SOL     OW16393   2.743   1.603   6.584 -0.0238 -0.0030  0.4580
 1644SOL    HW116394   2.684   1.645   6.521  0.1911 -0.2697  0.0807
 1644SOL    HW216395   2.706   1.647   6.660 -1.8419  1.3100 -1.1913
 1645SOL     OW16396   4.555   4.260  16.686 -0.3313  0.1068  0.2075
 1645SOL    HW116397   4.600   4.230  16.765 -0.7848  3.6078  1.7892
 1645SOL    HW216398   4.561   4.355  16.697  2.0388 -0.0684  0.4953
 1646SOL     OW16399   0.650   3.273   1.671 -0.5792 -0.2117  0.2509
 1646SOL    HW116400   0.677   3.316   1.589 -1.1368  0.9422  0.6815
 1646SOL    HW216401   0.731   3.273   1.721 -0.6491 -0.9687  0.3689
 1647SOL     OW16402   1.017   0.287  10.077 -0.2702  0.4579 -0.4749
 1647SOL    HW116403   0.926   0.258  10.066  0.3382 -1.9026  0.6128
 1647SOL    HW216404   1.022   0.382  10.068 -1.4096  0.8090  2.5296
 1648SOL     OW16405   2.915   3.082   9.040 -0.2585  0.1052  0.1492
 1648SOL    HW116406   2.834   3.068   9.087  1.1236 -0.1784  2.4487
 1648SOL    HW216407   2.967   3.014   9.084  0.8944  2.9201  3.2084
 1649SOL     OW16408   2.655   1.683  12.701 -0.0078  0.4166  0.3028
 1649SOL    HW116409   2.628   1.692  12.610  0.9877  1.0321  0.0709
 1649SOL    HW216410   2.650   1.770  12.740  1.6785 -0.2825  2.0616
 1650SOL     OW16411   3.819   1.114   2.986  0.3787 -0.0226 -0.3071
 1650SOL    HW116412   3.810   1.164   2.906 -0.8226 -1.5742 -1.1566
 1650SOL    HW216413   3.747   1.155   3.035  0.6108 -1.5952  1.3711
 1651SOL     OW16414   4.593   1.817   8.223  0.8300  0.0571  0.1392
 1651SOL    HW116415   4.648   1.883   8.265  0.8033  1.0657 -1.4453
 1651SOL    HW216416   4.600   1.849   8.133  3.0542 -0.7935  0.0216
 1652SOL     OW16417   1.622   0.820   3.525  0.1481  0.2882  0.2805
 1652SOL    HW116418   1.695   0.843   3.467  0.0826 -1.7686 -0.6171
 1652SOL    HW216419   1.649   0.732   3.549  0.3890 -0.0455 -1.1940
 1653SOL     OW16420   2.915   3.575   1.533  0.3313 -0.2905 -0.1756
 1653SOL    HW116421   2.836   3.627   1.543  1.1531  1.1490 -1.0616
 1653SOL    HW216422   2.931   3.579   1.438 -1.5645  1.8792 -0.4128
 1654SOL     OW16423   4.628   0.578   3.244 -0.3462 -0.5082  0.4961
 1654SOL    HW116424   4.566   0.513   3.212 -0.8016  2.1926 -4.1256
 1654SOL    HW216425   4.586   0.658   3.213 -2.1834 -1.8109 -0.3689
 1655SOL     OW16426   4.463   3.580  16.826  0.6016  0.3737  0.4524
 1655SOL    HW116427   4.435   3.654  16.773  0.3554 -1.5475 -2.1155
 1655SOL    HW216428   4.388   3.573  16.886 -0.2923 -0.0607 -0.7213
 1656SOL     OW16429   1.312   4.377   4.611 -0.5387 -0.6937  0.2361
 1656SOL    HW116430   1.403   4.402   4.591 -0.4248 -0.7032  0.7490
 1656SOL    HW216431   1.316   4.282   4.620  1.9812 -0.7436 -1.2969
 1657SOL     OW16432   0.829   3.248  14.748 -0.0727 -0.1849 -0.2157
 1657SOL    HW116433   0.815   3.283  14.836 -0.1139 -0.9920  0.1005
 1657SOL    HW216434   0.924   3.256  14.737  0.1443 -0.9023  1.1906
 1658SOL     OW16435   4.549   4.102  14.159 -0.2784  0.2172  0.0515
 1658SOL    HW116436   4.588   4.085  14.244 -0.9052  3.7661  1.0308
 1658SOL    HW216437   4.471   4.047  14.155  1.2767 -2.0912  1.6495
 1659SOL     OW16438   0.516   4.094   4.288  0.2528  0.1881 -0.1022
 1659SOL    HW116439   0.540   4.145   4.210 -1.4634  2.8550  1.1413
 1659SOL    HW216440   0.568   4.014   4.278  0.0012 -0.0668  0.6730
 1660SOL     OW16441   2.735   1.811  14.706 -0.1699  0.0634 -0.0050
 1660SOL    HW116442   2.680   1.890  14.707  0.4582  0.5359 -1.7279
 1660SOL    HW216443   2.674   1.738  14.697 -0.5039  0.3861 -0.3625
 1661SOL     OW16444   0.120   2.202   4.833 -0.3051  0.5152  0.2156
 1661SOL    HW116445   0.086   2.201   4.922  1.0151  1.4416  0.7371
 1661SOL    HW216446   0.068   2.265   4.784 -0.2046  1.1263  0.8996
 1662SOL     OW16447   3.832   0.377   2.037 -0.1306  0.2627  0.1426
 1662SOL    HW116448   3.791   0.449   1.989 -1.5744 -0.4184  0.3792
 1662SOL    HW216449   3.917   0.418   2.055  0.5155 -0.9715 -0.1224
 1663SOL     OW16450   2.325   2.610   1.309  0.0488 -0.7158 -0.5227
 1663SOL    HW116451   2.238   2.575   1.326 -0.0093 -1.0490 -1.4983
 1663SOL    HW216452   2.355   2.601   1.399 -1.0408  0.0529 -0.0746
 1664SOL     OW16453   2.948   4.507   6.878  0.3666 -0.2442  0.2514
 1664SOL    HW116454   2.920   4.582   6.930 -1.8188 -1.3133  0.6009
 1664SOL    HW216455   3.042   4.513   6.899 -0.2869  0.9770  2.9033
 1665SOL     OW16456   2.806   2.930  12.624 -0.0509 -0.2068  0.4404
 1665SOL    HW116457   2.777   2.852  12.671 -1.4984  0.1894  0.1900
 1665SOL    HW216458   2.781   2.996  12.689 -0.9812 -0.1984  0.0725
 1666SOL     OW16459   4.406   3.737   1.551  0.0149 -0.2138  0.0361
 1666SOL    HW116460   4.481   3.794   1.567 -1.5791  1.6544  0.7946
 1666SOL    HW216461   4.335   3.801   1.555  0.2957 -0.0304  2.0129
 1667SOL     OW16462   1.390   2.288   4.001  0.4008 -0.2252 -0.3812
 1667SOL    HW116463   1.440   2.320   4.076  0.7045  2.5842 -1.7968
 1667SOL    HW216464   1.344   2.210   4.033  0.4596 -0.3054 -0.4897
 1668SOL     OW16465   1.615   2.591   9.101  0.2271 -0.4840 -0.9411
 1668SOL    HW116466   1.707   2.565   9.107  0.1590 -0.8044 -1.3009
 1668SOL    HW216467   1.573   2.545   9.174 -2.7179  0.8088 -1.8209
 1669SOL     OW16468   4.530   1.446   6.103  0.1383  0.3072  0.2700
 1669SOL    HW116469   4.488   1.512   6.157 -0.4228  2.4384 -2.7523
 1669SOL    HW216470   4.485   1.363   6.117 -0.8075  0.7472 -0.1815
 1670SOL     OW16471   2.097   4.047   4.244 -0.0770 -0.5181  0.4084
 1670SOL    HW116472   2.168   4.078   4.300 -0.9081  0.2716  1.0349
 1670SOL    HW216473   2.055   3.980   4.298  0.0346  1.4092  2.8885
 1671SOL     OW16474   3.110   1.682   7.839  0.3533 -0.4783 -0.2276
 1671SOL    HW116475   3.067   1.695   7.924 -1.6550  0.2617 -1.3559
 1671SOL    HW216476   3.202   1.695   7.859  0.1635 -1.9430  1.6526
 1672SOL     OW16477   0.314   3.461  12.554 -0.2530  0.2251  0.3407
 1672SOL    HW116478   0.326   3.368  12.573 -2.5211 -0.6347 -2.3988
 1672SOL    HW216479   0.346   3.489  12.640 -0.9455  0.1167  0.6403
 1673SOL     OW16480   2.600   1.376   1.993 -0.1083 -0.8026 -0.2635
 1673SOL    HW116481   2.648   1.435   1.935  0.0194 -1.0023 -0.3604
 1673SOL    HW216482   2.553   1.333   1.921  1.0165 -0.5190 -1.1644
 1674SOL     OW16483   1.892   2.422   7.475 -0.2870 -0.5959  0.1126
 1674SOL    HW116484   1.807   2.464   7.461  0.7140  1.2127 -0.4718
 1674SOL    HW216485   1.928   2.468   7.551 -1.0693 -0.2308  0.2668
 1675SOL     OW16486   1.168   1.386   9.535  0.0424  0.3079 -0.3639
 1675SOL    HW116487   1.109   1.441   9.483  1.2296  0.7184 -1.2641
 1675SOL    HW216488   1.103   1.322   9.563  1.2655 -2.1443 -3.1883
 1676SOL     OW16489   3.790   3.249   8.047 -0.0235 -0.4931 -0.0686
 1676SOL    HW116490   3.769   3.275   8.137  0.6339  1.5208 -0.4932
 1676SOL    HW216491   3.720   3.183   8.039  1.9699 -2.5576 -0.5108
 1677SOL     OW16492   1.462   1.140   8.532 -0.0818 -0.0018  0.0828
 1677SOL    HW116493   1.530   1.083   8.497  1.7074  1.0258  1.9340
 1677SOL    HW216494   1.409   1.157   8.453  1.6351 -0.8695 -1.2633
 1678SOL     OW16495   2.567   0.547   4.860 -0.2960 -0.4308 -0.0797
 1678SOL    HW116496   2.629   0.476   4.875  0.1095 -0.2206 -0.7856
 1678SOL    HW216497   2.588   0.611   4.929  2.0890 -1.7534  0.4031
 1679SOL     OW16498   1.844   2.261   3.850  0.3253  0.6108 -0.0504
 1679SOL    HW116499   1.831   2.290   3.940  0.7758 -0.8621  0.4907
 1679SOL    HW216500   1.830   2.168   3.870 -0.7751  0.7849  0.0282
 1680SOL     OW16501   4.174   1.477   0.819  0.0537  0.1157  0.0265
 1680SOL    HW116502   4.107   1.493   0.753  0.3766  0.4217 -0.2244
 1680SOL    HW216503   4.197   1.569   0.828 -0.2778  0.3824 -1.9428
 1681SOL     OW16504   0.010   0.398  12.815 -0.0968  0.2865 -0.2404
 1681SOL    HW116505   4.682   0.397  12.736  2.4451  0.4455 -1.9527
 1681SOL    HW216506   0.050   0.485  12.805  0.8976 -0.2379 -0.7766
 1682SOL     OW16507   0.171   0.891  10.090 -0.2296  0.1246  0.0516
 1682SOL    HW116508   0.130   0.978  10.095  1.9849  1.2436 -1.3848
 1682SOL    HW216509   0.220   0.901  10.172  0.8864  0.4450 -0.6560
 1683SOL     OW16510   4.662   2.035   6.337 -0.1673  0.2496 -0.2902
 1683SOL    HW116511   0.012   1.981   6.316  1.4899  1.7972  1.6228
 1683SOL    HW216512   4.665   2.086   6.256 -1.0377  0.0075 -0.4669
 1684SOL     OW16513   4.725   0.430   7.892 -0.0068  0.4160 -0.1839
 1684SOL    HW116514   0.077   0.381   7.916 -0.2470 -0.0231 -0.2843
 1684SOL    HW216515   4.667   0.424   7.968 -0.2962  2.8418 -0.2054
 1685SOL     OW16516   2.360   0.795   9.561  0.2221 -0.4797 -0.0305
 1685SOL    HW116517   2.366   0.890   9.554  1.8540 -0.4830  1.1767
 1685SOL    HW216518   2.443   0.774   9.517  0.6241 -0.1034  0.5408
 1686SOL     OW16519   4.464   4.234   7.298  0.1675 -0.4117  0.1126
 1686SOL    HW116520   4.411   4.245   7.377  0.8573 -0.7103  0.6117
 1686SOL    HW216521   4.411   4.292   7.243 -0.4687 -0.3068  0.8328
 1687SOL     OW16522   4.665   4.672   1.982 -1.1674  0.2457  0.6420
 1687SOL    HW116523   4.655   4.584   2.018  0.6450 -1.0635 -2.0041
 1687SOL    HW216524   4.646   4.662   1.888 -0.4536  0.4947  0.4786
 1688SOL     OW16525   0.751   0.632   2.910  0.2575  0.3172 -0.2953
 1688SOL    HW116526   0.706   0.714   2.890  0.1194  0.2352 -0.3259
 1688SOL    HW216527   0.811   0.648   2.983 -0.4587 -0.0100  0.3683
 1689SOL     OW16528   1.183   4.286   9.118 -0.0944  0.1042 -0.6050
 1689SOL    HW116529   1.128   4.362   9.100 -1.1273 -0.7525 -1.0677
 1689SOL    HW216530   1.263   4.310   9.071  1.0042  2.1592  2.3361
 1690SOL     OW16531   3.006   4.583   0.519  0.0148 -0.1727 -0.6809
 1690SOL    HW116532   2.918   4.619   0.517 -0.1648 -0.5163  1.4662
 1690SOL    HW216533   2.984   4.490   0.511  1.5000 -0.7122  1.4939
 1691SOL     OW16534   2.404   0.585   7.473  0.2011 -0.3403 -0.0211
 1691SOL    HW116535   2.428   0.591   7.566  0.1253  1.5123 -0.1354
 1691SOL    HW216536   2.367   0.496   7.472  0.2268 -0.3661  1.5251
 1692SOL     OW16537   1.364   1.320   8.711 -0.1267  0.1723 -0.1599
 1692SOL    HW116538   1.430   1.275   8.658  0.0668 -1.3554  1.3856
 1692SOL    HW216539   1.303   1.370   8.657  0.7007 -0.9567 -2.1502
 1693SOL     OW16540   0.481   3.443   8.371  0.0109  0.0268 -0.4239
 1693SOL    HW116541   0.461   3.523   8.420  0.2931  0.3074 -0.7648
 1693SOL    HW216542   0.403   3.425   8.319  1.2457 -3.4458 -1.0764
 1694SOL     OW16543   2.672   0.520   4.448  0.2709 -0.2704 -0.4354
 1694SOL    HW116544   2.661   0.582   4.520  2.3647 -0.7129  0.2583
 1694SOL    HW216545   2.674   0.439   4.498 -0.9700  0.0687  0.1507
 1695SOL     OW16546   1.477   0.711   9.757  0.1197 -0.8288 -0.0519
 1695SOL    HW116547   1.456   0.617   9.756  0.1656 -0.8678  1.3428
 1695SOL    HW216548   1.572   0.709   9.746  0.4898 -0.1711  2.7778
 1696SOL     OW16549   3.895   0.807   5.121  0.0180  0.4400  0.5844
 1696SOL    HW116550   3.854   0.864   5.186 -0.4819  0.3046  0.3902
 1696SOL    HW216551   3.820   0.803   5.061 -0.3978  0.8292  1.0770
 1697SOL     OW16552   0.341   4.467   6.806  0.7500 -0.0571  0.4081
 1697SOL    HW116553   0.365   4.548   6.850 -0.0692  0.1626  0.4661
 1697SOL    HW216554   0.247   4.473   6.826  0.5702 -1.1200 -0.1408
 1698SOL     OW16555   3.873   1.441   9.425  0.2742  0.4619 -0.3254
 1698SOL    HW116556   3.964   1.448   9.453 -0.3562  2.0802  1.2790
 1698SOL    HW216557   3.852   1.531   9.450 -0.1578 -0.3659  2.2729
 1699SOL     OW16558   1.728   3.227   8.106 -0.0873 -0.2061  0.3228
 1699SOL    HW116559   1.634   3.211   8.116 -0.2259 -1.3838 -3.1810
 1699SOL    HW216560   1.731   3.245   8.012 -1.3354 -4.0726 -0.4335
 1700SOL     OW16561   1.000   0.265  14.272 -0.1384  0.2884 -1.0198
 1700SOL    HW116562   1.026   0.356  14.291  0.5965  0.0892 -1.0697
 1700SOL    HW216563   1.081   0.221  14.247  0.7014  1.2987 -0.1235
 1701SOL     OW16564   2.134   0.318   1.719 -0.1670  0.4097 -0.2670
 1701SOL    HW116565   2.112   0.225   1.728 -3.0594  1.0986 -0.2527
 1701SOL    HW216566   2.048   0.356   1.702  0.4163  1.1893 -1.4717
 1702SOL     OW16567   1.373   3.151  11.597 -0.1426 -0.2637  0.4300
 1702SOL    HW116568   1.356   3.231  11.548  1.5017 -0.8588 -1.0946
 1702SOL    HW216569   1.328   3.094  11.535 -2.0813  1.5428  0.1775
 1703SOL     OW16570   3.262   2.889   7.007 -0.5275 -0.1113 -0.0935
 1703SOL    HW116571   3.352   2.910   7.032 -0.8317 -1.0728  1.7737
 1703SOL    HW216572   3.268   2.795   6.991  1.3694 -0.2507  1.4407
 1704SOL     OW16573   3.198   0.998   4.225 -0.8550  0.0643 -0.0790
 1704SOL    HW116574   3.143   1.052   4.281 -1.2556  0.5272 -0.9127
 1704SOL    HW216575   3.229   0.939   4.294  0.2723  1.7142  0.8389
 1705SOL     OW16576   1.952   0.894   9.829 -0.1547  0.2421  0.0711
 1705SOL    HW116577   2.026   0.833   9.832 -0.5960 -0.2820  0.3987
 1705SOL    HW216578   1.880   0.833   9.845 -1.9125  2.5908  1.1477
 1706SOL     OW16579   2.955   3.156  15.657 -1.0104  0.4241  0.4773
 1706SOL    HW116580   2.909   3.227  15.613 -1.1150  1.2230  1.8653
 1706SOL    HW216581   2.953   3.194  15.745  1.2876  2.8908 -0.5312
 1707SOL     OW16582   0.989   1.549  17.551 -0.2819  0.2681  0.2695
 1707SOL    HW116583   0.946   1.593  17.477 -2.2017  0.3999  1.4811
 1707SOL    HW216584   0.942   1.467  17.540 -1.2209  0.8964 -0.3921
 1708SOL     OW16585   3.155   0.087   8.024 -0.2550 -0.0845 -0.1332
 1708SOL    HW116586   3.153   0.155   7.957 -0.7454 -0.0684 -0.1018
 1708SOL    HW216587   3.170   0.140   8.102  0.3373  3.5591 -2.6859
 1709SOL     OW16588   2.040   0.115   4.184 -0.1455 -0.1778  0.3189
 1709SOL    HW116589   2.056   0.171   4.108 -1.7431  0.6048  0.5537
 1709SOL    HW216590   1.995   0.169   4.249  0.1649 -0.6756  0.9456
 1710SOL     OW16591   2.942   4.496   4.888 -0.0464  0.5307 -0.3172
 1710SOL    HW116592   2.974   4.514   4.977 -1.0317 -0.2046  0.1978
 1710SOL    HW216593   2.941   4.581   4.845  1.7364  0.1668 -1.0847
 1711SOL     OW16594   0.659   3.151   2.335 -0.4339  0.2901  0.6775
 1711SOL    HW116595   0.592   3.220   2.342  1.2018  2.0910 -1.3684
 1711SOL    HW216596   0.715   3.186   2.266  1.9008 -2.6618  1.0760
 1712SOL     OW16597   2.433   3.171   6.362 -0.2324 -0.1057 -0.1513
 1712SOL    HW116598   2.486   3.208   6.292 -0.3203 -2.4277 -1.4319
 1712SOL    HW216599   2.486   3.196   6.438 -0.0239 -2.2755  0.4023
 1713SOL     OW16600   3.887   4.541  10.227  0.0969 -0.1838  0.0336
 1713SOL    HW116601   3.920   4.474  10.287 -2.8519 -1.8836 -0.2701
 1713SOL    HW216602   3.806   4.506  10.191 -0.6294  0.6051  0.9108
 1714SOL     OW16603   4.387   4.224   4.189 -0.9257  0.3243  0.0611
 1714SOL    HW116604   4.316   4.251   4.248  0.3926 -1.1247  2.3180
 1714SOL    HW216605   4.458   4.190   4.244  0.1578  0.4759 -1.2451
 1715SOL     OW16606   4.297   2.787   2.768  0.1867  0.5645  0.0554
 1715SOL    HW116607   4.269   2.864   2.718 -2.6046 -0.8842 -0.6134
 1715SOL    HW216608   4.215   2.739   2.770 -0.5694  1.9213  1.3795
 1716SOL     OW16609   4.374   2.000   1.729  0.1303  0.0238  0.3386
 1716SOL    HW116610   4.402   2.048   1.651 -2.7173  2.0127  0.5238
 1716SOL    HW216611   4.321   2.066   1.774  0.0720 -0.7335  1.3888
 1717SOL     OW16612   1.871   3.740   3.244  0.0357  0.4042 -0.2816
 1717SOL    HW116613   1.832   3.817   3.285  1.3885  0.0435  1.6620
 1717SOL    HW216614   1.794   3.716   3.193  0.1170  1.7923 -1.0525
 1718SOL     OW16615   4.145   2.624   7.479  0.1140 -0.1004  0.4982
 1718SOL    HW116616   4.123   2.553   7.539  0.5077 -2.1221 -1.7540
 1718SOL    HW216617   4.100   2.701   7.515  1.5934  0.7165  0.5991
 1719SOL     OW16618   2.650   2.807   5.316 -0.6636 -0.1376  0.2989
 1719SOL    HW116619   2.707   2.730   5.310 -0.1597  0.3002 -0.6877
 1719SOL    HW216620   2.703   2.863   5.372  0.1998 -1.7711  1.1279
 1720SOL     OW16621   4.619   0.798  11.281  0.5081 -0.0463 -0.2294
 1720SOL    HW116622   4.643   0.890  11.267 -1.7637  0.5568 -0.3021
 1720SOL    HW216623   4.552   0.805  11.349  0.9601  1.0759  0.1111
 1721SOL     OW16624   0.061   1.304  15.532  0.3867 -0.8930  0.3735
 1721SOL    HW116625   0.130   1.262  15.481 -0.2804  0.2345 -1.4349
 1721SOL    HW216626   0.107   1.349  15.603  0.7745 -0.3232 -0.2439
 1722SOL     OW16627   3.613   3.517   8.932  0.0184 -0.1115  0.1389
 1722SOL    HW116628   3.613   3.602   8.888  1.6769  0.3948  1.0920
 1722SOL    HW216629   3.613   3.454   8.860  2.3062 -0.9922  0.8820
 1723SOL     OW16630   0.058   1.711   4.904  0.3518  0.3625  0.2260
 1723SOL    HW116631   0.075   1.704   4.810 -1.6533 -0.5894 -0.0624
 1723SOL    HW216632   4.692   1.738   4.902 -0.3418 -2.1933 -1.6001
 1724SOL     OW16633   0.665   0.002   2.877 -0.0798 -0.2070  0.1017
 1724SOL    HW116634   0.653   0.092   2.846  0.8359 -0.3090 -0.5671
 1724SOL    HW216635   0.756   4.712   2.853 -0.2507  0.1125 -0.7517
 1725SOL     OW16636   3.399   2.773   4.019  0.9998 -0.0251 -0.0036
 1725SOL    HW116637   3.380   2.715   3.945 -1.5482 -0.0830  0.7099
 1725SOL    HW216638   3.491   2.793   3.999  0.1785  1.0817 -2.6737
 1726SOL     OW16639   1.064   1.430   1.979 -0.1720 -0.2689 -0.1682
 1726SOL    HW116640   1.150   1.416   1.938  1.2576  2.6278  1.8340
 1726SOL    HW216641   1.010   1.405   1.904 -0.2380  1.0613 -0.5681
 1727SOL     OW16642   0.979   3.178   6.262 -0.0533  0.2754  0.1521
 1727SOL    HW116643   0.938   3.115   6.320 -0.3813  0.0259 -0.3539
 1727SOL    HW216644   0.941   3.258   6.297  1.0170  0.9847 -0.2824
 1728SOL     OW16645   4.085   1.483   2.803 -0.3096  0.2254 -0.1530
 1728SOL    HW116646   4.164   1.434   2.824 -0.0792  1.3592  1.6846
 1728SOL    HW216647   4.030   1.461   2.879 -1.4158 -0.4464 -1.1479
 1729SOL     OW16648   1.609   1.540   3.613  0.2475 -0.0746 -0.0868
 1729SOL    HW116649   1.648   1.455   3.633  0.8756 -0.6161 -3.6232
 1729SOL    HW216650   1.672   1.594   3.564  0.4523  0.5677  0.8708
 1730SOL     OW16651   4.345   1.000   0.231 -0.1604 -0.1060 -0.1365
 1730SOL    HW116652   4.315   1.002   0.140 -0.7270  1.4434  0.0703
 1730SOL    HW216653   4.272   1.037   0.282  1.6438  3.4607 -0.1431
 1731SOL     OW16654   1.380   1.608   6.723 -0.4689  0.1061  0.2558
 1731SOL    HW116655   1.406   1.517   6.733  1.3137  0.4287 -1.3723
 1731SOL    HW216656   1.413   1.623   6.634 -3.3847 -1.8482 -1.1636
 1732SOL     OW16657   0.183   2.301   7.476  0.5887 -0.9933  0.3093
 1732SOL    HW116658   0.097   2.284   7.437  0.4583  1.3516 -0.4040
 1732SOL    HW216659   0.192   2.225   7.534  0.5185 -0.2304  1.3126
 1733SOL     OW16660   0.809   0.470  13.363 -0.3811 -0.4707  0.1203
 1733SOL    HW116661   0.844   0.503  13.280 -0.6226  0.5759  0.4366
 1733SOL    HW216662   0.823   0.545  13.421  1.9867  0.3876 -1.5636
 1734SOL     OW16663   0.394   3.454  10.267 -0.4798 -0.5207 -0.2942
 1734SOL    HW116664   0.467   3.506  10.234 -0.0600 -0.7710  0.2511
 1734SOL    HW216665   0.395   3.382  10.205  0.5345 -0.0964 -0.7562
 1735SOL     OW16666   3.272   2.797  11.340  0.5117  0.3278  0.6142
 1735SOL    HW116667   3.334   2.858  11.379  0.2206  2.0764 -1.6722
 1735SOL    HW216668   3.233   2.763  11.421 -0.9912  1.7479  0.4868
 1736SOL     OW16669   0.392   3.254  11.608 -0.6253 -0.2079 -0.2214
 1736SOL    HW116670   0.335   3.178  11.621  0.8612 -1.6393 -2.2124
 1736SOL    HW216671   0.462   3.245  11.672 -1.6772 -2.3741  0.6158
 1737SOL     OW16672   3.681   2.038   5.843  0.5360 -0.1603 -0.0606
 1737SOL    HW116673   3.755   2.097   5.833  0.2219  0.3220  0.4227
 1737SOL    HW216674   3.642   2.036   5.756 -1.3324  1.4786  0.7310
 1738SOL     OW16675   2.958   2.949   4.146 -0.1288  0.0208  0.2774
 1738SOL    HW116676   2.915   2.969   4.229 -0.0645 -0.5310  0.4473
 1738SOL    HW216677   3.051   2.950   4.170  0.2863 -1.2163 -1.2323
 1739SOL     OW16678   1.858   0.757  10.897  0.2464  0.3059 -0.6036
 1739SOL    HW116679   1.866   0.675  10.848  0.6543  1.5486 -2.6419
 1739SOL    HW216680   1.812   0.813  10.833 -0.3802  0.7405  0.2338
 1740SOL     OW16681   4.677   0.704   5.593  0.6567 -0.2078 -0.5841
 1740SOL    HW116682   4.612   0.690   5.524  0.6389 -0.0582 -0.5973
 1740SOL    HW216683   0.021   0.646   5.562  2.1019  1.3772 -0.3421
 1741SOL     OW16684   4.064   0.177   5.530  0.5858  0.3167 -0.1191
 1741SOL    HW116685   4.009   0.228   5.472 -0.4763 -0.3960  0.2667
 1741SOL    HW216686   4.154   0.201   5.505  0.5124 -0.3919 -1.0666
 1742SOL     OW16687   0.567   4.311   4.663  0.4445  0.0813 -0.1640
 1742SOL    HW116688   0.543   4.251   4.593  0.2149 -0.3115  0.2485
 1742SOL    HW216689   0.534   4.270   4.744  3.1127  0.3102  1.0311
 1743SOL     OW16690   3.175   1.626   7.172 -0.5613  0.6228 -0.2122
 1743SOL    HW116691   3.216   1.669   7.247 -0.1837 -1.9670  1.0782
 1743SOL    HW216692   3.097   1.601   7.221  0.2462  2.2170  1.9252
 1744SOL     OW16693   0.268   0.878   4.081 -0.6829  0.1019  0.0720
 1744SOL    HW116694   0.206   0.912   4.017 -2.6834 -0.9786  1.4240
 1744SOL    HW216695   0.256   0.783   4.084  1.8634 -0.3071 -2.3478
 1745SOL     OW16696   2.273   2.694   4.170 -0.2778  0.6798 -0.1197
 1745SOL    HW116697   2.245   2.653   4.088  1.5457  1.8217 -1.3056
 1745SOL    HW216698   2.298   2.782   4.143  3.7732 -0.8608 -1.3450
 1746SOL     OW16699   4.672   3.010   3.697  0.1426  0.1904 -0.4426
 1746SOL    HW116700   4.696   3.011   3.789 -3.2702  0.6351  0.4200
 1746SOL    HW216701   4.629   3.095   3.684  1.2684  0.8078 -0.1432
 1747SOL     OW16702   1.955   2.053   5.396  0.2621  1.0980 -0.5181
 1747SOL    HW116703   1.899   2.075   5.322 -1.2798 -0.9290  0.0728
 1747SOL    HW216704   2.031   2.102   5.363 -0.3542  1.9673 -0.6587
 1748SOL     OW16705   2.904   3.161  10.992  0.3834 -0.2865  0.7295
 1748SOL    HW116706   2.877   3.069  10.984  2.7012 -1.0451  1.6105
 1748SOL    HW216707   2.981   3.150  11.048 -1.0665 -1.0585  2.5796
 1749SOL     OW16708   3.231   1.330   3.058  0.0948  0.2880 -0.6672
 1749SOL    HW116709   3.136   1.318   3.063 -0.0649  1.4698 -1.0008
 1749SOL    HW216710   3.243   1.413   3.013 -0.8387  1.8379  1.9372
 1750SOL     OW16711   0.841   3.806   3.344 -0.2523 -0.0981 -0.3069
 1750SOL    HW116712   0.888   3.723   3.352  3.3092  1.9226 -0.2759
 1750SOL    HW216713   0.843   3.810   3.248  0.1908 -1.5325 -0.3538
 1751SOL     OW16714   1.764   3.505  14.142 -0.1938  0.5762  0.3247
 1751SOL    HW116715   1.840   3.563  14.138  0.5670 -0.3973  0.6328
 1751SOL    HW216716   1.796   3.415  14.146  2.7048  1.5586 -0.4965
 1752SOL     OW16717   2.451   2.964  10.277  0.7014 -0.2987  0.7935
 1752SOL    HW116718   2.499   2.977  10.359  1.4789  0.2079  0.2686
 1752SOL    HW216719   2.434   2.870  10.286 -1.4234  0.0398  0.1256
 1753SOL     OW16720   1.674   1.402   7.657 -0.1815 -0.1785  0.0846
 1753SOL    HW116721   1.631   1.345   7.593 -0.0502 -0.6539  0.4240
 1753SOL    HW216722   1.704   1.461   7.587 -0.2146  0.7065  0.8085
 1754SOL     OW16723   1.776   2.434  16.607  0.0191  0.3057  0.3505
 1754SOL    HW116724   1.700   2.436  16.665  0.3725  1.2479  0.7857
 1754SOL    HW216725   1.798   2.527  16.612 -0.0337  0.3967 -1.0581
 1755SOL     OW16726   3.685   0.061   5.627  1.0523  0.1901  0.5274
 1755SOL    HW116727   3.689   0.156   5.640 -1.9507  0.3922 -0.0644
 1755SOL    HW216728   3.626   0.039   5.699  1.6290  1.1866  1.3131
 1756SOL     OW16729   2.413   3.522  13.250 -0.5745 -0.6396  0.4230
 1756SOL    HW116730   2.330   3.481  13.277 -0.7587  0.2562  1.2261
 1756SOL    HW216731   2.386   3.614  13.250  2.1947  0.1906 -3.3254
 1757SOL     OW16732   2.984   1.855  14.580 -0.0443 -0.3533  0.6518
 1757SOL    HW116733   2.921   1.827  14.646  0.0999  0.4651  1.1284
 1757SOL    HW216734   3.064   1.834  14.629  0.3698  1.0527  0.5634
 1758SOL     OW16735   1.674   2.270   5.991 -0.1435  0.0892  0.5587
 1758SOL    HW116736   1.678   2.365   5.996 -1.1621  0.0375  2.1931
 1758SOL    HW216737   1.628   2.265   5.907  0.1954 -0.0272  0.3796
 1759SOL     OW16738   3.705   1.860   0.882 -1.0039  0.2339  0.6216
 1759SOL    HW116739   3.736   1.907   0.804  0.1262  0.1425  1.0173
 1759SOL    HW216740   3.637   1.808   0.839 -1.9609 -0.2048  2.6674
 1760SOL     OW16741   1.404   2.617   2.859  0.7372  0.0698 -0.3764
 1760SOL    HW116742   1.312   2.643   2.854  0.4566 -0.7183  0.9008
 1760SOL    HW216743   1.450   2.690   2.818  1.0258 -0.8496 -1.7007
 1761SOL     OW16744   4.240   0.099  11.165 -0.2011 -0.3100 -0.2805
 1761SOL    HW116745   4.270   0.053  11.243  1.6100 -1.9006 -1.9254
 1761SOL    HW216746   4.306   0.169  11.160 -2.0404  1.4072 -0.5685
 1762SOL     OW16747   2.420   3.384  11.223 -0.2700 -0.6475  0.2827
 1762SOL    HW116748   2.377   3.341  11.149  0.5975 -2.1995  0.6909
 1762SOL    HW216749   2.449   3.313  11.280 -0.4246 -1.9873 -1.3182
 1763SOL     OW16750   0.435   0.686   6.198 -0.5109 -0.1880  0.2109
 1763SOL    HW116751   0.448   0.769   6.243 -1.9811  1.4866 -2.4556
 1763SOL    HW216752   0.524   0.654   6.211 -0.4399  0.6044  1.6344
 1764SOL     OW16753   1.323   3.179  15.437  0.4731  0.2762 -0.2146
 1764SOL    HW116754   1.320   3.173  15.342 -1.8749  2.2403 -0.2688
 1764SOL    HW216755   1.250   3.237  15.459  0.3437  0.1125 -0.2213
 1765SOL     OW16756   2.242   0.272   2.248 -0.4231  0.5494 -0.1322
 1765SOL    HW116757   2.174   0.331   2.282 -1.2287  0.4967 -1.6529
 1765SOL    HW216758   2.279   0.317   2.172  0.9340  1.2009  0.9119
 1766SOL     OW16759   4.043   0.786   7.135 -0.1752  0.0236  0.3062
 1766SOL    HW116760   3.987   0.821   7.205 -1.6824 -1.5211 -0.1285
 1766SOL    HW216761   4.035   0.864   7.080  0.7699 -1.2729 -1.6362
 1767SOL     OW16762   3.759   3.888   7.069  0.3309 -0.1072  0.0796
 1767SOL    HW116763   3.762   3.917   6.978  0.0082  0.0512  0.1211
 1767SOL    HW216764   3.703   3.811   7.067  2.7916 -1.8602 -2.5181
 1768SOL     OW16765   1.996   0.557   7.980 -0.5819  0.0998 -0.0826
 1768SOL    HW116766   2.016   0.610   7.903 -1.1280  0.9609  0.3685
 1768SOL    HW216767   2.088   0.545   8.005 -0.2316  0.6584 -1.0926
 1769SOL     OW16768   1.181   4.149   6.686 -0.4129 -0.0741 -0.0709
 1769SOL    HW116769   1.116   4.211   6.652  1.6368  1.7468 -0.6688
 1769SOL    HW216770   1.136   4.108   6.760  2.2505 -1.0709  0.9714
 1770SOL     OW16771   2.620   4.559   7.834 -0.2998  0.0421  0.0223
 1770SOL    HW116772   2.571   4.614   7.895  2.1107  0.4382  1.5720
 1770SOL    HW216773   2.563   4.483   7.837  2.0574 -1.6332  1.9365
 1771SOL     OW16774   0.523   1.746   1.541 -0.1731 -0.6245 -0.0064
 1771SOL    HW116775   0.536   1.701   1.624  0.6990 -1.2804 -0.5031
 1771SOL    HW216776   0.585   1.819   1.545 -1.1096  0.1859 -0.3720
 1772SOL     OW16777   3.007   4.660   9.223 -0.2690 -0.1738 -0.6643
 1772SOL    HW116778   2.970   4.606   9.153 -1.4550 -0.5661  0.2788
 1772SOL    HW216779   3.087   4.692   9.180  0.0243  2.4227  1.8279
 1773SOL     OW16780   4.527   1.875   6.535  0.4364  0.0184 -0.5721
 1773SOL    HW116781   4.530   1.886   6.440 -0.3634  2.5904 -0.3049
 1773SOL    HW216782   4.569   1.955   6.568 -3.9681  1.8663  0.5706
 1774SOL     OW16783   1.297   1.725   9.598  0.6325  0.3433 -0.2250
 1774SOL    HW116784   1.280   1.631   9.591  0.1869  0.3819  0.3304
 1774SOL    HW216785   1.285   1.743   9.505  1.1492  0.5575 -0.2509
 1775SOL     OW16786   3.925   0.922   3.167  0.6327 -0.1161 -0.3139
 1775SOL    HW116787   3.993   0.986   3.191 -0.4464  0.2661  1.7686
 1775SOL    HW216788   3.891   0.972   3.093  2.3760  2.7222  0.7825
 1776SOL     OW16789   1.223   1.686  10.033 -0.0214 -0.3690 -0.1310
 1776SOL    HW116790   1.137   1.644  10.046 -0.5067  0.5270 -0.4631
 1776SOL    HW216791   1.291   1.620  10.046  1.2942  1.0257  0.0686
 1777SOL     OW16792   1.631   3.241   4.071 -0.3788 -0.0527 -0.4895
 1777SOL    HW116793   1.699   3.174   4.062 -1.2111 -0.9885  0.1596
 1777SOL    HW216794   1.649   3.285   4.153 -0.4589  1.7824 -1.4677
 1778SOL     OW16795   4.202   2.059   2.125  0.3165  0.5019  0.1459
 1778SOL    HW116796   4.184   2.011   2.043 -0.1257  1.6056 -0.3985
 1778SOL    HW216797   4.209   1.980   2.179 -2.4182  0.3555  0.2580
 1779SOL     OW16798   4.371   1.594  17.459 -1.0228  0.4786  0.2864
 1779SOL    HW116799   4.380   1.565  17.368  0.7744 -0.5842  0.8009
 1779SOL    HW216800   4.290   1.640  17.480 -0.2053  2.1138 -0.0812
 1780SOL     OW16801   1.128   1.518   5.892 -0.6302 -0.0800 -0.4481
 1780SOL    HW116802   1.036   1.519   5.916 -0.0235 -1.4359  1.9685
 1780SOL    HW216803   1.154   1.453   5.958 -0.1099  1.6767  1.0715
 1781SOL     OW16804   0.208   1.411   3.080 -0.5981  0.2007 -0.1345
 1781SOL    HW116805   0.219   1.322   3.113 -1.4352 -0.7997 -2.5762
 1781SOL    HW216806   0.197   1.389   2.987 -0.6046  1.2160 -0.3697
 1782SOL     OW16807   4.044   2.286   5.071 -0.1976 -0.4499 -0.1334
 1782SOL    HW116808   4.129   2.315   5.104  0.3210 -2.3703  0.2435
 1782SOL    HW216809   3.998   2.369   5.077  1.0177  0.1863  0.2703
 1783SOL     OW16810   1.625   0.377   6.050 -0.2561  0.8773  0.1282
 1783SOL    HW116811   1.593   0.452   6.000 -2.6117 -0.3585 -0.1948
 1783SOL    HW216812   1.580   0.308   6.002 -1.9508  2.2259 -0.2359
 1784SOL     OW16813   1.399   3.789   1.274  0.5746  0.3219 -0.2508
 1784SOL    HW116814   1.468   3.790   1.207  0.3546  1.6492 -0.4580
 1784SOL    HW216815   1.330   3.775   1.210 -0.0795  1.3854  0.2234
 1785SOL     OW16816   3.057   4.418  10.017 -0.7398  0.4042  0.1593
 1785SOL    HW116817   3.126   4.483  10.004  0.0374 -0.9917 -2.7310
 1785SOL    HW216818   3.097   4.368  10.088 -0.0244  0.5590 -0.1311
 1786SOL     OW16819   2.609   3.020   5.982 -0.2724 -0.4561  0.4534
 1786SOL    HW116820   2.614   3.102   6.031  0.9014  1.1085 -2.3091
 1786SOL    HW216821   2.685   2.977   6.019  0.2779  2.1123  2.2898
 1787SOL     OW16822   1.517   2.355  10.560 -0.0579  0.1238 -0.4391
 1787SOL    HW116823   1.574   2.280  10.543 -0.6942 -0.6199  0.6947
 1787SOL    HW216824   1.571   2.427  10.528  0.3671  0.0384  0.0611
 1788SOL     OW16825   1.746   2.994   0.519 -0.3056  0.1845 -0.0466
 1788SOL    HW116826   1.701   3.048   0.584 -1.3539 -1.9581  1.0092
 1788SOL    HW216827   1.830   3.037   0.503 -1.5956  3.2166  1.4621
 1789SOL     OW16828   4.689   2.507  13.021 -0.5630 -0.0772  0.5045
 1789SOL    HW116829   4.663   2.425  13.064  0.6339 -1.1664 -0.8851
 1789SOL    HW216830   4.688   2.568  13.095 -0.5799  0.4619  0.0529
 1790SOL     OW16831   3.620   1.719   5.362  0.1404 -0.1442 -0.4051
 1790SOL    HW116832   3.655   1.807   5.352 -1.5767  0.5636 -0.2201
 1790SOL    HW216833   3.664   1.702   5.445 -0.4196  1.0100  0.1339
 1791SOL     OW16834   0.141   2.608   3.105 -0.5488 -0.0755  0.8503
 1791SOL    HW116835   0.065   2.646   3.151  0.0389  1.7607  0.3093
 1791SOL    HW216836   0.190   2.689   3.096 -1.2126  0.2675  0.3158
 1792SOL     OW16837   4.034   0.627   9.847 -0.0106 -0.1792  0.2111
 1792SOL    HW116838   3.972   0.571   9.895 -0.3357  1.2038  1.3898
 1792SOL    HW216839   4.076   0.565   9.787 -0.5636  0.1878 -0.5492
 1793SOL     OW16840   4.475   3.903   7.723  0.1917  0.7517 -0.1860
 1793SOL    HW116841   4.451   3.842   7.793  0.7682 -0.7746 -1.3268
 1793SOL    HW216842   4.473   3.984   7.773  0.6853  0.7933 -0.2320
 1794SOL     OW16843   2.135   0.995   6.287 -0.6064  0.2616 -0.2264
 1794SOL    HW116844   2.080   0.926   6.322 -0.8592  0.0729 -0.9936
 1794SOL    HW216845   2.215   0.947   6.264 -0.9111 -0.0730 -0.5875
 1795SOL     OW16846   0.390   3.684   7.088 -0.0816 -0.3649  0.3714
 1795SOL    HW116847   0.382   3.658   6.996  0.9406  2.1754 -0.4288
 1795SOL    HW216848   0.418   3.594   7.108  1.2987  0.0514  0.3253
 1796SOL     OW16849   3.554   2.725   6.141  0.0373 -0.5577  0.0474
 1796SOL    HW116850   3.504   2.643   6.133  0.7638 -0.8787 -1.1986
 1796SOL    HW216851   3.550   2.763   6.053  1.0494 -0.0711  0.2106
 1797SOL     OW16852   0.632   1.934   6.220 -0.7987  0.1267  0.0975
 1797SOL    HW116853   0.707   1.907   6.274  1.8560 -0.8026 -4.0543
 1797SOL    HW216854   0.676   1.972   6.144  1.7493 -1.3724  0.8522
 1798SOL     OW16855   3.823   0.420   7.185  0.1030  0.9371 -0.3525
 1798SOL    HW116856   3.798   0.498   7.234 -0.0664 -0.5366  1.9069
 1798SOL    HW216857   3.845   0.464   7.103  3.3979 -0.9675 -0.4665
 1799SOL     OW16858   0.226   1.268   5.208  0.2276  0.4623 -0.1559
 1799SOL    HW116859   0.261   1.243   5.294 -0.1647 -0.1054 -0.1641
 1799SOL    HW216860   0.185   1.186   5.180  0.7581 -0.3640  1.4844
 1800SOL     OW16861   0.178   1.329   6.053 -0.4046 -0.2013  0.8272
 1800SOL    HW116862   0.129   1.398   6.008 -1.3175  0.5018  2.9397
 1800SOL    HW216863   0.138   1.338   6.139  0.5771  2.0075  1.0342
 1801SOL     OW16864   2.508   1.513   8.794 -0.1043  0.8965 -0.2828
 1801SOL    HW116865   2.570   1.502   8.723  0.1975 -1.6945  0.3964
 1801SOL    HW216866   2.520   1.433   8.845  0.0995  1.7852  1.0894
 1802SOL     OW16867   2.891   1.862   5.539  0.0196 -0.4894 -0.2940
 1802SOL    HW116868   2.836   1.793   5.503  0.1351  0.2927 -1.9653
 1802SOL    HW216869   2.946   1.803   5.590  1.6167  1.4236  0.2197
 1803SOL     OW16870   3.076   2.463   6.929  0.2428  0.1035  0.0528
 1803SOL    HW116871   3.034   2.434   6.848  0.1798  0.5595 -0.0793
 1803SOL    HW216872   3.126   2.538   6.899  0.0863  0.0158 -0.4299
 1804SOL     OW16873   3.512   1.718   3.316  0.4239  0.2493  0.3976
 1804SOL    HW116874   3.592   1.666   3.308 -0.4722 -1.1761  0.5774
 1804SOL    HW216875   3.497   1.715   3.411 -2.0864  1.4747  0.0305
 1805SOL     OW16876   0.681   2.091   7.765 -0.7143  0.3281  0.2173
 1805SOL    HW116877   0.628   2.023   7.724 -0.6675  0.0681  0.5946
 1805SOL    HW216878   0.679   2.151   7.690  0.5000 -1.1506 -0.9886
 1806SOL     OW16879   3.489   2.671   9.513 -0.8150 -0.2853  0.2127
 1806SOL    HW116880   3.545   2.690   9.438  1.5159  0.9272  2.2542
 1806SOL    HW216881   3.526   2.746   9.560 -0.1501 -0.3214 -0.2599
 1807SOL     OW16882   2.185   4.717   7.464  0.0577  0.5475  0.1404
 1807SOL    HW116883   2.191   4.671   7.548 -0.7767  1.4259  0.6940
 1807SOL    HW216884   2.259   4.679   7.418 -0.0097  1.1846 -0.4951
 1808SOL     OW16885   0.540   3.919   5.717 -0.3605  0.3122  0.2497
 1808SOL    HW116886   0.454   3.948   5.745  0.1674 -0.8986  3.1419
 1808SOL    HW216887   0.590   3.991   5.755 -0.2058 -0.0684  0.7638
 1809SOL     OW16888   1.658   1.911   0.251  0.7873 -0.1457 -0.2083
 1809SOL    HW116889   1.708   1.837   0.285 -0.4175  0.4619  2.8608
 1809SOL    HW216890   1.582   1.856   0.231 -1.4443  2.6945  0.3557
 1810SOL     OW16891   2.867   0.763   0.732  0.0376 -0.6718  0.1102
 1810SOL    HW116892   2.865   0.794   0.641  2.2941  0.6777  0.5219
 1810SOL    HW216893   2.957   0.732   0.728  0.0423 -0.5553 -0.8993
 1811SOL     OW16894   2.042   3.547   9.950  0.4259  0.4902  0.0215
 1811SOL    HW116895   2.136   3.567   9.949  0.3353  0.9755  2.0080
 1811SOL    HW216896   2.036   3.459   9.913  2.4818  0.1336  0.5636
 1812SOL     OW16897   2.067   3.399   2.453  0.0128  0.2299 -0.1804
 1812SOL    HW116898   2.156   3.420   2.423  0.4244 -2.3375 -0.7515
 1812SOL    HW216899   2.061   3.305   2.465  0.7485 -0.0589 -2.0857
 1813SOL     OW16900   2.251   1.431   8.572  0.7499 -0.2852  0.2791
 1813SOL    HW116901   2.330   1.453   8.622 -0.7853 -0.1659  2.6187
 1813SOL    HW216902   2.180   1.452   8.632  0.0997 -0.7384 -0.3385
 1814SOL     OW16903   2.853   0.767   2.920  0.6515  0.8299 -0.2969
 1814SOL    HW116904   2.793   0.813   2.979 -2.1242 -0.0085 -2.4402
 1814SOL    HW216905   2.915   0.836   2.897  0.8619  0.9754  0.6943
 1815SOL     OW16906   2.273   3.520   0.173  0.0422 -0.1262 -0.2487
 1815SOL    HW116907   2.351   3.507   0.120  0.6541  0.1424  0.5821
 1815SOL    HW216908   2.305   3.581   0.240 -2.2720 -2.3330  2.9112
 1816SOL     OW16909   2.587   1.394   2.839 -0.5181 -0.3990 -1.0273
 1816SOL    HW116910   2.662   1.453   2.852 -1.5652  0.4279  1.2796
 1816SOL    HW216911   2.516   1.454   2.815 -0.0418  1.2389  1.5619
 1817SOL     OW16912   4.184   0.196   1.049  0.0945  0.3962  0.2847
 1817SOL    HW116913   4.161   0.259   0.981  3.0391 -0.8692 -1.8664
 1817SOL    HW216914   4.203   0.114   1.002  1.0158  0.4168  0.6255
 1818SOL     OW16915   3.649   0.688   5.239 -0.2249 -0.0459  0.0264
 1818SOL    HW116916   3.559   0.672   5.267 -0.2251  2.4454  1.5038
 1818SOL    HW216917   3.626   0.745   5.165  1.4147 -0.1231 -0.5336
 1819SOL     OW16918   3.090   2.213  11.521 -0.6248  0.1433  0.2556
 1819SOL    HW116919   3.112   2.288  11.576  0.1080  0.8347 -0.9987
 1819SOL    HW216920   3.159   2.219  11.455 -0.1112  0.2517  0.8021
 1820SOL     OW16921   3.711   2.868   8.339 -0.0953  0.3698 -0.2707
 1820SOL    HW116922   3.751   2.954   8.354 -0.0112 -0.5154  4.6086
 1820SOL    HW216923   3.620   2.897   8.333 -0.1160  0.2088 -0.7399
 1821SOL     OW16924   4.305   0.651   9.680  0.3119 -0.4277 -0.1995
 1821SOL    HW116925   4.303   0.708   9.756 -1.6357  0.1500 -0.6729
 1821SOL    HW216926   4.283   0.571   9.727  0.6618 -0.0962  0.5173
 1822SOL     OW16927   3.319   2.276  14.920 -0.0472 -0.4723  0.6308
 1822SOL    HW116928   3.231   2.309  14.940 -0.7065 -0.8363 -1.5762
 1822SOL    HW216929   3.329   2.201  14.977  0.5170 -0.0191  1.1245
 1823SOL     OW16930   0.793   1.210  17.195 -0.8191 -0.0395  0.1144
 1823SOL    HW116931   0.786   1.282  17.257  0.9081  0.3852 -0.1809
 1823SOL    HW216932   0.763   1.142  17.256 -1.4210 -0.9098 -1.1293
 1824SOL     OW16933   1.217   1.012   7.944 -0.3228  0.0810  0.0231
 1824SOL    HW116934   1.129   1.034   7.975  0.7128  1.3820  2.0281
 1824SOL    HW216935   1.239   0.928   7.983 -1.2575 -0.5700 -0.8481
 1825SOL     OW16936   2.138   1.910  14.120  0.3967  0.1508  0.5360
 1825SOL    HW116937   2.063   1.945  14.167  0.2170 -1.2277  1.2853
 1825SOL    HW216938   2.204   1.944  14.180 -0.1146 -0.1912  1.3001
 1826SOL     OW16939   4.466   1.178   8.104  0.6100  0.2456 -0.5154
 1826SOL    HW116940   4.492   1.232   8.179 -1.3947 -3.6956  2.9963
 1826SOL    HW216941   4.548   1.175   8.054  1.0586 -2.0356  0.3643
 1827SOL     OW16942   3.754   2.886   3.543 -0.2163 -0.0520 -0.2489
 1827SOL    HW116943   3.675   2.935   3.564 -0.7137  0.6901 -3.7790
 1827SOL    HW216944   3.706   2.820   3.493 -0.6177 -0.3453  0.5389
 1828SOL     OW16945   2.367   0.046  16.925 -0.2667  0.1178  0.2009
 1828SOL    HW116946   2.339   4.716  16.852  0.0547 -0.4176  0.4902
 1828SOL    HW216947   2.457   0.019  16.943 -0.3613  0.0852  0.6169
 1829SOL     OW16948   2.720   3.717   8.478 -0.5154  0.0404 -0.0131
 1829SOL    HW116949   2.653   3.765   8.525  1.6276  1.7317  1.3181
 1829SOL    HW216950   2.771   3.781   8.428 -1.4680  0.0529 -0.9804
 1830SOL     OW16951   2.110   2.785   8.330 -0.3776 -0.2608 -0.3202
 1830SOL    HW116952   2.161   2.779   8.249  0.9068  0.7330  0.4260
 1830SOL    HW216953   2.040   2.729   8.295  0.1424 -1.0269 -0.1374
 1831SOL     OW16954   1.116   0.046   5.487  0.4806 -0.4430  0.3531
 1831SOL    HW116955   1.147   4.718   5.560  1.5436  0.0102  0.2394
 1831SOL    HW216956   1.122   0.132   5.530 -1.4523 -0.8496  1.4481
 1832SOL     OW16957   2.052   0.278   0.597  0.2199 -0.0939  0.0774
 1832SOL    HW116958   1.981   0.284   0.662 -0.8071  0.6934 -1.1144
 1832SOL    HW216959   2.089   0.365   0.601 -0.6646  0.3665 -1.6846
 1833SOL     OW16960   0.776   1.551   0.410 -0.1450  0.5381  0.1186
 1833SOL    HW116961   0.817   1.501   0.339 -3.3835 -1.8595 -0.0430
 1833SOL    HW216962   0.810   1.516   0.492  1.3242 -2.2754 -1.6570
 1834SOL     OW16963   3.845   0.650   4.534 -0.1589  0.3875  0.7878
 1834SOL    HW116964   3.893   0.620   4.457 -2.0303 -1.4650  0.3499
 1834SOL    HW216965   3.896   0.724   4.569 -0.7166  0.5266  1.3179
 1835SOL     OW16966   3.157   1.187   3.446  0.4518  0.8921 -0.5973
 1835SOL    HW116967   3.083   1.169   3.505  1.3237  2.5331  0.9904
 1835SOL    HW216968   3.121   1.263   3.399 -0.9388 -0.1368 -1.2158
 1836SOL     OW16969   2.487   0.135   1.746  0.1327 -0.1055 -0.1553
 1836SOL    HW116970   2.517   0.057   1.699  1.9078  0.3858  0.1766
 1836SOL    HW216971   2.531   0.205   1.697 -1.3627  1.2192  0.3738
 1837SOL     OW16972   0.635   0.577   9.459 -0.1519  0.1955 -0.2111
 1837SOL    HW116973   0.670   0.663   9.480 -0.0340  0.5675 -1.9320
 1837SOL    HW216974   0.712   0.520   9.469  0.3204  0.6940 -1.0909
 1838SOL     OW16975   4.156   2.532  11.983  0.1831  0.0381  0.0806
 1838SOL    HW116976   4.191   2.550  12.071  1.9951 -0.4552 -0.5470
 1838SOL    HW216977   4.219   2.468  11.952 -0.3495 -0.9129  0.9248
 1839SOL     OW16978   4.058   1.655   5.705 -0.1980  0.3793 -0.2834
 1839SOL    HW116979   4.045   1.685   5.796 -0.2328  0.6807 -0.3850
 1839SOL    HW216980   4.033   1.733   5.655  1.0225  1.1390  0.2935
 1840SOL     OW16981   0.467   0.965   8.972 -0.2735 -0.5807  0.1496
 1840SOL    HW116982   0.440   0.874   8.982 -0.1569 -1.0146 -3.2707
 1840SOL    HW216983   0.396   1.000   8.918 -0.0322  1.5955  1.2401
 1841SOL     OW16984   2.088   3.895   8.378 -0.3366 -0.1800  0.0789
 1841SOL    HW116985   2.073   3.886   8.472  0.0542 -1.7811 -0.0041
 1841SOL    HW216986   2.142   3.817   8.364  0.1962 -0.2783  2.7531
 1842SOL     OW16987   1.576   3.483  15.365 -0.5032  0.0949 -0.0604
 1842SOL    HW116988   1.508   3.548  15.379  1.6042  1.9625  1.4033
 1842SOL    HW216989   1.583   3.441  15.450  0.7039 -2.4570 -1.4163
 1843SOL     OW16990   0.138   2.701   6.811  0.3640  0.2434  0.1648
 1843SOL    HW116991   0.134   2.630   6.874 -0.9263  1.8036  1.8237
 1843SOL    HW216992   0.044   2.719   6.805  1.3960  5.0285 -2.3004
 1844SOL     OW16993   2.256   2.185   0.642  0.1502  0.8675 -0.3273
 1844SOL    HW116994   2.279   2.127   0.570 -3.7100  1.1664 -1.8232
 1844SOL    HW216995   2.339   2.183   0.690 -0.7342  2.1379  1.2610
 1845SOL     OW16996   3.305   4.721   1.450 -0.1122 -0.0790  0.1330
 1845SOL    HW116997   3.229   0.052   1.458  0.5850  1.2205 -2.3450
 1845SOL    HW216998   3.262   4.636   1.456 -1.7086  0.8238  1.3237
 1846SOL     OW16999   3.265   3.799   9.452 -0.3544  0.4844 -0.4883
 1846SOL    HW117000   3.330   3.852   9.406  0.4265 -1.4509 -1.6364
 1846SOL    HW217001   3.267   3.714   9.407  0.6523 -1.0353  2.4334
 1847SOL     OW17002   1.048   4.426   2.268 -0.2190  0.3734  0.0438
 1847SOL    HW117003   1.026   4.378   2.347 -0.8507 -0.5832 -0.7064
 1847SOL    HW217004   1.018   4.359   2.206  0.0371  1.5525 -1.3453
 1848SOL     OW17005   0.570   0.055   1.839  0.5949  0.1295 -0.6072
 1848SOL    HW117006   0.626   4.712   1.873 -0.1571 -1.4927 -2.6273
 1848SOL    HW217007   0.499   0.003   1.802  1.0900 -0.1617 -1.1541
 1849SOL     OW17008   3.323   1.447   1.581 -0.3620 -0.8875  0.0649
 1849SOL    HW117009   3.276   1.498   1.515  1.1801  1.1428  0.5287
 1849SOL    HW217010   3.286   1.360   1.567  0.4660 -1.1057 -0.7933
 1850SOL     OW17011   2.015   1.712   5.197 -0.1972  0.2972 -1.1713
 1850SOL    HW117012   1.960   1.679   5.126 -0.4265 -1.7397 -0.0513
 1850SOL    HW217013   1.949   1.711   5.265  0.8900  1.7179 -0.1001
 1851SOL     OW17014   1.198   3.166   4.169 -0.1750 -0.5225 -0.2146
 1851SOL    HW117015   1.273   3.109   4.184 -0.6576 -1.1249 -0.0800
 1851SOL    HW217016   1.228   3.218   4.094  3.0096 -0.1315  1.3283
 1852SOL     OW17017   3.156   3.860   8.200 -0.3423 -0.0953 -0.1629
 1852SOL    HW117018   3.075   3.818   8.170 -0.4268 -1.6005  2.0872
 1852SOL    HW217019   3.126   3.896   8.283  1.9413  0.3714  0.4563
 1853SOL     OW17020   1.378   3.117   7.887 -0.3475  0.1968  0.2393
 1853SOL    HW117021   1.320   3.065   7.832 -0.0340 -1.7822  1.7733
 1853SOL    HW217022   1.460   3.113   7.837  0.5214  0.5227  1.6199
 1854SOL     OW17023   1.273   1.220   4.604  0.2186 -0.0317  0.1003
 1854SOL    HW117024   1.246   1.219   4.696 -1.0062 -0.9444 -0.2647
 1854SOL    HW217025   1.290   1.312   4.584  0.6434  0.0594  0.8596
 1855SOL     OW17026   4.004   1.945   2.648  0.6374  0.1572 -0.4568
 1855SOL    HW117027   4.026   2.031   2.614 -0.9012  1.2935  1.4178
 1855SOL    HW217028   3.916   1.959   2.684  1.6079  1.7146  1.2708
 1856SOL     OW17029   1.534   1.253   4.945  0.3339 -0.1012 -0.1904
 1856SOL    HW117030   1.508   1.184   5.006 -0.2347 -1.1772 -1.6809
 1856SOL    HW217031   1.552   1.196   4.871  2.1606  1.5813 -1.0427
 1857SOL     OW17032   2.684   4.131   5.338  0.6623 -0.0677  0.5138
 1857SOL    HW117033   2.755   4.190   5.365 -0.9034  1.9220  0.3391
 1857SOL    HW217034   2.612   4.194   5.333  0.1581 -0.8436 -1.8115
 1858SOL     OW17035   0.848   0.946   7.660 -0.2417 -0.3680  0.2064
 1858SOL    HW117036   0.823   1.015   7.599  1.6035  1.2513  1.2629
 1858SOL    HW217037   0.829   0.873   7.601  0.6172 -1.7291  1.6010
 1859SOL     OW17038   4.110   3.629   8.522 -0.2591 -0.5205 -0.3155
 1859SOL    HW117039   4.066   3.681   8.455 -0.0350 -0.4648 -0.4194
 1859SOL    HW217040   4.036   3.599   8.574 -0.3456  1.5744  0.7827
 1860SOL     OW17041   2.905   0.218   9.429 -0.2285  0.8759 -0.5776
 1860SOL    HW117042   2.871   0.225   9.340  0.0210  1.1726 -0.6478
 1860SOL    HW217043   2.977   0.281   9.431  3.4678 -3.3238  0.5245
 1861SOL     OW17044   3.083   1.813   1.891 -0.2780  0.0325 -0.0861
 1861SOL    HW117045   3.005   1.767   1.922 -1.2932  0.8605 -1.4134
 1861SOL    HW217046   3.159   1.781   1.939  0.5510  2.5958  0.3204
 1862SOL     OW17047   1.332   2.482   8.611 -0.0490  0.4606 -0.1740
 1862SOL    HW117048   1.304   2.569   8.582  0.8690  1.3614  1.6014
 1862SOL    HW217049   1.344   2.497   8.705 -1.3492  4.5304 -0.6519
 1863SOL     OW17050   2.046   2.789   0.664 -0.2768 -0.4094  0.1775
 1863SOL    HW117051   1.956   2.769   0.688 -1.6026  2.2006 -2.5937
 1863SOL    HW217052   2.055   2.871   0.713 -2.2510 -0.2591  0.2750
 1864SOL     OW17053   2.776   4.407   9.988 -0.1704 -0.0524 -0.2055
 1864SOL    HW117054   2.840   4.427  10.056 -1.6140  0.5770  0.9790
 1864SOL    HW217055   2.770   4.492   9.943 -1.2648  1.2961  2.4609
 1865SOL     OW17056   2.079   1.699   8.461 -0.2842 -0.2046  0.4789
 1865SOL    HW117057   2.113   1.705   8.551  0.7599 -0.3975  0.0955
 1865SOL    HW217058   2.154   1.682   8.405 -1.4927 -1.1556 -0.8475
 1866SOL     OW17059   3.870   3.426  12.548 -0.0532  0.3281  0.0230
 1866SOL    HW117060   3.927   3.351  12.530  1.5160  1.5960 -0.2698
 1866SOL    HW217061   3.815   3.395  12.619 -1.4775  2.0557 -0.3112
 1867SOL     OW17062   3.389   0.153   2.652 -0.0515  0.1965 -0.1411
 1867SOL    HW117063   3.337   0.091   2.701  1.1558  0.0759  0.9807
 1867SOL    HW217064   3.429   0.205   2.721 -2.0947  2.0729 -0.3797
 1868SOL     OW17065   4.278   0.889   8.782 -0.4138 -0.1005  0.8754
 1868SOL    HW117066   4.328   0.969   8.770 -2.2423  0.3790 -3.4680
 1868SOL    HW217067   4.218   0.903   8.855  0.5551 -1.3185  1.8976
 1869SOL     OW17068   1.655   0.892   7.401 -0.5936 -0.3352  0.0611
 1869SOL    HW117069   1.709   0.903   7.479  0.7655 -0.5913 -0.8331
 1869SOL    HW217070   1.636   0.800   7.381  0.9857 -0.2487 -1.9289
 1870SOL     OW17071   2.342   1.665   4.286 -0.5312  0.3565 -0.9449
 1870SOL    HW117072   2.320   1.638   4.197  2.9029  0.6612 -1.8875
 1870SOL    HW217073   2.269   1.636   4.341 -0.5631 -0.9832 -1.7063
 1871SOL     OW17074   4.556   3.335  12.096  0.1964 -0.0628 -0.3156
 1871SOL    HW117075   4.617   3.278  12.143  0.4430  0.6507  0.2216
 1871SOL    HW217076   4.611   3.382  12.034 -0.5673 -0.2228 -1.1148
 1872SOL     OW17077   4.632   1.744  11.495  0.0277  0.1968 -0.0534
 1872SOL    HW117078   4.542   1.747  11.528  0.0232  0.5120 -0.0881
 1872SOL    HW217079   4.675   1.703  11.571 -1.6607 -0.1123  0.7338
 1873SOL     OW17080   1.428   1.750   6.097 -0.2115  0.1909  0.7655
 1873SOL    HW117081   1.484   1.761   6.174  1.3654  1.0204 -0.4903
 1873SOL    HW217082   1.379   1.670   6.115 -1.1425  0.0663 -2.3452
 1874SOL     OW17083   1.113   4.031   4.057 -0.5003 -0.6711  0.4449
 1874SOL    HW117084   1.153   4.045   3.971  0.3706  1.7644  1.2530
 1874SOL    HW217085   1.155   3.952   4.090  0.3853  0.1316  1.2304
 1875SOL     OW17086   4.064   4.231   1.656  0.2604 -0.3912  0.0424
 1875SOL    HW117087   4.143   4.229   1.602  0.6830  0.0255  0.6306
 1875SOL    HW217088   4.027   4.143   1.650 -1.5014  0.1386  3.1082
 1876SOL     OW17089   1.571   1.629  15.347  0.3539  0.1977  0.2690
 1876SOL    HW117090   1.485   1.592  15.327  0.3450  0.2349  0.2375
 1876SOL    HW217091   1.538   1.707  15.391 -0.9624  0.9689 -2.0516
 1877SOL     OW17092   1.582   2.367   4.226 -0.4532  0.1271  0.0762
 1877SOL    HW117093   1.617   2.445   4.184 -0.1930 -0.5453 -0.9431
 1877SOL    HW217094   1.658   2.314   4.205 -2.5856 -2.3915 -1.3730
 1878SOL     OW17095   2.686   1.951   5.756 -0.1856 -0.0169  0.4745
 1878SOL    HW117096   2.717   1.992   5.675 -1.0950 -1.7172 -0.7091
 1878SOL    HW217097   2.762   1.899   5.782 -0.3997  0.2486  1.6241
 1879SOL     OW17098   2.211   3.421   7.272 -0.0872  0.0344  0.5146
 1879SOL    HW117099   2.261   3.411   7.191 -0.2206  2.5549  0.1188
 1879SOL    HW217100   2.153   3.346   7.266  0.9171 -0.6685 -0.2816
 1880SOL     OW17101   3.215   3.451  11.001 -0.2647  0.1831 -0.1282
 1880SOL    HW117102   3.174   3.404  10.928  0.0251 -1.5521  0.8242
 1880SOL    HW217103   3.195   3.395  11.076 -1.7321 -0.2402 -0.8265
 1881SOL     OW17104   0.721   2.876  12.383  0.1387 -0.0593 -0.0326
 1881SOL    HW117105   0.669   2.817  12.329 -0.3309 -0.2834  0.6595
 1881SOL    HW217106   0.786   2.809  12.400  1.1558  0.9991  0.2889
 1882SOL     OW17107   2.802   3.947   7.695 -0.0079  0.3599 -0.1721
 1882SOL    HW117108   2.743   4.021   7.690  1.2871  1.4651  0.7341
 1882SOL    HW217109   2.843   3.956   7.609 -0.2252 -0.6305 -0.3779
 1883SOL     OW17110   1.043   1.749   6.623 -0.7010 -0.1892  0.3222
 1883SOL    HW117111   1.015   1.672   6.574  0.4590  1.4658 -2.9520
 1883SOL    HW217112   0.990   1.815   6.579  2.0893 -0.4581 -3.3901
 1884SOL     OW17113   2.436   3.170   5.487 -0.1923 -0.6345  0.2162
 1884SOL    HW117114   2.437   3.117   5.567 -2.0764 -0.8788  0.0741
 1884SOL    HW217115   2.419   3.256   5.526  2.4176  0.0630 -0.1818
 1885SOL     OW17116   1.682   0.159   3.205  0.3052  0.3951  0.2863
 1885SOL    HW117117   1.657   0.252   3.208  1.7334  0.7254  1.6942
 1885SOL    HW217118   1.673   0.143   3.111  0.8721  1.5482  0.0289
 1886SOL     OW17119   2.874   1.784   3.014 -0.4106  0.5415 -0.0099
 1886SOL    HW117120   2.780   1.765   3.020  0.1955 -1.6479  2.8088
 1886SOL    HW217121   2.884   1.828   2.930 -0.0223  1.2969  0.4319
 1887SOL     OW17122   3.812   3.832   7.387  0.2382 -0.1039 -0.1793
 1887SOL    HW117123   3.725   3.816   7.423 -0.3309  1.3709 -0.9163
 1887SOL    HW217124   3.793   3.877   7.305 -1.9101  1.5763  1.2605
 1888SOL     OW17125   2.326   3.201  10.766 -0.0248  0.5164  0.3313
 1888SOL    HW117126   2.328   3.214  10.671  1.0035 -1.5487  0.0841
 1888SOL    HW217127   2.365   3.116  10.783 -1.0238 -0.1835 -0.8314
 1889SOL     OW17128   1.764   1.104  11.269  0.0228 -0.5227 -0.3159
 1889SOL    HW117129   1.701   1.102  11.341  0.0938  0.4807 -0.2286
 1889SOL    HW217130   1.754   1.191  11.233  1.2327 -0.4077 -0.3929
 1890SOL     OW17131   4.121   1.867   8.412 -0.0214 -0.3814  0.6591
 1890SOL    HW117132   4.141   1.837   8.323 -3.7645  0.0604 -0.3096
 1890SOL    HW217133   4.166   1.951   8.415 -2.2841  0.8576 -0.1289
 1891SOL     OW17134   3.429   3.549   0.839  0.1397 -0.2629 -0.5054
 1891SOL    HW117135   3.501   3.493   0.807  0.7384 -0.1435  0.6105
 1891SOL    HW217136   3.444   3.544   0.933  0.0841 -1.7297 -0.5725
 1892SOL     OW17137   0.164   0.563   1.573  0.3245 -0.0943 -0.5559
 1892SOL    HW117138   0.083   0.612   1.555  0.4659  1.1566  2.2299
 1892SOL    HW217139   0.155   0.530   1.662  1.6796 -1.4283 -0.9174
 1893SOL     OW17140   4.354   4.217   4.678 -0.4564  0.2150 -0.3025
 1893SOL    HW117141   4.389   4.304   4.657 -2.3212  1.2405  0.8378
 1893SOL    HW217142   4.296   4.192   4.606  1.7179  0.1822 -2.0116
 1894SOL     OW17143   1.172   4.036   7.285 -0.2108 -0.0318 -0.0977
 1894SOL    HW117144   1.219   3.968   7.332 -1.4998 -1.9317 -1.5144
 1894SOL    HW217145   1.188   4.004   7.196  0.7894 -0.1490  0.1254
 1895SOL     OW17146   2.369   3.875   2.512 -0.3619 -0.8343  0.7996
 1895SOL    HW117147   2.418   3.796   2.490 -0.8461 -0.1039 -2.8564
 1895SOL    HW217148   2.437   3.916   2.566 -0.1798  0.2071 -0.2324
 1896SOL     OW17149   4.239   3.093   5.333  0.3426  0.4241  0.3396
 1896SOL    HW117150   4.297   3.133   5.397 -0.0348 -2.0489  2.2220
 1896SOL    HW217151   4.190   3.039   5.395  0.1812  0.0140 -0.1421
 1897SOL     OW17152   3.556   4.633  11.441  0.2315  0.6845  0.6396
 1897SOL    HW117153   3.620   4.700  11.417 -2.7657  1.7515 -4.3135
 1897SOL    HW217154   3.494   4.645  11.369  1.7823 -1.0248 -1.0136
 1898SOL     OW17155   3.501   3.683  14.496 -0.3557 -0.0461  0.1788
 1898SOL    HW117156   3.468   3.717  14.579 -1.3210  0.8344 -0.5661
 1898SOL    HW217157   3.437   3.723  14.437  0.8657 -1.0256 -1.7967
 1899SOL     OW17158   2.841   0.192  11.484  0.6300 -0.5118  0.1019
 1899SOL    HW117159   2.846   0.104  11.446  0.8274 -0.3188 -0.3232
 1899SOL    HW217160   2.924   0.230  11.456  0.2714  0.4460  0.3664
 1900SOL     OW17161   4.123   0.015   2.286 -0.0948 -0.6375  0.2413
 1900SOL    HW117162   4.031   0.014   2.312 -0.0119 -0.6656  0.5427
 1900SOL    HW217163   4.115   4.678   2.214  0.3393  0.0589 -0.4116
 1901SOL     OW17164   4.198   0.517   2.291 -0.4109  0.3427  0.0074
 1901SOL    HW117165   4.196   0.435   2.342  0.2431 -0.0584 -0.6092
 1901SOL    HW217166   4.106   0.535   2.308 -0.7473 -1.1241 -0.2657
 1902SOL     OW17167   4.303   2.235   3.630  0.2398 -0.0748 -0.2873
 1902SOL    HW117168   4.362   2.276   3.693 -3.0382  1.1994  1.9536
 1902SOL    HW217169   4.361   2.190   3.568 -0.1980  0.1335 -0.8410
 1903SOL     OW17170   1.823   2.562  13.393 -0.3366 -0.0006  0.8150
 1903SOL    HW117171   1.829   2.479  13.345  0.7912 -0.1588  1.2261
 1903SOL    HW217172   1.767   2.609  13.331  0.6798  0.6816  0.4029
 1904SOL     OW17173   1.278   0.416   4.912 -0.0656 -0.0932 -0.0517
 1904SOL    HW117174   1.331   0.346   4.950  0.2493  0.0780 -0.1749
 1904SOL    HW217175   1.291   0.399   4.819  2.7101 -2.5471  0.7724
 1905SOL     OW17176   4.301   2.709   5.104 -0.3514  0.2633  0.5486
 1905SOL    HW117177   4.387   2.721   5.146 -0.1746 -0.2432  0.3210
 1905SOL    HW217178   4.316   2.647   5.033  1.6607  0.7855  0.5039
 1906SOL     OW17179   4.411   2.590   7.409  0.8972  0.1021  0.1100
 1906SOL    HW117180   4.319   2.616   7.409  1.3467  1.5926  2.9558
 1906SOL    HW217181   4.403   2.518   7.471 -1.5015 -1.8148 -2.4358
 1907SOL     OW17182   0.124   3.250   2.814 -0.1924  0.2496  0.8537
 1907SOL    HW117183   0.059   3.184   2.787  1.0502 -0.2284 -0.9944
 1907SOL    HW217184   0.196   3.196   2.846  1.1205  0.7794 -1.1982
 1908SOL     OW17185   3.443   0.777   1.451  0.1632  0.1224 -0.2919
 1908SOL    HW117186   3.493   0.698   1.432 -0.0610 -0.2760  0.7995
 1908SOL    HW217187   3.390   0.752   1.527  0.9070  2.5621  1.0200
 1909SOL     OW17188   3.153   4.157   8.327  0.7587 -0.1219  0.1956
 1909SOL    HW117189   3.186   4.182   8.241  0.4022  0.1688  0.1435
 1909SOL    HW217190   3.204   4.207   8.390  0.2953 -0.0907  0.5506
 1910SOL     OW17191   0.430   4.416  13.526 -0.4714 -0.1805  0.1930
 1910SOL    HW117192   0.477   4.417  13.609  0.5547  0.8902 -0.3953
 1910SOL    HW217193   0.493   4.454  13.465 -0.6482 -0.6855 -0.3051
 1911SOL     OW17194   0.955   0.913   9.388 -0.2444 -0.1158 -0.2811
 1911SOL    HW117195   0.942   0.986   9.328 -0.3032 -0.0338 -0.1690
 1911SOL    HW217196   1.016   0.863   9.333 -1.3088 -1.3831 -0.3191
 1912SOL     OW17197   2.234   0.586   0.402 -0.1974  0.3388 -0.3481
 1912SOL    HW117198   2.202   0.668   0.365 -1.2260  0.5133  0.9238
 1912SOL    HW217199   2.157   0.554   0.450 -0.8808  2.2158 -0.2034
 1913SOL     OW17200   2.362   4.212  16.550  0.3007  0.6635  0.3601
 1913SOL    HW117201   2.400   4.289  16.508  2.8589 -0.2931  0.9757
 1913SOL    HW217202   2.407   4.214  16.634 -0.2320  1.6511  0.6128
 1914SOL     OW17203   0.609   2.356   8.474 -0.3559 -0.6283  0.1891
 1914SOL    HW117204   0.622   2.439   8.520 -0.1850 -0.8241  0.4908
 1914SOL    HW217205   0.583   2.385   8.386 -0.3605 -1.3672 -0.0535
 1915SOL     OW17206   3.937   4.292   7.275 -0.2736  0.3517  0.0732
 1915SOL    HW117207   3.982   4.332   7.350 -2.1999  2.4454  0.1038
 1915SOL    HW217208   3.863   4.265   7.330  0.6728 -0.0130  1.1754
 1916SOL     OW17209   0.836   0.440   3.758  0.3859 -0.1770  0.0668
 1916SOL    HW117210   0.862   0.412   3.671 -1.5169  0.9203 -0.8458
 1916SOL    HW217211   0.767   0.378   3.780  1.7887 -2.7076 -2.6458
 1917SOL     OW17212   1.618   0.882   2.902 -0.1446 -0.0104 -0.4341
 1917SOL    HW117213   1.663   0.938   2.840 -0.2025  2.7452  2.0027
 1917SOL    HW217214   1.555   0.835   2.847 -1.5981  0.2328  0.9934
 1918SOL     OW17215   3.734   0.979   5.261 -0.0996  0.0167  0.2784
 1918SOL    HW117216   3.774   1.065   5.247 -0.1695  0.0208  0.0966
 1918SOL    HW217217   3.641   0.998   5.249  0.4643  1.0774 -2.5086
 1919SOL     OW17218   0.237   2.841  15.705  0.4789 -0.1928 -0.4719
 1919SOL    HW117219   0.321   2.808  15.673  0.1318 -2.5640  1.0823
 1919SOL    HW217220   0.204   2.887  15.627 -0.9164 -1.4002 -0.6145
 1920SOL     OW17221   2.306   4.698  10.271 -0.0536 -0.5331  0.4409
 1920SOL    HW117222   2.319   0.001  10.361  0.4944  1.1237 -0.1780
 1920SOL    HW217223   2.289   4.604  10.274 -1.6905 -0.2477 -0.0667
 1921SOL     OW17224   3.163   0.867   1.722 -0.1919  0.0619  0.0535
 1921SOL    HW117225   3.114   0.927   1.665 -2.1986 -0.8638  0.7926
 1921SOL    HW217226   3.171   0.911   1.806  0.6183 -0.5891  0.3114
 1922SOL     OW17227   0.965   1.540   5.595 -0.2046 -0.2184  0.3723
 1922SOL    HW117228   0.929   1.509   5.678  1.2064  0.1367  1.1240
 1922SOL    HW217229   1.058   1.515   5.597  0.2177  1.3935  1.0600
 1923SOL     OW17230   1.987   1.348   6.368  0.4155  0.6771  0.0085
 1923SOL    HW117231   1.994   1.353   6.273 -0.5333 -0.6021 -0.1362
 1923SOL    HW217232   1.891   1.352   6.376  0.4916  1.9438  0.2328
 1924SOL     OW17233   2.637   4.337   5.613  0.4824 -0.6678  0.0529
 1924SOL    HW117234   2.706   4.272   5.602  0.5518 -0.3444 -1.4750
 1924SOL    HW217235   2.652   4.356   5.706  0.6417 -0.5505  0.0032
 1925SOL     OW17236   2.542   1.314  10.822  0.2467  0.0955 -0.0022
 1925SOL    HW117237   2.628   1.323  10.862  0.4377  2.6408 -0.9907
 1925SOL    HW217238   2.554   1.273  10.736 -2.4901 -0.9015  0.1084
 1926SOL     OW17239   1.726   0.999   3.705 -0.4254 -0.4994  0.7717
 1926SOL    HW117240   1.752   0.915   3.742  2.2919  0.3519  0.7805
 1926SOL    HW217241   1.694   0.963   3.623 -1.7438 -1.3132  1.6325
 1927SOL     OW17242   4.556   3.804   5.992  0.0561  0.1557  0.5764
 1927SOL    HW117243   4.525   3.795   6.082 -0.0289  1.0843  0.6389
 1927SOL    HW217244   4.503   3.741   5.944 -0.9224  0.3827  1.3667
 1928SOL     OW17245   1.334   2.060   1.657  0.2964  0.1655  0.3358
 1928SOL    HW117246   1.304   2.145   1.624  0.9242 -0.1493 -1.0682
 1928SOL    HW217247   1.269   2.030   1.720 -1.0361 -0.4973 -1.3330
 1929SOL     OW17248   1.511   2.351   3.716  0.3890 -0.1051  0.1471
 1929SOL    HW117249   1.500   2.304   3.799  0.0489  1.0699  0.7712
 1929SOL    HW217250   1.510   2.279   3.653 -1.4131  1.9384 -2.1565
 1930SOL     OW17251   3.714   2.441   3.439  0.2138  0.5796 -0.9910
 1930SOL    HW117252   3.756   2.453   3.524 -0.8730  1.3328 -0.5569
 1930SOL    HW217253   3.629   2.400   3.451  0.5583  0.1822  0.0990
 1931SOL     OW17254   1.609   4.189   6.559 -0.0293  0.8766  0.1567
 1931SOL    HW117255   1.659   4.248   6.503 -0.9217  1.1386 -0.3708
 1931SOL    HW217256   1.622   4.103   6.518 -0.6799  1.5422 -1.4745
 1932SOL     OW17257   0.812   1.492   3.046 -0.3086  0.2248  0.1659
 1932SOL    HW117258   0.869   1.504   3.122  0.0497  3.1820 -0.5838
 1932SOL    HW217259   0.744   1.555   3.069 -1.7042 -1.3685  0.4386
 1933SOL     OW17260   3.643   4.456   7.657  0.1468  0.2677 -0.6196
 1933SOL    HW117261   3.608   4.370   7.683  1.5782 -0.7058 -1.9636
 1933SOL    HW217262   3.566   4.511   7.666  0.0819  0.6767 -3.8973
 1934SOL     OW17263   0.178   3.527   5.955  0.0437 -0.9061 -0.3082
 1934SOL    HW117264   0.139   3.517   6.041  1.1836  0.4110  0.3659
 1934SOL    HW217265   0.251   3.465   5.962  0.7739  0.1246  1.1360
 1935SOL     OW17266   0.363   3.553   4.988  0.2506  0.7317 -0.0238
 1935SOL    HW117267   0.364   3.647   4.975  0.8726  1.0706  2.4926
 1935SOL    HW217268   0.326   3.515   4.908 -0.0862  1.5873 -0.2661
 1936SOL     OW17269   0.095   4.428  16.260  0.2496 -0.0459  0.5921
 1936SOL    HW117270   0.017   4.481  16.246  0.1501 -0.7737 -1.5863
 1936SOL    HW217271   0.073   4.352  16.207  0.3114  1.3536 -1.4354
 1937SOL     OW17272   3.421   3.193   0.937  0.0918  0.0131 -0.5867
 1937SOL    HW117273   3.342   3.220   0.890 -0.0505 -0.8281 -0.8269
 1937SOL    HW217274   3.484   3.245   0.886 -1.0299  1.3470 -0.6003
 1938SOL     OW17275   4.175   1.318  10.953  0.4299  0.0175 -0.3711
 1938SOL    HW117276   4.174   1.273  10.868  0.7525  2.0806 -1.4537
 1938SOL    HW217277   4.090   1.304  10.995 -0.7728  0.7507 -2.5887
 1939SOL     OW17278   3.727   3.816   1.196 -0.4355 -0.1741 -0.5081
 1939SOL    HW117279   3.669   3.866   1.254 -1.6102  0.1658 -2.0125
 1939SOL    HW217280   3.745   3.739   1.251  1.8176  0.5545 -0.2019
 1940SOL     OW17281   0.108   3.188  14.416 -0.5274  0.7193 -0.1293
 1940SOL    HW117282   0.037   3.187  14.352  0.2501 -0.5342 -0.9624
 1940SOL    HW217283   0.098   3.098  14.446  0.4030  0.4709 -0.5844
 1941SOL     OW17284   4.286   0.552   8.639 -0.4779  0.6899 -0.0466
 1941SOL    HW117285   4.317   0.503   8.716 -1.3408  2.3150  1.3357
 1941SOL    HW217286   4.371   0.553   8.595 -0.5524 -1.7336 -0.2665
 1942SOL     OW17287   3.152   1.076  11.757  0.7981 -0.0113  0.4275
 1942SOL    HW117288   3.114   1.164  11.754 -0.3432 -0.5465 -0.6569
 1942SOL    HW217289   3.224   1.098  11.698  0.1615 -0.8808 -0.6620
 1943SOL     OW17290   3.469   0.902   6.996 -0.2923 -0.4079 -0.2420
 1943SOL    HW117291   3.414   0.878   6.921  0.1819 -1.2143 -0.3340
 1943SOL    HW217292   3.411   0.953   7.053  1.7572  0.8484  0.7266
 1944SOL     OW17293   3.853   2.669   3.851 -0.2687  0.6877 -0.1249
 1944SOL    HW117294   3.906   2.633   3.922  0.2452  0.0345 -0.8401
 1944SOL    HW217295   3.844   2.594   3.791  0.1357  0.0076  0.6666
 1945SOL     OW17296   3.367   4.719   3.112 -0.0202  0.2806  0.0127
 1945SOL    HW117297   3.324   0.000   3.027 -1.1649 -1.3720  0.4581
 1945SOL    HW217298   3.359   0.084   3.141 -4.1712 -0.3255  0.8317
 1946SOL     OW17299   0.313   1.164  15.425  0.1602  0.1638  0.7821
 1946SOL    HW117300   0.368   1.099  15.382 -0.4233  0.3428 -0.2209
 1946SOL    HW217301   0.307   1.130  15.515 -0.8302  0.6690  0.9028
 1947SOL     OW17302   3.909   1.756   6.185 -0.5679 -0.3346 -0.2376
 1947SOL    HW117303   3.839   1.717   6.132 -0.3532 -0.4067 -0.4676
 1947SOL    HW217304   3.912   1.839   6.138  0.0274  0.0526  0.4973
 1948SOL     OW17305   3.375   1.683   1.291  0.3520 -0.1390  0.4699
 1948SOL    HW117306   3.420   1.761   1.325  1.3184 -0.7573  0.6058
 1948SOL    HW217307   3.282   1.706   1.287  0.2250 -0.8083 -0.2619
 1949SOL     OW17308   4.063   0.187   4.387 -0.0176  0.0133  0.1909
 1949SOL    HW117309   3.987   0.245   4.373 -0.5938 -1.1540 -1.4195
 1949SOL    HW217310   4.134   0.245   4.416 -0.4322  0.1641  0.9120
 1950SOL     OW17311   0.745   3.270   8.646 -0.3706 -0.5881 -0.4650
 1950SOL    HW117312   0.678   3.221   8.694 -1.1674  1.2745  0.3359
 1950SOL    HW217313   0.783   3.327   8.713 -0.7355 -1.2347  0.2892
 1951SOL     OW17314   3.601   4.045  16.053  0.4044  0.4403  0.2037
 1951SOL    HW117315   3.552   4.007  16.127 -2.2432  0.4728 -1.5273
 1951SOL    HW217316   3.677   3.988  16.064  0.0150 -0.0444  0.3868
 1952SOL     OW17317   1.660   3.196   9.729  0.8690 -0.5018  0.0086
 1952SOL    HW117318   1.621   3.275   9.691 -1.7411 -1.8777 -0.2200
 1952SOL    HW217319   1.664   3.214   9.823 -0.3011  0.3591 -0.0956
 1953SOL     OW17320   3.631   1.732   6.523  0.1375  0.2958 -0.2150
 1953SOL    HW117321   3.718   1.731   6.562  0.6784  1.1317 -1.4138
 1953SOL    HW217322   3.660   1.779   6.445  0.2683 -1.8873 -1.4691
 1954SOL     OW17323   0.296   1.736  17.406  1.3655  0.2221  0.0631
 1954SOL    HW117324   0.229   1.687  17.454  3.0609 -0.6994  1.5188
 1954SOL    HW217325   0.347   1.661  17.375  0.3804  0.3817 -1.9337
 1955SOL     OW17326   1.433   0.987   5.082  0.0133  0.0391 -0.5306
 1955SOL    HW117327   1.345   0.969   5.050 -0.5934  2.0825  0.0256
 1955SOL    HW217328   1.478   0.922   5.028  0.0421  0.9233 -1.5694
 1956SOL     OW17329   1.057   2.168   9.037 -0.1302 -0.1612 -0.4166
 1956SOL    HW117330   1.126   2.214   9.086 -0.1250 -1.2248  0.5811
 1956SOL    HW217331   1.065   2.178   8.942 -1.3342  0.3810 -0.4639
 1957SOL     OW17332   1.471   3.387   8.742 -0.4921 -0.0162 -0.3161
 1957SOL    HW117333   1.412   3.436   8.799 -0.1038  0.3097 -0.1983
 1957SOL    HW217334   1.551   3.381   8.793 -0.6149  0.2248 -0.0949
 1958SOL     OW17335   4.478   1.878  11.877 -0.1909  0.6914 -0.5807
 1958SOL    HW117336   4.544   1.882  11.946 -0.9105  1.7371  0.0406
 1958SOL    HW217337   4.453   1.970  11.875 -0.8061  0.5233 -0.6657
 1959SOL     OW17338   1.407   4.454   6.039  0.0744 -0.2075  0.4373
 1959SOL    HW117339   1.325   4.407   6.023 -0.6236  0.3124  2.3811
 1959SOL    HW217340   1.420   4.448   6.134  1.4576 -2.2060  0.1058
 1960SOL     OW17341   2.846   2.005   3.214 -0.3403  0.0174 -0.3410
 1960SOL    HW117342   2.799   1.922   3.226  0.4768 -0.0339  2.4351
 1960SOL    HW217343   2.778   2.069   3.234 -1.4371 -0.1054 -3.6259
 1961SOL     OW17344   1.953   1.192   3.443  0.0010 -0.6330 -0.1134
 1961SOL    HW117345   1.907   1.275   3.426 -0.7760 -0.6169  2.0448
 1961SOL    HW217346   2.037   1.230   3.469 -0.5060  1.6303 -1.7215
 1962SOL     OW17347   1.759   2.297  16.932 -0.5625  0.2883  0.0505
 1962SOL    HW117348   1.824   2.319  16.999 -0.4524  0.5619 -0.1468
 1962SOL    HW217349   1.818   2.290  16.857  0.7974 -5.4771  1.6552
 1963SOL     OW17350   0.895   1.226  14.646  0.3499  0.2109  0.3978
 1963SOL    HW117351   0.909   1.139  14.607 -2.0676 -0.7274  1.6703
 1963SOL    HW217352   0.908   1.275  14.565 -0.4629 -0.3358 -0.0596
 1964SOL     OW17353   2.525   1.101   3.796  0.3727 -0.0730  0.1644
 1964SOL    HW117354   2.591   1.042   3.760  0.0966 -0.8538  0.9537
 1964SOL    HW217355   2.542   1.091   3.889  0.2356 -0.9758  0.0923
 1965SOL     OW17356   4.024   0.629   1.713 -0.4762 -0.0760  0.4492
 1965SOL    HW117357   4.095   0.570   1.740 -2.5781 -2.0441  1.7015
 1965SOL    HW217358   3.955   0.563   1.706 -0.1233 -0.2493 -1.2668
 1966SOL     OW17359   0.715   3.527  15.491  0.0678  0.5414  0.2464
 1966SOL    HW117360   0.627   3.564  15.495  0.8065  2.2976  0.3147
 1966SOL    HW217361   0.707   3.450  15.435  2.2608  1.0630 -0.7786
 1967SOL     OW17362   4.230   1.326   6.850 -0.3342 -0.0103  0.3959
 1967SOL    HW117363   4.146   1.304   6.889 -0.9661 -1.1974 -1.6393
 1967SOL    HW217364   4.282   1.352   6.926 -1.3969  2.2592  0.3546
 1968SOL     OW17365   4.084   0.950   0.577 -0.2533 -0.0128  0.7811
 1968SOL    HW117366   4.023   1.000   0.632 -0.2967  0.3448  0.4067
 1968SOL    HW217367   4.127   0.887   0.634 -3.4900 -2.0291  1.0204
 1969SOL     OW17368   0.027   3.847   5.810 -0.1108  0.2238 -0.1785
 1969SOL    HW117369   4.677   3.821   5.862  1.0720 -0.5426  1.1537
 1969SOL    HW217370   0.057   3.912   5.873 -0.3078 -1.8077  1.9901
 1970SOL     OW17371   2.976   0.578   8.817 -0.2635 -0.2453 -0.2878
 1970SOL    HW117372   2.958   0.532   8.898 -0.7175 -2.1028 -1.4338
 1970SOL    HW217373   2.904   0.641   8.813  0.3506  0.4450 -0.6654
 1971SOL     OW17374   4.099   0.096   3.670  0.1129 -0.1857  0.0146
 1971SOL    HW117375   4.123   0.091   3.578  0.9157  1.2339  0.1543
 1971SOL    HW217376   4.129   0.183   3.696 -0.4289  0.0897 -0.3082
 1972SOL     OW17377   1.223   0.647   0.517 -0.1195  0.2954 -0.2876
 1972SOL    HW117378   1.128   0.638   0.506 -0.3319  1.5862  0.4756
 1972SOL    HW217379   1.240   0.577   0.454  0.3361 -1.1115  1.3949
 1973SOL     OW17380   2.751   0.207   4.950  0.2511  0.0243  0.2539
 1973SOL    HW117381   2.775   0.211   5.042 -0.6212  2.3614  0.3749
 1973SOL    HW217382   2.807   0.273   4.909  0.0780 -1.0668 -1.7627
 1974SOL     OW17383   3.546   1.979   8.403  0.0536 -0.0997  0.7500
 1974SOL    HW117384   3.556   1.885   8.391  3.3250  0.2638  0.4595
 1974SOL    HW217385   3.509   1.974   8.491 -0.5416  0.2950  0.5194
 1975SOL     OW17386   3.366   1.008   9.020  0.5098  0.5168  0.2957
 1975SOL    HW117387   3.439   0.998   9.081  0.6385 -1.3649 -0.1759
 1975SOL    HW217388   3.396   0.966   8.940 -0.1186  0.1740  0.2377
 1976SOL     OW17389   4.429   3.562   8.329  0.9385 -0.1699  0.3717
 1976SOL    HW117390   4.509   3.569   8.277 -0.1464 -1.3548 -1.4452
 1976SOL    HW217391   4.408   3.655   8.333  0.0778 -0.2074 -3.3582
 1977SOL     OW17392   2.914   2.343  11.274 -0.4085  0.1699  0.1947
 1977SOL    HW117393   2.914   2.420  11.218  0.3808 -0.1151 -0.2021
 1977SOL    HW217394   2.843   2.300  11.226  1.2220 -1.2406 -0.9342
 1978SOL     OW17395   1.889   2.356   6.276 -0.2122 -0.4531  0.2582
 1978SOL    HW117396   1.875   2.444   6.241 -1.4582 -0.9331 -0.4351
 1978SOL    HW217397   1.970   2.370   6.326  0.0320  1.5347 -0.6963
 1979SOL     OW17398   2.935   0.403   3.152 -0.0324 -0.2952  0.2753
 1979SOL    HW117399   2.970   0.430   3.067  1.5144 -0.6649  0.7936
 1979SOL    HW217400   2.851   0.364   3.129  0.0749  0.6444 -1.6503
 1980SOL     OW17401   2.679   2.500  16.374  0.0799  0.5400 -0.4103
 1980SOL    HW117402   2.583   2.501  16.380  0.4067 -0.5928  5.4536
 1980SOL    HW217403   2.709   2.580  16.417  0.1184  1.4409 -2.1254
 1981SOL     OW17404   3.292   2.070   5.787 -0.4369 -0.2768  0.1791
 1981SOL    HW117405   3.271   2.163   5.776  0.1218 -0.6018 -3.3679
 1981SOL    HW217406   3.239   2.048   5.864 -0.1724 -0.1833  0.3861
 1982SOL     OW17407   4.378   3.480   5.670  0.8994 -0.1626 -0.0385
 1982SOL    HW117408   4.455   3.537   5.664  1.1065 -0.6214 -1.7969
 1982SOL    HW217409   4.328   3.512   5.595 -1.0073 -1.7062  0.5934
 1983SOL     OW17410   0.409   1.094  12.776  0.6567  0.1386  0.3714
 1983SOL    HW117411   0.473   1.136  12.833  2.8729 -1.1164 -1.2189
 1983SOL    HW217412   0.380   1.168  12.722 -2.1687 -2.6250 -1.9219
 1984SOL     OW17413   1.927   1.230  12.099 -0.0342  0.1841  0.2943
 1984SOL    HW117414   1.904   1.157  12.157  0.8227  1.3745  2.1166
 1984SOL    HW217415   1.879   1.198  12.022 -0.5292  0.2786  0.5603
 1985SOL     OW17416   0.535   3.400  10.920  0.0218  0.6189  0.0452
 1985SOL    HW117417   0.583   3.339  10.977 -0.9088  0.6243  0.8345
 1985SOL    HW217418   0.501   3.347  10.849 -1.1955  1.2637  0.1480
 1986SOL     OW17419   4.263   3.007   0.912 -0.4649 -0.3462 -0.0089
 1986SOL    HW117420   4.304   2.964   0.837 -0.7451 -0.0986 -0.3071
 1986SOL    HW217421   4.256   3.102   0.899 -1.7844 -0.4276  0.0495
 1987SOL     OW17422   0.724   2.524  11.838  0.2739  0.1272  0.5582
 1987SOL    HW117423   0.629   2.533  11.842  0.1576 -0.1214 -1.5139
 1987SOL    HW217424   0.747   2.504  11.747  2.5101  3.5858  0.3790
 1988SOL     OW17425   3.570   1.278   1.477  0.0502 -1.0628  0.3969
 1988SOL    HW117426   3.508   1.331   1.427  2.4600 -0.1593 -1.6030
 1988SOL    HW217427   3.514   1.216   1.525 -0.9081 -0.5712 -0.0916
 1989SOL     OW17428   0.344   4.491   2.523  0.1063  0.2385  0.6563
 1989SOL    HW117429   0.282   4.475   2.452  1.0714  0.8875 -0.3173
 1989SOL    HW217430   0.369   4.581   2.504 -3.1962  0.9314 -0.3349
 1990SOL     OW17431   0.394   0.038   5.865  0.0101 -0.2254 -0.0475
 1990SOL    HW117432   0.411   4.671   5.852  0.8113 -0.4215  2.3736
 1990SOL    HW217433   0.324   0.023   5.927  0.2525 -0.3729  0.1913
 1991SOL     OW17434   4.184   4.459  11.361 -0.1055  0.7139 -0.0310
 1991SOL    HW117435   4.163   4.430  11.449 -0.9347  0.6135 -0.2639
 1991SOL    HW217436   4.248   4.529  11.376  0.0433  0.1372  2.0329
 1992SOL     OW17437   3.973   2.179   9.200 -0.0992  0.4652 -0.6239
 1992SOL    HW117438   4.059   2.206   9.234 -0.2595 -1.0901  1.0200
 1992SOL    HW217439   4.001   2.197   9.111  0.1005 -0.8740 -0.8319
 1993SOL     OW17440   3.014   1.291   4.861 -0.6565 -0.5479  0.0220
 1993SOL    HW117441   2.935   1.251   4.897 -1.2427 -1.4058 -2.2544
 1993SOL    HW217442   2.980   1.349   4.793  0.4944  0.5225  0.3356
 1994SOL     OW17443   0.790   2.058   0.054 -0.3630 -0.0145 -0.5469
 1994SOL    HW117444   0.716   2.070  17.699  1.0117  0.3400 -2.1841
 1994SOL    HW217445   0.772   2.119   0.126  0.8751 -0.1870 -0.1007
 1995SOL     OW17446   4.406   0.943   1.893 -0.1208 -0.2040 -1.1184
 1995SOL    HW117447   4.318   0.927   1.858 -2.0363  2.3763  2.6311
 1995SOL    HW217448   4.409   1.028   1.937 -0.6390  0.2337 -1.9416
 1996SOL     OW17449   1.031   0.490   3.941 -0.3015 -0.0972 -0.0428
 1996SOL    HW117450   0.980   0.485   3.860 -0.8491 -0.9482  0.3501
 1996SOL    HW217451   1.124   0.486   3.917 -0.1368 -1.5483  0.8614
 1997SOL     OW17452   0.821   4.397  10.556 -0.0759  0.7576  0.0546
 1997SOL    HW117453   0.767   4.470  10.524 -0.3627 -0.4592 -2.2366
 1997SOL    HW217454   0.765   4.375  10.631 -2.7100  0.6318 -1.9238
 1998SOL     OW17455   4.495   2.558   9.146 -0.1866  0.4001 -0.3299
 1998SOL    HW117456   4.509   2.477   9.194  0.4505  0.1505 -0.9402
 1998SOL    HW217457   4.575   2.609   9.154 -0.4414  1.0970 -2.1639
 1999SOL     OW17458   0.805   0.887  14.288 -0.2284 -0.1833 -0.3726
 1999SOL    HW117459   0.881   0.833  14.310 -0.7674 -0.6683  0.2990
 1999SOL    HW217460   0.779   0.918  14.375 -2.0360  2.1315 -1.7518
 2000SOL     OW17461   4.314   1.058   3.016 -0.0623  0.5083 -0.3748
 2000SOL    HW117462   4.276   0.971   3.000  0.7299  0.1002 -0.0201
 2000SOL    HW217463   4.398   1.034   3.055  0.1666 -0.5095 -1.4901
 2001SOL     OW17464   0.859   0.883   9.050  0.2080 -0.3900 -0.2603
 2001SOL    HW117465   0.824   0.968   9.022  0.1200  0.0831  1.2874
 2001SOL    HW217466   0.792   0.850   9.109  0.3537  0.1304  0.1947
 2002SOL     OW17467   1.622   2.560   5.896  0.5735  0.3586 -0.0960
 2002SOL    HW117468   1.651   2.571   5.806 -2.5371  0.1555 -1.1539
 2002SOL    HW217469   1.536   2.521   5.878  0.8578  0.0941 -0.8925
 2003SOL     OW17470   0.416   0.003   6.911  0.0364  0.2102  0.4327
 2003SOL    HW117471   0.473   0.069   6.950  0.1880  0.5168 -0.3085
 2003SOL    HW217472   0.441   0.014   6.819 -0.6713  0.9437  0.3230
 2004SOL     OW17473   0.391   2.212   2.055 -0.0252 -0.2306 -0.3652
 2004SOL    HW117474   0.406   2.307   2.061  1.0893 -0.4820  1.0150
 2004SOL    HW217475   0.458   2.180   2.116 -1.1475  1.4961  1.7847
 2005SOL     OW17476   3.920   2.697   1.973  0.1612 -0.1107  0.0373
 2005SOL    HW117477   3.897   2.696   1.880  0.6048 -1.0401 -0.0603
 2005SOL    HW217478   3.849   2.647   2.012 -0.0354 -0.5710 -0.9094
 2006SOL     OW17479   4.230   2.070  14.916  0.7256 -0.5172  0.4697
 2006SOL    HW117480   4.305   2.014  14.896  0.0661 -1.5971  1.0489
 2006SOL    HW217481   4.269   2.154  14.940  2.3573 -0.9213 -0.7147
 2007SOL     OW17482   4.321   1.742  16.486  0.0400  0.1360  0.1091
 2007SOL    HW117483   4.346   1.834  16.494  0.7864  0.1881 -2.8535
 2007SOL    HW217484   4.270   1.752  16.406  0.3770 -2.4462 -0.4305
 2008SOL     OW17485   2.617   1.697  16.207 -0.3481  0.3129  0.2786
 2008SOL    HW117486   2.597   1.626  16.267 -0.0870  0.6329  0.7428
 2008SOL    HW217487   2.571   1.673  16.126 -0.8464 -0.1227  0.6966
 2009SOL     OW17488   0.462   0.375   1.322 -0.3136  0.1951 -0.4609
 2009SOL    HW117489   0.541   0.323   1.306  0.1105  0.5138  0.6102
 2009SOL    HW217490   0.488   0.420   1.402  1.0458  1.9313 -1.8684
 2010SOL     OW17491   4.295   1.730   0.936 -0.6818 -0.2812  0.1603
 2010SOL    HW117492   4.372   1.753   0.885 -1.0691  2.0244  0.6346
 2010SOL    HW217493   4.282   1.812   0.983  1.0348 -1.2757  2.4000
 2011SOL     OW17494   3.979   2.521   0.326  0.1434  0.0604 -0.1882
 2011SOL    HW117495   3.988   2.426   0.313 -0.7150  0.0784 -0.8356
 2011SOL    HW217496   3.919   2.530   0.400  0.4433  2.1868 -0.2152
 2012SOL     OW17497   2.406   2.058   6.442  0.1860  0.3221  0.1199
 2012SOL    HW117498   2.320   2.046   6.402  0.0759 -0.2999  0.5518
 2012SOL    HW217499   2.420   2.153   6.437 -0.5522  0.4440  0.3915
 2013SOL     OW17500   1.266   4.655   1.031  0.0980  1.0812  1.0646
 2013SOL    HW117501   1.212   4.624   1.103  0.8576 -0.1629  1.0987
 2013SOL    HW217502   1.258   0.025   1.035 -0.0697  1.1506 -0.7998
 2014SOL     OW17503   2.617   3.217   6.167 -0.5338  0.1387 -0.0961
 2014SOL    HW117504   2.704   3.250   6.144 -0.5022 -0.6879 -1.1896
 2014SOL    HW217505   2.575   3.301   6.187 -0.4845 -0.2427  1.6339
 2015SOL     OW17506   3.269   4.694   5.163 -0.9276  0.4965  0.1212
 2015SOL    HW117507   3.364   4.698   5.157 -0.7510 -1.0565  2.0732
 2015SOL    HW217508   3.255   4.670   5.255  1.2235 -3.1705 -0.5083
 2016SOL     OW17509   0.121   0.008  11.441  0.0806  0.1214 -0.4035
 2016SOL    HW117510   0.027   4.716  11.448 -0.0603  0.1321 -2.0917
 2016SOL    HW217511   0.143   0.003  11.534  1.9563  0.9634 -0.7976
 2017SOL     OW17512   1.304   3.910   2.157  0.0847 -0.3192 -0.0151
 2017SOL    HW117513   1.280   3.922   2.249 -2.0924  0.7130 -0.7071
 2017SOL    HW217514   1.237   3.850   2.125 -2.1646  1.1628  1.8544
 2018SOL     OW17515   4.539   3.956   2.497 -0.3192 -0.6478  0.4405
 2018SOL    HW117516   4.472   3.914   2.551 -0.5429 -1.8938 -0.8051
 2018SOL    HW217517   4.603   3.972   2.566  0.5943  2.2584 -1.0990
 2019SOL     OW17518   1.891   2.207   6.579 -0.2174  0.3104  0.5962
 2019SOL    HW117519   1.901   2.257   6.660 -3.9280  0.5600  0.9064
 2019SOL    HW217520   1.887   2.285   6.524  2.1820 -0.6873 -0.9667
 2020SOL     OW17521   0.284   2.609   2.776  0.0455 -0.0641  0.5814
 2020SOL    HW117522   0.332   2.605   2.859 -0.1088 -0.6757  0.6430
 2020SOL    HW217523   0.353   2.571   2.721 -0.8234 -0.4917 -0.2145
 2021SOL     OW17524   3.046   2.753   0.677  0.2174  0.0309  0.0033
 2021SOL    HW117525   3.055   2.828   0.736 -3.5298  1.4473 -1.2697
 2021SOL    HW217526   2.961   2.769   0.637  0.4753 -2.5380 -1.5449
 2022SOL     OW17527   2.724   2.688  16.561  0.0399  0.3401 -0.2846
 2022SOL    HW117528   2.659   2.693  16.631  1.1820 -0.5907  0.8321
 2022SOL    HW217529   2.803   2.714  16.609  1.3098  0.5517 -2.4808
 2023SOL     OW17530   3.006   2.545   6.568 -0.2557  0.1506 -0.2474
 2023SOL    HW117531   3.053   2.539   6.485 -4.4214 -0.8188 -2.5500
 2023SOL    HW217532   3.017   2.454   6.596  0.1341  1.0245  2.5164
 2024SOL     OW17533   2.995   3.876   7.256  0.8894 -0.2925 -0.2295
 2024SOL    HW117534   2.947   3.822   7.319 -0.3530 -0.8257 -1.6153
 2024SOL    HW217535   2.932   3.923   7.201 -1.0798 -2.3486  0.2684
 2025SOL     OW17536   3.038   0.992   9.472  0.5898 -0.2338 -0.0692
 2025SOL    HW117537   3.133   0.991   9.486  0.6001  1.6604 -0.0105
 2025SOL    HW217538   3.013   1.083   9.492  1.2404  0.2501 -1.4581
 2026SOL     OW17539   4.134   1.520   3.621 -0.4690 -0.1823  0.4575
 2026SOL    HW117540   4.087   1.558   3.548 -0.0605 -1.3588 -0.4108
 2026SOL    HW217541   4.197   1.589   3.640 -0.9241  0.0456  1.1505
 2027SOL     OW17542   3.513   0.470   6.476 -0.5806  0.0086 -0.2398
 2027SOL    HW117543   3.579   0.511   6.420 -0.9047  2.1816  0.9835
 2027SOL    HW217544   3.477   0.550   6.515  0.1277  0.2361 -0.0495
 2028SOL     OW17545   2.345   0.884   7.023 -0.0836 -0.0913 -0.0525
 2028SOL    HW117546   2.319   0.799   7.059 -0.2833  0.9306  2.2551
 2028SOL    HW217547   2.298   0.936   7.088  0.6428  1.0874 -0.4649
 2029SOL     OW17548   0.625   3.639   8.108 -0.1388  0.2366 -0.3283
 2029SOL    HW117549   0.629   3.638   8.204  2.2632  0.1501 -0.4259
 2029SOL    HW217550   0.614   3.734   8.101 -0.0097  0.3633  1.1901
 2030SOL     OW17551   1.006   1.015   1.737  0.2410  0.3469  0.6325
 2030SOL    HW117552   0.985   1.055   1.652 -0.8509 -0.6575  0.4314
 2030SOL    HW217553   1.082   0.961   1.716  0.3937 -0.0258  2.2013
 2031SOL     OW17554   0.153   0.169   1.835  0.4394  0.4223  0.0118
 2031SOL    HW117555   0.145   0.260   1.861 -2.3919 -0.5119  2.4336
 2031SOL    HW217556   0.073   0.150   1.786  0.1739 -0.1751  0.6759
 2032SOL     OW17557   4.324   2.610   5.592  0.1352  0.0070  0.2517
 2032SOL    HW117558   4.395   2.592   5.531 -0.0948  0.9817 -0.2961
 2032SOL    HW217559   4.243   2.608   5.541  0.5788 -4.8276 -0.2298
 2033SOL     OW17560   0.546   2.374   8.191 -0.0900 -0.4689 -0.6109
 2033SOL    HW117561   0.496   2.398   8.113  1.0743  0.4959 -1.0505
 2033SOL    HW217562   0.632   2.398   8.158  0.4940 -2.3495 -0.4844
 2034SOL     OW17563   2.993   3.228   6.490 -0.0088 -0.1148  0.5372
 2034SOL    HW117564   3.024   3.319   6.483  0.8211 -0.3458  1.2634
 2034SOL    HW217565   3.067   3.169   6.479  1.9723  2.3997  0.1391
 2035SOL     OW17566   0.623   3.646   3.802  0.9102  0.0198 -0.4544
 2035SOL    HW117567   0.620   3.675   3.893  1.4230  1.1815 -0.8090
 2035SOL    HW217568   0.690   3.705   3.766 -0.4282  1.4048 -0.6820
 2036SOL     OW17569   3.998   1.344  17.159 -0.5501  0.5547  0.0381
 2036SOL    HW117570   4.062   1.303  17.218 -1.6787  0.8492  1.4519
 2036SOL    HW217571   4.013   1.436  17.178  3.0345 -0.6437  3.0410
 2037SOL     OW17572   1.010   0.694   2.796 -0.5576  0.1821 -0.0540
 2037SOL    HW117573   1.025   0.714   2.889  2.3423 -0.6866 -0.3230
 2037SOL    HW217574   0.918   0.670   2.799  0.2616 -2.7995  0.9798
 2038SOL     OW17575   1.958   3.750   7.409 -0.5357  0.1539  0.1066
 2038SOL    HW117576   2.042   3.780   7.374  0.7399 -2.1911  1.1303
 2038SOL    HW217577   1.989   3.729   7.497  1.0119  3.1476  0.2745
 2039SOL     OW17578   0.509   0.110   3.314  0.4432 -0.2240  0.7276
 2039SOL    HW117579   0.439   0.169   3.286 -0.2454 -1.6905 -0.6594
 2039SOL    HW217580   0.576   0.173   3.286 -0.2529 -0.1611 -0.8269
 2040SOL     OW17581   0.312   4.253   5.450 -0.4986 -0.1188 -0.6083
 2040SOL    HW117582   0.242   4.253   5.515  0.9755 -0.0613  0.9921
 2040SOL    HW217583   0.318   4.158   5.444 -1.3375 -0.1982 -0.2620
 2041SOL     OW17584   0.632   3.517   6.488 -0.3732 -0.0765 -0.2288
 2041SOL    HW117585   0.602   3.478   6.570 -0.4641  2.1796  0.8216
 2041SOL    HW217586   0.547   3.543   6.450 -0.6241 -0.4489  0.0795
 2042SOL     OW17587   1.780   4.671   1.684  0.2283 -0.1272 -0.1041
 2042SOL    HW117588   1.828   4.589   1.696 -1.9858 -1.4579 -0.5215
 2042SOL    HW217589   1.690   4.639   1.681  0.2878 -0.7613  4.1490
 2043SOL     OW17590   4.722   1.716  11.010 -0.3614  0.1726  0.3145
 2043SOL    HW117591   0.044   1.634  11.017 -0.8218 -0.0510  0.8831
 2043SOL    HW217592   0.062   1.785  11.018  1.0393 -0.9831 -1.2358
 2044SOL     OW17593   3.990   2.781  10.925 -0.0666 -0.6350 -0.0533
 2044SOL    HW117594   3.981   2.718  10.996 -1.1461  0.3041  0.6419
 2044SOL    HW217595   4.033   2.850  10.976 -0.6396 -0.9912  0.9090
 2045SOL     OW17596   1.073   4.109   3.713  0.4695 -0.7206  0.1880
 2045SOL    HW117597   1.063   4.072   3.626 -0.0883 -0.2195  0.0423
 2045SOL    HW217598   0.999   4.067   3.758 -0.6913  0.7409 -0.3620
 2046SOL     OW17599   4.435   3.478   6.482 -0.2113 -0.5823 -0.0340
 2046SOL    HW117600   4.468   3.388   6.480 -0.1054 -0.6046  2.3364
 2046SOL    HW217601   4.441   3.504   6.574  0.4304  1.1573 -0.5673
 2047SOL     OW17602   2.839   3.768  13.135  0.5369  0.1773  0.2681
 2047SOL    HW117603   2.802   3.697  13.082 -1.0464  1.4114 -0.2845
 2047SOL    HW217604   2.756   3.806  13.164  0.1572  0.4891 -1.2401
 2048SOL     OW17605   1.558   1.645   7.001  0.7526  0.3446 -0.3234
 2048SOL    HW117606   1.639   1.679   7.039  0.9928 -0.7595  0.1269
 2048SOL    HW217607   1.503   1.723   6.988 -1.2805 -1.3247 -1.6301
 2049SOL     OW17608   2.930   3.644   2.585 -0.5356  0.0322 -0.1946
 2049SOL    HW117609   2.842   3.637   2.547 -0.2290 -0.1291 -0.8780
 2049SOL    HW217610   2.911   3.606   2.671  1.1562  0.4355  0.3464
 2050SOL     OW17611   0.924   0.018   8.165  0.2277 -0.0136 -0.5044
 2050SOL    HW117612   0.848   0.026   8.222  0.2052 -0.3468 -0.4826
 2050SOL    HW217613   0.950   4.653   8.181 -2.2790 -0.7397 -0.5167
 2051SOL     OW17614   2.058   4.654   9.022 -0.4018  0.1772  0.1373
 2051SOL    HW117615   2.075   0.022   9.035 -0.3917  0.2197 -0.1791
 2051SOL    HW217616   1.963   4.647   9.014 -0.2211  1.5730 -3.4267
 2052SOL     OW17617   0.927   1.250  16.214 -0.6042 -0.3056 -0.1149
 2052SOL    HW117618   0.909   1.319  16.278 -1.3997 -1.4960  0.9483
 2052SOL    HW217619   0.881   1.268  16.132 -0.3820  0.0254 -0.1671
 2053SOL     OW17620   3.793   4.403   3.718  0.1044 -0.3654 -0.3328
 2053SOL    HW117621   3.808   4.384   3.626 -2.6310  2.4807 -1.3356
 2053SOL    HW217622   3.887   4.398   3.739 -0.3203 -0.1623  1.6728
 2054SOL     OW17623   3.909   0.524   0.483  0.0169 -0.4674  0.3604
 2054SOL    HW117624   3.978   0.467   0.517  1.1640  1.5610  1.4590
 2054SOL    HW217625   3.839   0.463   0.459 -1.4679  0.6861  1.7361
 2055SOL     OW17626   3.569   0.898  10.464  0.2656  0.5530 -0.6038
 2055SOL    HW117627   3.479   0.928  10.467  0.6745  1.9130 -1.5739
 2055SOL    HW217628   3.548   0.809  10.491 -0.1871  0.9758  0.4352
 2056SOL     OW17629   1.742   0.790   5.361  0.2561  0.1861 -0.0372
 2056SOL    HW117630   1.673   0.752   5.415 -0.3114  0.6975 -0.4023
 2056SOL    HW217631   1.721   0.759   5.274 -0.2782  0.2775  0.0593
 2057SOL     OW17632   4.697   1.449   7.233 -0.1184 -0.3862 -0.3130
 2057SOL    HW117633   4.616   1.457   7.183 -1.1121  0.7796  1.4861
 2057SOL    HW217634   4.659   1.480   7.315  0.5193 -2.2131  0.6762
 2058SOL     OW17635   3.397   1.416   1.280  0.4632 -0.3433  0.6703
 2058SOL    HW117636   3.310   1.418   1.241  0.1972 -2.5880  1.1397
 2058SOL    HW217637   3.419   1.509   1.289 -0.8336  0.0912 -0.7720
 2059SOL     OW17638   3.494   3.672   5.281  0.1576 -0.0570  0.3314
 2059SOL    HW117639   3.461   3.660   5.191  1.9305 -1.8848 -0.0799
 2059SOL    HW217640   3.439   3.618   5.338 -1.8619  0.7228 -0.8716
 2060SOL     OW17641   0.423   1.751   9.081  0.1482  0.5027 -0.4937
 2060SOL    HW117642   0.436   1.684   9.014  2.1767  0.7164 -0.3121
 2060SOL    HW217643   0.468   1.829   9.048  1.4290  0.7371  1.8307
 2061SOL     OW17644   3.479   3.280   1.410 -0.1467  0.0401 -0.3361
 2061SOL    HW117645   3.426   3.229   1.348  1.2940  1.1643 -2.4800
 2061SOL    HW217646   3.453   3.242   1.494 -0.3031 -0.3983 -0.5786
 2062SOL     OW17647   4.018   2.366   6.812 -0.1410 -0.4247  0.2181
 2062SOL    HW117648   3.925   2.372   6.791 -0.0757  1.6636  0.5430
 2062SOL    HW217649   4.050   2.388   6.725 -0.4919  1.3216  0.5323
 2063SOL     OW17650   3.956   1.804  17.027 -0.1063 -0.1726  0.4207
 2063SOL    HW117651   3.969   1.742  17.098  0.8551 -1.4802 -0.9098
 2063SOL    HW217652   3.867   1.785  16.996  0.8401 -2.1886 -1.0069
 2064SOL     OW17653   1.505   4.024  12.852  0.0083  0.4381 -0.5056
 2064SOL    HW117654   1.469   3.970  12.782  0.6467 -2.4172  1.3834
 2064SOL    HW217655   1.429   4.063  12.894 -0.1781 -0.3395 -0.1165
 2065SOL     OW17656   2.644   4.143   7.599  0.1871 -1.2330 -0.3406
 2065SOL    HW117657   2.696   4.224   7.595 -0.7829 -0.4627  2.2811
 2065SOL    HW217658   2.557   4.177   7.579  0.2366 -0.5213  0.6281
 2066SOL     OW17659   2.837   3.437   4.670  0.5032 -0.7403 -0.2978
 2066SOL    HW117660   2.778   3.478   4.607  0.3354 -0.0063  0.3376
 2066SOL    HW217661   2.777   3.449   4.743  3.6094 -1.1649  2.3214
 2067SOL     OW17662   4.319   0.017   1.923  0.1318  0.3024  0.3437
 2067SOL    HW117663   4.347   4.696   1.845  0.8922 -2.2522  2.1460
 2067SOL    HW217664   4.351   4.682   1.990  0.6906  1.1597  0.8515
 2068SOL     OW17665   2.127   1.764   0.488  0.1784 -0.0684  0.2167
 2068SOL    HW117666   2.095   1.787   0.575  2.7791  1.7506  0.6920
 2068SOL    HW217667   2.125   1.668   0.493  1.3224 -0.0451  1.0025
 2069SOL     OW17668   0.523   1.513   4.164 -0.0054 -0.4334 -0.1738
 2069SOL    HW117669   0.515   1.443   4.230  1.7816 -1.4770 -1.0527
 2069SOL    HW217670   0.444   1.506   4.110  0.0531 -2.0253 -0.0543
 2070SOL     OW17671   3.268   3.956   9.198 -0.3071  0.4625  0.3878
 2070SOL    HW117672   3.202   4.016   9.233 -0.4339  0.5780 -0.0506
 2070SOL    HW217673   3.209   3.881   9.184 -1.0881  1.5513 -2.2387
 2071SOL     OW17674   0.502   4.084   1.407  0.6265 -0.6239  0.1527
 2071SOL    HW117675   0.531   4.115   1.321  0.1109  0.9685  0.5418
 2071SOL    HW217676   0.515   4.167   1.453 -0.2284  0.0718 -0.8568
 2072SOL     OW17677   2.971   0.963   1.541 -0.0451 -0.2723  0.0205
 2072SOL    HW117678   2.943   1.041   1.492 -0.3616  0.1837  0.9368
 2072SOL    HW217679   2.885   0.940   1.576  1.3613 -1.3150  2.7824
 2073SOL     OW17680   3.421   4.585   8.019 -0.1605 -0.5183 -0.1897
 2073SOL    HW117681   3.481   4.618   8.086 -3.4748  0.4170  2.3565
 2073SOL    HW217682   3.365   4.662   8.007 -0.4483 -0.5466  0.9470
 2074SOL     OW17683   3.000   0.984   8.782 -0.0323 -0.0484  0.2300
 2074SOL    HW117684   2.977   0.995   8.874 -0.7621 -1.6740  0.2463
 2074SOL    HW217685   2.912   0.960   8.752  0.5186 -1.1308 -0.5217
 2075SOL     OW17686   1.393   2.562   6.840 -0.1812  0.0144 -0.4664
 2075SOL    HW117687   1.377   2.606   6.757 -0.8043 -1.2695 -1.0109
 2075SOL    HW217688   1.356   2.475   6.825  0.1618 -0.1699 -0.2388
 2076SOL     OW17689   4.358   0.403   7.898 -0.3804 -0.1643  0.2911
 2076SOL    HW117690   4.285   0.342   7.885  0.1088 -0.3210 -1.8147
 2076SOL    HW217691   4.341   0.466   7.828  0.0804 -1.0637 -0.6317
 2077SOL     OW17692   3.253   3.956   1.860 -0.0207  0.1966  0.0831
 2077SOL    HW117693   3.237   4.043   1.898  0.0374  0.7877 -1.2402
 2077SOL    HW217694   3.232   3.904   1.938 -0.9883  2.0892  1.0839
 2078SOL     OW17695   3.813   4.651  10.493 -0.3003 -0.6372  0.0294
 2078SOL    HW117696   3.905   4.677  10.504 -0.6478  1.2247 -1.4063
 2078SOL    HW217697   3.827   4.583  10.428  0.2666 -0.5019  0.0053
 2079SOL     OW17698   2.392   0.680   4.701  0.0641  0.6484  0.0963
 2079SOL    HW117699   2.407   0.634   4.619 -0.7529 -0.9186  0.8264
 2079SOL    HW217700   2.440   0.623   4.761  0.2988 -0.3710 -1.0693
 2080SOL     OW17701   1.868   1.049   8.669 -0.5627  0.8049 -0.1113
 2080SOL    HW117702   1.929   1.109   8.624  0.3904 -0.8930 -1.0968
 2080SOL    HW217703   1.805   1.037   8.598 -0.2710  1.0586 -0.4170
 2081SOL     OW17704   0.586   1.160  14.680  0.5099  0.6397 -0.1742
 2081SOL    HW117705   0.567   1.252  14.660 -1.0948  0.1377 -1.0142
 2081SOL    HW217706   0.511   1.135  14.733  0.7307  1.9401  0.7486
 2082SOL     OW17707   3.697   3.264   7.207  0.1422 -0.0871 -0.0302
 2082SOL    HW117708   3.673   3.315   7.129  0.5338  2.0817  1.2669
 2082SOL    HW217709   3.788   3.293   7.205  0.3052 -0.5656  0.5992
 2083SOL     OW17710   1.542   0.012   2.270  0.0404 -0.2761 -0.7940
 2083SOL    HW117711   1.447   0.023   2.271  0.1949  1.1762 -1.2269
 2083SOL    HW217712   1.566   0.070   2.342  0.1255  0.7118 -1.6066
 2084SOL     OW17713   3.864   4.399  13.270  0.8462  0.1412 -0.0981
 2084SOL    HW117714   3.791   4.446  13.229  1.3130 -0.0431 -1.1397
 2084SOL    HW217715   3.818   4.316  13.283 -1.2700  1.0033 -1.9631
 2085SOL     OW17716   2.130   1.407  16.108 -0.3446  0.0805 -0.2730
 2085SOL    HW117717   2.084   1.345  16.164 -1.3854  2.3650  1.3964
 2085SOL    HW217718   2.217   1.388  16.144 -0.6322  0.7622  0.7664
 2086SOL     OW17719   3.899   3.165   7.740  0.0854  0.1805 -0.0380
 2086SOL    HW117720   3.907   3.151   7.834 -1.1735  3.6550  0.6130
 2086SOL    HW217721   3.975   3.116   7.711 -0.8306  0.2657 -2.6399
 2087SOL     OW17722   1.141   2.139   1.855 -0.5937 -0.1940 -0.0332
 2087SOL    HW117723   1.192   2.110   1.930 -0.6404 -0.1149  0.0283
 2087SOL    HW217724   1.153   2.234   1.857 -0.2638 -0.1989 -1.3009
 2088SOL     OW17725   4.104   0.666   2.950 -0.2461  0.9654 -0.0691
 2088SOL    HW117726   4.103   0.621   2.866  0.7895  2.2659 -0.7646
 2088SOL    HW217727   4.013   0.692   2.967  0.0053  0.9229  1.3704
 2089SOL     OW17728   3.893   3.068   8.350 -0.2354  0.8387  0.4329
 2089SOL    HW117729   3.967   3.030   8.397  0.0215 -1.1461 -1.5972
 2089SOL    HW217730   3.929   3.086   8.263 -1.3899  0.7715 -0.0551
 2090SOL     OW17731   0.971   2.216  16.732 -0.4599  0.0843  0.3302
 2090SOL    HW117732   0.962   2.228  16.827 -0.1428 -0.0868  0.3847
 2090SOL    HW217733   0.900   2.276  16.713  0.5494  1.7929  1.9097
 2091SOL     OW17734   2.833   4.516   9.070 -0.0780  0.5357 -0.0387
 2091SOL    HW117735   2.820   4.433   9.023 -1.7973  1.2778 -0.8650
 2091SOL    HW217736   2.748   4.525   9.115 -0.4127  0.9958 -0.7716
 2092SOL     OW17737   2.605   1.108   3.158  0.5578 -0.0108 -0.2624
 2092SOL    HW117738   2.693   1.108   3.119  0.9019  2.2539  0.5035
 2092SOL    HW217739   2.565   1.037   3.107  0.5275 -1.5106  1.8480
 2093SOL     OW17740   2.962   1.374   2.089  0.0500  0.5802  0.2988
 2093SOL    HW117741   2.958   1.384   2.184  1.1749  0.6981  0.3297
 2093SOL    HW217742   2.885   1.321   2.069 -0.2120  1.5365 -1.1760
 2094SOL     OW17743   2.246   4.588  14.832 -0.2924  0.3896  0.2604
 2094SOL    HW117744   2.340   4.593  14.850 -0.0229 -1.3001 -0.7749
 2094SOL    HW217745   2.253   4.597  14.737  2.4201 -0.6003  0.3875
 2095SOL     OW17746   0.983   4.427   8.573  0.3859  0.1880 -0.0329
 2095SOL    HW117747   1.008   4.336   8.591 -1.3064 -0.1204  0.7084
 2095SOL    HW217748   1.063   4.458   8.530 -1.3162  2.8429 -1.2850
 2096SOL     OW17749   4.226   1.815  17.379 -0.0486 -0.3854  0.3065
 2096SOL    HW117750   4.242   1.910  17.383  0.4466 -0.5343  1.9098
 2096SOL    HW217751   4.157   1.808  17.445  0.2262 -0.0336  0.6335
 2097SOL     OW17752   0.438   1.018   7.963  0.3813 -0.1930 -0.0047
 2097SOL    HW117753   0.508   1.066   8.007  1.7096 -1.8519 -0.3063
 2097SOL    HW217754   0.377   1.004   8.035  2.0005  2.2977  1.8434
 2098SOL     OW17755   2.943   3.004   7.825  0.2344  0.6920  0.1295
 2098SOL    HW117756   3.026   3.049   7.805  0.6446 -0.2648 -0.3391
 2098SOL    HW217757   2.935   2.948   7.748  1.6520 -0.4938  0.8482
 2099SOL     OW17758   0.773   1.337   8.441 -0.0868 -0.4892 -0.0003
 2099SOL    HW117759   0.776   1.345   8.346  0.0731  0.7549  0.1210
 2099SOL    HW217760   0.753   1.423   8.478 -2.0164 -0.8780 -0.1553
 2100SOL     OW17761   1.994   2.683   9.531  0.1561 -0.2165  0.0846
 2100SOL    HW117762   1.927   2.630   9.573 -2.1823  0.4689 -2.7772
 2100SOL    HW217763   2.060   2.673   9.600 -0.7031  0.6517  1.0338
 2101SOL     OW17764   3.162   1.232   1.725 -0.0329 -0.3993 -0.2065
 2101SOL    HW117765   3.069   1.226   1.747 -0.4249 -0.8688 -1.9398
 2101SOL    HW217766   3.153   1.235   1.629  2.7289  0.7600 -0.4141
 2102SOL     OW17767   0.748   2.315   1.692 -0.2592  0.2347 -0.1892
 2102SOL    HW117768   0.671   2.265   1.717 -0.9465  1.3541 -0.0424
 2102SOL    HW217769   0.807   2.241   1.693  2.1855  2.1745 -1.0736
 2103SOL     OW17770   4.165   3.848   0.577 -0.0850  0.6131 -0.0243
 2103SOL    HW117771   4.161   3.756   0.548  1.4914  0.2234  0.9920
 2103SOL    HW217772   4.093   3.884   0.525 -0.6996 -0.3042  0.1719
 2104SOL     OW17773   3.202   2.720   4.662  0.0872 -0.3641  0.2635
 2104SOL    HW117774   3.254   2.697   4.739  2.1981 -0.6742 -1.2443
 2104SOL    HW217775   3.146   2.781   4.710 -1.1143 -1.9843  0.9204
 2105SOL     OW17776   2.463   4.654   4.142  0.5145  0.3202  0.5987
 2105SOL    HW117777   2.445   4.570   4.099  2.7385  1.1926 -2.0105
 2105SOL    HW217778   2.554   4.665   4.113  0.8522  0.5409  1.7452
 2106SOL     OW17779   1.958   2.150   3.122 -0.6408  0.3197  0.3299
 2106SOL    HW117780   2.010   2.069   3.121  0.2427  0.9105 -1.4015
 2106SOL    HW217781   1.988   2.202   3.047  1.6174  1.1768  1.8286
 2107SOL     OW17782   3.831   3.106   5.761  0.1236 -0.3777 -0.3452
 2107SOL    HW117783   3.860   3.067   5.678  0.1278 -1.8330  0.3571
 2107SOL    HW217784   3.834   3.027   5.815 -0.9807 -1.5789 -2.0334
 2108SOL     OW17785   1.081   1.248   0.447  0.0482  0.1319 -0.1443
 2108SOL    HW117786   1.149   1.226   0.383 -2.2442  0.9266 -2.8724
 2108SOL    HW217787   1.128   1.214   0.523  0.1443  0.3496 -0.1075
 2109SOL     OW17788   1.934   0.011   7.284 -0.1451 -0.0653  0.5917
 2109SOL    HW117789   1.963   0.036   7.196  0.7828  0.8570  1.1604
 2109SOL    HW217790   1.994   4.669   7.315  0.3504 -0.0669 -0.3493
 2110SOL     OW17791   4.630   0.995  15.795  0.5953 -0.5465 -0.1573
 2110SOL    HW117792   4.612   1.037  15.879 -2.2604 -4.9805  1.4741
 2110SOL    HW217793   4.545   1.009  15.753  0.8370  0.1328 -0.4264
 2111SOL     OW17794   1.496   1.338   7.872 -0.3788 -0.4587 -0.2737
 2111SOL    HW117795   1.577   1.385   7.853 -0.1950 -1.4201 -1.9290
 2111SOL    HW217796   1.527   1.249   7.856 -0.7518 -0.7529  0.6544
 2112SOL     OW17797   0.661   3.725   8.390 -0.6388 -0.3756 -0.7162
 2112SOL    HW117798   0.717   3.784   8.338 -1.3519  1.0980  0.2027
 2112SOL    HW217799   0.718   3.653   8.415 -0.0631  0.4460  0.3335
 2113SOL     OW17800   1.447   1.809   2.847 -0.0190  0.4931 -0.0942
 2113SOL    HW117801   1.463   1.852   2.931 -0.3076  0.3661  0.0269
 2113SOL    HW217802   1.380   1.743   2.864 -0.3647  0.7489 -0.4565
 2114SOL     OW17803   4.137   0.222   1.916  0.3647 -0.6897 -0.1074
 2114SOL    HW117804   4.200   0.154   1.893  1.2965  0.5466 -1.2154
 2114SOL    HW217805   4.061   0.196   1.864  1.9897 -1.2293 -2.2143
 2115SOL     OW17806   1.069   2.501   3.015 -0.5717 -0.7046 -0.0170
 2115SOL    HW117807   1.053   2.576   2.959  0.1093 -0.4277  0.1530
 2115SOL    HW217808   1.060   2.444   2.938 -2.1404  1.0135 -1.0796
 2116SOL     OW17809   4.186   0.089   0.615  0.3727  0.3905  0.0422
 2116SOL    HW117810   4.214   0.005   0.651 -1.4425  0.4287  1.5837
 2116SOL    HW217811   4.108   0.067   0.564  0.8788  1.5947 -1.2265
 2117SOL     OW17812   2.298   0.938   5.404  0.1004  0.2388  0.3258
 2117SOL    HW117813   2.237   1.007   5.431 -1.3996 -1.0122  0.1480
 2117SOL    HW217814   2.378   0.989   5.395 -0.4188  0.4925 -2.8972
 2118SOL     OW17815   0.369   1.172   4.719  0.1459 -0.0991  0.3422
 2118SOL    HW117816   0.440   1.235   4.715  0.0544 -0.0395 -0.4026
 2118SOL    HW217817   0.413   1.094   4.683  1.0454  0.2969  0.6021
 2119SOL     OW17818   4.070   0.968  16.339  0.0852  0.1960 -0.1524
 2119SOL    HW117819   3.987   0.940  16.379 -0.8809  1.6286 -1.1530
 2119SOL    HW217820   4.073   0.918  16.258  1.6452 -1.0712  0.6898
 2120SOL     OW17821   1.191   0.741   3.989  0.1411 -0.3706 -0.7163
 2120SOL    HW117822   1.119   0.683   4.012 -0.7535  0.9154 -0.2849
 2120SOL    HW217823   1.150   0.818   4.029  1.2336 -1.3596  2.2735
 2121SOL     OW17824   4.465   0.802   7.826 -0.2841 -0.1870  0.4185
 2121SOL    HW117825   4.524   0.798   7.901  1.0838 -0.6005 -0.6975
 2121SOL    HW217826   4.501   0.871   7.771  1.8574 -0.7433  1.1493
 2122SOL     OW17827   0.294   3.969   5.485  0.1833 -0.1714 -0.4594
 2122SOL    HW117828   0.303   3.951   5.578  0.8194 -1.3062 -0.7361
 2122SOL    HW217829   0.205   3.933   5.475 -0.4609  1.2857  0.0207
 2123SOL     OW17830   0.440   2.458  17.555 -0.4766  0.8845  0.4048
 2123SOL    HW117831   0.513   2.407  17.590 -1.0784  0.1379  0.5767
 2123SOL    HW217832   0.365   2.411  17.592  0.9153 -0.6263  1.3136
 2124SOL     OW17833   3.087   2.203   2.891  0.0412 -0.0149  0.0352
 2124SOL    HW117834   3.021   2.244   2.948 -1.0275 -0.6441 -0.7462
 2124SOL    HW217835   3.060   2.111   2.900 -1.0432  0.1770 -1.1748
 2125SOL     OW17836   2.302   3.219   5.801  0.1179 -0.8898 -0.1231
 2125SOL    HW117837   2.220   3.236   5.755  1.2824 -1.0694 -2.2723
 2125SOL    HW217838   2.333   3.136   5.764 -0.8868 -1.6157  0.6627
 2126SOL     OW17839   0.064   1.680   5.319  0.3496  0.2999 -0.4866
 2126SOL    HW117840   0.027   1.592   5.320  0.5542  0.2246  0.2307
 2126SOL    HW217841   0.109   1.682   5.403  1.5506 -1.6399 -1.0976
 2127SOL     OW17842   3.683   2.443   8.321  0.2140 -0.1260 -0.2144
 2127SOL    HW117843   3.627   2.500   8.374 -0.0407 -0.1485 -0.4621
 2127SOL    HW217844   3.743   2.512   8.290  1.6981 -1.3035  0.0205
 2128SOL     OW17845   2.253   3.682  13.468 -0.4405 -0.6509 -0.0748
 2128SOL    HW117846   2.160   3.663  13.452 -0.7274  0.3626  0.3911
 2128SOL    HW217847   2.245   3.670  13.562  1.2657  0.5800  0.2170
 2129SOL     OW17848   1.904   4.645   1.103 -0.3973  0.0199  0.9301
 2129SOL    HW117849   1.961   4.578   1.065 -0.3500  1.5523 -1.7070
 2129SOL    HW217850   1.845   4.652   1.027 -0.3824  1.7671  1.0760
 2130SOL     OW17851   1.341   0.390   4.233 -0.4494 -0.0595  0.1089
 2130SOL    HW117852   1.284   0.314   4.243  2.4451 -2.0230  1.5722
 2130SOL    HW217853   1.289   0.455   4.281  0.4769  1.0534 -0.3887
 2131SOL     OW17854   4.169   2.346  11.562 -0.1130  0.6444 -0.2799
 2131SOL    HW117855   4.239   2.293  11.525  0.1981  1.3681 -0.7293
 2131SOL    HW217856   4.098   2.310  11.508 -0.4896  2.0477 -0.7299
 2132SOL     OW17857   3.127   1.648   2.199 -0.3862 -0.1855  0.0997
 2132SOL    HW117858   3.106   1.565   2.242  2.2875 -1.2717 -0.6449
 2132SOL    HW217859   3.180   1.611   2.127 -1.9123 -0.9522 -0.6256
 2133SOL     OW17860   2.272   4.644   5.878 -0.1940  0.0629 -0.1843
 2133SOL    HW117861   2.278   4.716   5.941  1.1618  0.5865 -0.9201
 2133SOL    HW217862   2.191   4.600   5.906 -1.1159  0.3320 -2.4118
 2134SOL     OW17863   1.969   3.255  16.013 -0.6977  0.0018  0.3859
 2134SOL    HW117864   1.898   3.211  16.060 -0.4302  1.7752  2.4301
 2134SOL    HW217865   2.043   3.203  16.045 -0.5739 -1.0760 -1.6386
 2135SOL     OW17866   4.060   1.544   3.924  0.2476  0.5578  0.0023
 2135SOL    HW117867   4.033   1.538   3.833 -0.9729 -3.4409  0.6007
 2135SOL    HW217868   4.061   1.455   3.960 -1.3211  0.4277 -0.2491
 2136SOL     OW17869   3.296   1.285  10.533 -0.9250  0.3934  0.7435
 2136SOL    HW117870   3.210   1.307  10.569 -0.2231  2.6009  1.0548
 2136SOL    HW217871   3.295   1.190  10.539  2.5731  0.3115  0.1541
 2137SOL     OW17872   0.912   4.066  17.428 -0.3598  0.2416  0.1543
 2137SOL    HW117873   0.862   4.001  17.476 -0.1595  1.1445  1.5756
 2137SOL    HW217874   0.917   4.147  17.480 -1.0773  0.6874 -0.4644
 2138SOL     OW17875   2.423   2.218   8.324  0.1951  0.0320  0.1837
 2138SOL    HW117876   2.386   2.202   8.411 -0.4271  0.1860 -0.0512
 2138SOL    HW217877   2.448   2.310   8.332 -1.1980  0.2633  2.1104
 2139SOL     OW17878   3.745   3.958   3.994  0.0982  0.1977  0.8190
 2139SOL    HW117879   3.821   4.005   3.959  0.0126 -1.3726 -1.4548
 2139SOL    HW217880   3.785   3.936   4.078  3.8233 -1.0423 -1.2773
 2140SOL     OW17881   0.186   1.644   0.454  0.1289 -0.6253 -0.7401
 2140SOL    HW117882   0.124   1.580   0.420 -0.5833 -1.1300  1.4899
 2140SOL    HW217883   0.247   1.588   0.504 -0.8798 -0.1160  1.0497
 2141SOL     OW17884   3.760   0.206   1.556  0.0962  0.5485  0.5870
 2141SOL    HW117885   3.765   0.226   1.462  0.2924  0.7289  0.6347
 2141SOL    HW217886   3.673   0.166   1.563 -0.6008  1.7215 -1.0234
 2142SOL     OW17887   4.640   3.696   7.130 -0.3160  0.2326 -0.3338
 2142SOL    HW117888   4.704   3.631   7.102 -1.1870 -1.3632  1.3577
 2142SOL    HW217889   4.562   3.650   7.098  0.5136 -1.5829  0.2807
 2143SOL     OW17890   3.346   3.540   0.040 -0.2777  0.2647  0.0945
 2143SOL    HW117891   3.386   3.624   0.015  0.4526 -0.5054 -1.3376
 2143SOL    HW217892   3.324   3.566   0.129  0.4095  1.1949  0.0001
 2144SOL     OW17893   2.138   1.316   7.147  0.3847 -0.1487 -0.4335
 2144SOL    HW117894   2.169   1.246   7.204  0.6455 -0.1688 -0.5995
 2144SOL    HW217895   2.177   1.396   7.182 -1.5231  1.5766 -2.2539
 2145SOL     OW17896   2.893   0.692  12.922  0.1188  0.2145 -0.0015
 2145SOL    HW117897   2.834   0.706  12.848 -0.3994 -2.4934 -0.0912
 2145SOL    HW217898   2.952   0.767  12.924 -1.5183  1.3041  5.0596
 2146SOL     OW17899   3.406   0.687   8.619  0.0514  0.3695  0.2681
 2146SOL    HW117900   3.328   0.695   8.674  0.6171  0.6270  1.0326
 2146SOL    HW217901   3.365   0.709   8.535 -0.3290  2.7825  1.1050
 2147SOL     OW17902   2.497   2.061  13.889 -0.1686  0.7822 -0.6630
 2147SOL    HW117903   2.405   2.042  13.871 -0.8590  2.7871  0.8030
 2147SOL    HW217904   2.483   2.064  13.983  1.4370 -1.2496 -0.3782
 2148SOL     OW17905   1.175   0.319   5.815 -0.2206  0.2917 -0.4300
 2148SOL    HW117906   1.125   0.245   5.851  1.9443 -0.7567  0.4517
 2148SOL    HW217907   1.171   0.362   5.900  2.6608 -0.8850  0.3092
 2149SOL     OW17908   0.139   0.177   2.607  0.5162  0.4597  0.3242
 2149SOL    HW117909   0.205   0.207   2.669  1.3182  1.4436 -0.9910
 2149SOL    HW217910   0.166   0.210   2.521 -0.1302 -1.2141 -0.5133
 2150SOL     OW17911   1.797   1.564  17.033 -0.1460  0.8330 -0.6147
 2150SOL    HW117912   1.766   1.501  16.968  0.1610 -0.9593  0.9914
 2150SOL    HW217913   1.806   1.647  16.985 -0.5334  2.3726  1.9582
 2151SOL     OW17914   1.821   1.812   1.579 -0.6882  0.4027 -0.0936
 2151SOL    HW117915   1.780   1.874   1.518  0.4007  1.9919  0.8062
 2151SOL    HW217916   1.744   1.767   1.614 -0.0748  1.4455  2.5723
 2152SOL     OW17917   2.317   1.290   2.055 -0.5171  0.4249  0.1671
 2152SOL    HW117918   2.356   1.372   2.085  1.1792  0.9801 -3.5026
 2152SOL    HW217919   2.249   1.326   1.998  0.7518  0.9493 -1.0075
 2153SOL     OW17920   3.535   4.039   3.292  0.0142  0.0187  0.0307
 2153SOL    HW117921   3.534   3.949   3.260  0.7020 -0.2727  0.8203
 2153SOL    HW217922   3.450   4.043   3.335 -0.4948 -2.8271 -0.6800
 2154SOL     OW17923   2.515   1.069  14.505  0.1678 -0.3607 -0.0554
 2154SOL    HW117924   2.465   1.127  14.563  1.2600 -2.2688  2.7633
 2154SOL    HW217925   2.511   1.133  14.433  0.1155  0.0176  0.2844
 2155SOL     OW17926   0.882   1.267   5.250  0.2134  0.6080 -0.2041
 2155SOL    HW117927   0.973   1.291   5.230  1.0014 -0.9932  1.4524
 2155SOL    HW217928   0.887   1.234   5.339 -1.2636  1.3701  0.1512
 2156SOL     OW17929   4.046   1.628   9.580 -0.1508  0.1063 -0.2697
 2156SOL    HW117930   4.106   1.657   9.512  2.1755 -0.7870  1.4074
 2156SOL    HW217931   4.102   1.563   9.621 -1.8833 -1.4914 -0.4300
 2157SOL     OW17932   2.033   2.645   9.019 -0.4165 -0.0574  0.0530
 2157SOL    HW117933   2.116   2.673   9.059 -0.3375  0.1512 -0.2588
 2157SOL    HW217934   2.056   2.673   8.930  1.1069  0.3028  0.5527
 2158SOL     OW17935   1.225   3.929   6.321 -0.2285 -0.3638 -0.4070
 2158SOL    HW117936   1.139   3.894   6.298  0.9752 -1.9192 -2.6110
 2158SOL    HW217937   1.243   3.975   6.239  4.1498 -1.9291 -0.3057
 2159SOL     OW17938   1.620   4.608   5.257 -0.3311 -0.3692 -0.2296
 2159SOL    HW117939   1.661   4.685   5.217  0.2431 -0.3528  0.3747
 2159SOL    HW217940   1.701   4.557   5.271 -1.0069 -1.4154 -0.1423
 2160SOL     OW17941   2.700   4.591   5.270  0.0735  0.0454 -0.0388
 2160SOL    HW117942   2.668   4.669   5.225  0.0082 -0.0502 -0.1584
 2160SOL    HW217943   2.650   4.601   5.350 -0.8908  0.2644 -0.6710
 2161SOL     OW17944   4.275   1.208  10.293 -0.0980 -0.0845  0.2155
 2161SOL    HW117945   4.365   1.189  10.320  0.4728  3.3178  0.7013
 2161SOL    HW217946   4.275   1.168  10.206  1.6874  1.0324 -0.3059
 2162SOL     OW17947   4.652   0.586  13.221 -0.0164  0.1758 -0.1959
 2162SOL    HW117948   4.722   0.629  13.172 -0.7033  1.0629 -0.3784
 2162SOL    HW217949   4.666   0.642  13.297  0.1430  0.2674 -0.2925
 2163SOL     OW17950   3.338   4.256   2.548 -0.2617  0.1290 -0.5568
 2163SOL    HW117951   3.393   4.334   2.549  0.2610 -0.2684  1.0231
 2163SOL    HW217952   3.394   4.179   2.536  0.4120  0.7769 -1.5653
 2164SOL     OW17953   0.382   0.759   2.672  0.7990 -0.0344 -0.1830
 2164SOL    HW117954   0.325   0.780   2.598 -0.3202 -2.6185 -0.0692
 2164SOL    HW217955   0.401   0.850   2.694  1.5051  0.1773 -1.6950
 2165SOL     OW17956   0.561   4.320   5.539  0.2730  0.0038  0.2695
 2165SOL    HW117957   0.594   4.336   5.450 -4.5048  0.8348 -1.3106
 2165SOL    HW217958   0.469   4.301   5.520  0.1427  1.5418 -0.6137
 2166SOL     OW17959   4.515   2.773   3.642 -0.0457 -0.1720 -0.7563
 2166SOL    HW117960   4.451   2.821   3.590  2.2832  2.2751 -1.3765
 2166SOL    HW217961   4.581   2.843   3.643  0.2989 -0.4648 -2.5488
 2167SOL     OW17962   0.482   1.119   4.273 -0.1086 -0.1839 -0.0014
 2167SOL    HW117963   0.560   1.138   4.325  0.9410 -1.5466 -1.0821
 2167SOL    HW217964   0.445   1.045   4.321 -1.1056  0.4040  0.1389
 2168SOL     OW17965   2.605   0.865   3.069 -0.2874  0.8652  0.3256
 2168SOL    HW117966   2.606   0.805   3.143 -0.7953  1.9634  1.2218
 2168SOL    HW217967   2.563   0.812   3.001  1.2551  1.0082 -0.7573
 2169SOL     OW17968   0.306   3.012   6.573 -0.2475 -0.1087 -0.6061
 2169SOL    HW117969   0.212   3.010   6.553 -0.1101 -0.8935 -1.1690
 2169SOL    HW217970   0.347   2.971   6.496 -0.0351 -1.1222  0.0589
 2170SOL     OW17971   2.127   3.048   5.090  0.2047 -0.4087  0.0136
 2170SOL    HW117972   2.216   3.047   5.126  0.2431  1.8522  0.0143
 2170SOL    HW217973   2.139   3.077   4.999  0.3343  1.2315  0.5407
 2171SOL     OW17974   0.448   3.816  11.250 -0.3064 -0.5930 -0.3263
 2171SOL    HW117975   0.511   3.765  11.199  1.7910 -1.2448  2.9581
 2171SOL    HW217976   0.442   3.769  11.333  0.1403 -0.0790 -0.0041
 2172SOL     OW17977   4.717   1.667  12.957 -0.3364  0.0065 -0.3824
 2172SOL    HW117978   4.723   1.762  12.970 -2.5410  0.1969 -0.7456
 2172SOL    HW217979   4.645   1.674  12.894  1.8535  1.5327 -2.6909
 2173SOL     OW17980   4.311   1.217  11.555  0.2880  0.4543  0.5642
 2173SOL    HW117981   4.242   1.164  11.514 -0.7849 -0.4295  3.4670
 2173SOL    HW217982   4.263   1.295  11.584 -0.6907  0.0873 -0.0565
 2174SOL     OW17983   1.615   2.618   9.748  0.2177  0.2858  0.1521
 2174SOL    HW117984   1.601   2.679   9.676  2.5444  0.2937 -0.2842
 2174SOL    HW217985   1.652   2.678   9.812  1.7967 -0.0167 -0.4938
 2175SOL     OW17986   3.242   0.549  14.841 -0.0253 -0.0006 -0.0391
 2175SOL    HW117987   3.271   0.631  14.879  2.3069 -1.4851  1.3890
 2175SOL    HW217988   3.179   0.529  14.910  0.9437  0.6371  1.0078
 2176SOL     OW17989   0.209   3.717  12.334  0.1981  0.2625  0.3805
 2176SOL    HW117990   0.179   3.803  12.364 -1.8056  0.1299 -1.2739
 2176SOL    HW217991   0.303   3.734  12.332  0.2887 -0.5449 -1.6476
 2177SOL     OW17992   1.999   4.348   0.534  0.0924 -0.2283  0.4429
 2177SOL    HW117993   1.933   4.387   0.592  0.5505 -0.1468  0.9051
 2177SOL    HW217994   2.002   4.421   0.473 -1.4744 -0.1067  0.5097
 2178SOL     OW17995   2.628   2.435   6.044  0.2598 -0.2387  0.0984
 2178SOL    HW117996   2.563   2.501   6.070  1.2788  1.5161 -1.8163
 2178SOL    HW217997   2.684   2.491   5.991  1.7225 -0.4340  1.4516
 2179SOL     OW17998   0.271   0.442  15.837  0.1214  0.2768 -0.2289
 2179SOL    HW117999   0.254   0.462  15.744  0.4199  1.3227 -0.0557
 2179SOL    HW218000   0.196   0.476  15.886  0.3074 -0.5897  0.6476
 2180SOL     OW18001   2.456   0.478   9.419  0.5179 -0.0204 -1.5121
 2180SOL    HW118002   2.445   0.550   9.357  1.8973  0.9900 -0.5630
 2180SOL    HW218003   2.365   0.446   9.422  0.9501 -0.8605  1.8409
 2181SOL     OW18004   1.511   3.744  17.181  0.1375  0.4340  0.5638
 2181SOL    HW118005   1.531   3.824  17.228  2.0055 -0.9917  2.1913
 2181SOL    HW218006   1.557   3.681  17.237  1.1927  1.2019  0.5610
 2182SOL     OW18007   3.114   2.567   3.786 -0.6297 -0.0727 -0.5411
 2182SOL    HW118008   3.080   2.656   3.777 -2.7985 -0.9282 -0.8002
 2182SOL    HW218009   3.045   2.530   3.731 -2.0455 -0.8381  1.7709
 2183SOL     OW18010   0.324   0.457  10.052 -0.0607 -0.2876  0.1740
 2183SOL    HW118011   0.413   0.426  10.037  0.2189  0.1330  0.9576
 2183SOL    HW218012   0.312   0.507   9.972 -1.2730  2.0567  1.8099
 2184SOL     OW18013   1.753   2.828   8.417 -0.3603  0.2122 -0.1851
 2184SOL    HW118014   1.665   2.854   8.389 -0.3823  0.7969  0.4183
 2184SOL    HW218015   1.798   2.827   8.333 -1.0245 -3.7527 -0.4872
 2185SOL     OW18016   2.601   3.550  15.449 -1.0372 -0.3094 -0.4297
 2185SOL    HW118017   2.560   3.630  15.483  1.6809 -0.1958  2.5641
 2185SOL    HW218018   2.556   3.545  15.365 -0.4031 -1.6667 -0.6784
 2186SOL     OW18019   0.522   2.786  14.801 -0.6533 -0.0473 -0.6231
 2186SOL    HW118020   0.579   2.852  14.761 -1.2325  0.4609 -0.6038
 2186SOL    HW218021   0.580   2.734  14.856 -0.9601 -1.2636 -1.4616
 2187SOL     OW18022   2.363   3.825   2.001  0.0489 -0.1079 -0.0446
 2187SOL    HW118023   2.395   3.886   2.068 -1.2227 -0.6869  1.0957
 2187SOL    HW218024   2.439   3.823   1.944  0.2592 -1.5444  0.2823
 2188SOL     OW18025   3.907   1.791   4.568  0.0109 -0.2328  0.0643
 2188SOL    HW118026   3.888   1.822   4.656  2.3402  0.2208  0.4007
 2188SOL    HW218027   3.996   1.825   4.557 -0.7280  1.9900  1.0791
 2189SOL     OW18028   0.355   4.069  12.234  0.1701  0.4433 -0.4205
 2189SOL    HW118029   0.288   4.018  12.189 -0.2036  0.2694  0.3316
 2189SOL    HW218030   0.322   4.058  12.323  0.9078  0.5487 -0.1388
 2190SOL     OW18031   1.903   1.420   1.605  0.3927 -0.1056 -0.5789
 2190SOL    HW118032   1.968   1.479   1.567 -0.0142 -0.0274 -1.1534
 2190SOL    HW218033   1.874   1.481   1.673  0.2083  1.1412 -1.7866
 2191SOL     OW18034   2.040   4.563   0.345 -0.1141  0.1338 -0.7507
 2191SOL    HW118035   2.120   4.609   0.373 -0.4376  0.5199 -0.4646
 2191SOL    HW218036   2.003   4.633   0.290 -1.1391  0.9270  0.9547
 2192SOL     OW18037   0.747   2.438   4.368 -0.3474 -0.4359  0.5466
 2192SOL    HW118038   0.818   2.420   4.307  1.5464  3.1331  1.6760
 2192SOL    HW218039   0.789   2.424   4.453  2.7127 -0.8770 -1.0425
 2193SOL     OW18040   2.341   1.567   2.039  0.3398  0.6844 -0.6598
 2193SOL    HW118041   2.394   1.541   2.114 -4.2710  0.2920  2.4328
 2193SOL    HW218042   2.417   1.581   1.983  0.2470 -1.0436 -1.1973
 2194SOL     OW18043   3.756   4.487  12.828 -0.1696 -0.5596  0.2669
 2194SOL    HW118044   3.719   4.573  12.848  0.1734 -0.3481 -0.0082
 2194SOL    HW218045   3.675   4.440  12.809 -0.3217 -0.3990  0.5232
 2195SOL     OW18046   0.907   2.650  13.191 -0.1285 -1.0118  0.6117
 2195SOL    HW118047   0.887   2.722  13.131  2.1538 -0.4302  0.5521
 2195SOL    HW218048   0.999   2.674  13.204 -0.0957 -0.0296 -1.4999
 2196SOL     OW18049   0.708   1.606  11.994 -0.3674 -0.0414 -0.1272
 2196SOL    HW118050   0.690   1.673  11.928  3.4812 -1.1489 -2.2561
 2196SOL    HW218051   0.756   1.546  11.938  0.3315  0.9242 -0.5568
 2197SOL     OW18052   3.766   3.349   6.024 -0.8186 -0.0869 -0.0193
 2197SOL    HW118053   3.739   3.431   5.982 -0.3637  1.2168  2.1989
 2197SOL    HW218054   3.692   3.298   6.057 -0.5696 -0.4798 -0.0782
 2198SOL     OW18055   1.430   1.399  12.590  0.3246 -0.6211  0.1297
 2198SOL    HW118056   1.361   1.386  12.655  0.9967 -1.0020  0.7624
 2198SOL    HW218057   1.504   1.406  12.650 -0.7023 -0.4608  1.3932
 2199SOL     OW18058   4.146   2.271   2.280 -0.1088 -0.1388  0.0813
 2199SOL    HW118059   4.166   2.206   2.213  1.5104  1.7553 -1.2895
 2199SOL    HW218060   4.227   2.323   2.274 -0.9227  0.9053 -1.9371
 2200SOL     OW18061   3.976   0.367   3.026  0.2384  0.1829  0.1419
 2200SOL    HW118062   3.903   0.417   3.062 -0.1419 -0.2585 -0.0059
 2200SOL    HW218063   3.939   0.280   3.012  1.2417 -0.5092  1.7633
 2201SOL     OW18064   2.081   1.914   6.065  0.0225  0.2571  0.1897
 2201SOL    HW118065   2.141   1.913   5.990 -0.7173 -0.5390 -0.4036
 2201SOL    HW218066   2.087   1.821   6.087 -1.2627  0.6889  2.3452
 2202SOL     OW18067   4.542   0.925   2.323  0.2782 -0.2449  0.1038
 2202SOL    HW118068   4.543   0.830   2.312 -1.0764 -0.1686 -0.5809
 2202SOL    HW218069   4.461   0.949   2.278  2.1514  1.3138 -2.4466
 2203SOL     OW18070   2.780   1.972   4.333  0.0886  0.2051 -0.0353
 2203SOL    HW118071   2.801   2.065   4.321  0.4867  0.0788 -0.3150
 2203SOL    HW218072   2.866   1.932   4.320 -0.7762 -1.4931 -0.5400
 2204SOL     OW18073   4.216   0.655   6.515  0.2518  0.1662 -0.7565
 2204SOL    HW118074   4.217   0.686   6.425 -1.5942 -0.5219 -1.0129
 2204SOL    HW218075   4.241   0.563   6.501  1.2076  0.6343 -2.0683
 2205SOL     OW18076   4.559   2.365   1.249  1.1336 -0.6857 -0.3106
 2205SOL    HW118077   4.493   2.355   1.180  1.5683  1.7576 -1.0810
 2205SOL    HW218078   4.550   2.456   1.277 -0.8750 -1.6602  2.1916
 2206SOL     OW18079   1.991   0.913   4.700 -0.4557  0.1068 -0.0963
 2206SOL    HW118080   2.043   0.860   4.761  1.4461 -0.1411 -1.9603
 2206SOL    HW218081   2.052   0.957   4.641  0.3171  1.3888  1.6677
 2207SOL     OW18082   2.038   3.793  13.968  0.1335  0.4937  0.2284
 2207SOL    HW118083   1.970   3.853  13.998  1.4910  0.9945  2.3041
 2207SOL    HW218084   2.016   3.723  14.030 -1.0467 -0.1938 -0.9561
 2208SOL     OW18085   3.986   2.140   3.489  0.2063  0.1956  0.0632
 2208SOL    HW118086   3.902   2.158   3.532 -0.1819 -0.5983 -0.3439
 2208SOL    HW218087   3.954   2.140   3.398 -0.6790 -0.8344  0.3611
 2209SOL     OW18088   4.285   3.817   4.792 -0.2868 -0.0669 -0.0902
 2209SOL    HW118089   4.348   3.880   4.757  0.7563 -1.3286 -0.4400
 2209SOL    HW218090   4.205   3.862   4.764  0.0496  0.4679 -0.1876
 2210SOL     OW18091   0.217   3.445   8.303 -0.0791  0.0960  0.1071
 2210SOL    HW118092   0.258   3.527   8.329  0.6303 -0.5406  0.9828
 2210SOL    HW218093   0.171   3.432   8.385  2.3886 -1.1467  1.3023
 2211SOL     OW18094   4.641   0.477  11.828 -0.2853 -0.1630  0.4867
 2211SOL    HW118095   4.551   0.504  11.846  0.3245  0.1503  3.0420
 2211SOL    HW218096   4.688   0.559  11.838 -0.7234 -0.0742  1.8655
 2212SOL     OW18097   0.153   3.964  12.098  0.1827 -0.0712 -0.4670
 2212SOL    HW118098   0.198   3.973  12.014  2.1836  1.5199  0.7624
 2212SOL    HW218099   0.083   4.029  12.088 -0.0222 -0.2898 -0.4371
 2213SOL     OW18100   3.233   4.607  10.007  0.1037  0.5744  0.4737
 2213SOL    HW118101   3.219   4.702  10.001  0.0095  0.4473 -1.4368
 2213SOL    HW218102   3.328   4.607  10.014  0.0007  2.8425  1.6965
 2214SOL     OW18103   2.257   3.013   9.266 -0.4349 -0.5963 -0.8141
 2214SOL    HW118104   2.188   2.991   9.329 -1.5304 -1.6775 -2.3735
 2214SOL    HW218105   2.209   3.085   9.225 -0.6511  0.3105  1.0793
 2215SOL     OW18106   4.597   0.330   7.391  0.1334 -0.0948  0.2530
 2215SOL    HW118107   4.645   0.256   7.427  2.4362  2.0049  1.4891
 2215SOL    HW218108   4.593   0.383   7.470  0.1132  1.8468 -1.0556
 2216SOL     OW18109   4.474   4.081   3.817 -0.5050 -0.1370  0.0762
 2216SOL    HW118110   4.521   4.152   3.860 -2.9340  0.8670  1.0834
 2216SOL    HW218111   4.396   4.078   3.872 -0.0833 -0.8759  0.6283
 2217SOL     OW18112   2.120   1.620   8.139 -0.1551 -0.3836 -0.2655
 2217SOL    HW118113   2.207   1.654   8.160 -0.6962 -0.2696  1.7641
 2217SOL    HW218114   2.104   1.567   8.217  2.4473  0.3711  0.7890
 2218SOL     OW18115   1.618   2.022   3.675 -0.0556 -0.1755  0.1227
 2218SOL    HW118116   1.524   2.005   3.679 -0.5498  2.7653  0.9705
 2218SOL    HW218117   1.614   2.078   3.597  0.4502 -2.3236 -1.4488
 2219SOL     OW18118   0.485   1.906   5.277 -0.5161  0.2464 -0.5321
 2219SOL    HW118119   0.486   1.811   5.266  1.2833  0.2955 -0.7603
 2219SOL    HW218120   0.578   1.925   5.266 -0.1842 -0.1600  1.6805
 2220SOL     OW18121   3.011   2.914   5.157  0.1849 -0.2378 -0.4073
 2220SOL    HW118122   3.058   2.986   5.116  0.5034  0.3238  0.9250
 2220SOL    HW218123   2.926   2.942   5.123  0.3185 -0.4958 -0.9545
 2221SOL     OW18124   1.551   1.336   5.434 -0.6092 -0.7854  0.2297
 2221SOL    HW118125   1.508   1.253   5.413 -0.5903  0.0061 -2.8120
 2221SOL    HW218126   1.539   1.381   5.351  0.7047 -0.8994 -0.0283
 2222SOL     OW18127   4.446   1.469   5.774 -0.1175 -0.2951  0.1261
 2222SOL    HW118128   4.405   1.543   5.727 -0.3474 -0.1853  0.5020
 2222SOL    HW218129   4.390   1.476   5.851 -0.6800 -1.7703 -0.1493
 2223SOL     OW18130   0.596   2.040   1.488 -0.5653 -0.1478  0.3109
 2223SOL    HW118131   0.516   2.001   1.455 -1.2902  0.9832  0.7249
 2223SOL    HW218132   0.576   2.098   1.561 -0.2630 -0.7714  0.8839
 2224SOL     OW18133   3.398   3.954   1.629  0.1593  0.4167 -0.5261
 2224SOL    HW118134   3.472   4.004   1.663 -1.0508  1.9032 -0.1289
 2224SOL    HW218135   3.355   3.933   1.711  0.5579 -2.3451 -1.0222
 2225SOL     OW18136   2.821   4.280   4.732  0.6591 -0.3122 -0.4645
 2225SOL    HW118137   2.761   4.240   4.794 -1.2834  1.2464 -1.3416
 2225SOL    HW218138   2.836   4.367   4.769  3.5727  0.3089 -3.0679
 2226SOL     OW18139   0.403   3.069  11.121  0.3471  0.2834  0.1915
 2226SOL    HW118140   0.350   2.994  11.147  1.2271 -0.3464  0.1716
 2226SOL    HW218141   0.435   3.111  11.201  0.9757  1.9856 -0.9521
 2227SOL     OW18142   3.421   0.178   2.366  0.1735 -0.0022 -0.8037
 2227SOL    HW118143   3.408   0.171   2.460 -3.9821  1.7738 -1.2435
 2227SOL    HW218144   3.376   0.261   2.352 -1.9992 -0.9575  0.4991
 2228SOL     OW18145   1.849   3.014  11.428 -0.0277 -0.0147  0.3772
 2228SOL    HW118146   1.938   2.977  11.427 -0.2123 -0.5043  2.0277
 2228SOL    HW218147   1.795   2.936  11.417 -0.1489  0.0035  0.8344
 2229SOL     OW18148   3.529   0.412   1.868 -0.4693 -0.2575 -0.2889
 2229SOL    HW118149   3.577   0.476   1.922 -0.3312  1.0067 -1.9238
 2229SOL    HW218150   3.569   0.327   1.890  1.0738  0.7631  0.9058
 2230SOL     OW18151   4.233   4.422   8.949  0.2340  0.4469 -0.1639
 2230SOL    HW118152   4.214   4.400   9.040 -1.2360  1.4664 -0.2220
 2230SOL    HW218153   4.313   4.475   8.952  1.3357 -1.3428  1.8257
 2231SOL     OW18154   3.387   1.030   3.773  0.0260  0.0854 -0.7573
 2231SOL    HW118155   3.306   1.076   3.795  0.1650  0.8363 -1.8228
 2231SOL    HW218156   3.391   1.060   3.682  3.2720  1.8118 -0.0464
 2232SOL     OW18157   4.264   3.011   7.980 -0.0849  0.0248 -0.1494
 2232SOL    HW118158   4.306   3.036   8.062  1.6165 -1.5950 -0.5138
 2232SOL    HW218159   4.336   3.019   7.918 -0.1210 -0.8514 -0.3014
 2233SOL     OW18160   4.528   2.044  17.390  0.2250 -0.4467  0.2485
 2233SOL    HW118161   4.434   2.025  17.395  0.3505 -1.5620 -1.6492
 2233SOL    HW218162   4.544   2.007  17.303 -0.7140 -0.2697  0.0093
 2234SOL     OW18163   4.353   0.862  15.988  0.8439  0.2460  0.1973
 2234SOL    HW118164   4.393   0.946  15.966 -1.2581  1.3130  0.4305
 2234SOL    HW218165   4.391   0.831  16.070 -1.3137 -1.9675  0.3497
 2235SOL     OW18166   1.077   0.651   7.008 -0.1338 -0.2254  0.0650
 2235SOL    HW118167   1.022   0.726   6.987 -1.3987 -0.9407  0.8278
 2235SOL    HW218168   1.017   0.577   6.997  1.2066 -1.4690  1.1659
 2236SOL     OW18169   0.547   3.597  10.120  0.1277  0.1571 -0.3251
 2236SOL    HW118170   0.632   3.637  10.137  0.2097 -0.2495  0.2437
 2236SOL    HW218171   0.517   3.656  10.051  0.9729  1.1440  0.1475
 2237SOL     OW18172   2.920   0.651   0.361 -0.1103 -0.0018 -0.0180
 2237SOL    HW118173   2.863   0.717   0.401  0.5821 -0.2033  1.2752
 2237SOL    HW218174   2.963   0.607   0.435 -1.4874  0.6606  1.1664
 2238SOL     OW18175   3.903   2.918   3.116  0.2322 -0.6394 -0.8528
 2238SOL    HW118176   3.930   2.847   3.058 -1.5896 -0.7388 -1.5812
 2238SOL    HW218177   3.975   2.909   3.179  0.3668 -1.9933 -1.2047
 2239SOL     OW18178   4.636   3.337   7.736  0.4738  0.3186  0.2955
 2239SOL    HW118179   4.617   3.424   7.700 -0.1411 -0.0657 -0.3093
 2239SOL    HW218180   4.551   3.320   7.776 -0.8262  1.7829 -1.8508
 2240SOL     OW18181   3.252   1.078   8.743 -0.3501 -0.5597 -0.3070
 2240SOL    HW118182   3.164   1.044   8.760 -0.7401  1.5859  1.9643
 2240SOL    HW218183   3.252   1.165   8.784  2.1904 -1.2500  1.1243
 2241SOL     OW18184   2.996   2.929   3.146 -0.1126  0.1656 -0.5266
 2241SOL    HW118185   2.974   3.009   3.098  0.0793  1.3272  1.3333
 2241SOL    HW218186   3.033   2.893   3.065 -0.8916 -2.1896  0.1463
 2242SOL     OW18187   3.198   3.231   8.434  0.1523 -0.2226 -0.0594
 2242SOL    HW118188   3.186   3.265   8.345  1.4725 -0.5828 -0.3744
 2242SOL    HW218189   3.104   3.235   8.452 -0.2876  0.4349 -2.5135
 2243SOL     OW18190   0.134   2.832   8.497 -0.3352  0.5268  0.5034
 2243SOL    HW118191   0.173   2.907   8.453 -0.6615 -0.4798 -1.5000
 2243SOL    HW218192   0.178   2.767   8.442 -1.6970 -1.8017  2.1739
 2244SOL     OW18193   3.995   1.851   9.225 -0.9339 -0.1337  0.2643
 2244SOL    HW118194   4.062   1.919   9.219 -0.9326 -0.1921 -0.3668
 2244SOL    HW218195   3.928   1.875   9.161  2.5618  0.8509 -3.0390
 2245SOL     OW18196   0.885   3.830  16.719 -0.4020 -0.2547  0.8206
 2245SOL    HW118197   0.920   3.800  16.803 -0.9132 -1.2720  0.6830
 2245SOL    HW218198   0.967   3.865  16.687 -0.6347 -0.7308 -0.2837
 2246SOL     OW18199   3.932   3.289   4.843 -0.0470  0.3728  0.6734
 2246SOL    HW118200   3.975   3.203   4.843  0.1700  0.4946  3.3917
 2246SOL    HW218201   3.941   3.328   4.756  1.1460 -1.3775  0.0071
 2247SOL     OW18202   3.929   0.851   8.811 -0.5311 -0.7141 -0.5801
 2247SOL    HW118203   3.987   0.867   8.885 -0.3717 -0.6138 -0.7271
 2247SOL    HW218204   3.958   0.766   8.779 -0.6010 -0.0315 -2.4632
 2248SOL     OW18205   0.332   0.403   8.606 -0.1100 -0.7671  0.3833
 2248SOL    HW118206   0.242   0.434   8.609 -0.3245 -1.2957 -0.7564
 2248SOL    HW218207   0.373   0.483   8.639 -1.6347  0.6807 -1.2219
 2249SOL     OW18208   2.159   4.040  16.527 -0.6064 -0.4858 -0.5406
 2249SOL    HW118209   2.234   4.096  16.546 -0.4095 -0.9727  0.1289
 2249SOL    HW218210   2.087   4.087  16.568  0.1213 -0.0102  0.1980
 2250SOL     OW18211   2.223   3.936   4.938 -0.1799  0.3324 -0.4752
 2250SOL    HW118212   2.308   3.901   4.966 -0.9979 -0.4826  1.0034
 2250SOL    HW218213   2.164   3.907   5.008 -1.3006  2.3313 -0.6089
 2251SOL     OW18214   1.028   2.941  10.394 -0.0354  0.3096 -0.5155
 2251SOL    HW118215   1.107   2.996  10.395  1.2772 -1.5896 -0.3955
 2251SOL    HW218216   1.059   2.871  10.337  0.8109  0.6535 -0.4841
 2252SOL     OW18217   1.337   3.920  11.447 -0.2519  0.2522  0.5381
 2252SOL    HW118218   1.265   3.971  11.484  0.5591  3.1924 -1.9278
 2252SOL    HW218219   1.396   3.993  11.429  0.7080 -0.6581 -0.0067
 2253SOL     OW18220   3.749   0.916   1.549  0.1779 -0.4500  0.1580
 2253SOL    HW118221   3.654   0.927   1.557  0.5211  1.9684  0.6957
 2253SOL    HW218222   3.784   0.965   1.624 -0.3957 -1.2865  0.9762
 2254SOL     OW18223   3.781   4.432  12.457 -0.2198  0.0641 -0.9990
 2254SOL    HW118224   3.697   4.477  12.449  0.6123  1.9027  0.6682
 2254SOL    HW218225   3.824   4.480  12.386 -1.5372  1.4670 -0.8453
 2255SOL     OW18226   4.268   0.759   1.204  0.5501  0.1646 -0.2501
 2255SOL    HW118227   4.257   0.815   1.127  1.8047  0.9654  0.1520
 2255SOL    HW218228   4.218   0.680   1.184 -0.3695  0.5107  0.6313
 2256SOL     OW18229   4.447   0.922  11.453  0.1158  0.1489 -0.2900
 2256SOL    HW118230   4.391   0.943  11.528  0.7979 -3.2300  1.1819
 2256SOL    HW218231   4.529   0.969  11.467 -0.3846  0.4520  1.6707
 2257SOL     OW18232   2.587   3.539   2.972 -0.1536 -0.4925 -0.1164
 2257SOL    HW118233   2.623   3.488   2.899 -0.7435 -1.3989  0.2208
 2257SOL    HW218234   2.658   3.533   3.036 -0.6119  0.0515  0.4376
 2258SOL     OW18235   1.743   2.797  11.703 -0.5448 -0.2560 -0.0439
 2258SOL    HW118236   1.767   2.712  11.665 -0.5401 -0.4000  0.2766
 2258SOL    HW218237   1.687   2.835  11.636 -0.2711 -1.2081 -0.8135
 2259SOL     OW18238   3.073   2.584  13.442 -0.5266  0.1161  0.3378
 2259SOL    HW118239   3.166   2.576  13.461 -0.0287  0.8195 -1.8979
 2259SOL    HW218240   3.059   2.662  13.388  0.7362  1.5986  2.1771
 2260SOL     OW18241   2.783   2.038   9.233 -0.1608 -0.0369 -0.0562
 2260SOL    HW118242   2.812   1.989   9.311  0.3079  2.5424  1.4082
 2260SOL    HW218243   2.701   2.074   9.267  0.4735  0.4492  0.9648
 2261SOL     OW18244   2.934   0.518   2.069  1.0427 -0.3007 -0.1077
 2261SOL    HW118245   2.934   0.455   1.997  0.1749 -1.6110  1.0468
 2261SOL    HW218246   2.850   0.507   2.114  0.2050  1.3502 -1.2288
 2262SOL     OW18247   3.288   1.506   5.092 -0.0283  0.1171  0.3008
 2262SOL    HW118248   3.282   1.522   5.187  0.9109 -0.2508  0.4194
 2262SOL    HW218249   3.361   1.566   5.074  1.1694 -0.8218  2.0255
 2263SOL     OW18250   2.383   4.005   6.029 -0.4453  0.4593  0.3961
 2263SOL    HW118251   2.436   4.052   6.093  0.7050  1.2320 -1.1186
 2263SOL    HW218252   2.364   4.076   5.968  0.3173  1.1394  0.9510
 2264SOL     OW18253   0.858   4.078   2.196  0.0788 -0.4570  0.2687
 2264SOL    HW118254   0.934   4.134   2.210 -0.4871  0.4284 -0.2043
 2264SOL    HW218255   0.826   4.054   2.284 -1.0855  1.8480  0.4613
 2265SOL     OW18256   0.651   1.366   3.529  0.1737 -0.1592  0.2024
 2265SOL    HW118257   0.722   1.380   3.593  2.1258 -1.6440 -1.6426
 2265SOL    HW218258   0.681   1.294   3.474 -1.3137 -1.0047  0.5017
 2266SOL     OW18259   0.771   0.871   8.147 -0.3675  0.3996 -0.2195
 2266SOL    HW118260   0.792   0.913   8.063  0.7032 -3.8706 -2.0990
 2266SOL    HW218261   0.827   0.794   8.141  1.5714  1.9881 -2.6614
 2267SOL     OW18262   4.198   2.144   9.589 -0.4681 -0.3108  0.6039
 2267SOL    HW118263   4.125   2.205   9.600 -3.1219 -3.6576  1.4788
 2267SOL    HW218264   4.229   2.148   9.679  0.7101  1.5150  0.1246
 2268SOL     OW18265   0.089   3.319  16.399  0.1230 -0.3113  0.3876
 2268SOL    HW118266   0.179   3.338  16.374  0.4844 -1.0206  1.1462
 2268SOL    HW218267   0.103   3.300  16.492 -1.1987 -0.1702  0.6157
 2269SOL     OW18268   4.082   0.496  11.962  0.9378  0.4358 -0.4847
 2269SOL    HW118269   4.176   0.483  11.975  0.9821  0.7062 -0.5327
 2269SOL    HW218270   4.078   0.591  11.949 -2.1581  0.4654  0.6445
 2270SOL     OW18271   4.376   0.158   8.449 -0.2311 -0.6728  0.5048
 2270SOL    HW118272   4.408   0.159   8.540  1.7116 -0.7308 -0.1776
 2270SOL    HW218273   4.425   0.232   8.413 -3.4790  0.9506 -0.5793
 2271SOL     OW18274   0.663   0.131   3.573  0.0407  0.6416 -0.1522
 2271SOL    HW118275   0.757   0.125   3.554  0.2053 -0.8629  1.1458
 2271SOL    HW218276   0.622   0.098   3.493  0.2297  1.9065 -0.7773
 2272SOL     OW18277   2.706   3.043   9.311  0.5654 -0.0308 -0.0628
 2272SOL    HW118278   2.790   3.052   9.355  1.1968 -0.3009 -1.2216
 2272SOL    HW218279   2.666   2.980   9.370 -2.0445 -0.6740 -2.4969
 2273SOL     OW18280   4.615   2.568   3.772 -0.7418  0.0099 -0.1721
 2273SOL    HW118281   4.708   2.590   3.761 -0.6993  0.3042  0.7407
 2273SOL    HW218282   4.569   2.639   3.728 -1.3350  0.4339  1.1298
 2274SOL     OW18283   0.958   0.443  16.805  0.3357  0.0359 -1.0270
 2274SOL    HW118284   1.022   0.385  16.847  0.3721  1.1394  0.4659
 2274SOL    HW218285   0.925   0.495  16.879 -0.2265 -1.1574 -0.4418
 2275SOL     OW18286   2.283   3.733   5.534 -0.3571 -0.2220  0.5293
 2275SOL    HW118287   2.210   3.780   5.494 -0.1892 -0.8605 -0.5282
 2275SOL    HW218288   2.295   3.770   5.621  0.8460  1.2599 -0.2584
 2276SOL     OW18289   3.264   3.421  11.971  0.0062 -0.3886 -0.1503
 2276SOL    HW118290   3.273   3.516  11.965  0.5446 -0.3458  1.3979
 2276SOL    HW218291   3.354   3.389  11.976 -0.1864 -1.2001 -1.8055
 2277SOL     OW18292   1.538   3.237   4.659  0.7729 -0.4513 -0.1003
 2277SOL    HW118293   1.462   3.179   4.668 -0.2229  0.7766 -0.6446
 2277SOL    HW218294   1.484   3.312   4.634  0.4912  0.1017  2.2273
 2278SOL     OW18295   1.777   3.510  15.165 -0.2139  0.6524  0.6338
 2278SOL    HW118296   1.706   3.497  15.228  0.5969  0.2427  1.4656
 2278SOL    HW218297   1.730   3.530  15.084 -0.2679 -1.8488  0.0474
 2279SOL     OW18298   0.168   3.654   7.792 -0.3556 -0.0183  0.0090
 2279SOL    HW118299   0.235   3.722   7.795 -0.0485 -0.1619 -3.0452
 2279SOL    HW218300   0.098   3.687   7.736 -0.3123 -3.5663 -2.1840
 2280SOL     OW18301   4.328   4.552   4.056 -0.3087  0.2836  0.6308
 2280SOL    HW118302   4.380   4.575   4.133  1.6862  3.4367 -1.6626
 2280SOL    HW218303   4.262   4.499   4.101  1.4146  0.0438  2.8897
 2281SOL     OW18304   3.934   0.207   8.414 -0.3594  0.6153  0.1239
 2281SOL    HW118305   3.869   0.266   8.453 -1.6196  0.2761 -1.4236
 2281SOL    HW218306   3.887   0.125   8.427  0.7681  0.3317  2.3346
 2282SOL     OW18307   3.662   1.956  10.745  0.3901  0.6020 -0.2407
 2282SOL    HW118308   3.739   2.008  10.766 -0.1155  1.1715  0.1789
 2282SOL    HW218309   3.600   2.024  10.719 -0.5633  0.1129  0.7827
 2283SOL     OW18310   3.446   4.594   8.968 -0.1114 -0.4454  0.3600
 2283SOL    HW118311   3.381   4.537   9.009 -1.5346  0.5499 -0.4955
 2283SOL    HW218312   3.442   4.569   8.876 -1.3165 -0.9731  0.5593
 2284SOL     OW18313   1.046   0.365   4.570 -0.4831 -0.6210  0.6523
 2284SOL    HW118314   1.106   0.416   4.516 -1.4391  0.2095  0.3779
 2284SOL    HW218315   1.100   0.289   4.591  0.0741 -0.1999  0.7562
 2285SOL     OW18316   0.103   4.184   2.937 -0.0883  0.1372 -0.5523
 2285SOL    HW118317   0.143   4.254   2.988  2.9341 -2.5817  0.7572
 2285SOL    HW218318   0.177   4.171   2.877 -0.1964 -1.5213 -0.3262
 2286SOL     OW18319   0.680   4.554   3.690  0.3003  0.4746  0.2614
 2286SOL    HW118320   0.687   4.646   3.664  0.4454  0.5237  0.4694
 2286SOL    HW218321   0.609   4.523   3.635 -2.0190  1.9358  2.4150
 2287SOL     OW18322   2.049   2.706  17.173 -0.3482 -0.0712  0.0168
 2287SOL    HW118323   2.068   2.672  17.086 -0.7013 -1.0318  0.3080
 2287SOL    HW218324   2.013   2.634  17.226 -0.3725 -0.5415 -0.6430
 2288SOL     OW18325   3.387   3.931   5.335 -0.2512  0.0656 -0.6007
 2288SOL    HW118326   3.441   4.007   5.312 -1.2371  0.9958  0.1854
 2288SOL    HW218327   3.455   3.863   5.331 -1.8183 -1.5434  0.2042
 2289SOL     OW18328   1.493   0.003  10.721 -0.3803  1.2860 -0.1855
 2289SOL    HW118329   1.475   0.073  10.785 -3.3067 -0.4158  0.8441
 2289SOL    HW218330   1.428   4.663  10.747 -1.0554  1.0760 -2.4564
 2290SOL     OW18331   3.887   2.983   6.103 -0.3680  0.0759  0.2137
 2290SOL    HW118332   3.877   2.952   6.014 -2.5099  1.1892  0.0499
 2290SOL    HW218333   3.947   3.056   6.087 -1.1477  0.6280 -0.2380
 2291SOL     OW18334   0.443   4.613   7.354 -0.3232  0.2975  0.0939
 2291SOL    HW118335   0.516   4.611   7.417 -2.8125  0.1091  2.9600
 2291SOL    HW218336   0.365   4.607   7.409 -0.2486  2.1266  0.3951
 2292SOL     OW18337   3.494   2.570  13.770  0.4801 -0.2368 -0.3453
 2292SOL    HW118338   3.493   2.511  13.846  1.0130  0.1504 -0.0401
 2292SOL    HW218339   3.436   2.526  13.708 -2.4420  1.3176  1.2877
 2293SOL     OW18340   0.993   4.021   6.852 -0.5918 -0.2096 -0.0904
 2293SOL    HW118341   0.936   4.094   6.829 -1.0552 -0.6787 -0.4196
 2293SOL    HW218342   0.919   3.974   6.891 -1.2787  0.3615 -0.7181
 2294SOL     OW18343   1.230   4.360  11.797 -0.4975  0.4791 -0.2104
 2294SOL    HW118344   1.234   4.434  11.737  2.3069  0.5364  0.0256
 2294SOL    HW218345   1.148   4.370  11.846 -0.3932  0.0947  0.0440
 2295SOL     OW18346   0.184   3.590  10.389  0.3863  0.1549  1.0032
 2295SOL    HW118347   0.241   3.531  10.339 -2.1420 -3.5590  2.4905
 2295SOL    HW218348   0.247   3.656  10.417  1.1663 -0.0935 -0.1563
 2296SOL     OW18349   2.554   1.873   4.206 -0.0604  0.4307  0.4563
 2296SOL    HW118350   2.517   1.792   4.239 -2.3964  0.7738 -1.3385
 2296SOL    HW218351   2.640   1.886   4.248  0.3166 -0.7397  0.0406
 2297SOL     OW18352   3.576   0.935  10.863  0.2007 -0.3951  0.1260
 2297SOL    HW118353   3.640   0.867  10.885 -1.2227 -1.2200  1.7583
 2297SOL    HW218354   3.565   0.932  10.768 -1.7474 -0.0555  0.3390
 2298SOL     OW18355   3.636   2.591   7.385 -0.4189 -0.0685  0.0171
 2298SOL    HW118356   3.661   2.621   7.298 -0.3730 -2.1821 -0.6763
 2298SOL    HW218357   3.641   2.670   7.439 -0.2884  1.9449 -2.9564
 2299SOL     OW18358   0.827   3.066  11.948  0.0595 -0.2586 -0.0551
 2299SOL    HW118359   0.915   3.079  11.982  0.7797 -2.2734 -1.2018
 2299SOL    HW218360   0.774   3.098  12.021 -1.6062 -0.1476 -1.2958
 2300SOL     OW18361   1.322   1.882   5.621  0.0095 -0.2421 -0.1717
 2300SOL    HW118362   1.336   1.974   5.601 -1.3969  0.1910  0.8894
 2300SOL    HW218363   1.287   1.882   5.710 -0.0909  1.6011 -0.2144
 2301SOL     OW18364   0.045   0.568   5.861 -0.0527  0.1080 -0.5083
 2301SOL    HW118365   0.127   0.608   5.888  1.0917 -2.0583 -0.7430
 2301SOL    HW218366   0.002   0.632   5.803  1.7678  2.1308  0.3841
 2302SOL     OW18367   4.660   1.460   4.534 -0.3996  0.6328 -0.5216
 2302SOL    HW118368   4.658   1.552   4.507  0.5351  1.0703  0.8726
 2302SOL    HW218369   4.565   1.450   4.535 -0.0712 -2.0027  3.0153
 2303SOL     OW18370   0.272   0.615   2.905  0.5009  0.1553 -0.0681
 2303SOL    HW118371   0.264   0.654   2.992  0.5514  0.1617 -0.0666
 2303SOL    HW218372   0.322   0.679   2.854  0.8302 -2.4822 -3.0259
 2304SOL     OW18373   3.120   4.408   8.720  0.1206  0.3445  0.4635
 2304SOL    HW118374   3.130   4.323   8.763  0.6312  0.5267  0.7103
 2304SOL    HW218375   3.032   4.437   8.743 -0.5957 -2.1560  0.8770
 2305SOL     OW18376   1.551   4.689   3.455 -0.4237 -0.1998 -0.1288
 2305SOL    HW118377   1.495   0.041   3.457  0.5006  0.4600 -0.1173
 2305SOL    HW218378   1.532   4.663   3.365 -0.8931 -2.7354  0.7139
 2306SOL     OW18379   2.887   4.294   6.117 -0.2785  0.1926  0.4094
 2306SOL    HW118380   2.814   4.250   6.072  2.8636 -3.6497 -0.9777
 2306SOL    HW218381   2.883   4.380   6.077 -1.3978 -0.1214 -0.1622
 2307SOL     OW18382   3.796   4.395   8.107 -0.5141  0.2158  0.9128
 2307SOL    HW118383   3.796   4.312   8.059 -1.7345 -0.3115  1.8365
 2307SOL    HW218384   3.843   4.460   8.054 -1.2348  0.7867  0.9729
 2308SOL     OW18385   1.727   3.963   6.415 -0.1080  0.4445 -0.5456
 2308SOL    HW118386   1.682   3.915   6.484 -0.7339  0.2360 -1.0942
 2308SOL    HW218387   1.712   3.910   6.337  1.5163 -0.1838 -0.4402
 2309SOL     OW18388   2.411   0.126   2.035  0.3078 -0.2093  0.3799
 2309SOL    HW118389   2.419   0.035   2.063 -0.8276 -0.0926  1.0823
 2309SOL    HW218390   2.426   0.114   1.941  0.0187  0.2695  0.2721
 2310SOL     OW18391   3.654   1.211  13.219 -0.7350  0.0379 -0.0491
 2310SOL    HW118392   3.680   1.302  13.232 -0.2606  0.2108 -2.2642
 2310SOL    HW218393   3.718   1.174  13.158 -1.0772  0.2670 -0.5492
 2311SOL     OW18394   0.920   3.196   4.448 -0.3465 -0.6077  0.0333
 2311SOL    HW118395   0.848   3.229   4.501 -0.9735 -0.8535 -0.6804
 2311SOL    HW218396   0.876   3.164   4.370 -0.0485  4.2171 -2.1148
 2312SOL     OW18397   2.135   4.098   7.197 -0.1647  0.1163  0.2158
 2312SOL    HW118398   2.066   4.109   7.132  1.7977  0.8700 -1.7077
 2312SOL    HW218399   2.174   4.185   7.195 -0.2762  0.1547 -0.3115
 2313SOL     OW18400   2.135   1.944   3.096  0.5540  0.8377  0.1568
 2313SOL    HW118401   2.154   1.872   3.156 -0.2710 -0.2801 -0.9314
 2313SOL    HW218402   2.219   1.990   3.107  0.7523  0.0382  1.8790
 2314SOL     OW18403   2.696   3.316   5.811 -0.7486 -0.5104  0.0528
 2314SOL    HW118404   2.620   3.368   5.837 -0.7047  0.0221 -0.8875
 2314SOL    HW218405   2.659   3.229   5.824  1.5399 -1.1820  2.0522
 2315SOL     OW18406   0.321   2.867   3.744 -0.3489  0.1346  0.1153
 2315SOL    HW118407   0.305   2.958   3.716  1.0344  0.2858 -0.2080
 2315SOL    HW218408   0.404   2.855   3.698  1.0392  1.2661  2.3159
 2316SOL     OW18409   4.268   2.213   1.844  0.2577 -0.0654 -0.0871
 2316SOL    HW118410   4.333   2.243   1.907 -0.3336  3.2570 -1.0368
 2316SOL    HW218411   4.219   2.296   1.847  2.9991  1.5749 -0.5055
 2317SOL     OW18412   0.968   2.566  11.917  0.4045  0.3181 -0.1184
 2317SOL    HW118413   0.879   2.542  11.891  1.8243 -1.0109 -3.8064
 2317SOL    HW218414   0.944   2.624  11.989  1.3937 -0.1981  0.6262
 2318SOL     OW18415   2.052   2.116  17.303 -0.2357 -0.0025  0.9057
 2318SOL    HW118416   2.081   2.025  17.298  1.0444  0.4750 -0.2544
 2318SOL    HW218417   2.057   2.126  17.398 -0.1724 -0.5728  0.9628
 2319SOL     OW18418   2.034   4.326   9.819 -0.2570 -0.2362 -0.2252
 2319SOL    HW118419   2.114   4.305   9.869 -1.6514  0.7115  2.3775
 2319SOL    HW218420   2.071   4.375   9.745 -1.0975  0.6850 -0.0246
 2320SOL     OW18421   4.377   2.300   4.042 -0.0957 -0.5896 -0.4483
 2320SOL    HW118422   4.350   2.389   4.020  0.1865 -0.2911  0.4140
 2320SOL    HW218423   4.402   2.274   3.953  0.0569 -0.5158 -0.4259
 2321SOL     OW18424   1.590   4.056   2.151  0.5804 -0.1071 -0.0745
 2321SOL    HW118425   1.510   4.063   2.100  1.5630 -1.8998 -1.9067
 2321SOL    HW218426   1.580   4.123   2.218  1.0575 -0.6425  0.5372
 2322SOL     OW18427   3.684   3.550   5.540  1.0694 -0.7265 -0.1045
 2322SOL    HW118428   3.747   3.477   5.536  0.6386 -0.9018 -3.9339
 2322SOL    HW218429   3.614   3.513   5.594 -0.5119  0.8622 -1.0591
 2323SOL     OW18430   3.343   2.166   3.019  0.4443  0.2052 -0.7902
 2323SOL    HW118431   3.252   2.171   2.993  0.7434 -0.4632 -1.9606
 2323SOL    HW218432   3.381   2.215   2.946  0.6138 -0.7751 -1.3735
 2324SOL     OW18433   3.866   1.727   7.777 -0.1426 -0.0348 -0.0889
 2324SOL    HW118434   3.863   1.632   7.788  1.5116 -0.0833 -0.0716
 2324SOL    HW218435   3.954   1.739   7.741 -0.4802  2.5083 -0.0953
 2325SOL     OW18436   3.572   0.897   6.369 -0.1055  0.6930  0.0429
 2325SOL    HW118437   3.537   0.809   6.349  2.4898 -0.3229  0.0007
 2325SOL    HW218438   3.600   0.926   6.283 -0.6776  0.7286 -0.1325
 2326SOL     OW18439   0.762   0.340   4.111 -0.0209 -0.2671  0.1398
 2326SOL    HW118440   0.682   0.291   4.088  0.0564 -0.4906  0.3363
 2326SOL    HW218441   0.831   0.278   4.087 -1.0020 -1.2118 -0.2642
 2327SOL     OW18442   2.716   0.627   6.633 -0.0900 -0.6188 -0.2928
 2327SOL    HW118443   2.778   0.664   6.696 -1.9022  1.1889  0.4080
 2327SOL    HW218444   2.777   0.564   6.595 -2.1015 -2.2698 -0.8184
 2328SOL     OW18445   3.661   2.400   5.263 -0.7248 -0.7609 -0.5338
 2328SOL    HW118446   3.691   2.402   5.172 -0.5549  0.4767 -0.4519
 2328SOL    HW218447   3.701   2.479   5.300 -0.9871  0.0429 -1.9475
 2329SOL     OW18448   2.525   0.240   7.271 -0.3585 -0.2227 -0.0093
 2329SOL    HW118449   2.556   0.285   7.350 -0.6201 -0.1572  0.0595
 2329SOL    HW218450   2.572   0.293   7.207  0.6083 -2.2789 -0.9832
 2330SOL     OW18451   2.694   4.606   4.735  0.2786 -0.1076 -0.1250
 2330SOL    HW118452   2.707   4.561   4.819  1.3322 -1.0626 -0.7899
 2330SOL    HW218453   2.766   4.585   4.675 -0.3942 -1.5208 -0.4453
 2331SOL     OW18454   0.135   4.250   6.924  0.0747  0.5389 -0.2146
 2331SOL    HW118455   0.041   4.239   6.937  0.4888 -0.1898  2.1859
 2331SOL    HW218456   0.148   4.337   6.961 -3.2193 -0.1953  2.7564
 2332SOL     OW18457   1.893   3.457   0.708  0.0009 -0.5002 -0.1702
 2332SOL    HW118458   1.833   3.382   0.703  0.9886 -1.3487  0.7691
 2332SOL    HW218459   1.900   3.495   0.620 -0.3785 -0.5289 -0.2129
 2333SOL     OW18460   4.000   3.560   1.448  0.4755 -0.5180 -0.6430
 2333SOL    HW118461   4.004   3.585   1.356 -2.3836  2.2103 -0.0420
 2333SOL    HW218462   3.906   3.547   1.457  0.3935  0.8810  0.5213
 2334SOL     OW18463   3.678   0.334   4.059 -0.4558 -0.0622 -0.3594
 2334SOL    HW118464   3.638   0.271   3.999 -1.0903  0.0752 -0.0812
 2334SOL    HW218465   3.607   0.396   4.072 -0.8821 -1.0563  2.1104
 2335SOL     OW18466   2.707   2.503   6.492 -0.3617  0.0460  0.4754
 2335SOL    HW118467   2.707   2.557   6.414  2.1167  0.4406  0.7324
 2335SOL    HW218468   2.800   2.481   6.494 -0.5005 -0.4868  1.2651
 2336SOL     OW18469   1.282   3.417  12.882  0.0796 -0.7480  0.2621
 2336SOL    HW118470   1.288   3.386  12.792 -0.0217  1.4639 -0.5092
 2336SOL    HW218471   1.348   3.486  12.879 -0.8351  0.0806 -1.2587
 2337SOL     OW18472   4.622   0.339   4.398  0.0371  0.1137 -0.0784
 2337SOL    HW118473   4.595   0.331   4.489  1.4699  3.5667  0.6374
 2337SOL    HW218474   4.685   0.267   4.398  0.5522  0.5724  0.2411
 2338SOL     OW18475   0.245   4.001   6.958  0.1386  0.5575  0.0055
 2338SOL    HW118476   0.215   4.089   6.939 -0.7112  0.0016 -1.1871
 2338SOL    HW218477   0.169   3.954   6.923  0.7786 -0.6762  0.2774
 2339SOL     OW18478   2.045   2.522  12.745 -0.2767  0.0896 -0.3768
 2339SOL    HW118479   1.987   2.534  12.670 -0.0011  1.1887 -0.4250
 2339SOL    HW218480   2.070   2.430  12.738 -0.0146 -0.0028  1.7837
 2340SOL     OW18481   4.566   1.541   8.185 -0.0737 -0.1901  0.3192
 2340SOL    HW118482   4.657   1.528   8.212 -0.3824 -0.6162  1.1481
 2340SOL    HW218483   4.552   1.629   8.218 -1.1181 -0.3055  0.1851
 2341SOL     OW18484   2.634   2.596   7.377 -0.2188 -0.0382 -0.5810
 2341SOL    HW118485   2.708   2.548   7.415 -1.7652  0.3362  2.9314
 2341SOL    HW218486   2.679   2.623   7.297 -3.4091  2.4688 -1.5474
 2342SOL     OW18487   2.057   2.260  12.449  0.6487 -0.0069  0.3385
 2342SOL    HW118488   2.086   2.274  12.539  0.7818  0.0009  0.2942
 2342SOL    HW218489   1.961   2.252  12.456  0.7043 -1.3757 -0.4612
 2343SOL     OW18490   2.960   0.784   5.122 -0.5511 -0.1160 -0.0453
 2343SOL    HW118491   3.014   0.719   5.167  0.0701  0.6230  0.2908
 2343SOL    HW218492   2.950   0.742   5.037  3.4869  0.6038 -0.8733
 2344SOL     OW18493   3.448   1.346   7.788 -0.5786  0.3983 -0.1987
 2344SOL    HW118494   3.417   1.314   7.873  1.8504 -2.5517 -0.4310
 2344SOL    HW218495   3.444   1.441   7.801 -0.6290  0.2411  0.9568
 2345SOL     OW18496   3.428   2.110  10.670 -0.3274 -0.1630 -0.2902
 2345SOL    HW118497   3.371   2.034  10.658 -1.3589  1.0580 -3.0896
 2345SOL    HW218498   3.365   2.181  10.657  0.6477  0.4853 -1.4893
 2346SOL     OW18499   1.748   4.407  13.531 -1.1336  0.1357  0.2021
 2346SOL    HW118500   1.837   4.440  13.521 -1.0808 -0.3019 -0.7337
 2346SOL    HW218501   1.735   4.417  13.625 -0.4448  1.3005  0.1678
 2347SOL     OW18502   2.967   2.913   9.387  0.2374  0.1246 -0.0619
 2347SOL    HW118503   2.930   2.875   9.467  3.5287  0.2642  1.5207
 2347SOL    HW218504   3.026   2.974   9.431  1.9137  0.4073 -2.6893
 2348SOL     OW18505   0.292   2.289   6.657  0.2397  0.0307  0.2124
 2348SOL    HW118506   0.302   2.229   6.583 -0.4530 -1.3289  1.2257
 2348SOL    HW218507   0.384   2.315   6.665  0.3098 -0.7748  2.0561
 2349SOL     OW18508   1.738   1.980   6.508  0.0190  0.5083 -0.2865
 2349SOL    HW118509   1.806   2.043   6.532  1.5649 -1.0759 -0.4638
 2349SOL    HW218510   1.660   2.035   6.513 -1.1834 -1.3295  1.0977
 2350SOL     OW18511   0.741   2.531   2.861  0.1115  0.0236 -0.6299
 2350SOL    HW118512   0.808   2.500   2.922  0.5739 -2.2968 -2.3324
 2350SOL    HW218513   0.690   2.454   2.836 -2.5930  0.9934  1.8577
 2351SOL     OW18514   2.438   1.051   4.545 -0.1347 -0.0275 -0.6942
 2351SOL    HW118515   2.343   1.060   4.554  0.1422  1.8016  0.3908
 2351SOL    HW218516   2.467   1.023   4.632  0.3865 -0.2715 -0.9495
 2352SOL     OW18517   4.631   4.504   2.826 -0.3403 -0.4240 -0.0290
 2352SOL    HW118518   4.693   4.577   2.814  1.2858 -1.4794  1.9647
 2352SOL    HW218519   4.625   4.481   2.733  1.3196 -0.6052 -0.0967
 2353SOL     OW18520   1.966   4.172   1.662 -0.1817  0.3459  0.1077
 2353SOL    HW118521   2.044   4.167   1.606 -0.7640 -1.8731 -0.4979
 2353SOL    HW218522   2.009   4.162   1.747  0.9454 -0.4917 -0.5671
 2354SOL     OW18523   1.606   3.458   9.696  0.5822  0.1927  0.2119
 2354SOL    HW118524   1.633   3.494   9.781 -0.8118 -0.9491  1.1290
 2354SOL    HW218525   1.562   3.533   9.659 -1.6793  1.2872  5.1086
 2355SOL     OW18526   2.154   4.522   6.347 -0.4248 -0.1476  0.0693
 2355SOL    HW118527   2.122   4.607   6.379 -1.5427  0.6144 -3.0622
 2355SOL    HW218528   2.074   4.487   6.307 -0.7430  1.4156 -0.7008
 2356SOL     OW18529   0.434   0.365   3.163 -0.4681 -0.2978 -0.1572
 2356SOL    HW118530   0.404   0.302   3.099 -0.5063 -1.7128  1.2431
 2356SOL    HW218531   0.355   0.418   3.160 -0.1650  0.3229  2.3893
 2357SOL     OW18532   3.730   2.201   4.543 -0.1287 -0.0770 -0.7743
 2357SOL    HW118533   3.682   2.125   4.509 -1.2595  0.3466 -0.1201
 2357SOL    HW218534   3.792   2.160   4.603 -1.4064 -0.6860  0.1270
 2358SOL     OW18535   4.628   1.894   7.980 -0.3997  0.4899 -0.1196
 2358SOL    HW118536   4.610   1.876   7.888 -1.0331  0.7658 -0.0496
 2358SOL    HW218537   4.656   1.985   7.979  0.1780  0.3295  0.7581
 2359SOL     OW18538   1.041   1.915   0.144  0.2920 -0.5722 -0.4379
 2359SOL    HW118539   1.044   1.829   0.102 -1.0277 -0.3930 -0.8931
 2359SOL    HW218540   0.993   1.883   0.220  1.5762  0.4842  0.8224
 2360SOL     OW18541   4.068   1.007   6.358 -0.0636 -0.1821  0.9938
 2360SOL    HW118542   4.108   0.922   6.339 -2.0404 -1.3045  1.8331
 2360SOL    HW218543   4.019   1.037   6.282  0.6310 -3.5269 -0.7834
 2361SOL     OW18544   1.097   3.335   7.819 -0.4603  0.1287  0.3635
 2361SOL    HW118545   1.155   3.327   7.744 -0.8752 -0.3685  0.0938
 2361SOL    HW218546   1.166   3.325   7.885 -0.4500  1.7558  0.6118
 2362SOL     OW18547   3.899   0.953   7.267 -0.4392 -0.4491  0.6468
 2362SOL    HW118548   3.828   0.938   7.205  0.3769  0.2287 -0.4567
 2362SOL    HW218549   3.854   0.961   7.352 -0.5154 -1.5379  0.7089
 2363SOL     OW18550   3.613   3.341   0.809 -0.7662 -0.3807 -0.3387
 2363SOL    HW118551   3.676   3.359   0.879 -0.0425 -1.1129 -0.7895
 2363SOL    HW218552   3.662   3.295   0.740 -2.6312 -1.2760 -1.0568
 2364SOL     OW18553   3.127   0.591  13.406  0.8691 -0.4178 -0.0639
 2364SOL    HW118554   3.129   0.631  13.319 -0.2227  0.0913  0.1398
 2364SOL    HW218555   3.214   0.554  13.418 -0.1267 -2.2131  1.5310
 2365SOL     OW18556   0.561   3.428   5.137  0.2440  0.0683  0.5947
 2365SOL    HW118557   0.611   3.380   5.071 -0.4560 -0.2951  0.3227
 2365SOL    HW218558   0.486   3.445   5.079  0.6757 -1.1997 -0.3347
 2366SOL     OW18559   0.347   2.276  15.562 -0.2577  0.6655  0.1969
 2366SOL    HW118560   0.265   2.302  15.604 -1.2892 -1.1201 -0.7100
 2366SOL    HW218561   0.323   2.203  15.505  0.3716  1.0382 -0.5604
 2367SOL     OW18562   1.292   1.199   9.852  0.5169 -0.2115 -0.1996
 2367SOL    HW118563   1.273   1.107   9.833 -0.7460 -0.0716  0.4262
 2367SOL    HW218564   1.372   1.224   9.806 -1.3988 -0.4802 -3.6391
 2368SOL     OW18565   2.201   0.800   3.378 -0.3659  0.0846  0.4473
 2368SOL    HW118566   2.136   0.808   3.308  0.2462  0.5240 -0.0702
 2368SOL    HW218567   2.176   0.711   3.404  1.7155 -1.1290 -1.7171
 2369SOL     OW18568   2.971   3.907  12.141  0.0040 -0.0841 -0.0925
 2369SOL    HW118569   2.934   3.988  12.175  0.3379 -0.2585  0.6945
 2369SOL    HW218570   2.970   3.870  12.230 -1.4407 -0.3603 -0.2351
 2370SOL     OW18571   3.725   0.775  16.225  0.8156  0.0117  0.6028
 2370SOL    HW118572   3.708   0.868  16.242 -0.2701 -0.4396  1.9792
 2370SOL    HW218573   3.790   0.784  16.155  0.2754 -1.8464 -0.1231
 2371SOL     OW18574   2.445   4.165   8.316  0.4448 -0.0474  0.0279
 2371SOL    HW118575   2.513   4.139   8.378  1.3956  2.7073  0.1315
 2371SOL    HW218576   2.497   4.199   8.243  1.1175  2.5963  1.7401
 2372SOL     OW18577   4.697   0.388  11.317  0.2320  0.1615  0.2052
 2372SOL    HW118578   4.635   0.317  11.339 -0.3231  0.2160 -1.1589
 2372SOL    HW218579   0.056   0.345  11.311 -0.2581 -0.6034 -1.4601
 2373SOL     OW18580   2.828   4.371   3.350 -0.1465  0.3135 -0.5600
 2373SOL    HW118581   2.844   4.361   3.444  1.5744  0.3818 -0.8371
 2373SOL    HW218582   2.810   4.465   3.345 -1.0308  0.3059  2.5424
 2374SOL     OW18583   3.269   0.099   2.052 -0.6057  0.9037  0.3386
 2374SOL    HW118584   3.255   0.186   2.090 -0.9092  1.5216 -1.1917
 2374SOL    HW218585   3.259   0.117   1.959 -3.4787  2.0323  0.8331
 2375SOL     OW18586   1.039   1.700   8.122 -0.1303 -0.6169  0.0076
 2375SOL    HW118587   1.060   1.793   8.115  1.2912 -0.8642  1.1129
 2375SOL    HW218588   0.970   1.704   8.189 -0.6610 -2.7269 -0.4154
 2376SOL     OW18589   2.354   0.910  11.736  0.2293 -0.5983 -0.1982
 2376SOL    HW118590   2.329   1.002  11.725 -0.1441 -0.4666  1.6334
 2376SOL    HW218591   2.309   0.876  11.659 -2.6994  2.0906  0.3609
 2377SOL     OW18592   2.526   1.460  16.347  0.0982  0.0885 -0.2050
 2377SOL    HW118593   2.582   1.387  16.373 -1.5637 -2.2053 -3.0254
 2377SOL    HW218594   2.533   1.513  16.426  0.5572  0.5266 -0.5403
 2378SOL     OW18595   1.616   3.068   5.855  0.1796  0.1705 -0.3869
 2378SOL    HW118596   1.579   3.147   5.895  2.7375  1.0593  0.1754
 2378SOL    HW218597   1.552   3.008   5.893  0.8597 -1.6056 -2.0641
 2379SOL     OW18598   0.957   0.639   7.791 -0.3526  0.5334  0.2583
 2379SOL    HW118599   0.981   0.632   7.884  3.4530 -0.1795 -0.7596
 2379SOL    HW218600   1.010   0.568   7.754 -1.3329 -0.0697  0.0041
 2380SOL     OW18601   0.795   0.200  14.125 -0.1531  0.3146  0.3439
 2380SOL    HW118602   0.868   0.217  14.184  0.9167  0.9069 -1.1582
 2380SOL    HW218603   0.747   0.282  14.115 -0.8166 -0.3970 -2.2680
 2381SOL     OW18604   1.555   1.928   7.544 -0.0740 -0.0915  0.7524
 2381SOL    HW118605   1.572   1.861   7.477 -1.0679 -1.5431  1.9431
 2381SOL    HW218606   1.491   1.986   7.502 -1.3710 -2.0500 -0.0166
 2382SOL     OW18607   3.816   1.933   9.639  0.2644 -0.2364  0.4802
 2382SOL    HW118608   3.744   1.977   9.685  1.7621  0.3789  2.2441
 2382SOL    HW218609   3.819   1.973   9.552 -1.5041  1.7427  1.3160
 2383SOL     OW18610   1.227   4.145   4.868 -0.5695  0.1641  0.1171
 2383SOL    HW118611   1.162   4.215   4.876  1.3308  1.9903 -0.2408
 2383SOL    HW218612   1.176   4.088   4.925  0.9494 -0.4456  0.8669
 2384SOL     OW18613   0.334   4.445   0.024 -0.3039  0.7393 -0.0177
 2384SOL    HW118614   0.369   4.461   0.112  1.1032  1.7308 -0.7635
 2384SOL    HW218615   0.384   4.508  17.677  1.3329  0.2694  0.9899
 2385SOL     OW18616   4.204   1.736   4.846 -0.1371 -0.3170 -0.2247
 2385SOL    HW118617   4.199   1.653   4.893  0.6980  1.2969  2.7712
 2385SOL    HW218618   4.241   1.695   4.768  1.2985 -2.0212  1.3409
 2386SOL     OW18619   0.433   3.173   5.253  0.5216 -0.4341 -0.7632
 2386SOL    HW118620   0.365   3.237   5.272  0.2472 -0.8526 -0.3389
 2386SOL    HW218621   0.481   3.241   5.206  0.3006  0.3856  0.2039
 2387SOL     OW18622   4.628   2.991   4.240  0.1427  0.3130  0.0093
 2387SOL    HW118623   4.712   2.967   4.279  0.9507 -0.5531 -2.2727
 2387SOL    HW218624   4.601   3.063   4.297 -0.7437 -1.1918  1.5071
 2388SOL     OW18625   2.473   3.774   3.040  0.1475  0.3453  0.1100
 2388SOL    HW118626   2.549   3.830   3.027 -1.1778  2.0782 -0.0629
 2388SOL    HW218627   2.512   3.686   3.041  1.7236  1.0078 -3.2400
 2389SOL     OW18628   4.197   1.766  10.091 -0.2779  0.0665 -0.2094
 2389SOL    HW118629   4.190   1.739  10.182  1.0009  0.2811 -0.0497
 2389SOL    HW218630   4.206   1.861  10.095 -0.2176  0.1009 -1.0723
 2390SOL     OW18631   2.935   3.432   7.975 -0.0727 -0.5000 -0.6512
 2390SOL    HW118632   2.891   3.425   8.060  0.2759 -0.0586 -0.4393
 2390SOL    HW218633   2.872   3.383   7.921  0.6142 -1.8559 -0.2200
 2391SOL     OW18634   2.461   0.296   8.277  0.7537  1.0414 -0.5471
 2391SOL    HW118635   2.507   0.276   8.359 -1.7296  0.0534  0.6251
 2391SOL    HW218636   2.419   0.381   8.292  0.9528  1.5665 -2.9736
 2392SOL     OW18637   1.307   0.298   7.532  0.3460 -0.0275 -0.4039
 2392SOL    HW118638   1.270   0.311   7.445  1.1884  1.8941 -0.4719
 2392SOL    HW218639   1.331   0.206   7.545 -1.7904 -0.7465 -1.4719
 2393SOL     OW18640   0.953   2.136   1.669  0.8925 -0.4446 -0.1903
 2393SOL    HW118641   0.992   2.107   1.751  0.0946 -1.4409 -0.1658
 2393SOL    HW218642   1.020   2.196   1.634  0.7182 -0.8721 -1.2521
 2394SOL     OW18643   2.038   1.192   9.198  0.6842 -0.4981 -0.1454
 2394SOL    HW118644   1.989   1.135   9.257 -0.3726  0.7200  0.1395
 2394SOL    HW218645   2.104   1.129   9.168  1.9029  0.3364  0.7703
 2395SOL     OW18646   2.192   3.384  13.377 -0.0872 -0.4652 -0.4843
 2395SOL    HW118647   2.156   3.301  13.346  0.7104 -0.0547 -2.5221
 2395SOL    HW218648   2.121   3.413  13.433  0.7880 -0.6184  0.6921
 2396SOL     OW18649   1.288   2.681   9.507 -0.0112 -0.4438 -0.3280
 2396SOL    HW118650   1.259   2.767   9.538  1.2462 -0.1123 -0.0959
 2396SOL    HW218651   1.285   2.627   9.586  1.9585  0.3035  0.2638
 2397SOL     OW18652   3.718   0.938   8.343 -0.8751  0.1277  0.0129
 2397SOL    HW118653   3.727   0.890   8.425  0.8458 -2.2328 -1.5792
 2397SOL    HW218654   3.752   1.026   8.363 -0.1918  0.0130 -0.6316
 2398SOL     OW18655   2.186   3.666   4.575  0.7875 -0.3337 -0.1192
 2398SOL    HW118656   2.112   3.625   4.619  1.4585 -1.8993 -0.4396
 2398SOL    HW218657   2.183   3.757   4.603  2.3030  0.1441 -1.5015
 2399SOL     OW18658   4.469   3.201   8.563 -0.3093 -0.6578 -0.3375
 2399SOL    HW118659   4.478   3.238   8.475 -1.1454  0.3370  0.0035
 2399SOL    HW218660   4.375   3.199   8.580 -0.0655  0.8238  1.2266
 2400SOL     OW18661   4.332   3.235  16.527 -0.0609 -0.0496 -0.2273
 2400SOL    HW118662   4.392   3.210  16.598 -0.1338  2.5356  0.7437
 2400SOL    HW218663   4.377   3.197  16.452 -0.9218 -3.1881  0.8282
 2401SOL     OW18664   0.274   3.115   0.894  0.2268 -0.2166  0.9489
 2401SOL    HW118665   0.319   3.065   0.827  0.6109  1.9428 -0.4334
 2401SOL    HW218666   0.331   3.096   0.968  0.9852 -1.4288  0.0438
 2402SOL     OW18667   4.537   0.829  11.941  0.4848 -0.2565 -0.1418
 2402SOL    HW118668   4.625   0.791  11.937  0.3377 -0.4928 -1.2008
 2402SOL    HW218669   4.511   0.819  12.033 -0.4655 -1.7684 -0.5682
 2403SOL     OW18670   1.896   0.495   4.740 -0.0024 -0.0665  0.2921
 2403SOL    HW118671   1.946   0.572   4.769 -2.2685  2.8470 -3.5454
 2403SOL    HW218672   1.941   0.466   4.661 -1.0338 -0.8773  0.0061
 2404SOL     OW18673   2.361   0.512   5.807 -0.0334  0.2002 -0.0812
 2404SOL    HW118674   2.420   0.554   5.869  0.4396 -0.0876 -0.3415
 2404SOL    HW218675   2.387   0.550   5.724 -1.5572  0.1844 -0.5764
 2405SOL     OW18676   1.787   2.860   8.696 -0.0358  0.0611 -0.5425
 2405SOL    HW118677   1.811   2.800   8.768 -1.4491 -0.0741 -0.1793
 2405SOL    HW218678   1.813   2.810   8.619 -0.8923 -0.7790 -0.2856
 2406SOL     OW18679   0.682   3.386  14.542  0.2924 -0.0528 -0.4486
 2406SOL    HW118680   0.727   3.349  14.618  0.7888  2.2714  0.3932
 2406SOL    HW218681   0.719   3.327  14.476  0.4499  0.4679 -0.8244
 2407SOL     OW18682   2.928   4.025   6.633 -0.2572 -0.0216  0.0348
 2407SOL    HW118683   2.977   3.944   6.639 -2.2172 -1.1481  0.9038
 2407SOL    HW218684   2.921   4.030   6.537  1.0787  2.1517  0.0469
 2408SOL     OW18685   0.161   1.358  11.293  0.3833  0.0915 -0.4147
 2408SOL    HW118686   0.095   1.375  11.225 -0.0125  2.0681  0.4498
 2408SOL    HW218687   0.101   1.301  11.341 -0.0185 -0.0363 -1.0578
 2409SOL     OW18688   1.795   1.022  12.316 -0.5304  0.4025  0.2601
 2409SOL    HW118689   1.858   0.967  12.362 -0.9387 -0.0209  0.3194
 2409SOL    HW218690   1.797   0.986  12.227  1.2964  0.1566  0.4020
 2410SOL     OW18691   0.076   0.830   1.404  0.1903  0.0513  0.3979
 2410SOL    HW118692   0.018   0.905   1.392 -0.5282 -0.3804  1.1373
 2410SOL    HW218693   0.011   0.759   1.403 -3.9895  3.8915 -1.5485
 2411SOL     OW18694   3.683   0.837   3.350 -0.0386  0.1127  0.0580
 2411SOL    HW118695   3.602   0.842   3.298 -0.0835  2.2812  0.3067
 2411SOL    HW218696   3.749   0.868   3.287 -0.0799 -0.2911 -0.1821
 2412SOL     OW18697   0.807   4.332   7.621 -0.0891  0.0408  0.0298
 2412SOL    HW118698   0.867   4.302   7.690  0.1235  2.5636  0.9863
 2412SOL    HW218699   0.777   4.246   7.592  0.3808  0.4995 -1.7583
 2413SOL     OW18700   3.673   2.593   2.061 -0.0851  0.0270 -0.2419
 2413SOL    HW118701   3.585   2.626   2.044 -0.5324 -0.2538  1.5499
 2413SOL    HW218702   3.676   2.512   2.010 -1.0817  0.8415 -1.5931
 2414SOL     OW18703   1.909   0.099   7.550  0.7936 -0.1013 -0.1724
 2414SOL    HW118704   1.917   0.095   7.455 -0.8286  0.1862 -0.3254
 2414SOL    HW218705   1.816   0.123   7.559  1.1564  1.1329  0.3760
 2415SOL     OW18706   3.519   2.083   5.633  0.3200  0.2810 -0.4912
 2415SOL    HW118707   3.446   2.057   5.690  1.4932 -0.8527  0.5190
 2415SOL    HW218708   3.478   2.070   5.547  1.8872 -1.3165 -1.0027
 2416SOL     OW18709   4.006   1.913   0.009 -0.4356 -0.2554  0.1256
 2416SOL    HW118710   4.024   1.819   0.004  0.8154 -0.1640  2.6327
 2416SOL    HW218711   3.943   1.926  17.644  0.2064 -2.3650 -0.8484
 2417SOL     OW18712   3.248   0.863   4.449 -0.1829 -0.4789  0.6405
 2417SOL    HW118713   3.263   0.771   4.427 -1.4633  0.1733 -3.0005
 2417SOL    HW218714   3.284   0.868   4.537  0.9817  0.5541  0.1119
 2418SOL     OW18715   4.383   1.403   8.312  0.3962  0.0133 -0.1870
 2418SOL    HW118716   4.301   1.424   8.267 -0.2307 -0.2610  0.8386
 2418SOL    HW218717   4.444   1.454   8.259  1.7664  0.5841  1.9520
 2419SOL     OW18718   0.374   1.507   1.322  0.4958 -0.0180 -0.7237
 2419SOL    HW118719   0.391   1.593   1.361  0.8589 -0.8378  0.9420
 2419SOL    HW218720   0.292   1.488   1.369 -0.5763  1.5765 -1.9754
 2420SOL     OW18721   2.890   3.699   6.384  0.4148  0.1573  0.3171
 2420SOL    HW118722   2.911   3.787   6.417  1.7507 -0.2986  0.6758
 2420SOL    HW218723   2.974   3.654   6.379 -0.6817 -1.9567  1.3484
 2421SOL     OW18724   4.604   2.215   8.408 -0.0142 -0.0047 -0.8095
 2421SOL    HW118725   4.683   2.263   8.380 -0.0279  0.6954  0.3542
 2421SOL    HW218726   4.573   2.267   8.482 -0.2170 -2.7854  1.0220
 2422SOL     OW18727   2.403   1.256   6.090  0.0652  0.5066  0.0907
 2422SOL    HW118728   2.382   1.325   6.027  0.9755  1.3180  0.6824
 2422SOL    HW218729   2.339   1.192   6.059 -0.4371  0.4860  1.1852
 2423SOL     OW18730   4.538   0.766   3.074 -0.2518  0.5666 -0.0277
 2423SOL    HW118731   4.480   0.777   2.998  0.1643 -0.3244 -0.4819
 2423SOL    HW218732   4.625   0.771   3.034 -0.0529  3.1676  0.7708
 2424SOL     OW18733   1.302   0.310   8.895  0.3426 -0.2506 -0.2097
 2424SOL    HW118734   1.354   0.248   8.947  1.2641  0.6472 -0.0613
 2424SOL    HW218735   1.269   0.376   8.956  0.6490  1.5027 -1.9456
 2425SOL     OW18736   3.210   2.645   8.172  0.8438 -1.0293  0.0374
 2425SOL    HW118737   3.206   2.549   8.166  0.5566 -1.0974  1.4500
 2425SOL    HW218738   3.133   2.653   8.115  0.9336 -1.9548 -0.2248
 2426SOL     OW18739   4.540   3.441   3.379  0.1314  0.1213 -0.4646
 2426SOL    HW118740   4.446   3.433   3.397 -0.0265 -0.6424 -1.5911
 2426SOL    HW218741   4.551   3.534   3.400  1.2897 -0.6155  2.0786
 2427SOL     OW18742   0.510   4.508   7.096 -0.6946  0.3970  0.4122
 2427SOL    HW118743   0.501   4.598   7.065  0.6199 -0.2285 -1.7488
 2427SOL    HW218744   0.472   4.525   7.182  1.9427  1.4002  1.3614
 2428SOL     OW18745   1.469   2.985  11.996 -0.1854  0.3919  0.1733
 2428SOL    HW118746   1.408   3.044  11.953 -2.1425 -0.3838  1.9252
 2428SOL    HW218747   1.540   3.047  12.015 -2.8726  3.7182 -0.6135
 2429SOL     OW18748   1.317   4.534  16.157  0.2792  0.5433  0.0770
 2429SOL    HW118749   1.321   4.459  16.216  1.5109  2.2459  2.1704
 2429SOL    HW218750   1.361   4.593  16.219 -3.8843  1.6071  1.9951
 2430SOL     OW18751   1.202   4.163  17.342 -0.4953 -0.2084 -0.0572
 2430SOL    HW118752   1.228   4.217  17.267 -2.9609 -0.4735 -1.1377
 2430SOL    HW218753   1.236   4.205  17.421  0.5274 -0.3774 -0.4145
 2431SOL     OW18754   1.014   4.243   7.953  0.0586 -0.4451  0.3972
 2431SOL    HW118755   0.938   4.197   7.919  1.6923 -3.1608  0.4401
 2431SOL    HW218756   0.979   4.276   8.035 -0.1190 -1.2519  0.6388
 2432SOL     OW18757   2.730   4.601   5.831  0.0227 -0.2955  0.2260
 2432SOL    HW118758   2.689   4.673   5.879  1.4065  1.1786 -0.7975
 2432SOL    HW218759   2.661   4.534   5.835  0.2189 -0.4941  0.2439
 2433SOL     OW18760   3.030   0.412   4.149  0.1831  0.2186  0.6641
 2433SOL    HW118761   3.044   0.502   4.120 -1.6822  0.9308  2.0119
 2433SOL    HW218762   2.969   0.381   4.081  0.7844 -1.3048  0.8064
 2434SOL     OW18763   3.819   0.626   8.361 -0.0092  0.0497 -0.9633
 2434SOL    HW118764   3.770   0.573   8.425  0.3956  0.9600  0.0942
 2434SOL    HW218765   3.895   0.659   8.408 -0.0347  1.1967 -1.7499
 2435SOL     OW18766   1.032   0.385   9.377 -0.0270 -0.2187 -0.1684
 2435SOL    HW118767   1.018   0.327   9.301 -0.9051  0.4925 -0.5456
 2435SOL    HW218768   1.096   0.336   9.428 -1.3170 -0.8988  0.7937
 2436SOL     OW18769   0.334   1.665   7.142  0.4015 -0.2570  0.2766
 2436SOL    HW118770   0.276   1.664   7.219  0.7797  0.4063  0.5715
 2436SOL    HW218771   0.297   1.724   7.077  0.0923  0.3132  0.9623
 2437SOL     OW18772   2.777   3.263   8.887  0.6738  0.2633  0.3469
 2437SOL    HW118773   2.772   3.330   8.956  0.2500 -0.5609  1.1130
 2437SOL    HW218774   2.837   3.202   8.930 -0.5398 -0.7165  0.6522
 2438SOL     OW18775   1.109   2.129   5.444  0.1488  0.4828 -0.5739
 2438SOL    HW118776   1.072   2.187   5.511 -1.1194 -2.2587  1.0581
 2438SOL    HW218777   1.049   2.055   5.440 -0.3008  0.8874 -1.4591
 2439SOL     OW18778   3.298   1.622   3.049 -0.2646 -0.0281  0.0864
 2439SOL    HW118779   3.247   1.633   3.129 -0.5539 -1.6033  0.1308
 2439SOL    HW218780   3.308   1.716   3.033 -0.8045  0.2421  1.3643
 2440SOL     OW18781   1.615   0.172   6.360 -0.0400  0.1878  0.3919
 2440SOL    HW118782   1.614   0.150   6.453  0.4759  1.3495  0.6821
 2440SOL    HW218783   1.543   0.234   6.350 -0.6716 -0.4048  1.2812
 2441SOL     OW18784   3.859   0.404   1.697  0.4597 -0.1872 -0.3373
 2441SOL    HW118785   3.878   0.353   1.776 -0.7757 -0.0475  0.0508
 2441SOL    HW218786   3.820   0.333   1.646 -0.4678 -0.7978  1.2404
 2442SOL     OW18787   3.474   1.787   3.961 -0.3128  0.0350  0.2090
 2442SOL    HW118788   3.482   1.834   3.878  0.9403 -1.5788 -0.5829
 2442SOL    HW218789   3.400   1.729   3.944  1.4718 -1.6925 -1.6980
 2443SOL     OW18790   4.061   3.307   3.060 -0.0481 -0.3865 -0.3034
 2443SOL    HW118791   4.040   3.396   3.090  1.1979 -0.5000  0.9099
 2443SOL    HW218792   3.990   3.285   2.999  1.0728 -0.1306 -1.7046
 2444SOL     OW18793   1.780   1.694   3.410  0.7223  0.7007 -0.1565
 2444SOL    HW118794   1.828   1.768   3.448 -0.6769  1.1429  0.7203
 2444SOL    HW218795   1.745   1.735   3.331 -0.3158  2.5724  1.2632
 2445SOL     OW18796   4.044   1.091   9.543 -0.0604  0.4675 -0.7415
 2445SOL    HW118797   4.135   1.095   9.575  0.0987 -0.1435 -1.1274
 2445SOL    HW218798   3.992   1.125   9.616 -1.0199  1.9961 -2.1272
 2446SOL     OW18799   3.624   4.341   5.311  0.0909  0.1824 -0.4092
 2446SOL    HW118800   3.700   4.346   5.253  0.1081  2.3935 -0.1861
 2446SOL    HW218801   3.661   4.366   5.395  0.5430  2.5467 -1.3127
 2447SOL     OW18802   2.666   1.609   3.082 -0.3573 -0.3425 -0.3137
 2447SOL    HW118803   2.726   1.547   3.124 -1.5506 -1.5351 -0.3562
 2447SOL    HW218804   2.664   1.675   3.151 -0.2253  0.4618 -1.0794
 2448SOL     OW18805   1.036   0.774   6.630  0.0837 -0.2669 -0.4061
 2448SOL    HW118806   0.979   0.772   6.553  0.3466 -0.2463 -0.6006
 2448SOL    HW218807   0.981   0.812   6.698  2.4151  0.8007  0.8779
 2449SOL     OW18808   0.172   1.727  11.687 -0.3466 -0.5340 -0.5641
 2449SOL    HW118809   0.216   1.724  11.772 -1.6521  1.2098  0.1893
 2449SOL    HW218810   0.097   1.674  11.713 -0.0354  0.0391  1.5779
 2450SOL     OW18811   2.373   3.466   5.570  0.4825 -0.0683  0.0390
 2450SOL    HW118812   2.307   3.493   5.506 -1.1988  1.2358  2.2857
 2450SOL    HW218813   2.375   3.543   5.628 -0.9310 -2.2505  2.9442
 2451SOL     OW18814   1.410   1.370   0.756  1.0299  0.3929  0.4574
 2451SOL    HW118815   1.377   1.455   0.783 -0.6476 -0.7638  1.9789
 2451SOL    HW218816   1.383   1.318   0.831  2.0870 -0.9168 -0.0650
 2452SOL     OW18817   1.565   1.090   7.830 -0.2630 -0.7455  0.1486
 2452SOL    HW118818   1.528   1.039   7.758  0.5814  1.5377 -1.9095
 2452SOL    HW218819   1.645   1.040   7.844 -0.9427 -1.4934  1.3323
 2453SOL     OW18820   0.737   0.126   5.964  1.0664  0.4203 -0.3700
 2453SOL    HW118821   0.662   0.115   6.023  0.8674  1.2361 -0.4662
 2453SOL    HW218822   0.753   0.036   5.939 -0.2958  0.6762 -2.1281
 2454SOL     OW18823   1.384   3.579   7.341 -0.2853  0.0497 -0.0216
 2454SOL    HW118824   1.339   3.520   7.280  0.8911  0.4975 -1.3513
 2454SOL    HW218825   1.316   3.594   7.406  0.4600  1.6690  0.3735
 2455SOL     OW18826   4.035   3.404   8.063  0.2860 -0.6465 -0.0062
 2455SOL    HW118827   4.089   3.332   8.095  0.5296 -0.3646  0.2242
 2455SOL    HW218828   3.951   3.360   8.055 -0.4107  0.4038  1.7038
 2456SOL     OW18829   1.101   2.091   2.246  0.0798 -0.2629  0.0222
 2456SOL    HW118830   1.058   2.033   2.184 -0.9629  1.5138 -0.9350
 2456SOL    HW218831   1.059   2.177   2.237 -1.0220 -0.9958 -1.7502
 2457SOL     OW18832   4.474   1.405   2.434  0.3111 -0.9102  0.5428
 2457SOL    HW118833   4.454   1.427   2.525 -0.1094  0.3512  0.1516
 2457SOL    HW218834   4.398   1.453   2.400  3.7711  5.0164  1.2704
 2458SOL     OW18835   4.392   3.849   9.073 -0.0813  0.1619 -0.2365
 2458SOL    HW118836   4.454   3.824   9.006 -0.5410 -0.4208 -0.4456
 2458SOL    HW218837   4.313   3.872   9.024 -2.0246  1.0534  3.2681
 2459SOL     OW18838   2.730   4.454   4.294  0.3306 -0.0835  0.5016
 2459SOL    HW118839   2.640   4.423   4.294 -0.0335  0.9533  0.9692
 2459SOL    HW218840   2.742   4.457   4.389  0.8853 -1.0340  0.4611
 2460SOL     OW18841   0.143   1.162   2.645  0.5373  0.1671 -0.4308
 2460SOL    HW118842   0.189   1.176   2.563  0.3916  1.6476 -0.2648
 2460SOL    HW218843   0.068   1.109   2.617 -0.9442  1.5275  0.9684
 2461SOL     OW18844   0.961   4.592   7.857  0.3644  0.2257 -0.0724
 2461SOL    HW118845   0.892   4.642   7.813 -0.7214 -2.4578 -1.4022
 2461SOL    HW218846   0.897   4.528   7.889 -0.7686  1.5897  0.3780
 2462SOL     OW18847   1.486   1.565  16.819  0.4539 -0.0271  0.0821
 2462SOL    HW118848   1.420   1.614  16.868 -0.6206 -1.9524  0.5804
 2462SOL    HW218849   1.436   1.563  16.737  3.3955  2.0171 -1.7737
 2463SOL     OW18850   3.266   0.612   9.481  0.0199  0.1605 -0.0199
 2463SOL    HW118851   3.264   0.653   9.394 -2.3477  1.6546  0.7573
 2463SOL    HW218852   3.340   0.660   9.519 -0.4809 -0.5556  1.8334
 2464SOL     OW18853   2.973   4.549   5.165 -0.3247  0.3353  0.0778
 2464SOL    HW118854   2.992   4.638   5.135  1.7935 -0.0353  0.3159
 2464SOL    HW218855   2.885   4.559   5.202 -1.1158 -2.0528 -1.1622
 2465SOL     OW18856   2.326   0.565   2.431  0.1318 -0.0795  0.1213
 2465SOL    HW118857   2.252   0.525   2.385 -1.2416  0.0705  2.1727
 2465SOL    HW218858   2.296   0.655   2.439 -0.4902 -0.2276 -0.6200
 2466SOL     OW18859   3.699   2.946  16.082  0.1422  0.2776  0.1683
 2466SOL    HW118860   3.682   2.932  15.989  1.8327 -1.4121  0.1215
 2466SOL    HW218861   3.683   3.040  16.091  0.8769  0.2640  1.6731
 2467SOL     OW18862   1.905   4.455   7.888  0.0887 -0.0489 -0.4443
 2467SOL    HW118863   1.927   4.489   7.801  2.4553 -0.8283 -0.1376
 2467SOL    HW218864   1.850   4.381   7.862  1.9231 -2.1539  1.6761
 2468SOL     OW18865   0.735   2.470   5.565 -0.4805  0.3551 -0.1335
 2468SOL    HW118866   0.771   2.527   5.633 -0.4755 -2.5079  2.2637
 2468SOL    HW218867   0.780   2.512   5.492  1.4000  0.0860  0.8807
 2469SOL     OW18868   3.280   2.476   9.533  0.5028 -0.0690  0.0105
 2469SOL    HW118869   3.318   2.413   9.472  0.1559  0.5898 -0.8841
 2469SOL    HW218870   3.336   2.553   9.527  0.5706 -0.2553 -1.5258
 2470SOL     OW18871   3.977   3.363   5.762 -0.1052  0.1517 -0.4009
 2470SOL    HW118872   3.932   3.279   5.774  1.6678 -0.6624  0.4534
 2470SOL    HW218873   3.975   3.400   5.850  0.0163 -2.4507  0.6784
 2471SOL     OW18874   0.084   0.104   8.613  0.1563 -0.1394  0.2467
 2471SOL    HW118875   0.088   0.035   8.547  1.0955  0.0228  0.1268
 2471SOL    HW218876   0.052   0.181   8.565 -1.1244 -0.7960  0.0654
 2472SOL     OW18877   1.707   3.479  17.094  0.1857 -0.1862  0.6025
 2472SOL    HW118878   1.653   3.471  17.172 -1.3547  1.6953 -0.2726
 2472SOL    HW218879   1.732   3.387  17.087  0.8793 -0.0770  1.6667
 2473SOL     OW18880   3.544   1.214   4.267 -0.1169  0.0894 -0.4207
 2473SOL    HW118881   3.543   1.213   4.363  2.8023  1.4619 -0.3900
 2473SOL    HW218882   3.588   1.298   4.253 -1.6685  1.2504  1.7007
 2474SOL     OW18883   3.414   3.199  12.235  0.4168 -0.2453  0.0176
 2474SOL    HW118884   3.450   3.139  12.169  0.6368  0.6699 -0.6968
 2474SOL    HW218885   3.456   3.159  12.311  0.8252 -0.2580 -0.2144
 2475SOL     OW18886   1.515   4.570  15.037 -0.1031 -0.3102 -0.1022
 2475SOL    HW118887   1.454   4.585  14.965  0.0697 -1.6510 -0.5216
 2475SOL    HW218888   1.469   4.613  15.109 -1.5851 -1.2894 -0.4704
 2476SOL     OW18889   4.320   1.041  17.667  0.8839  0.3258  0.2492
 2476SOL    HW118890   4.227   1.023  17.652  0.6827 -0.6736  2.6823
 2476SOL    HW218891   4.343   1.101  17.596 -0.4772 -2.0086 -2.1576
 2477SOL     OW18892   3.851   3.249  15.993 -0.3027  0.0662 -0.5547
 2477SOL    HW118893   3.833   3.222  15.903 -2.1703  0.0048 -0.1529
 2477SOL    HW218894   3.773   3.302  16.008 -0.3882  0.0845 -1.0735
 2478SOL     OW18895   4.017   0.279   6.531 -0.2965 -0.3377 -0.3144
 2478SOL    HW118896   4.049   0.321   6.611  0.8201  0.3826 -1.1348
 2478SOL    HW218897   3.939   0.232   6.562 -0.1687 -2.1575 -2.8077
 2479SOL     OW18898   1.400   0.097   2.524 -0.1393  0.1504 -0.3048
 2479SOL    HW118899   1.436   0.176   2.565  0.3465 -0.1628 -0.1325
 2479SOL    HW218900   1.347   0.136   2.454  1.0627 -0.0912 -1.3601
 2480SOL     OW18901   4.646   0.183   5.640  0.0569 -0.2073 -0.6350
 2480SOL    HW118902   4.659   0.090   5.619 -2.0359 -0.3619 -1.2431
 2480SOL    HW218903   4.720   0.213   5.588  1.8765  0.4696  2.3619
 2481SOL     OW18904   2.436   3.354  17.645 -0.4797 -0.0631 -0.4333
 2481SOL    HW118905   2.470   3.358  17.556  1.0862 -2.0511  0.0772
 2481SOL    HW218906   2.345   3.332  17.627  0.5139 -2.7332 -2.1785
 2482SOL     OW18907   3.152   4.317   5.198 -0.0852 -0.7151  0.0877
 2482SOL    HW118908   3.160   4.265   5.118  0.2915  0.4429 -0.6246
 2482SOL    HW218909   3.086   4.383   5.174 -0.5769 -0.1294  3.0248
 2483SOL     OW18910   3.183   0.282   7.761  0.0141 -0.4107 -0.1056
 2483SOL    HW118911   3.272   0.267   7.729  0.5380  2.8824 -0.1585
 2483SOL    HW218912   3.166   0.366   7.719  0.7108  0.3146  1.0812
 2484SOL     OW18913   3.068   0.735   8.485 -0.4482 -0.3144 -0.1215
 2484SOL    HW118914   2.992   0.755   8.538  0.2034 -1.1790  1.1306
 2484SOL    HW218915   3.130   0.807   8.496  0.3480 -1.2374  1.4660
 2485SOL     OW18916   1.060   3.986   4.467 -0.2593  0.7591  0.7105
 2485SOL    HW118917   1.014   3.904   4.484 -0.0830  1.3095  4.0243
 2485SOL    HW218918   1.035   4.036   4.545  0.1353  0.3019  1.1334
 2486SOL     OW18919   2.601   1.104   8.060 -0.1940 -0.2493 -0.2824
 2486SOL    HW118920   2.590   1.097   8.154  1.5778 -2.5677 -0.2396
 2486SOL    HW218921   2.679   1.160   8.057  0.5077 -1.2585 -0.7995
 2487SOL     OW18922   0.734   1.744  17.424  0.2698 -0.0755  0.4505
 2487SOL    HW118923   0.731   1.733  17.519 -0.5900 -1.7379  0.2343
 2487SOL    HW218924   0.741   1.839  17.434 -0.8508 -0.1651  2.1165
 2488SOL     OW18925   0.340   4.650   1.070 -0.2429 -0.2723 -0.0423
 2488SOL    HW118926   0.297   4.716   1.125  0.0605 -0.2390  0.1594
 2488SOL    HW218927   0.414   4.618   1.123 -0.3740 -3.1386 -1.6253
 2489SOL     OW18928   0.682   2.149  12.561 -0.1760 -0.0984  0.0760
 2489SOL    HW118929   0.748   2.184  12.622  0.4453  1.1219 -1.2786
 2489SOL    HW218930   0.668   2.057  12.582  0.0959  0.3250  2.1894
 2490SOL     OW18931   0.497   1.931   3.182 -0.0762 -0.4561  0.1405
 2490SOL    HW118932   0.434   2.001   3.200  0.1494 -0.9151  2.6387
 2490SOL    HW218933   0.521   1.903   3.270  1.0336 -2.2468 -0.7276
 2491SOL     OW18934   2.420   2.351  15.956  0.1392 -0.6648  0.3511
 2491SOL    HW118935   2.400   2.356  16.049 -0.0749  0.0729  0.2643
 2491SOL    HW218936   2.415   2.257  15.939 -2.5179 -0.2883 -1.1367
 2492SOL     OW18937   3.796   2.029   6.715 -0.0257 -0.3541 -0.4339
 2492SOL    HW118938   3.750   2.110   6.737  2.2257  0.4768  1.2641
 2492SOL    HW218939   3.861   2.013   6.784 -1.6993 -4.5941  0.2031
 2493SOL     OW18940   2.424   1.470   5.862  0.0232  0.1677 -0.4763
 2493SOL    HW118941   2.423   1.504   5.951 -1.9764  0.2442 -0.5337
 2493SOL    HW218942   2.330   1.475   5.844  0.2859 -2.1750 -2.4066
 2494SOL     OW18943   3.973   3.682  15.180 -0.0228  0.1870  0.1793
 2494SOL    HW118944   3.947   3.591  15.170 -1.6499  0.6088  0.4876
 2494SOL    HW218945   3.969   3.725  15.095  3.8453  0.3183  0.0921
 2495SOL     OW18946   4.443   2.460   6.859 -0.2906 -0.5694 -0.8984
 2495SOL    HW118947   4.458   2.527   6.926  0.5298 -0.8806 -0.7717
 2495SOL    HW218948   4.384   2.403   6.908 -2.3127  1.1657 -1.3377
 2496SOL     OW18949   0.322   2.700   7.481  0.3104 -0.6624  0.2881
 2496SOL    HW118950   0.398   2.701   7.539 -1.6539  0.7082  2.8272
 2496SOL    HW218951   0.319   2.791   7.451  0.1773 -0.3265  1.3276
 2497SOL     OW18952   1.395   3.919   3.473  0.2126 -0.5035 -0.3582
 2497SOL    HW118953   1.472   3.867   3.455 -0.5832 -0.8308 -2.8200
 2497SOL    HW218954   1.417   3.966   3.553 -0.4147 -2.8920  1.2183
 2498SOL     OW18955   0.803   3.343   5.007  0.0164 -0.4079 -0.1958
 2498SOL    HW118956   0.859   3.266   5.010 -0.1391 -0.4977  0.4083
 2498SOL    HW218957   0.865   3.416   5.015  0.5896 -1.1981  2.6921
 2499SOL     OW18958   1.410   2.508   1.730  0.3617 -0.0812  0.5839
 2499SOL    HW118959   1.475   2.530   1.663  1.5752 -2.4689  0.9779
 2499SOL    HW218960   1.338   2.477   1.675  0.4197  0.8447 -0.0224
 2500SOL     OW18961   0.495   2.738   1.465 -0.3368  0.2092  0.6833
 2500SOL    HW118962   0.561   2.671   1.478 -0.3384  0.2827  1.0688
 2500SOL    HW218963   0.489   2.768   1.556 -1.1867 -1.8350  1.2944
 2501SOL     OW18964   3.619   3.270  13.919 -0.3126 -0.2919 -0.3375
 2501SOL    HW118965   3.656   3.321  13.846  2.7907 -3.4511 -0.9463
 2501SOL    HW218966   3.528   3.300  13.909 -0.6559 -0.7797  1.3719
 2502SOL     OW18967   3.303   1.021   9.470 -0.8844  0.4604  0.1639
 2502SOL    HW118968   3.346   1.075   9.537  0.8775 -0.1432 -0.4774
 2502SOL    HW218969   3.388   0.993   9.437 -0.5526  2.5948 -0.8237
 2503SOL     OW18970   3.953   4.112   7.067 -0.4012 -0.4382 -0.2659
 2503SOL    HW118971   3.965   4.178   7.135  1.5242 -0.5395 -0.5071
 2503SOL    HW218972   3.875   4.061   7.088 -0.7760  1.3974  2.7322
 2504SOL     OW18973   1.414   2.610   8.317 -0.2083  0.5324  0.2702
 2504SOL    HW118974   1.376   2.550   8.252  1.6375 -0.9646  0.5878
 2504SOL    HW218975   1.337   2.605   8.374 -0.3565  1.2812  0.1398
 2505SOL     OW18976   3.072   0.371  13.703  0.0975 -0.5261 -0.4073
 2505SOL    HW118977   3.021   0.404  13.629 -2.0640 -2.0271  0.4147
 2505SOL    HW218978   3.054   0.277  13.698  0.4515 -0.5445 -1.3475
 2506SOL     OW18979   1.695   0.935   8.833  0.5187  0.1946  0.1278
 2506SOL    HW118980   1.750   0.994   8.782  1.0399 -0.5885 -0.2298
 2506SOL    HW218981   1.611   0.952   8.793 -0.3264 -0.1351  1.7383
 2507SOL     OW18982   1.152   2.748  13.210  0.0197  0.4409  0.2894
 2507SOL    HW118983   1.202   2.830  13.208  1.5505 -0.4722  0.4880
 2507SOL    HW218984   1.225   2.688  13.195 -1.4553 -1.6660  1.5781
 2508SOL     OW18985   2.935   1.817   2.512  0.3443 -0.2735  0.5520
 2508SOL    HW118986   2.979   1.866   2.443 -1.4578  1.5189  0.6531
 2508SOL    HW218987   2.999   1.747   2.523  1.3289  0.6117  0.4603
 2509SOL     OW18988   3.635   3.366   8.728 -0.1659 -0.1284  0.1266
 2509SOL    HW118989   3.704   3.312   8.690  0.3127  0.9365 -0.5193
 2509SOL    HW218990   3.569   3.356   8.659  0.1122 -2.9243  0.2631
 2510SOL     OW18991   1.810   1.677   7.468  0.0891  0.1001  0.2931
 2510SOL    HW118992   1.734   1.705   7.418  0.4970 -1.8965 -1.4311
 2510SOL    HW218993   1.835   1.603   7.413  1.0952 -0.8044  1.9554
 2511SOL     OW18994   0.427   1.567   3.034 -0.3230  0.0870  0.3822
 2511SOL    HW118995   0.434   1.510   2.958 -1.8475 -0.6770  0.8143
 2511SOL    HW218996   0.338   1.538   3.055  0.0776 -0.3358  1.4573
 2512SOL     OW18997   3.422   4.234   1.686 -0.1213  0.1959  0.2779
 2512SOL    HW118998   3.479   4.218   1.610 -0.5266  1.7762 -0.3458
 2512SOL    HW218999   3.477   4.214   1.762  0.6306  0.6509 -0.1462
 2513SOL     OW19000   1.862   1.441   4.850 -0.0722  0.2984 -0.1451
 2513SOL    HW119001   1.910   1.368   4.811 -1.0746  0.3075 -1.4204
 2513SOL    HW219002   1.919   1.513   4.821 -0.4114  0.1294 -1.2390
 2514SOL     OW19003   2.810   3.482   0.255  0.0160 -0.3773 -0.2181
 2514SOL    HW119004   2.790   3.390   0.270 -1.7972 -0.1251 -1.0419
 2514SOL    HW219005   2.732   3.512   0.208 -0.0648  2.0825  1.4451
 2515SOL     OW19006   4.132   0.448   8.430  0.7401  0.2045 -0.4940
 2515SOL    HW119007   4.063   0.415   8.487  0.3174  0.8324 -0.6403
 2515SOL    HW219008   4.191   0.484   8.497  1.2020 -1.7772  0.1637
 2516SOL     OW19009   1.464   2.887   5.308  0.0604 -0.4918 -0.1081
 2516SOL    HW119010   1.463   2.953   5.239 -0.9937  0.0815  0.4533
 2516SOL    HW219011   1.517   2.814   5.275  1.5744  0.0590  1.0720
 2517SOL     OW19012   1.678   1.315   6.938  0.6687 -0.2617 -0.1759
 2517SOL    HW119013   1.767   1.350   6.947  0.7987 -1.1146  1.9446
 2517SOL    HW219014   1.623   1.391   6.920 -0.5217 -0.5532  2.2158
 2518SOL     OW19015   1.788   2.386   4.450 -0.7848 -0.1215 -0.3592
 2518SOL    HW119016   1.748   2.472   4.438  1.5421  1.1098  0.7620
 2518SOL    HW219017   1.758   2.361   4.538  3.3953  0.3361  1.2102
 2519SOL     OW19018   0.974   4.232   2.435 -0.2589 -0.0895  0.0639
 2519SOL    HW119019   1.062   4.201   2.456 -0.4841 -1.5889 -1.1517
 2519SOL    HW219020   0.915   4.225   2.510 -0.2699  1.1085  0.1652
 2520SOL     OW19021   1.286   3.018   6.440 -0.1686 -0.3239  0.0108
 2520SOL    HW119022   1.276   3.089   6.377  1.3266  1.2961  1.6383
 2520SOL    HW219023   1.374   2.991   6.413 -0.3150 -1.3501  0.5760
 2521SOL     OW19024   4.458   2.613  11.826 -0.1852 -0.0627  0.5992
 2521SOL    HW119025   4.448   2.691  11.881  0.7473 -0.1053  0.8321
 2521SOL    HW219026   4.549   2.588  11.841  0.3824  2.1221  0.7883
 2522SOL     OW19027   1.086   0.424   7.688 -0.1633 -0.2420  0.3791
 2522SOL    HW119028   1.114   0.376   7.767  0.3502 -0.6276 -0.0372
 2522SOL    HW219029   1.158   0.409   7.627  0.5946  0.6738  1.0554
 2523SOL     OW19030   1.044   0.827   1.483 -0.2523 -0.4663 -0.3913
 2523SOL    HW119031   1.061   0.920   1.474 -0.5765 -0.4143 -0.4753
 2523SOL    HW219032   1.017   0.802   1.394  0.0281 -0.7057 -0.4084
 2524SOL     OW19033   1.785   2.930   5.676  0.0053 -0.2956 -0.2101
 2524SOL    HW119034   1.726   2.977   5.735  0.4935 -1.3862  1.1415
 2524SOL    HW219035   1.719   2.883   5.626 -1.1719  0.2067  0.8532
 2525SOL     OW19036   0.818   0.193   5.282 -0.2279  0.2637 -0.1688
 2525SOL    HW119037   0.904   0.152   5.292  0.0035  1.0226  1.0892
 2525SOL    HW219038   0.851   0.255   5.217 -1.4381  0.6517 -0.4123
 2526SOL     OW19039   3.257   1.429   7.003  0.3289  0.5238 -0.0405
 2526SOL    HW119040   3.208   1.488   7.060  0.2698 -1.5431  2.0539
 2526SOL    HW219041   3.331   1.484   6.975  2.3194 -0.0080  4.1781
 2527SOL     OW19042   0.150   0.585   0.667 -0.3007 -0.2919  0.4734
 2527SOL    HW119043   0.217   0.583   0.735 -1.3452 -1.2074  1.4896
 2527SOL    HW219044   0.100   0.666   0.676 -0.4394 -0.4765  1.4336
 2528SOL     OW19045   0.613   3.678  11.066 -0.0460  0.1614  0.3481
 2528SOL    HW119046   0.604   3.585  11.046  5.8717 -0.3325  0.0230
 2528SOL    HW219047   0.660   3.708  10.988  1.5108 -1.8172  0.5145
 2529SOL     OW19048   3.456   1.134   2.427 -0.1106 -0.0070  0.2537
 2529SOL    HW119049   3.418   1.141   2.515  0.5511  0.2727  0.5178
 2529SOL    HW219050   3.484   1.225   2.421 -0.9296  0.2354  0.1233
 2530SOL     OW19051   3.784   1.632  11.642  0.1416  0.0438 -0.2559
 2530SOL    HW119052   3.849   1.698  11.666  0.4637 -0.1053 -0.7097
 2530SOL    HW219053   3.827   1.580  11.574  1.1668 -1.5686  1.6227
 2531SOL     OW19054   4.058   2.284   3.761 -0.5678  0.1301  0.0979
 2531SOL    HW119055   4.070   2.206   3.816 -1.0574 -0.4009 -0.5435
 2531SOL    HW219056   4.118   2.266   3.689 -0.7342  3.5850 -0.8976
 2532SOL     OW19057   0.653   4.486  11.050  0.3538 -0.1924 -0.6307
 2532SOL    HW119058   0.684   4.520  10.966 -0.7629  0.6428 -0.7031
 2532SOL    HW219059   0.720   4.418  11.061 -0.3778 -0.8222 -0.1298
 2533SOL     OW19060   1.661   4.036   0.922 -0.4471  0.9262  0.4871
 2533SOL    HW119061   1.668   4.085   1.004 -2.2627  2.5679 -0.3393
 2533SOL    HW219062   1.566   4.023   0.917 -0.3054  0.8267 -2.0604
 2534SOL     OW19063   3.194   2.755   9.561  0.6759  0.0624  0.1577
 2534SOL    HW119064   3.259   2.801   9.508  0.0787 -0.3925 -0.9780
 2534SOL    HW219065   3.231   2.759   9.649 -0.7667  2.4380  0.6655
 2535SOL     OW19066   0.323   1.424   8.399  0.4853 -0.2225  0.4785
 2535SOL    HW119067   0.319   1.479   8.478 -0.6811 -0.2255  0.4129
 2535SOL    HW219068   0.396   1.367   8.424  0.1236 -0.6375  0.5737
 2536SOL     OW19069   3.537   3.765   2.821  0.0188  0.7916  0.2065
 2536SOL    HW119070   3.584   3.737   2.899  0.9034  1.1035 -0.2017
 2536SOL    HW219071   3.490   3.844   2.849 -2.7656 -1.0117  0.5948
 2537SOL     OW19072   3.731   2.604   5.892 -0.2576  0.2951 -0.0439
 2537SOL    HW119073   3.734   2.561   5.977  0.4198  5.2779  2.4431
 2537SOL    HW219074   3.779   2.540   5.840  1.4340  1.3420  0.2511
 2538SOL     OW19075   2.608   0.909   1.936  0.4886  0.1688  0.3714
 2538SOL    HW119076   2.649   0.982   1.982  0.5890  1.4461 -1.7404
 2538SOL    HW219077   2.536   0.894   1.998 -0.2957  0.8756 -0.3539
 2539SOL     OW19078   0.955   0.110   3.401 -0.0194 -0.5742  0.4018
 2539SOL    HW119079   0.944   0.092   3.307 -0.5653 -1.4422  0.6301
 2539SOL    HW219080   0.930   0.028   3.444  2.3703 -1.1866  0.6149
 2540SOL     OW19081   4.028   2.915  13.049 -0.4946 -0.3857 -0.1090
 2540SOL    HW119082   3.936   2.928  13.072 -0.5157 -0.1812 -0.3039
 2540SOL    HW219083   4.020   2.828  13.011 -1.0708 -0.0069 -0.8582
 2541SOL     OW19084   0.728   3.402   7.116 -0.5023  0.0090  0.0819
 2541SOL    HW119085   0.731   3.380   7.023  1.1616 -1.8485  0.5696
 2541SOL    HW219086   0.771   3.324   7.152 -1.1157 -0.1197  0.5320
 2542SOL     OW19087   2.549   3.128   4.015  0.0391 -0.7186  0.0618
 2542SOL    HW119088   2.538   3.222   4.025 -0.6032 -0.8226  0.3890
 2542SOL    HW219089   2.613   3.133   3.945  0.5326 -0.5842  0.5278
 2543SOL     OW19090   2.657   2.031  15.581  0.3537 -1.1235  0.6162
 2543SOL    HW119091   2.736   2.075  15.615 -1.5039  1.5865  1.4523
 2543SOL    HW219092   2.634   1.973  15.653 -1.0718  1.1870  2.0140
 2544SOL     OW19093   2.747   1.668   4.751 -0.9439  0.8666  0.2949
 2544SOL    HW119094   2.769   1.711   4.834  0.6945  0.6323 -0.0033
 2544SOL    HW219095   2.697   1.741   4.715 -0.5198  1.7737  1.5248
 2545SOL     OW19096   3.581   2.133   3.885 -0.2280 -0.0148  0.2268
 2545SOL    HW119097   3.644   2.091   3.943 -2.1692 -2.8083  0.3039
 2545SOL    HW219098   3.536   2.052   3.859 -0.2171  0.1870 -0.4148
 2546SOL     OW19099   2.016   4.331  16.607  0.2693 -0.2402  0.1569
 2546SOL    HW119100   1.962   4.252  16.615  1.4927 -0.8702  2.2684
 2546SOL    HW219101   2.088   4.319  16.669  1.4248  0.2423 -1.1012
 2547SOL     OW19102   3.139   4.447   2.133  0.6439 -0.0906 -0.0141
 2547SOL    HW119103   3.073   4.378   2.127 -1.3146  1.8689 -0.8496
 2547SOL    HW219104   3.150   4.475   2.042 -0.0303 -0.3836 -0.1831
 2548SOL     OW19105   1.766   2.315   9.452 -0.0299  0.7373  0.1091
 2548SOL    HW119106   1.688   2.285   9.405 -0.7312  1.1777  1.0059
 2548SOL    HW219107   1.774   2.407   9.429  0.9267  0.2560 -1.5291
 2549SOL     OW19108   3.441   0.523  10.403 -0.3513  0.2738 -0.2625
 2549SOL    HW119109   3.448   0.593  10.468 -1.1012  1.6404 -1.6372
 2549SOL    HW219110   3.507   0.460  10.432 -0.8349  0.5972  1.5498
 2550SOL     OW19111   1.423   3.858   5.016  0.5103 -0.0674  0.2955
 2550SOL    HW119112   1.493   3.821   5.071  0.7386  0.2257  0.2027
 2550SOL    HW219113   1.356   3.791   5.033 -0.6661  1.4724  1.7255
 2551SOL     OW19114   1.578   1.219  10.891  0.1562 -0.4056 -0.0912
 2551SOL    HW119115   1.492   1.202  10.853  0.3168  0.2978 -0.7742
 2551SOL    HW219116   1.568   1.150  10.957 -2.0185  1.4216  1.4998
 2552SOL     OW19117   2.413   4.122   2.881 -0.2101 -0.3187 -0.3307
 2552SOL    HW119118   2.329   4.094   2.844 -1.1332  0.7875  0.8775
 2552SOL    HW219119   2.474   4.056   2.852  0.2479 -0.1864  0.3200
 2553SOL     OW19120   1.826   2.960   3.777 -0.1639  0.1769  0.2244
 2553SOL    HW119121   1.832   2.903   3.854 -0.9410  1.8753  1.5605
 2553SOL    HW219122   1.920   2.973   3.762 -0.1199 -0.6082 -0.1856
 2554SOL     OW19123   4.640   4.149   2.188 -0.2914 -0.2866  0.1636
 2554SOL    HW119124   4.717   4.135   2.133  1.3788 -0.0589  2.4601
 2554SOL    HW219125   4.612   4.058   2.189  0.6616 -0.5941 -0.5670
 2555SOL     OW19126   4.443   0.850  10.081 -0.3915  0.2549 -0.0740
 2555SOL    HW119127   4.455   0.827  10.173  2.0867  2.0540  0.0788
 2555SOL    HW219128   4.380   0.783  10.055  1.4887 -1.4107 -0.3090
 2556SOL     OW19129   3.740   0.277   6.806  0.0868 -0.4237  0.0940
 2556SOL    HW119130   3.706   0.250   6.891  2.3149  2.7462  1.9852
 2556SOL    HW219131   3.777   0.363   6.823  0.5221 -0.0277 -2.7646
 2557SOL     OW19132   0.113   1.259   4.491 -0.1903 -0.2328 -0.2193
 2557SOL    HW119133   0.059   1.337   4.479 -0.4824 -0.2231  1.1039
 2557SOL    HW219134   0.094   1.232   4.581 -3.1938  1.9673 -0.2198
 2558SOL     OW19135   0.735   3.578   6.103  0.7082  0.4632  0.3002
 2558SOL    HW119136   0.700   3.551   6.018 -0.0950 -0.8709  1.0502
 2558SOL    HW219137   0.659   3.604   6.155  0.0833 -1.9087  0.5300
 2559SOL     OW19138   2.072   0.855   8.197 -0.0564 -0.0496 -0.3361
 2559SOL    HW119139   2.087   0.920   8.128  2.0752 -0.0524  0.1258
 2559SOL    HW219140   2.006   0.811   8.144 -0.7521 -1.0164  1.3417
 2560SOL     OW19141   4.497   1.258   3.295 -0.1864  0.1097 -0.4097
 2560SOL    HW119142   4.418   1.217   3.331 -0.0315  0.3105  0.1606
 2560SOL    HW219143   4.570   1.206   3.327  0.1311  0.8977  0.1737
 2561SOL     OW19144   2.935   2.293   5.864 -0.1070  0.0128 -0.0806
 2561SOL    HW119145   3.010   2.352   5.865 -0.2122  0.1400  0.1048
 2561SOL    HW219146   2.880   2.323   5.792  2.7963 -0.8956 -2.6669
 2562SOL     OW19147   3.855   2.931   4.405 -0.0049  0.5456  0.1996
 2562SOL    HW119148   3.793   2.927   4.479 -2.3210 -1.8492 -1.8860
 2562SOL    HW219149   3.940   2.942   4.449  1.2945  0.6274 -2.3725
 2563SOL     OW19150   0.569   1.144   2.502 -0.8022  0.1936 -0.7779
 2563SOL    HW119151   0.480   1.125   2.473 -0.4836  0.0376 -1.6539
 2563SOL    HW219152   0.606   1.211   2.445  0.7449  0.6381  0.7486
 2564SOL     OW19153   2.567   3.792   4.389  0.7055 -0.1002 -0.2148
 2564SOL    HW119154   2.507   3.788   4.315  0.0010 -0.4812  0.3742
 2564SOL    HW219155   2.605   3.880   4.382 -0.3945  0.2039 -2.2953
 2565SOL     OW19156   0.051   0.597  14.743  0.3642  0.0861  0.8682
 2565SOL    HW119157   0.018   0.513  14.711 -0.3265  0.7275 -0.0974
 2565SOL    HW219158   4.705   0.649  14.707  1.0862  0.9268  0.6134
 2566SOL     OW19159   0.618   1.606   7.528 -0.6783  0.2292 -0.1843
 2566SOL    HW119160   0.704   1.616   7.488  0.3965 -3.5234  1.1570
 2566SOL    HW219161   0.563   1.548   7.474 -0.6329 -3.0095  3.2184
 2567SOL     OW19162   1.203   1.109   1.942 -0.2828 -0.0046  0.0974
 2567SOL    HW119163   1.272   1.131   1.879 -1.7293  1.2531 -1.0568
 2567SOL    HW219164   1.152   1.046   1.891 -2.4774  1.6143  0.3050
 2568SOL     OW19165   0.209   1.084  16.859  0.3547 -0.3036 -0.1899
 2568SOL    HW119166   0.155   1.163  16.857  0.0187 -0.5156  0.5494
 2568SOL    HW219167   0.296   1.123  16.863 -0.1761  0.6871  1.6082
 2569SOL     OW19168   3.663   1.389   2.773 -0.6643  0.0110 -0.2420
 2569SOL    HW119169   3.650   1.451   2.701 -0.4150  2.3561  1.7534
 2569SOL    HW219170   3.743   1.417   2.816 -0.6721 -1.8927  1.0315
 2570SOL     OW19171   0.100   1.546   8.244  0.1064 -0.3853  0.1891
 2570SOL    HW119172   0.140   1.617   8.195 -4.4013  0.9589 -1.5754
 2570SOL    HW219173   0.174   1.518   8.298 -1.9312 -0.8130  2.8068
 2571SOL     OW19174   4.126   4.451   2.762 -0.1036  0.3508  0.0067
 2571SOL    HW119175   4.115   4.395   2.685 -0.3016  1.5991 -0.8656
 2571SOL    HW219176   4.206   4.416   2.800  0.0887  2.2990  1.4115
 2572SOL     OW19177   0.727   0.351   7.918 -0.1951 -0.3529  0.0104
 2572SOL    HW119178   0.701   0.355   8.010  0.0189 -0.2887  0.0691
 2572SOL    HW219179   0.697   0.438   7.890 -1.9411 -0.6569  0.9897
 2573SOL     OW19180   3.875   2.205  14.919  0.0091  0.1126  0.3750
 2573SOL    HW119181   3.780   2.206  14.912  0.1782  1.4550 -1.7114
 2573SOL    HW219182   3.880   2.183  15.012  0.9996 -0.3416  0.2098
 2574SOL     OW19183   2.172   3.136   7.908 -0.2633  0.1654  0.4404
 2574SOL    HW119184   2.261   3.137   7.944  0.1323 -1.3947 -0.5083
 2574SOL    HW219185   2.129   3.075   7.968 -1.3617  1.1981  0.7048
 2575SOL     OW19186   3.352   1.483  16.966 -0.1355 -0.4919  0.0252
 2575SOL    HW119187   3.393   1.404  16.929 -0.1256 -0.5519  0.1652
 2575SOL    HW219188   3.425   1.513  17.020 -2.5205  0.5342  2.6962
 2576SOL     OW19189   3.850   4.656   7.617 -0.3006  0.2888 -0.3098
 2576SOL    HW119190   3.905   4.655   7.539  1.3880  2.6401  0.8100
 2576SOL    HW219191   3.799   4.578   7.600 -2.0876  1.1544  1.0670
 2577SOL     OW19192   0.701   0.663   6.243 -0.2003 -0.2884 -0.3156
 2577SOL    HW119193   0.713   0.745   6.196  1.6808 -1.0062 -1.1128
 2577SOL    HW219194   0.786   0.619   6.244 -0.3868 -0.6123  1.0686
 2578SOL     OW19195   2.778   2.628   5.940 -0.1091 -0.0730 -0.1718
 2578SOL    HW119196   2.871   2.611   5.953 -0.0376 -0.5409 -1.3017
 2578SOL    HW219197   2.782   2.683   5.862  2.4337  0.3882  0.2789
 2579SOL     OW19198   1.061   3.688   3.785  0.4065  0.6302 -0.4227
 2579SOL    HW119199   1.143   3.736   3.795 -0.5506  1.5507  3.0907
 2579SOL    HW219200   1.091   3.600   3.761  0.2442 -0.0160  1.6747
 2580SOL     OW19201   3.490   4.355   5.601  0.3543 -0.1859 -1.0738
 2580SOL    HW119202   3.503   4.262   5.582  0.0803 -0.9437  2.4699
 2580SOL    HW219203   3.402   4.362   5.564 -1.3408 -0.4235  2.8845
 2581SOL     OW19204   3.044   2.300   0.700  0.5396 -0.5648  0.0815
 2581SOL    HW119205   2.953   2.304   0.671  0.2511 -0.1488  1.0059
 2581SOL    HW219206   3.076   2.378   0.655 -1.1740  0.8180  1.2239
 2582SOL     OW19207   1.584   3.825   0.312  0.4006 -0.2625  0.3776
 2582SOL    HW119208   1.522   3.824   0.240  0.9731 -0.7289 -0.1102
 2582SOL    HW219209   1.533   3.877   0.374  0.1192  0.6505 -0.6225
 2583SOL     OW19210   0.908   0.599   9.333 -0.0252 -0.2428 -0.0538
 2583SOL    HW119211   0.959   0.524   9.363  1.4844 -0.1551 -2.3825
 2583SOL    HW219212   0.974   0.647   9.282  1.5571 -2.1919  0.1496
 2584SOL     OW19213   3.043   1.314  11.771  0.9088  0.4788 -0.3383
 2584SOL    HW119214   3.037   1.407  11.752 -1.0522  0.4720  0.2610
 2584SOL    HW219215   2.949   1.299  11.775  0.8173  1.9172  2.9625
 2585SOL     OW19216   2.658   2.244   7.972  0.2480 -0.0738 -0.0158
 2585SOL    HW119217   2.605   2.169   7.998 -0.3402  0.2791 -0.1839
 2585SOL    HW219218   2.610   2.324   7.994  0.6761 -0.8382  3.6917
 2586SOL     OW19219   4.720   1.880   9.498  0.4227 -0.2528  0.4269
 2586SOL    HW119220   0.008   1.874   9.404 -0.0175 -2.8236  0.5385
 2586SOL    HW219221   4.660   1.954   9.513  0.4069 -0.6686  2.4614
 2587SOL     OW19222   2.768   2.439   5.690 -0.4670  0.5861 -0.0566
 2587SOL    HW119223   2.713   2.422   5.613  0.5771 -1.5569 -0.3347
 2587SOL    HW219224   2.783   2.533   5.692 -1.5072  0.7651 -0.2621
 2588SOL     OW19225   2.534   4.321   4.486  0.1164  0.6112  0.5849
 2588SOL    HW119226   2.506   4.306   4.396 -4.4110 -1.6849  2.3765
 2588SOL    HW219227   2.468   4.388   4.506 -0.8163 -0.8603  2.4092
 2589SOL     OW19228   1.106   2.834   4.995 -0.4291  0.8641  0.4517
 2589SOL    HW119229   1.028   2.835   4.939  1.0783  2.2742 -1.6192
 2589SOL    HW219230   1.108   2.926   5.020  0.1670  0.5650  1.5048
 2590SOL     OW19231   2.526   1.606  14.710 -0.4454  0.3537 -0.0566
 2590SOL    HW119232   2.606   1.554  14.709 -1.3957 -1.1308  0.7235
 2590SOL    HW219233   2.489   1.600  14.798  1.5624  0.2628  0.7819
 2591SOL     OW19234   1.791   2.890   2.168 -0.4699  0.0685  0.6124
 2591SOL    HW119235   1.733   2.814   2.164 -0.9788  0.4816  0.1041
 2591SOL    HW219236   1.738   2.955   2.121 -2.7854  0.1025  3.2527
 2592SOL     OW19237   4.550   2.886   2.008  0.4046 -0.3096  0.5944
 2592SOL    HW119238   4.454   2.881   2.007  0.3054  1.1089  2.5627
 2592SOL    HW219239   4.569   2.929   2.092 -0.6016 -0.6062  0.9709
 2593SOL     OW19240   3.693   1.004   9.573  0.0032 -0.3476  0.2375
 2593SOL    HW119241   3.733   0.990   9.487  0.6122 -0.4300  0.5319
 2593SOL    HW219242   3.676   1.096   9.552 -0.3526  0.1709  2.7061
 2594SOL     OW19243   0.092   2.222   5.409  0.2348 -0.1577 -0.0804
 2594SOL    HW119244   0.099   2.272   5.490 -1.2634  1.6520 -1.0490
 2594SOL    HW219245   0.165   2.161   5.411 -0.0126 -0.4692 -0.5392
 2595SOL     OW19246   4.265   1.661   5.232  0.1889 -0.2869  0.4135
 2595SOL    HW119247   4.183   1.617   5.252 -0.0032 -0.2568 -0.3337
 2595SOL    HW219248   4.326   1.586   5.230 -0.9221 -1.1577 -0.4975
 2596SOL     OW19249   1.934   4.695  14.638  0.0886 -0.3251  0.3556
 2596SOL    HW119250   1.973   4.610  14.652 -0.2428 -0.4181  0.7237
 2596SOL    HW219251   1.850   4.660  14.667 -1.0786 -0.1625 -2.8456
 2597SOL     OW19252   3.028   1.085   5.229 -0.5694  0.2101  0.1019
 2597SOL    HW119253   2.981   1.066   5.149 -0.3159  0.2566 -0.0599
 2597SOL    HW219254   3.093   1.137   5.182  0.1667 -3.9432 -3.5259
 2598SOL     OW19255   3.269   3.120   2.682 -0.0042  0.2136 -0.1371
 2598SOL    HW119256   3.209   3.051   2.654 -0.3884  0.3924  0.2389
 2598SOL    HW219257   3.328   3.071   2.739 -0.7315  1.1644  1.4458
 2599SOL     OW19258   3.436   3.596   9.209 -0.1930  0.3198 -0.3685
 2599SOL    HW119259   3.377   3.579   9.136 -0.4843  0.3006 -0.1304
 2599SOL    HW219260   3.368   3.599   9.276 -0.0163  0.8657 -0.2118
 2600SOL     OW19261   0.036   2.144  14.435  0.6257 -0.5234 -0.4624
 2600SOL    HW119262   4.723   2.065  14.471 -0.5513  0.1638 -0.2337
 2600SOL    HW219263   4.718   2.208  14.491  1.7719  0.0800 -0.2519
 2601SOL     OW19264   2.725   0.622  13.125 -0.1811 -0.0534 -0.5064
 2601SOL    HW119265   2.763   0.662  13.047  2.0783  0.0793  0.6522
 2601SOL    HW219266   2.727   0.529  13.104  0.5320  0.6529 -3.4966
 2602SOL     OW19267   1.829   1.947  12.246  0.5152 -0.3198  0.9156
 2602SOL    HW119268   1.842   1.865  12.199  1.0340 -0.4028  1.2022
 2602SOL    HW219269   1.736   1.968  12.241  0.8309  0.7352 -0.6516
 2603SOL     OW19270   0.740   1.687   4.083 -0.2498 -0.3960  1.1021
 2603SOL    HW119271   0.675   1.617   4.082 -0.9860  0.2865  1.3374
 2603SOL    HW219272   0.774   1.672   3.995 -1.3240 -0.2627  0.6630
 2604SOL     OW19273   2.352   1.509   4.584  0.1741  0.6559  0.3539
 2604SOL    HW119274   2.393   1.463   4.657  0.7543  1.1212  0.3231
 2604SOL    HW219275   2.370   1.448   4.513  1.4910  1.7172 -0.2292
 2605SOL     OW19276   0.738   2.039   4.772  0.3009  0.1350 -0.0378
 2605SOL    HW119277   0.753   2.028   4.678 -1.1404  0.6868 -0.3323
 2605SOL    HW219278   0.666   1.981   4.797 -0.3270  2.0099  2.5779
 2606SOL     OW19279   4.538   2.977  13.166 -0.5654  0.2725 -0.6145
 2606SOL    HW119280   4.530   3.071  13.150 -1.9536  0.0773 -1.0886
 2606SOL    HW219281   4.460   2.954  13.217  0.1890 -0.0114  0.4068
 2607SOL     OW19282   1.372   0.849   1.001  0.2220 -0.2212  0.1122
 2607SOL    HW119283   1.424   0.837   0.922 -0.2789 -0.7222 -0.1392
 2607SOL    HW219284   1.288   0.865   0.960  0.2948  0.3319  0.1856
 2608SOL     OW19285   1.929   2.945  10.454  0.3731 -0.0875 -0.6995
 2608SOL    HW119286   2.005   2.972  10.402  0.2321  0.4184 -0.6513
 2608SOL    HW219287   1.973   2.910  10.531  1.2022  0.9787 -0.6829
 2609SOL     OW19288   0.786   2.395   4.625 -0.1550  0.3122 -0.0178
 2609SOL    HW119289   0.873   2.366   4.654 -0.2948 -0.5489 -0.4345
 2609SOL    HW219290   0.740   2.430   4.701  0.0168 -1.3696  0.8806
 2610SOL     OW19291   1.767   2.239  16.075 -0.1533  0.0062  0.5040
 2610SOL    HW119292   1.760   2.227  16.169  4.1704  0.7242  0.9568
 2610SOL    HW219293   1.795   2.152  16.047 -0.6371 -0.3796  1.2462
 2611SOL     OW19294   0.242   1.779   1.276 -0.1022 -0.0802  0.5730
 2611SOL    HW119295   0.194   1.729   1.342 -0.2155  1.1010  1.3948
 2611SOL    HW219296   0.213   1.740   1.194  2.1115 -0.7098  0.1085
 2612SOL     OW19297   0.780   4.403  13.774  0.1902  0.4129 -0.0490
 2612SOL    HW119298   0.820   4.401  13.687  0.5986  1.5657  0.1089
 2612SOL    HW219299   0.699   4.354  13.764 -0.2718  1.5188 -1.7174
 2613SOL     OW19300   1.994   4.268   3.568 -0.1125  0.0475  0.3719
 2613SOL    HW119301   2.080   4.302   3.542  0.9586 -0.7291  2.9836
 2613SOL    HW219302   1.934   4.343   3.568  0.4899  0.5298  0.6407
 2614SOL     OW19303   4.489   1.152   3.939 -0.3742  0.2691  0.0914
 2614SOL    HW119304   4.455   1.239   3.916  0.5933  0.9102  1.0573
 2614SOL    HW219305   4.460   1.093   3.869  0.6843 -0.7251  0.4969
 2615SOL     OW19306   1.177   0.668   4.862  0.5044 -0.1080 -0.1196
 2615SOL    HW119307   1.245   0.687   4.797  0.0314  0.6183 -0.3923
 2615SOL    HW219308   1.219   0.584   4.885  1.0326  0.2933  0.3867
 2616SOL     OW19309   1.770   0.239   8.428  0.3683  0.0224  0.0856
 2616SOL    HW119310   1.688   0.259   8.383  1.0900  0.0153 -1.2372
 2616SOL    HW219311   1.800   0.164   8.377  1.5636  0.8536 -0.4427
 2617SOL     OW19312   2.812   0.922   3.468  0.3501 -0.3653  0.4862
 2617SOL    HW119313   2.848   0.939   3.381 -0.1666  0.6463  0.4713
 2617SOL    HW219314   2.741   0.861   3.448 -0.7729  0.6814  1.2663
 2618SOL     OW19315   3.479   4.650  11.169 -0.5465 -0.8330 -0.4353
 2618SOL    HW119316   3.550   4.592  11.140 -2.0952 -2.1196 -1.6237
 2618SOL    HW219317   3.398   4.612  11.134  0.7263 -2.4447 -1.6315
 2619SOL     OW19318   3.225   2.686  10.286 -0.8706  0.7115  0.1605
 2619SOL    HW119319   3.302   2.629  10.274 -2.6882 -1.4211 -1.3473
 2619SOL    HW219320   3.268   2.740  10.353  1.2077 -0.0222 -0.5745
 2620SOL     OW19321   3.304   2.329   7.654 -0.4018 -0.1109  0.0384
 2620SOL    HW119322   3.242   2.389   7.694 -2.3964 -1.5543 -0.8970
 2620SOL    HW219323   3.348   2.385   7.590  2.4173 -1.2863  0.9187
 2621SOL     OW19324   3.641   0.572   4.328  0.6268  0.3176  0.2325
 2621SOL    HW119325   3.673   0.662   4.336 -1.5677  1.1886 -0.5352
 2621SOL    HW219326   3.669   0.537   4.412  3.3955 -1.2289 -1.3533
 2622SOL     OW19327   3.106   3.244  11.181  0.8677  0.3982 -0.0668
 2622SOL    HW119328   3.073   3.159  11.211  1.0468  0.9333  1.6107
 2622SOL    HW219329   3.049   3.307  11.226  1.8692 -0.0584  1.8323
 2623SOL     OW19330   3.353   3.856  15.975 -0.6324  0.4989 -0.9384
 2623SOL    HW119331   3.264   3.836  15.947 -1.1294 -0.5648  1.3992
 2623SOL    HW219332   3.406   3.776  15.968  0.7794  1.2904  0.6633
 2624SOL     OW19333   1.396   4.285   8.562 -0.1836  0.2979 -0.2847
 2624SOL    HW119334   1.462   4.244   8.506 -0.0664 -0.5265  0.4486
 2624SOL    HW219335   1.441   4.355   8.610  0.0301 -0.4152  0.5633
 2625SOL     OW19336   1.237   0.613   6.258  0.3224  0.5327 -0.6769
 2625SOL    HW119337   1.207   0.529   6.224 -0.6614  0.8687 -0.6684
 2625SOL    HW219338   1.151   0.652   6.275 -0.3975 -1.6250  0.6644
 2626SOL     OW19339   0.563   3.188   4.939  0.2918  0.6486 -0.0197
 2626SOL    HW119340   0.579   3.123   5.008 -1.2893  0.2325 -0.0588
 2626SOL    HW219341   0.649   3.230   4.938  0.5139  0.2345  1.0249
 2627SOL     OW19342   4.360   2.105   7.497 -0.6490 -0.5651  0.1652
 2627SOL    HW119343   4.334   2.026   7.449  0.6008 -0.7101 -0.2677
 2627SOL    HW219344   4.274   2.146   7.506 -0.9023 -1.2149  0.7549
 2628SOL     OW19345   1.604   3.192  15.314  0.7018  0.1108  0.1563
 2628SOL    HW119346   1.579   3.213  15.404  1.1508 -0.9920  0.5434
 2628SOL    HW219347   1.547   3.258  15.274  0.0647 -0.3119  0.3720
 2629SOL     OW19348   1.203   0.715   2.445  0.1806 -0.0734 -0.0978
 2629SOL    HW119349   1.128   0.666   2.411  0.4423 -0.8287  0.4111
 2629SOL    HW219350   1.182   0.736   2.536  3.1931  0.7814  0.4039
 2630SOL     OW19351   0.488   1.474  12.344  0.1829 -0.1855  0.2083
 2630SOL    HW119352   0.527   1.518  12.419 -0.3682 -4.4936  3.0097
 2630SOL    HW219353   0.400   1.510  12.351  0.8178  1.2805  0.5993
 2631SOL     OW19354   0.310   2.420   3.244  0.4808  0.2164  0.1690
 2631SOL    HW119355   0.262   2.464   3.174 -0.0163 -1.6578 -0.6513
 2631SOL    HW219356   0.251   2.430   3.319  2.1475 -0.5201  1.5697
 2632SOL     OW19357   2.912   1.521   3.964  0.1610 -0.8131  0.1550
 2632SOL    HW119358   2.909   1.525   4.060  0.4102 -0.2065  0.1346
 2632SOL    HW219359   2.905   1.428   3.943  0.3202  0.0134 -3.5487
 2633SOL     OW19360   1.809   2.257   4.120  0.0318  0.3150 -0.8857
 2633SOL    HW119361   1.852   2.171   4.121 -0.8206 -0.1014 -0.5697
 2633SOL    HW219362   1.878   2.307   4.164 -0.3948 -0.6156  0.8271
 2634SOL     OW19363   2.403   3.967   6.475 -0.0513 -0.0214 -0.0569
 2634SOL    HW119364   2.311   3.985   6.458 -0.1705 -0.4518  0.1193
 2634SOL    HW219365   2.439   4.044   6.431  0.1267 -0.4631 -0.7019
 2635SOL     OW19366   0.957   3.571  16.136 -0.0031 -0.2090  0.1520
 2635SOL    HW119367   0.874   3.604  16.101  0.4229 -1.2844 -1.8737
 2635SOL    HW219368   0.986   3.516  16.064 -1.8203 -2.5055  1.1976
 2636SOL     OW19369   0.743   3.461   3.636 -0.4635 -0.7878 -0.2660
 2636SOL    HW119370   0.695   3.521   3.692  0.7074  1.1424 -1.3308
 2636SOL    HW219371   0.794   3.522   3.583  0.6694 -1.4492  0.0649
 2637SOL     OW19372   0.864   1.634   7.404  0.5287  0.1564 -0.0847
 2637SOL    HW119373   0.927   1.575   7.447  1.2755  1.2319  0.3051
 2637SOL    HW219374   0.888   1.623   7.312 -2.0234  1.1840 -0.8688
 2638SOL     OW19375   1.576   1.388  11.337  0.0144  0.4605  0.1008
 2638SOL    HW119376   1.507   1.357  11.394  1.1883  1.1090  1.8857
 2638SOL    HW219377   1.544   1.474  11.309  0.5229 -0.6947 -4.0092
 2639SOL     OW19378   2.314   4.299   6.381  0.1617  0.2663 -0.1891
 2639SOL    HW119379   2.247   4.360   6.351  0.8531  1.7034  1.1350
 2639SOL    HW219380   2.341   4.338   6.465  0.5407  1.2058 -0.7459
 2640SOL     OW19381   3.829   1.476  16.977 -0.3906  0.5489 -0.0557
 2640SOL    HW119382   3.889   1.409  17.011  0.4059  1.5709  0.5248
 2640SOL    HW219383   3.889   1.540  16.939  0.7489 -0.7271 -0.4538
 2641SOL     OW19384   0.097   4.266   5.672 -0.1000 -0.0942  0.2227
 2641SOL    HW119385   0.064   4.259   5.762  0.6996  0.2030  0.5380
 2641SOL    HW219386   0.015   4.274   5.624 -0.5714 -1.3730  0.8023
 2642SOL     OW19387   3.665   4.666   5.392  0.1344 -0.1134  0.9215
 2642SOL    HW119388   3.758   4.656   5.370  0.2316 -2.8434  2.5978
 2642SOL    HW219389   3.670   4.709   5.477 -3.0057  0.7648  0.6355
 2643SOL     OW19390   1.577   3.110  11.299 -0.0532  0.2319 -0.3588
 2643SOL    HW119391   1.626   3.080  11.376  0.3480 -0.4893 -0.8921
 2643SOL    HW219392   1.533   3.185  11.339  0.4166  0.5424 -0.4295
 2644SOL     OW19393   0.475   2.581   6.389  0.0899 -0.2454 -0.3537
 2644SOL    HW119394   0.409   2.575   6.458  0.8378  2.1926  0.5801
 2644SOL    HW219395   0.549   2.595   6.449 -0.0041 -2.2343  0.2276
 2645SOL     OW19396   1.257   4.507   3.552 -0.4175 -0.6289  0.2093
 2645SOL    HW119397   1.181   4.449   3.557 -0.2001 -1.0729 -1.6823
 2645SOL    HW219398   1.323   4.438   3.551  1.4101  1.0955  3.8634
 2646SOL     OW19399   1.061   0.193   9.162  0.3842 -0.4404  0.2041
 2646SOL    HW119400   1.042   0.112   9.116 -2.2214  0.5215 -0.4124
 2646SOL    HW219401   1.058   0.252   9.086 -1.0049  3.4848  3.2587
 2647SOL     OW19402   2.647   2.185  14.824  0.0564  0.0978 -0.2878
 2647SOL    HW119403   2.602   2.118  14.773  1.0646 -1.2819  0.6291
 2647SOL    HW219404   2.673   2.247  14.757 -1.4147  1.2290  0.1876
 2648SOL     OW19405   4.602   3.702   8.904 -0.3993 -0.6151 -0.2882
 2648SOL    HW119406   4.641   3.711   8.817 -0.3822 -1.9816 -0.4207
 2648SOL    HW219407   4.508   3.699   8.885 -0.3883 -4.1172  0.1697
 2649SOL     OW19408   4.582   0.578  11.505 -0.4318 -0.2481 -0.0745
 2649SOL    HW119409   4.653   0.617  11.556 -1.2113  3.1696 -1.6016
 2649SOL    HW219410   4.626   0.508  11.457 -0.0899  1.4415 -2.1740
 2650SOL     OW19411   1.953   4.329  11.208 -0.3613  0.0448  0.2422
 2650SOL    HW119412   2.027   4.383  11.237 -0.0113 -1.2779  1.8299
 2650SOL    HW219413   1.977   4.343  11.116  1.3804 -3.9469  0.0585
 2651SOL     OW19414   3.118   0.541  10.086  0.4979 -0.3588  0.1335
 2651SOL    HW119415   3.137   0.499  10.169 -2.5364  0.4730  1.2494
 2651SOL    HW219416   3.026   0.526  10.063  0.5352 -1.3929  0.6800
 2652SOL     OW19417   0.840   2.542   3.292 -0.0008  0.4430  0.6643
 2652SOL    HW119418   0.820   2.541   3.386 -2.7129 -0.5825  0.0918
 2652SOL    HW219419   0.913   2.482   3.305 -1.9947 -1.7176  1.8466
 2653SOL     OW19420   0.852   3.097   3.046  0.2352  0.2021 -0.0041
 2653SOL    HW119421   0.760   3.089   3.018  1.0108 -0.2465 -2.4561
 2653SOL    HW219422   0.836   3.140   3.130 -1.8572  0.9262 -0.7638
 2654SOL     OW19423   4.047   1.229   5.728  0.2537 -0.2314 -0.4323
 2654SOL    HW119424   4.025   1.150   5.679 -1.8520 -1.2681  2.2024
 2654SOL    HW219425   4.137   1.207   5.752 -0.6176 -0.6511  2.4712
 2655SOL     OW19426   0.274   1.613  12.397  0.1123  0.3924 -0.0591
 2655SOL    HW119427   0.222   1.612  12.316 -0.5389  0.1187  0.3664
 2655SOL    HW219428   0.264   1.700  12.435 -0.7078  0.1431  0.2945
 2656SOL     OW19429   2.164   1.682   4.518 -0.0944 -0.5119 -0.1474
 2656SOL    HW119430   2.247   1.647   4.550  0.7445  1.9750  0.4143
 2656SOL    HW219431   2.102   1.652   4.584  0.7552  0.6101  1.1790
 2657SOL     OW19432   1.596   1.032   9.468 -0.0543 -0.1812 -0.3158
 2657SOL    HW119433   1.614   1.072   9.553  1.1116  1.1842 -1.2115
 2657SOL    HW219434   1.517   1.083   9.446  0.6352 -0.1633 -2.7155
 2658SOL     OW19435   4.192   0.854   1.729 -0.0525 -0.1558  0.0058
 2658SOL    HW119436   4.183   0.883   1.638  1.3112  0.0625 -0.0657
 2658SOL    HW219437   4.127   0.784   1.729  0.8994 -1.0196  1.5112
 2659SOL     OW19438   2.583   4.475   9.482 -0.0095 -0.2444 -0.0791
 2659SOL    HW119439   2.529   4.555   9.485 -0.9381 -0.8999  0.5487
 2659SOL    HW219440   2.602   4.485   9.388 -0.9241 -0.3703 -0.2867
 2660SOL     OW19441   4.425   4.345   6.009  0.9944  1.0824 -0.4937
 2660SOL    HW119442   4.385   4.372   5.927  1.4180 -0.1527 -1.1047
 2660SOL    HW219443   4.401   4.425   6.057 -1.0376 -0.2610  0.7287
 2661SOL     OW19444   0.314   1.417   5.697  0.2461 -0.1915 -0.0397
 2661SOL    HW119445   0.287   1.492   5.750  0.4169  0.5465 -0.9959
 2661SOL    HW219446   0.274   1.437   5.613 -3.0363  1.5236  1.9315
 2662SOL     OW19447   0.105   0.049   5.880 -0.1175  0.1456  0.3611
 2662SOL    HW119448   0.125   0.009   5.795  2.3318  1.2293  0.4345
 2662SOL    HW219449   0.012   0.028   5.888  0.1620 -1.2019  0.0839
 2663SOL     OW19450   2.559   4.125  13.050 -0.6498 -0.1982 -0.2273
 2663SOL    HW119451   2.534   4.034  13.064 -0.3608 -0.1093  0.8112
 2663SOL    HW219452   2.574   4.136  12.956  0.1725  2.7795  0.2358
 2664SOL     OW19453   4.047   1.608  17.214  0.5774 -0.0401 -0.6091
 2664SOL    HW119454   4.049   1.608  17.309 -0.1021  0.1239 -0.5916
 2664SOL    HW219455   4.140   1.624  17.201  0.1385  2.1935 -1.0762
 2665SOL     OW19456   0.486   2.617   4.888 -0.1339  0.0638  0.0374
 2665SOL    HW119457   0.430   2.595   4.814  0.1832 -1.8400  0.3775
 2665SOL    HW219458   0.421   2.616   4.958  0.1049  0.5906  0.2709
 2666SOL     OW19459   1.870   2.088  13.932  0.1270 -0.0387 -0.0751
 2666SOL    HW119460   1.799   2.052  13.879 -1.8814  2.1228  1.1263
 2666SOL    HW219461   1.931   2.015  13.940  1.0754  0.8721  1.1242
 2667SOL     OW19462   1.062   2.195   7.702  0.2753 -0.8157 -0.1511
 2667SOL    HW119463   1.151   2.193   7.668 -0.1450  2.0228 -1.3982
 2667SOL    HW219464   1.011   2.154   7.631 -0.2808 -1.4221  0.5957
 2668SOL     OW19465   4.721   2.760   0.816 -0.1700  0.3158 -0.0148
 2668SOL    HW119466   0.087   2.785   0.823 -0.2964  0.5008  0.9223
 2668SOL    HW219467   0.003   2.671   0.850  0.0779  0.2861 -0.1416
 2669SOL     OW19468   2.591   2.892   8.467  0.8568  0.0614 -0.2244
 2669SOL    HW119469   2.508   2.888   8.514  0.2678 -1.2185 -1.3654
 2669SOL    HW219470   2.591   2.986   8.450  1.5811  0.6744  3.1130
 2670SOL     OW19471   3.270   0.810   6.829  0.1299 -0.4685  0.0479
 2670SOL    HW119472   3.212   0.864   6.776  2.6749  0.0261 -2.2118
 2670SOL    HW219473   3.206   0.764   6.883  0.2425  1.0856  1.4922
 2671SOL     OW19474   1.896   0.374   7.300  1.0172 -0.3830 -0.0505
 2671SOL    HW119475   1.970   0.339   7.350  0.7495  1.1196  1.4302
 2671SOL    HW219476   1.864   0.437   7.365 -0.1689  1.2055 -2.1963
 2672SOL     OW19477   4.330   3.417   6.129 -0.4550 -0.5010 -0.1658
 2672SOL    HW119478   4.255   3.455   6.175 -2.4963 -2.7468 -1.6318
 2672SOL    HW219479   4.404   3.475   6.147  0.9749 -2.4830  0.3078
 2673SOL     OW19480   3.547   1.857   9.395 -0.5871 -0.2998 -0.7216
 2673SOL    HW119481   3.637   1.825   9.403 -0.3504  0.5027 -0.2589
 2673SOL    HW219482   3.533   1.852   9.490 -1.7084  1.9401 -0.7938
 2674SOL     OW19483   3.517   4.209   0.860  0.6798  0.4210  0.1281
 2674SOL    HW119484   3.605   4.178   0.841  0.7337  1.0871 -0.7165
 2674SOL    HW219485   3.515   4.271   0.787  2.6562  0.1897 -0.1192
 2675SOL     OW19486   4.641   0.880   0.632 -0.0300  0.0532  0.0591
 2675SOL    HW119487   4.558   0.929   0.636  0.3662  0.6631  0.8136
 2675SOL    HW219488   4.642   0.853   0.541 -2.4052 -1.1319  0.3895
 2676SOL     OW19489   0.758   3.988   4.634  0.2782 -0.3810 -0.1880
 2676SOL    HW119490   0.758   3.901   4.594  0.5819 -0.1899 -0.6016
 2676SOL    HW219491   0.763   3.971   4.728 -0.5619  0.2293 -0.0367
 2677SOL     OW19492   3.744   0.350   8.523 -0.5996 -0.3148  0.1765
 2677SOL    HW119493   3.689   0.279   8.556  0.3553 -0.8800  0.5458
 2677SOL    HW219494   3.711   0.431   8.563  0.4873 -1.4407  3.2768
 2678SOL     OW19495   2.145   4.511   8.417 -0.8237  0.7177 -0.0892
 2678SOL    HW119496   2.223   4.459   8.436 -0.2338  1.1023 -1.5018
 2678SOL    HW219497   2.083   4.441   8.396  1.2696 -0.7434 -1.4290
 2679SOL     OW19498   0.676   3.650  17.294  0.4167  0.1191 -0.5446
 2679SOL    HW119499   0.619   3.684  17.225 -0.3958  0.3855  0.2554
 2679SOL    HW219500   0.627   3.672  17.374  2.0884 -1.4666  0.9183
 2680SOL     OW19501   1.970   3.103   8.676  0.6879 -0.2308 -0.0311
 2680SOL    HW119502   1.971   3.031   8.612  1.6926  0.5234 -0.8699
 2680SOL    HW219503   1.915   3.068   8.746  0.1608  2.6134  0.9807
 2681SOL     OW19504   2.768   4.117   3.190 -0.1000 -0.3514 -0.3850
 2681SOL    HW119505   2.767   4.168   3.271  0.2916  0.3061 -0.8015
 2681SOL    HW219506   2.745   4.194   3.138 -0.4218 -0.1520  0.0498
 2682SOL     OW19507   2.388   2.217  12.428 -0.2466 -0.3301  0.3163
 2682SOL    HW119508   2.453   2.278  12.393 -0.5669 -0.6390 -0.7991
 2682SOL    HW219509   2.317   2.275  12.456  1.2673  1.6614  0.0579
 2683SOL     OW19510   3.794   0.915   7.694 -0.0718  0.4360  0.5654
 2683SOL    HW119511   3.816   0.876   7.779  1.1713  2.1013  0.9919
 2683SOL    HW219512   3.718   0.971   7.709  0.2445  0.5650  1.6260
 2684SOL     OW19513   1.915   4.003   6.140  0.0327  0.4191  0.1730
 2684SOL    HW119514   1.952   4.056   6.210  1.8019 -0.9252  0.2438
 2684SOL    HW219515   1.927   3.916   6.179  0.6772 -0.1780 -1.3648
 2685SOL     OW19516   3.055   3.312   9.075  0.2594  0.2966  0.4121
 2685SOL    HW119517   3.150   3.305   9.069  0.5040  1.3116  2.9239
 2685SOL    HW219518   3.021   3.227   9.049  1.4037 -0.4976  1.5561
 2686SOL     OW19519   0.932   3.766  16.965  0.0195 -0.2666  0.6151
 2686SOL    HW119520   0.922   3.672  16.949  1.2129 -0.3240  0.1869
 2686SOL    HW219521   0.959   3.762  17.057  1.2613 -0.2609  0.2622
 2687SOL     OW19522   1.193   4.391  13.792  0.2330 -0.0214 -0.1850
 2687SOL    HW119523   1.222   4.384  13.882  0.7783 -0.4231 -0.3927
 2687SOL    HW219524   1.122   4.327  13.787 -0.6057  0.8743  0.2134
 2688SOL     OW19525   1.123   0.874   5.279  0.2180 -0.2374 -0.1044
 2688SOL    HW119526   1.175   0.913   5.208 -0.0135  1.9031  0.9035
 2688SOL    HW219527   1.040   0.851   5.237 -0.3159  1.9423 -0.2365
 2689SOL     OW19528   4.621   0.706  15.599  0.7796  0.0483 -0.1297
 2689SOL    HW119529   4.661   0.790  15.621  0.5430  0.6112 -1.9074
 2689SOL    HW219530   4.547   0.744  15.553 -0.3586 -2.3387 -0.2751
 2690SOL     OW19531   0.292   0.927   6.095  0.3122  0.1463 -0.1253
 2690SOL    HW119532   0.340   0.845   6.077 -2.2889 -1.0504 -1.5753
 2690SOL    HW219533   0.337   0.949   6.176  0.8875  1.1958 -0.7373
 2691SOL     OW19534   0.814   2.592  13.989  0.4404 -0.1122 -0.3678
 2691SOL    HW119535   0.811   2.553  13.901 -2.9068  0.3061 -0.4255
 2691SOL    HW219536   0.831   2.685  13.979  0.9629 -0.3410 -1.6478
 2692SOL     OW19537   3.857   4.463   0.468 -0.8007 -0.1859 -0.2245
 2692SOL    HW119538   3.929   4.513   0.504 -0.0452  0.2404 -2.3463
 2692SOL    HW219539   3.785   4.485   0.527 -0.6620 -0.7620  0.1614
 2693SOL     OW19540   1.026   2.840   7.421 -0.1005 -0.0847 -0.1865
 2693SOL    HW119541   1.107   2.815   7.465 -0.4200 -1.9308 -0.6237
 2693SOL    HW219542   0.967   2.881   7.483 -1.5097 -0.7444 -1.0829
 2694SOL     OW19543   0.845   3.101   5.863  0.6966 -0.1117 -0.5166
 2694SOL    HW119544   0.763   3.141   5.893  2.0332  1.3746  1.1744
 2694SOL    HW219545   0.915   3.159   5.893  1.0135 -0.0287 -1.4251
 2695SOL     OW19546   4.087   4.453   3.209 -0.2728  0.4184  0.3488
 2695SOL    HW119547   4.058   4.544   3.201  0.1442  0.4806 -0.4682
 2695SOL    HW219548   4.177   4.462   3.176 -0.3449  1.3113  0.3939
 2696SOL     OW19549   0.737   4.043   8.784 -0.1334  0.4397 -0.3667
 2696SOL    HW119550   0.736   4.114   8.719  0.1057  1.7310  1.0462
 2696SOL    HW219551   0.658   3.996   8.756 -0.0112 -0.2631  0.4889
 2697SOL     OW19552   3.716   4.281  17.401  0.0572 -0.9758 -0.2834
 2697SOL    HW119553   3.668   4.206  17.436  0.1102 -0.7429  0.2863
 2697SOL    HW219554   3.735   4.257  17.310  0.6417  0.6279 -0.5883
 2698SOL     OW19555   4.320   3.290   7.481 -0.2454 -0.3345 -0.0338
 2698SOL    HW119556   4.390   3.331   7.431  1.6049 -0.9935  2.0372
 2698SOL    HW219557   4.275   3.242   7.411  3.2397 -1.2809 -1.6125
 2699SOL     OW19558   4.425   2.529   2.174 -0.0663 -0.0208  0.2714
 2699SOL    HW119559   4.427   2.580   2.092 -2.4845 -0.7234 -0.2228
 2699SOL    HW219560   4.348   2.568   2.216 -0.0431 -0.5705  0.8145
 2700SOL     OW19561   3.003   3.343   5.556  0.4419  0.0106 -0.2992
 2700SOL    HW119562   2.935   3.406   5.530  0.4459  0.5997  1.1458
 2700SOL    HW219563   3.026   3.365   5.646  2.5532 -2.6075 -0.2168
 2701SOL     OW19564   3.967   1.858   5.862  0.5184  0.4825 -0.4894
 2701SOL    HW119565   3.995   1.948   5.876 -3.2909  1.4700  0.6684
 2701SOL    HW219566   3.873   1.859   5.883  0.9815 -0.2577  1.5801
 2702SOL     OW19567   4.624   3.723   3.422  0.0307 -0.2137  0.1556
 2702SOL    HW119568   4.579   3.803   3.448 -1.2004 -0.5420 -0.9427
 2702SOL    HW219569   4.717   3.744   3.427 -0.0002  0.6323 -2.6753
 2703SOL     OW19570   3.301   1.677   8.281  0.6314  0.4733  0.7896
 2703SOL    HW119571   3.264   1.589   8.270  0.1609  0.6505  0.9866
 2703SOL    HW219572   3.391   1.653   8.304  1.0497 -1.4854 -2.8123
 2704SOL     OW19573   3.364   1.200   7.556 -0.1336  0.1907  0.6052
 2704SOL    HW119574   3.281   1.246   7.542  0.4398  0.2554 -2.5503
 2704SOL    HW219575   3.402   1.242   7.634 -2.1952 -0.1499  1.7878
 2705SOL     OW19576   0.219   3.414   4.215  0.0520  0.0168  0.6539
 2705SOL    HW119577   0.149   3.457   4.265  0.0057 -0.4844  1.0196
 2705SOL    HW219578   0.185   3.434   4.128  1.3847  2.6841  0.7471
 2706SOL     OW19579   3.683   0.392   2.602 -0.5538 -0.7348  0.1630
 2706SOL    HW119580   3.752   0.410   2.666 -0.1453 -0.8980 -0.2267
 2706SOL    HW219581   3.610   0.386   2.663  0.5845  0.3601  1.6318
 2707SOL     OW19582   3.077   3.618   5.392 -0.1454 -0.0294  0.3770
 2707SOL    HW119583   3.091   3.697   5.444 -2.5709 -0.9546  2.4195
 2707SOL    HW219584   2.986   3.595   5.409 -0.0845 -0.9173 -0.4827
 2708SOL     OW19585   1.940   3.145   9.608  0.1894  0.1738  0.2281
 2708SOL    HW119586   1.931   3.108   9.520 -0.1414  0.2284  0.2419
 2708SOL    HW219587   1.849   3.158   9.633 -0.5496  0.2138 -2.5147
 2709SOL     OW19588   1.631   4.295   9.292  0.1516 -0.2911  0.1573
 2709SOL    HW119589   1.669   4.302   9.379 -0.8217  0.8302  0.4864
 2709SOL    HW219590   1.548   4.339   9.309  0.2903  0.1153 -0.1827
 2710SOL     OW19591   4.545   0.902  17.651  0.3300 -0.4162 -0.2093
 2710SOL    HW119592   4.589   0.961   0.008 -0.9327  0.4798 -0.1724
 2710SOL    HW219593   4.456   0.932  17.669  0.3395 -0.9589  0.7500
 2711SOL     OW19594   3.535   1.799   9.664  0.3438 -0.1168 -0.3548
 2711SOL    HW119595   3.613   1.756   9.699 -1.4139 -1.6015  1.7435
 2711SOL    HW219596   3.465   1.784   9.728  1.1606  2.2120  1.0733
 2712SOL     OW19597   2.609   0.899  10.052 -0.4437  0.9439  0.9669
 2712SOL    HW119598   2.538   0.961  10.070 -0.6392  0.6223  1.2991
 2712SOL    HW219599   2.581   0.869   9.965  0.8772 -3.5030  2.0361
 2713SOL     OW19600   3.206   4.503   1.873 -0.1440 -0.5479  0.2893
 2713SOL    HW119601   3.167   4.590   1.863  0.4909 -0.3457 -0.4172
 2713SOL    HW219602   3.247   4.500   1.787  1.5397 -1.1141  1.1226
 2714SOL     OW19603   3.178   1.472   9.181  0.5500 -0.5471  0.0860
 2714SOL    HW119604   3.268   1.483   9.150  1.1646  0.0563  2.0961
 2714SOL    HW219605   3.198   1.415   9.256 -0.8368 -0.8573  0.2170
 2715SOL     OW19606   4.719   3.741   2.873  0.6754  0.2057 -0.4460
 2715SOL    HW119607   4.691   3.718   2.962 -0.7400  2.7546 -0.2056
 2715SOL    HW219608   4.708   3.664   2.818  0.4339  1.2006 -1.7825
 2716SOL     OW19609   0.167   0.241   9.978 -0.7202 -0.5085  0.4659
 2716SOL    HW119610   0.171   0.216  10.070 -1.6454 -0.2298  0.5876
 2716SOL    HW219611   0.217   0.323   9.980  2.4044 -2.4721  2.2992
 2717SOL     OW19612   2.127   4.637   0.041 -0.3140 -0.4940 -0.2064
 2717SOL    HW119613   2.062   4.667   0.106 -0.3273  0.5249 -0.6902
 2717SOL    HW219614   2.152   4.724   0.011 -1.0342 -0.5346 -0.9281
 2718SOL     OW19615   0.198   0.725  13.932  0.4015 -0.3988  0.4811
 2718SOL    HW119616   0.223   0.706  13.842  1.9376 -0.9627  1.0343
 2718SOL    HW219617   0.279   0.761  13.968  0.5345  2.2028 -2.3348
 2719SOL     OW19618   1.808   4.187   3.284  0.1628 -0.0594  0.0443
 2719SOL    HW119619   1.847   4.148   3.206 -0.1640 -0.5508  0.1251
 2719SOL    HW219620   1.868   4.182   3.358 -2.5956 -1.9004  2.1409
 2720SOL     OW19621   4.083   1.330   1.828 -0.0836 -0.3619  0.6833
 2720SOL    HW119622   4.030   1.383   1.769  0.2793  0.4029  1.0494
 2720SOL    HW219623   4.157   1.390   1.838 -0.3335 -0.3172  2.1930
 2721SOL     OW19624   4.434   2.926   6.505 -0.2072  0.3824  0.0967
 2721SOL    HW119625   4.391   2.903   6.423  1.3891  0.6972 -0.8321
 2721SOL    HW219626   4.462   2.838   6.529 -0.0407  0.5831  0.6653
 2722SOL     OW19627   3.591   1.377   0.575 -0.5255  0.1323  0.3613
 2722SOL    HW119628   3.583   1.369   0.480  0.2096 -1.6088  0.4610
 2722SOL    HW219629   3.498   1.381   0.598 -0.6370 -1.7646  0.2179
 2723SOL     OW19630   1.788   3.465   6.445  0.1254  0.2663  0.2933
 2723SOL    HW119631   1.831   3.458   6.359  0.7107 -2.8726  0.8272
 2723SOL    HW219632   1.710   3.513   6.419 -0.2001  0.1861  1.1381
 2724SOL     OW19633   4.220   4.579  12.667  0.8868  0.3902  0.0196
 2724SOL    HW119634   4.133   4.548  12.692  2.3379 -2.3585  1.5984
 2724SOL    HW219635   4.241   4.518  12.596  0.3160 -0.0382  0.2109
 2725SOL     OW19636   0.337   3.688   8.369  0.6633  0.0923  0.1377
 2725SOL    HW119637   0.250   3.718   8.395  0.7158 -1.4653  2.1130
 2725SOL    HW219638   0.395   3.764   8.372  0.3450  0.2808  1.4746
 2726SOL     OW19639   2.429   2.135   3.929 -0.0095 -0.4209 -0.3516
 2726SOL    HW119640   2.437   2.231   3.927 -0.5930 -0.4160 -2.8826
 2726SOL    HW219641   2.467   2.114   3.843  0.7519 -0.8961  0.0979
 2727SOL     OW19642   3.270   0.487   3.104 -0.0151  0.2497  0.4226
 2727SOL    HW119643   3.267   0.537   3.185 -0.6941  1.7204 -0.5102
 2727SOL    HW219644   3.274   0.549   3.031 -0.4688  2.1765  2.0633
 2728SOL     OW19645   1.033   0.779  13.649 -0.3028  0.4196  0.4480
 2728SOL    HW119646   1.078   0.728  13.581  1.1774 -0.0867  1.8010
 2728SOL    HW219647   1.088   0.760  13.725  0.4677 -1.7312 -0.6290
 2729SOL     OW19648   2.578   4.520   2.656  0.0289  0.0289 -0.4003
 2729SOL    HW119649   2.622   4.450   2.704 -0.6257  0.3000  0.6070
 2729SOL    HW219650   2.596   4.602   2.701 -1.9863  0.1578  0.1793
 2730SOL     OW19651   4.417   2.904   3.351 -0.1176  0.5008 -0.1310
 2730SOL    HW119652   4.353   2.929   3.418 -0.8421  2.0068 -1.3832
 2730SOL    HW219653   4.375   2.824   3.318  2.3788 -0.3114 -1.2876
 2731SOL     OW19654   3.332   0.051  12.615  0.3247  0.1853 -0.3517
 2731SOL    HW119655   3.330   0.102  12.696 -0.7799  0.3566 -0.4874
 2731SOL    HW219656   3.311   0.120  12.551 -1.7078 -0.0899  0.0222
 2732SOL     OW19657   0.068   2.690  10.488 -0.4561  0.6119  0.1966
 2732SOL    HW119658   4.710   2.679  10.442  0.9614 -0.5192 -2.0959
 2732SOL    HW219659   0.119   2.731  10.419  0.7458 -0.8461  0.2103
 2733SOL     OW19660   3.675   1.244   3.435 -0.0280 -0.5439  0.3409
 2733SOL    HW119661   3.755   1.206   3.470  0.2109 -1.1493 -0.8505
 2733SOL    HW219662   3.700   1.233   3.343  1.1823 -0.6930  0.6839
 2734SOL     OW19663   3.520   0.357   3.127 -0.3943  0.3962 -0.0760
 2734SOL    HW119664   3.471   0.288   3.172 -0.4860  0.0953 -0.6414
 2734SOL    HW219665   3.450   0.422   3.134  1.2134  1.9700  1.2656
 2735SOL     OW19666   1.757   2.847   8.074  0.1861  0.4814  0.0110
 2735SOL    HW119667   1.690   2.888   8.020 -1.3506 -0.2906  1.3077
 2735SOL    HW219668   1.716   2.767   8.108 -1.0628  0.5217 -1.4020
 2736SOL     OW19669   0.659   0.541   6.537 -0.1133 -0.0413  0.1830
 2736SOL    HW119670   0.748   0.532   6.503  0.4049  1.3403  1.1949
 2736SOL    HW219671   0.640   0.631   6.509  2.3681  0.5954  0.5713
 2737SOL     OW19672   1.461   0.230   4.975 -0.1594 -0.3595 -0.2382
 2737SOL    HW119673   1.549   0.202   4.948  0.4059  0.6123  0.5892
 2737SOL    HW219674   1.444   0.154   5.031 -1.1489 -0.6471 -0.9348
 2738SOL     OW19675   1.342   1.685   7.205 -0.4672 -0.1624  0.3110
 2738SOL    HW119676   1.249   1.690   7.228 -0.6956 -0.5135 -0.5397
 2738SOL    HW219677   1.344   1.729   7.120 -0.4793  0.6557  0.7312
 2739SOL     OW19678   1.836   3.974  14.123  0.1680 -0.0353 -0.1086
 2739SOL    HW119679   1.835   3.901  14.184 -0.2893 -1.9550 -2.4108
 2739SOL    HW219680   1.884   4.041  14.172  1.0704 -2.1455  1.8555
 2740SOL     OW19681   0.105   4.163   1.982  0.2769 -0.2061 -0.4341
 2740SOL    HW119682   0.183   4.108   1.983 -0.8967 -1.8400  1.4906
 2740SOL    HW219683   0.101   4.203   1.895  1.3624  0.7751 -0.0258
 2741SOL     OW19684   2.730   1.223   5.129  0.2783 -0.0030  0.0360
 2741SOL    HW119685   2.667   1.235   5.058 -0.1556 -1.1667  0.2141
 2741SOL    HW219686   2.791   1.164   5.084 -0.2373  0.7748 -1.6675
 2742SOL     OW19687   3.940   3.088   2.323 -0.3442  0.3971 -0.2026
 2742SOL    HW119688   3.895   3.003   2.315 -0.4327  0.2302  1.8869
 2742SOL    HW219689   4.030   3.056   2.323 -0.0024  1.3785  0.0799
 2743SOL     OW19690   2.660   3.463   8.581 -0.2035 -0.1573 -0.0673
 2743SOL    HW119691   2.739   3.409   8.587  0.0240  0.5067  2.7656
 2743SOL    HW219692   2.708   3.541   8.553 -0.4318 -0.4473 -1.2893
 2744SOL     OW19693   0.728   1.270   8.892 -0.1734 -0.3363 -0.4429
 2744SOL    HW119694   0.697   1.222   8.969  1.3165  0.8765  0.9119
 2744SOL    HW219695   0.695   1.359   8.904  0.3894 -0.2783  0.6789
 2745SOL     OW19696   0.398   1.414   7.420 -0.0872  0.5143  0.4001
 2745SOL    HW119697   0.465   1.354   7.454  1.4616  0.3774 -2.8585
 2745SOL    HW219698   0.318   1.413   7.471  1.3220 -0.6716  2.5828
 2746SOL     OW19699   3.646   1.608   8.788  0.5243  0.2011  0.0805
 2746SOL    HW119700   3.740   1.609   8.804  0.5788  0.6672 -0.2687
 2746SOL    HW219701   3.626   1.536   8.847  0.6641 -0.1084 -0.2510
 2747SOL     OW19702   3.824   1.705   9.939 -0.2548 -0.0150  0.1043
 2747SOL    HW119703   3.859   1.692  10.028  2.7738  0.7588 -0.9729
 2747SOL    HW219704   3.732   1.718   9.962 -0.0977  1.2818  0.0030
 2748SOL     OW19705   1.628   4.439  11.378 -0.0227  0.3801 -0.5617
 2748SOL    HW119706   1.561   4.421  11.312  0.5498 -1.1865 -0.7171
 2748SOL    HW219707   1.595   4.399  11.458 -1.3184  1.0735 -0.7445
 2749SOL     OW19708   0.654   0.748   1.750  0.3977  0.1115  0.1657
 2749SOL    HW119709   0.621   0.775   1.836 -0.5208  0.2124 -0.2227
 2749SOL    HW219710   0.613   0.814   1.695  0.9184 -0.0902 -0.4579
 2750SOL     OW19711   4.012   2.118   8.635  0.0568 -0.3510 -0.4975
 2750SOL    HW119712   4.073   2.172   8.585  1.6571 -0.2828  1.5303
 2750SOL    HW219713   3.935   2.132   8.581 -1.6070 -3.6877  0.9936
 2751SOL     OW19714   3.495   2.033   8.676  0.2874  0.4345 -0.0067
 2751SOL    HW119715   3.559   2.056   8.743  1.3745  0.6876 -1.1257
 2751SOL    HW219716   3.505   1.937   8.676  0.2272  0.4278 -0.0860
 2752SOL     OW19717   1.907   0.642   8.493  0.0423  0.2737  0.2608
 2752SOL    HW119718   1.819   0.621   8.461 -0.0808  1.0467  0.0880
 2752SOL    HW219719   1.955   0.562   8.471  0.0665  0.6254 -0.9399
 2753SOL     OW19720   0.527   1.001   8.275  0.2163  0.3232 -0.5441
 2753SOL    HW119721   0.475   0.928   8.238  0.5140  1.5772 -3.4798
 2753SOL    HW219722   0.610   0.966   8.241 -0.4391  0.3124 -2.1728
 2754SOL     OW19723   0.527   3.341   9.917  0.2965  0.2649  0.0882
 2754SOL    HW119724   0.514   3.357   9.824 -0.0154 -0.1424  0.0640
 2754SOL    HW219725   0.597   3.403   9.937 -0.3369  0.1298  2.7935
 2755SOL     OW19726   1.295   3.735   0.411  0.1819 -0.4060  0.0114
 2755SOL    HW119727   1.217   3.787   0.392  1.2952  1.3630  0.2142
 2755SOL    HW219728   1.366   3.792   0.441  0.6096 -0.5233 -0.7798
 2756SOL     OW19729   4.214   3.776   3.531 -0.3311  0.7379  0.1761
 2756SOL    HW119730   4.142   3.839   3.535  1.1755  2.3476  1.3760
 2756SOL    HW219731   4.181   3.709   3.591  0.5275  0.9583  0.8958
 2757SOL     OW19732   0.387   0.334   9.008 -0.6580 -0.3330 -0.1168
 2757SOL    HW119733   0.477   0.356   8.983 -0.6655  0.4515  0.5409
 2757SOL    HW219734   0.329   0.377   8.945  0.1209  1.9382  0.7141
 2758SOL     OW19735   2.082   1.093   9.679  0.5574 -0.9295 -0.5925
 2758SOL    HW119736   2.158   1.072   9.732  0.8274  2.4922  0.4115
 2758SOL    HW219737   2.029   1.020   9.711  0.7632 -1.8224 -2.2864
 2759SOL     OW19738   1.524   4.186   3.282 -0.3647 -0.1447  0.9996
 2759SOL    HW119739   1.614   4.181   3.315  0.6215  0.7580 -1.5001
 2759SOL    HW219740   1.524   4.107   3.228  2.5281 -0.2057  1.1012
 2760SOL     OW19741   4.567   3.245  12.397 -0.1634 -0.4760  0.0697
 2760SOL    HW119742   4.548   3.151  12.401  0.9317 -0.6950  0.1461
 2760SOL    HW219743   4.645   3.245  12.340 -0.7675  0.9774 -0.7515
 2761SOL     OW19744   3.916   2.165   8.196  0.0396 -0.6751 -0.6264
 2761SOL    HW119745   3.979   2.095   8.183 -0.9777 -1.7385  0.1633
 2761SOL    HW219746   3.831   2.120   8.198 -0.3521 -0.0165 -2.8805
 2762SOL     OW19747   4.044   3.636   4.451 -0.4148  0.1844 -0.1387
 2762SOL    HW119748   4.020   3.723   4.483  3.4307  0.5947  1.6913
 2762SOL    HW219749   4.139   3.645   4.460 -0.2647 -1.6736  0.1202
 2763SOL     OW19750   3.456   0.171  11.356  0.1429  0.2609 -0.1858
 2763SOL    HW119751   3.451   0.261  11.388 -1.1334  0.4792 -0.9875
 2763SOL    HW219752   3.367   0.143  11.380 -0.2387  1.5055 -0.1688
 2764SOL     OW19753   1.402   1.957   3.099  0.6473  0.2029  0.3085
 2764SOL    HW119754   1.353   1.888   3.144  2.6721 -1.9330 -0.7310
 2764SOL    HW219755   1.327   2.011   3.076 -0.1251  0.2984  2.9646
 2765SOL     OW19756   2.399   1.827   9.065 -0.6004 -0.7503 -0.2269
 2765SOL    HW119757   2.471   1.765   9.057  0.0211 -0.2241  1.2817
 2765SOL    HW219758   2.329   1.772   9.028 -1.8778  0.7502 -0.0563
 2766SOL     OW19759   3.790   3.004   2.891  0.1302 -0.3843 -0.6118
 2766SOL    HW119760   3.825   2.951   2.963 -3.1440 -0.1191  1.1286
 2766SOL    HW219761   3.722   2.942   2.865  0.8291 -0.6827 -1.7509
 2767SOL     OW19762   0.559   2.324  11.491  0.1377 -0.4573  0.5255
 2767SOL    HW119763   0.571   2.232  11.514  1.1336 -0.1497  1.2322
 2767SOL    HW219764   0.464   2.333  11.493  0.1581  0.5971 -2.5966
 2768SOL     OW19765   3.793   0.810  17.579 -0.1883 -0.0721 -0.0613
 2768SOL    HW119766   3.768   0.836  17.491 -4.1627  1.0360  1.4040
 2768SOL    HW219767   3.765   0.884  17.633 -1.8903  0.4648 -1.6796
 2769SOL     OW19768   1.167   2.956   2.396  0.0014 -0.2672  0.9152
 2769SOL    HW119769   1.089   2.935   2.447 -0.1969  0.7853  1.0394
 2769SOL    HW219770   1.144   3.021   2.330  2.3816 -0.3487 -0.0150
 2770SOL     OW19771   2.817   0.576   3.728  0.0935 -0.6875  0.1052
 2770SOL    HW119772   2.852   0.507   3.672  1.1875  1.6454 -2.0786
 2770SOL    HW219773   2.891   0.632   3.751 -0.0182 -0.1678 -0.8217
 2771SOL     OW19774   1.342   1.843   8.092  0.1966  0.3845  0.4630
 2771SOL    HW119775   1.252   1.852   8.060  1.1311  2.8355 -1.5632
 2771SOL    HW219776   1.385   1.857   8.007  1.6137  0.7992  1.2420
 2772SOL     OW19777   2.431   3.043   6.754 -0.0786 -0.4700 -0.0962
 2772SOL    HW119778   2.473   3.107   6.696  0.2840  0.6418  1.4010
 2772SOL    HW219779   2.468   2.964   6.714 -0.2061 -1.5343  1.9056
 2773SOL     OW19780   3.520   1.427   9.323 -0.5798  0.6776 -0.2734
 2773SOL    HW119781   3.459   1.487   9.365  1.5335  0.8396  2.5911
 2773SOL    HW219782   3.583   1.489   9.286  0.3082 -0.3026 -0.4114
 2774SOL     OW19783   2.288   0.405   6.311 -0.0644 -0.8008 -0.2098
 2774SOL    HW119784   2.249   0.390   6.225 -1.6901  1.9855  0.0597
 2774SOL    HW219785   2.235   0.479   6.339 -0.1444 -0.7207 -0.5766
 2775SOL     OW19786   1.157   0.255   3.521 -0.2783  0.1419  0.2491
 2775SOL    HW119787   1.085   0.193   3.508  1.0673 -0.9096 -2.1229
 2775SOL    HW219788   1.172   0.291   3.433 -0.3933  0.6866  0.4508
 2776SOL     OW19789   1.632   3.232   5.367  0.1446 -0.1997 -0.1192
 2776SOL    HW119790   1.719   3.222   5.405  0.0013  0.6874  0.4413
 2776SOL    HW219791   1.630   3.165   5.298  0.1320 -0.4093  0.0874
 2777SOL     OW19792   2.458   2.639   2.997 -0.8213  0.2549  0.2951
 2777SOL    HW119793   2.540   2.649   3.044  0.0143 -2.1813 -0.6117
 2777SOL    HW219794   2.392   2.593   3.049  0.8799 -2.0018  0.4281
 2778SOL     OW19795   1.311   1.882   0.165 -0.1664 -0.0214 -0.8228
 2778SOL    HW119796   1.215   1.881   0.164 -0.1578 -0.5318 -1.6139
 2778SOL    HW219797   1.323   1.974   0.143  1.2487 -0.3677 -1.4773
 2779SOL     OW19798   2.192   4.437  11.324  0.1316 -0.2114 -0.0288
 2779SOL    HW119799   2.211   4.463  11.414 -2.8487  1.4706  0.1074
 2779SOL    HW219800   2.253   4.494  11.277 -0.3370  0.0106 -0.3624
 2780SOL     OW19801   0.588   1.981   3.475 -0.2281  0.5792 -0.2040
 2780SOL    HW119802   0.507   1.931   3.484  0.1713  0.1130  0.7686
 2780SOL    HW219803   0.637   1.956   3.553  0.3608 -0.4455 -0.9038
 2781SOL     OW19804   0.603   1.250   8.041 -0.2504 -0.1307  0.5110
 2781SOL    HW119805   0.526   1.304   8.061 -1.6434 -1.8233 -0.3130
 2781SOL    HW219806   0.634   1.296   7.963 -0.7026 -1.6252 -0.5356
 2782SOL     OW19807   4.235   2.251   6.900  0.1949  0.5553  0.1023
 2782SOL    HW119808   4.154   2.298   6.882 -0.8569 -1.5738 -0.7447
 2782SOL    HW219809   4.213   2.158   6.889 -0.4519  0.9186 -1.5748
 2783SOL     OW19810   0.715   0.763   9.252  0.7046  0.0438 -0.3656
 2783SOL    HW119811   0.677   0.686   9.210 -0.6419 -0.6692  2.1594
 2783SOL    HW219812   0.784   0.717   9.302  1.4840  1.5274 -0.0701
 2784SOL     OW19813   3.092   2.012   3.130 -0.1247 -0.2440 -0.1126
 2784SOL    HW119814   3.118   2.064   3.206 -0.8537 -0.2546  0.1425
 2784SOL    HW219815   3.000   2.009   3.154 -0.3927 -1.8332 -1.3397
 2785SOL     OW19816   3.704   3.118  14.131  0.3759 -0.3797  0.0108
 2785SOL    HW119817   3.701   3.166  14.048 -1.1963 -0.4469  0.0277
 2785SOL    HW219818   3.616   3.081  14.138  1.5339 -2.9476  0.9965
 2786SOL     OW19819   0.490   1.520   6.856 -0.3434 -0.4222 -0.2942
 2786SOL    HW119820   0.534   1.519   6.941  3.6576  2.0487 -2.3040
 2786SOL    HW219821   0.399   1.496   6.871 -0.2934  0.3676  1.3469
 2787SOL     OW19822   2.755   2.948   6.619  0.3352 -0.6096 -0.1803
 2787SOL    HW119823   2.688   2.891   6.580  0.4950  1.2004 -3.0966
 2787SOL    HW219824   2.776   3.011   6.550  0.7214  0.2381  0.7090
 2788SOL     OW19825   4.628   0.066  12.927  0.0606 -0.1162  0.4931
 2788SOL    HW119826   4.534   0.047  12.919  0.5456 -1.0974 -2.6529
 2788SOL    HW219827   4.661   4.711  12.887 -1.9835 -0.3650 -0.7045
 2789SOL     OW19828   1.422   2.950  12.879 -0.3238 -0.1342  0.1568
 2789SOL    HW119829   1.403   2.856  12.882 -2.0190  0.1904 -0.1736
 2789SOL    HW219830   1.355   2.985  12.820 -0.8704 -2.1024 -0.3661
 2790SOL     OW19831   0.457   2.319   7.342 -0.1941  0.4327 -0.3708
 2790SOL    HW119832   0.364   2.319   7.365  0.5168  0.7393  2.4353
 2790SOL    HW219833   0.473   2.238   7.293 -0.7044 -0.5091  1.0041
 2791SOL     OW19834   1.625   1.805   8.896  0.7740 -0.7282 -0.4232
 2791SOL    HW119835   1.591   1.722   8.861  0.0345 -0.9166  0.7220
 2791SOL    HW219836   1.669   1.838   8.818  1.1658 -0.1364  0.0519
 2792SOL     OW19837   0.540   0.618   4.289  0.3441 -0.0381  0.1235
 2792SOL    HW119838   0.625   0.656   4.309 -1.0058  2.6054  0.8768
 2792SOL    HW219839   0.554   0.597   4.196 -0.7173  2.0590 -0.5252
 2793SOL     OW19840   3.793   1.650  12.303  0.5000  0.3440 -0.0328
 2793SOL    HW119841   3.824   1.566  12.269 -0.2081  0.0709  0.0026
 2793SOL    HW219842   3.815   1.637  12.396 -2.5301 -1.2315  0.4474
 2794SOL     OW19843   3.666   0.527  10.217  0.5166  0.0280 -0.3469
 2794SOL    HW119844   3.583   0.546  10.260 -0.4059 -1.5624 -1.3927
 2794SOL    HW219845   3.678   0.435  10.240 -2.6487 -0.3015 -0.0105
 2795SOL     OW19846   4.134   4.465   7.665  0.1145  0.0554  0.2771
 2795SOL    HW119847   4.122   4.552   7.627 -0.0301  0.0342  0.2743
 2795SOL    HW219848   4.062   4.450   7.727  1.1011  0.9310  1.6572
 2796SOL     OW19849   3.329   1.182   4.067  0.3319  0.5704  0.2237
 2796SOL    HW119850   3.277   1.120   4.117  1.6179  0.8531  1.9294
 2796SOL    HW219851   3.394   1.203   4.134  0.6596  2.3332 -0.6477
 2797SOL     OW19852   4.050   3.030  10.084 -0.1344  0.3691  0.2907
 2797SOL    HW119853   4.020   3.085  10.011 -1.9280 -0.9995 -0.0060
 2797SOL    HW219854   4.097   3.093  10.137 -0.1647 -0.0990  0.8685
 2798SOL     OW19855   4.228   3.428  14.626 -0.0085 -0.3302  0.5393
 2798SOL    HW119856   4.211   3.512  14.584  1.9666 -0.4191 -0.4735
 2798SOL    HW219857   4.141   3.389  14.618 -1.1442  1.8113  2.6371
 2799SOL     OW19858   0.111   2.206   2.103  0.1755 -0.4417  0.0273
 2799SOL    HW119859   0.086   2.297   2.087 -0.4186 -0.6764 -0.3763
 2799SOL    HW219860   0.206   2.207   2.095  0.1616  0.4495 -0.0782
 2800SOL     OW19861   0.227   4.337   6.350 -0.5729 -0.1307 -0.1739
 2800SOL    HW119862   0.245   4.371   6.262 -0.5192 -1.9418 -0.8582
 2800SOL    HW219863   0.293   4.270   6.369 -2.0052 -0.9996  1.7303
 2801SOL     OW19864   4.669   3.077   0.118  0.2204 -0.0483  0.1140
 2801SOL    HW119865   4.700   3.045   0.203 -0.7199 -0.2969  0.3586
 2801SOL    HW219866   4.637   2.994   0.082 -0.3880  0.9031 -1.5229
 2802SOL     OW19867   1.753   1.500   7.233  0.0942 -0.2079 -0.0941
 2802SOL    HW119868   1.795   1.420   7.266  1.6040  0.3035 -0.7636
 2802SOL    HW219869   1.807   1.497   7.154 -1.7394  0.7940 -1.3865
 2803SOL     OW19870   0.723   4.501   7.953  0.0338  0.1111 -0.3588
 2803SOL    HW119871   0.693   4.432   8.013  0.6744  0.3402  0.2273
 2803SOL    HW219872   0.661   4.569   7.980 -0.5824 -0.5577 -0.0886
 2804SOL     OW19873   4.339   1.475  12.230  0.2514  0.2596  0.3440
 2804SOL    HW119874   4.267   1.512  12.282 -1.9789 -0.0417 -2.5337
 2804SOL    HW219875   4.313   1.384  12.224  0.4847  0.2377 -0.2682
 2805SOL     OW19876   2.871   1.940   2.781  0.4232  0.6512  0.2096
 2805SOL    HW119877   2.918   1.982   2.709  0.6957 -0.5405 -0.2980
 2805SOL    HW219878   2.837   1.867   2.729  1.1817 -0.7130  1.6361
 2806SOL     OW19879   0.941   2.270   6.496  0.4318 -0.1596 -0.0058
 2806SOL    HW119880   0.991   2.342   6.535 -0.5531 -0.8479  2.5494
 2806SOL    HW219881   1.010   2.216   6.459  1.8873  0.3566  1.9567
 2807SOL     OW19882   2.264   3.187   1.148  0.2257  0.6865  0.4908
 2807SOL    HW119883   2.267   3.102   1.193  0.8799  1.1878  1.3915
 2807SOL    HW219884   2.307   3.170   1.065 -0.8337 -0.2908  0.1316
 2808SOL     OW19885   1.898   2.183   9.188  0.3449  0.1751 -0.0651
 2808SOL    HW119886   1.838   2.149   9.254  1.1260  2.5037  1.8364
 2808SOL    HW219887   1.970   2.120   9.192 -1.6425 -2.2068 -1.1955
 2809SOL     OW19888   1.172   4.344  14.996 -0.1040 -0.7878  0.1881
 2809SOL    HW119889   1.201   4.435  14.984 -2.3047 -0.0654  0.4585
 2809SOL    HW219890   1.256   4.300  14.979 -0.0073  0.4349 -2.5900
 2810SOL     OW19891   1.496   2.898   2.783  0.3877  0.5873  0.8203
 2810SOL    HW119892   1.424   2.905   2.846 -0.6662 -0.7758 -0.2336
 2810SOL    HW219893   1.578   2.920   2.827  2.0221 -1.0580 -1.3950
 2811SOL     OW19894   0.057   2.825  16.176  0.3892  0.5453 -0.7419
 2811SOL    HW119895   0.090   2.914  16.168  0.2700  0.6790  0.2046
 2811SOL    HW219896   0.058   2.824  16.272 -1.0769  2.1351 -0.7167
 2812SOL     OW19897   2.235   4.689   3.419 -0.0559 -0.1142  0.2200
 2812SOL    HW119898   2.222   4.640   3.500 -1.5993 -1.1129 -0.6348
 2812SOL    HW219899   2.302   4.636   3.377  0.4447 -0.6064  1.6454
 2813SOL     OW19900   3.218   2.716  11.604 -0.2920  0.5242  0.4310
 2813SOL    HW119901   3.292   2.657  11.614 -1.3686 -0.9795 -0.3055
 2813SOL    HW219902   3.255   2.793  11.647 -0.3225  1.3010 -0.9247
 2814SOL     OW19903   4.599   1.972   4.188 -0.3690  0.9519 -0.1306
 2814SOL    HW119904   4.687   1.934   4.184 -0.8691 -0.5333  2.4863
 2814SOL    HW219905   4.610   2.057   4.146 -1.5449  0.7001 -0.9264
 2815SOL     OW19906   3.946   3.444   7.690 -0.1142 -0.0153 -0.4484
 2815SOL    HW119907   3.860   3.481   7.670 -1.1391 -3.0183 -1.6802
 2815SOL    HW219908   3.922   3.351   7.684  1.2521 -0.3947 -0.1985
 2816SOL     OW19909   3.481   0.725  14.886 -0.5953 -0.3745 -0.1893
 2816SOL    HW119910   3.513   0.641  14.851  0.6230  0.6431 -1.4916
 2816SOL    HW219911   3.505   0.786  14.817 -0.5938 -0.8250 -0.5899
 2817SOL     OW19912   0.503   3.676  12.436  0.5796 -0.4580 -0.1711
 2817SOL    HW119913   0.510   3.582  12.421  1.9831 -0.1060 -1.6660
 2817SOL    HW219914   0.472   3.672  12.527 -0.2713 -0.5927 -0.4628
 2818SOL     OW19915   1.301   3.669  10.827  0.5087 -0.1463  0.6361
 2818SOL    HW119916   1.369   3.614  10.866 -0.2574 -0.2037  1.8702
 2818SOL    HW219917   1.222   3.629  10.863 -0.7581  1.5294 -0.3144
 2819SOL     OW19918   3.710   2.265   6.815 -0.0741 -0.2509  0.3619
 2819SOL    HW119919   3.679   2.230   6.898 -1.1374 -0.7177 -0.2255
 2819SOL    HW219920   3.671   2.353   6.815 -0.1030 -0.2646  0.6709
 2820SOL     OW19921   3.389   0.891   4.012  0.2182  0.4543  0.3286
 2820SOL    HW119922   3.305   0.846   4.008  0.0607  0.6658  1.3104
 2820SOL    HW219923   3.387   0.939   3.929 -1.2840  1.1873  0.7948
 2821SOL     OW19924   1.402   3.654   6.895 -0.1246 -0.5770  0.1552
 2821SOL    HW119925   1.466   3.686   6.959 -0.9215  0.8146  0.2744
 2821SOL    HW219926   1.391   3.566   6.929  2.4189 -0.6300  0.8504
 2822SOL     OW19927   3.455   1.230   8.510  0.2877  0.6475 -0.0600
 2822SOL    HW119928   3.480   1.310   8.556  1.5138 -0.1529  0.6802
 2822SOL    HW219929   3.443   1.273   8.425  2.4702 -1.7274 -1.6064
 2823SOL     OW19930   4.145   1.142   7.348 -0.1036  0.3638  0.3219
 2823SOL    HW119931   4.085   1.129   7.422  0.1277  0.8218  0.5823
 2823SOL    HW219932   4.205   1.077   7.384  0.0384 -0.3792 -1.2515
 2824SOL     OW19933   2.037   1.488   3.239 -0.2153 -0.1191  0.1181
 2824SOL    HW119934   1.966   1.525   3.293 -1.1759  1.3560 -2.1500
 2824SOL    HW219935   2.034   1.529   3.152 -2.9667  1.3082  0.8731
 2825SOL     OW19936   4.387   3.991   0.262 -0.2196 -1.0592 -0.2933
 2825SOL    HW119937   4.369   4.000   0.356  0.5649 -0.5419 -0.1956
 2825SOL    HW219938   4.429   3.905   0.271 -1.2895 -1.7653 -2.2088
 2826SOL     OW19939   3.349   3.728   3.625  0.2818  0.0394 -0.5983
 2826SOL    HW119940   3.356   3.642   3.582 -0.1603 -0.9883  1.3863
 2826SOL    HW219941   3.273   3.759   3.575 -0.2322  1.2608  0.9578
 2827SOL     OW19942   0.855   2.607  17.551 -0.0071 -0.3764 -0.0835
 2827SOL    HW119943   0.867   2.701  17.564  0.7248 -0.5986  0.8070
 2827SOL    HW219944   0.836   2.587  17.643  0.5749  2.0894  0.5598
 2828SOL     OW19945   1.426   1.894   5.123  0.5018  0.0070  0.5858
 2828SOL    HW119946   1.335   1.887   5.150 -0.3181  2.2633 -1.5604
 2828SOL    HW219947   1.425   1.970   5.065  1.3184 -0.1559  0.3529
 2829SOL     OW19948   4.434   3.535   7.053 -0.2236  0.2773 -0.4056
 2829SOL    HW119949   4.478   3.453   7.076 -0.3479  0.4106  0.2789
 2829SOL    HW219950   4.357   3.531   7.109 -0.8210  2.2884 -1.1018
 2830SOL     OW19951   3.336   0.257   4.199 -0.2263  0.4257  0.2256
 2830SOL    HW119952   3.246   0.226   4.210  0.5521 -2.2395 -0.9055
 2830SOL    HW219953   3.387   0.188   4.240  1.4596  1.6006  0.0913
 2831SOL     OW19954   3.264   0.548   3.361 -0.2094 -0.3066 -0.3353
 2831SOL    HW119955   3.173   0.521   3.374 -0.5366  0.4137 -1.1328
 2831SOL    HW219956   3.273   0.638   3.393 -0.7919 -0.8901  1.4890
 2832SOL     OW19957   2.209   2.652   5.161 -0.3182 -0.2787  0.2091
 2832SOL    HW119958   2.234   2.671   5.252  1.6315 -0.4210 -0.3114
 2832SOL    HW219959   2.289   2.660   5.110 -0.8562  2.2378 -0.2243
 2833SOL     OW19960   3.203   0.450   7.164 -0.2614 -0.0868 -0.4303
 2833SOL    HW119961   3.249   0.532   7.177 -1.2263  0.5290 -0.9242
 2833SOL    HW219962   3.254   0.413   7.091 -0.5588  1.2375 -1.3014
 2834SOL     OW19963   4.594   2.371   4.746 -0.6121  0.4934 -0.1360
 2834SOL    HW119964   4.534   2.444   4.735  0.1587  1.2146  0.4744
 2834SOL    HW219965   4.570   2.309   4.677 -1.1154  2.3148 -1.5603
 2835SOL     OW19966   3.570   0.252   8.830  0.0800 -0.1843  0.5412
 2835SOL    HW119967   3.594   0.187   8.764 -1.4942  2.1458 -2.3653
 2835SOL    HW219968   3.594   0.208   8.911 -0.2652 -2.1849 -0.4563
 2836SOL     OW19969   1.445   3.384   6.987 -0.3011  0.0400  0.0134
 2836SOL    HW119970   1.505   3.348   6.922  0.0486  0.8203 -0.0892
 2836SOL    HW219971   1.480   3.344   7.067 -0.8358 -1.1640 -0.3574
 2837SOL     OW19972   0.379   1.157   8.483 -0.1915  0.4086  0.3813
 2837SOL    HW119973   0.421   1.087   8.434 -0.5570 -0.5650  1.4684
 2837SOL    HW219974   0.418   1.154   8.570  0.7876  0.0355 -0.0764
 2838SOL     OW19975   3.264   1.255   4.599  0.4392  0.0915  0.4447
 2838SOL    HW119976   3.247   1.288   4.687 -0.3784 -0.2773  0.4237
 2838SOL    HW219977   3.355   1.227   4.609  0.0389 -1.1584  0.6037
 2839SOL     OW19978   2.185   1.627   9.269  0.5724  0.0982  0.2982
 2839SOL    HW119979   2.175   1.722   9.261 -2.4262 -0.3163 -0.4843
 2839SOL    HW219980   2.137   1.605   9.349  0.2121 -0.8634 -0.1853
 2840SOL     OW19981   2.698   4.037  13.393  0.7590  0.2174  0.0597
 2840SOL    HW119982   2.700   3.941  13.398 -0.6167  0.1695 -0.3741
 2840SOL    HW219983   2.677   4.055  13.485  1.3521 -0.7146  0.3793
 2841SOL     OW19984   0.583   0.917   8.568 -0.0719  0.2988 -0.1871
 2841SOL    HW119985   0.650   0.863   8.526  0.6477  0.3693  0.8876
 2841SOL    HW219986   0.638   0.995   8.574 -1.7773  1.4068  1.1751
 2842SOL     OW19987   1.630   3.549   0.132 -0.2358  0.2740  0.2005
 2842SOL    HW119988   1.544   3.564   0.094  0.5431  1.6348 -1.0584
 2842SOL    HW219989   1.668   3.637   0.131 -1.7991  0.9429  0.4339
 2843SOL     OW19990   3.798   0.229   2.231  0.0150  0.2173 -0.4201
 2843SOL    HW119991   3.724   0.178   2.199  0.8865 -1.2742 -0.0270
 2843SOL    HW219992   3.812   0.288   2.157  2.2719  1.3750  0.9152
 2844SOL     OW19993   3.380   2.778   4.909  0.0406 -0.5438  0.5466
 2844SOL    HW119994   3.399   2.867   4.877 -0.5259 -0.7231 -0.2755
 2844SOL    HW219995   3.465   2.758   4.948  0.8528 -1.5024 -1.7207
 2845SOL     OW19996   0.990   0.381  14.565  0.3427  0.0274 -0.2776
 2845SOL    HW119997   0.984   0.452  14.500 -1.3214  1.1840  1.1325
 2845SOL    HW219998   0.943   0.305  14.529  0.7229 -0.8022  0.9867
 2846SOL     OW19999   3.086   0.165   2.520 -0.5297  0.1063  0.2348
 2846SOL    HW120000   3.176   0.168   2.553 -0.3083 -2.9073 -0.1265
 2846SOL    HW220001   3.106   0.111   2.443 -0.7169 -0.0330  0.2846
 2847SOL     OW20002   4.555   3.956  12.591 -0.0412  0.1494  0.0966
 2847SOL    HW120003   4.599   3.998  12.665  0.8793  0.8491 -0.8489
 2847SOL    HW220004   4.475   4.003  12.568  0.4440  2.1185  2.4163
 2848SOL     OW20005   4.637   3.004  15.690 -0.1727  0.0503  0.2936
 2848SOL    HW120006   4.556   3.054  15.698  0.0370  0.2028  1.4263
 2848SOL    HW220007   4.698   3.066  15.730  0.4105  0.8022 -1.7469
 2849SOL     OW20008   4.235   4.162   7.008 -0.1559 -0.7446 -0.1175
 2849SOL    HW120009   4.262   4.239   7.057 -0.6026 -1.0134  0.5544
 2849SOL    HW220010   4.148   4.139   7.041 -0.0126  0.6849  1.2568
 2850SOL     OW20011   0.254   2.241   1.792  0.3979 -0.2399  0.2695
 2850SOL    HW120012   0.258   2.195   1.876  2.1105 -2.0129 -0.7863
 2850SOL    HW220013   0.229   2.331   1.812 -2.9969 -1.1274  0.1472
 2851SOL     OW20014   0.389   0.839   5.096 -0.1125 -0.0329 -0.0405
 2851SOL    HW120015   0.425   0.798   5.018 -2.8940 -0.4408 -1.1320
 2851SOL    HW220016   0.339   0.766   5.132  0.0916  0.1038  0.5100
 2852SOL     OW20017   4.549   2.673   8.254  0.0288 -0.6682 -0.1158
 2852SOL    HW120018   4.541   2.722   8.335  0.9298 -1.2889  0.3416
 2852SOL    HW220019   4.623   2.706   8.203 -0.7610 -0.0464 -0.8669
 2853SOL     OW20020   2.322   0.016   9.770  0.4059  0.0134 -0.4621
 2853SOL    HW120021   2.393   0.033   9.832 -1.7296  3.7757  1.0231
 2853SOL    HW220022   2.249   0.008   9.831  1.6339  0.2670  1.0499
 2854SOL     OW20023   2.102   0.414  12.919 -0.6195  0.6531  0.1530
 2854SOL    HW120024   2.032   0.371  12.968  0.0261  0.0239  0.5369
 2854SOL    HW220025   2.127   0.477  12.986 -2.1323 -1.0599  2.3498
 2855SOL     OW20026   3.740   2.138   4.986 -0.1632  0.3075  0.8003
 2855SOL    HW120027   3.669   2.098   4.936  1.5254 -0.8645 -0.6926
 2855SOL    HW220028   3.725   2.232   4.977 -0.4245  0.4116  2.2819
 2856SOL     OW20029   1.741   0.154   7.982 -0.1418 -0.2776  0.4021
 2856SOL    HW120030   1.683   0.107   7.922  3.6125 -0.6006 -3.0038
 2856SOL    HW220031   1.817   0.146   7.925  0.9527  2.8633  1.4425
 2857SOL     OW20032   1.976   1.631   2.965 -0.1056  0.0588 -0.0513
 2857SOL    HW120033   1.992   1.700   2.901  2.1267 -0.5281 -0.1265
 2857SOL    HW220034   1.911   1.668   3.026  0.9182  2.4297 -0.3880
 2858SOL     OW20035   1.002   0.564  11.331 -0.0370  0.4040  0.0992
 2858SOL    HW120036   0.963   0.484  11.295  0.4524  0.7133 -1.1253
 2858SOL    HW220037   1.088   0.530  11.357 -0.7635 -1.2866  0.2970
 2859SOL     OW20038   1.179   2.541  10.156 -0.0232 -0.6916 -0.4990
 2859SOL    HW120039   1.100   2.501  10.194  0.0833 -1.7729 -1.4204
 2859SOL    HW220040   1.240   2.468  10.148  0.5236 -0.5802  2.8195
 2860SOL     OW20041   1.607   2.182   8.122  0.2587  0.0395 -0.3926
 2860SOL    HW120042   1.657   2.185   8.041 -1.5532  0.8390 -1.4769
 2860SOL    HW220043   1.660   2.251   8.163  1.5872  0.2314 -2.4564
 2861SOL     OW20044   0.081   0.657  12.780 -0.3034 -0.3928  0.1534
 2861SOL    HW120045   0.042   0.628  12.698  2.7654  0.0804 -1.4577
 2861SOL    HW220046   0.157   0.699  12.740  0.1886 -2.7028 -1.3069
 2862SOL     OW20047   0.196   2.104  11.386 -0.4806  0.3057  0.4408
 2862SOL    HW120048   0.210   2.177  11.445 -0.3111  0.3889  0.2979
 2862SOL    HW220049   0.209   2.142  11.299  1.8483 -0.7189  0.3391
 2863SOL     OW20050   4.716   1.942   5.293 -0.0371  0.4895 -0.8535
 2863SOL    HW120051   0.028   1.856   5.273  1.4173  1.1499 -0.9795
 2863SOL    HW220052   0.050   1.968   5.364 -1.0478 -0.1457  0.2354
 2864SOL     OW20053   2.033   2.528   5.686  0.0601  0.3254 -0.9242
 2864SOL    HW120054   2.064   2.519   5.776  1.1048 -2.2445 -1.5432
 2864SOL    HW220055   2.013   2.622   5.689 -0.5267  0.1489  0.6475
 2865SOL     OW20056   3.278   4.307   8.504 -0.2846  0.0735 -0.1228
 2865SOL    HW120057   3.215   4.343   8.566  1.6613  1.2019  1.1879
 2865SOL    HW220058   3.302   4.382   8.450  0.7468 -0.9189 -1.0634
 2866SOL     OW20059   1.201   3.433   3.761  0.5434 -0.3153  0.5595
 2866SOL    HW120060   1.133   3.375   3.729  1.3475 -1.1161  0.3010
 2866SOL    HW220061   1.265   3.372   3.798  1.3232  0.9448  1.3033
 2867SOL     OW20062   2.225   1.769   6.810  0.2568  0.2660  0.3913
 2867SOL    HW120063   2.297   1.809   6.762 -0.9418  0.6942 -1.0409
 2867SOL    HW220064   2.159   1.838   6.813 -0.3539 -0.3074  0.2496
 2868SOL     OW20065   0.637   3.905   5.031  0.0579  0.5685  0.3963
 2868SOL    HW120066   0.721   3.919   4.987 -0.3504 -2.5554 -1.3787
 2868SOL    HW220067   0.644   3.826   5.085  1.8994  0.0771 -0.5538
 2869SOL     OW20068   0.776   2.036  13.625  0.4190  0.0522 -0.2552
 2869SOL    HW120069   0.818   2.087  13.555  0.5120 -0.6709 -0.7294
 2869SOL    HW220070   0.727   2.107  13.667  0.5636 -0.0763  0.1333
 2870SOL     OW20071   1.414   2.266  10.850  0.4581  0.2275  0.2824
 2870SOL    HW120072   1.390   2.175  10.832 -0.9202  0.5497  0.4671
 2870SOL    HW220073   1.460   2.283  10.768 -1.0900 -1.4824 -0.9272
 2871SOL     OW20074   2.405   3.447  13.540 -0.7114 -0.5709 -0.2006
 2871SOL    HW120075   2.431   3.537  13.522 -0.4631 -0.5130  0.4410
 2871SOL    HW220076   2.340   3.428  13.472  0.1378 -2.7674 -0.4135
 2872SOL     OW20077   1.823   2.378   3.586 -0.0229 -0.0724 -0.4336
 2872SOL    HW120078   1.835   2.336   3.671  0.9242  0.2481 -0.4046
 2872SOL    HW220079   1.763   2.314   3.548  1.4477 -1.0309 -1.1589
 2873SOL     OW20080   2.597   0.751  10.628 -0.0267  0.3377 -0.3639
 2873SOL    HW120081   2.571   0.659  10.619  0.2952  0.1819  0.2620
 2873SOL    HW220082   2.668   0.761  10.564  2.2786  0.8919  2.2713
 2874SOL     OW20083   2.903   4.013   1.358  0.4148  0.3688 -0.1501
 2874SOL    HW120084   2.936   4.102   1.344  1.2379 -0.1542 -1.5205
 2874SOL    HW220085   2.961   3.977   1.425 -1.2180  0.0887  1.1123
 2875SOL     OW20086   3.098   0.074  10.918 -0.2771 -0.3872 -0.5998
 2875SOL    HW120087   3.048   0.141  10.964  1.3624  0.6309 -0.2814
 2875SOL    HW220088   3.187   0.080  10.954 -1.5940  2.8160  2.1554
 2876SOL     OW20089   2.437   0.197   7.002  0.2872 -0.1380 -0.8041
 2876SOL    HW120090   2.399   0.138   6.937 -0.4085 -1.4270  0.7662
 2876SOL    HW220091   2.489   0.252   6.943  0.9439  1.1189  0.9293
 2877SOL     OW20092   3.822   2.420   8.653 -0.0947 -0.2994 -0.2096
 2877SOL    HW120093   3.793   2.357   8.719  0.0651 -0.5793 -0.4054
 2877SOL    HW220094   3.779   2.376   8.580  0.5367 -0.8619 -0.2484
 2878SOL     OW20095   2.483   3.866   3.783 -0.2465  0.5291 -0.2894
 2878SOL    HW120096   2.539   3.811   3.839  0.5445 -0.1929 -1.7738
 2878SOL    HW220097   2.524   3.952   3.786  0.8274  0.0813 -1.7453
 2879SOL     OW20098   1.823   3.801   1.426  0.1663  0.0699  0.1736
 2879SOL    HW120099   1.915   3.775   1.426  0.6448  1.7619  0.2052
 2879SOL    HW220100   1.822   3.846   1.510  0.3481  0.4195 -0.0138
 2880SOL     OW20101   3.425   2.549  11.588  0.0960 -0.1970  0.0185
 2880SOL    HW120102   3.508   2.552  11.542 -0.0318  2.1164 -0.0708
 2880SOL    HW220103   3.363   2.522  11.520  0.0523 -0.7751  0.2825
 2881SOL     OW20104   1.735   0.932   2.212 -0.4578  0.0968 -0.0384
 2881SOL    HW120105   1.709   0.887   2.132 -0.0734 -0.8622  0.3767
 2881SOL    HW220106   1.828   0.915   2.197 -0.1136  0.6060  1.4775
 2882SOL     OW20107   4.628   3.433   9.002  0.1266  0.3047  0.1313
 2882SOL    HW120108   4.636   3.525   8.977 -0.3861 -0.5483 -3.1085
 2882SOL    HW220109   4.553   3.431   9.061 -0.5111  2.2979 -0.6156
 2883SOL     OW20110   2.420   3.956   5.369 -0.2858  0.4197 -0.0353
 2883SOL    HW120111   2.512   3.981   5.359 -0.2907  0.5872  0.3696
 2883SOL    HW220112   2.437   3.898   5.443 -0.9803  1.5012  0.9747
 2884SOL     OW20113   0.482   3.345  10.504  0.3626 -0.8227 -0.0639
 2884SOL    HW120114   0.549   3.295  10.456  2.9078  1.1443  1.4659
 2884SOL    HW220115   0.444   3.388  10.428  2.9847  0.6216 -0.5754
 2885SOL     OW20116   3.487   3.212   1.679 -0.6459 -0.1201 -0.4024
 2885SOL    HW120117   3.536   3.145   1.726  1.8601  1.1973 -1.0910
 2885SOL    HW220118   3.489   3.279   1.748 -1.8862 -0.0670 -0.4193
 2886SOL     OW20119   1.943   0.138   4.985 -0.5963  0.1900  0.6426
 2886SOL    HW120120   1.880   0.209   4.972 -0.9675 -0.0847  0.9345
 2886SOL    HW220121   1.983   0.168   5.067 -0.2560 -1.2530  1.0110
 2887SOL     OW20122   1.546   0.237   3.880 -0.2548  0.1730  0.1352
 2887SOL    HW120123   1.563   0.250   3.973  3.3305  1.3582 -0.6892
 2887SOL    HW220124   1.584   0.151   3.860  0.8484  0.3040  1.6197
 2888SOL     OW20125   1.199   0.141   7.223  0.6619  0.4419 -0.6660
 2888SOL    HW120126   1.188   0.181   7.137 -0.2276  2.7029  0.4736
 2888SOL    HW220127   1.122   0.169   7.273  1.1210 -0.4801  0.5355
 2889SOL     OW20128   3.227   3.013   5.640  0.1991 -0.4636  0.1435
 2889SOL    HW120129   3.200   2.978   5.555  0.4307  2.0192 -0.9541
 2889SOL    HW220130   3.296   2.949   5.657  0.7982  0.5024  1.2932
 2890SOL     OW20131   3.287   4.373   9.290  0.4199 -0.1617 -0.2794
 2890SOL    HW120132   3.279   4.411   9.203  2.4510  2.2854  0.6123
 2890SOL    HW220133   3.297   4.446   9.352 -1.6011  0.6589 -0.9355
 2891SOL     OW20134   0.663   3.152   7.651  0.2964  0.2258  0.0090
 2891SOL    HW120135   0.575   3.177   7.677  0.2773 -0.2613  0.4078
 2891SOL    HW220136   0.725   3.199   7.708  0.7699 -1.7280  1.1052
 2892SOL     OW20137   2.384   4.203   7.519 -0.4453 -0.3887 -0.3139
 2892SOL    HW120138   2.301   4.212   7.566 -0.3192 -0.6276 -0.0443
 2892SOL    HW220139   2.352   4.212   7.430 -0.8497  1.5421  0.0102
 2893SOL     OW20140   0.147   3.841   3.961  0.3042  0.2018 -0.2259
 2893SOL    HW120141   0.203   3.813   3.889 -0.5789  1.9476 -1.5877
 2893SOL    HW220142   0.059   3.830   3.925  0.0741  1.5829 -0.1025
 2894SOL     OW20143   1.923   1.598   7.703 -0.2305  0.4622 -0.0778
 2894SOL    HW120144   1.873   1.625   7.626  0.3407  0.2603 -0.5141
 2894SOL    HW220145   1.988   1.669   7.697 -0.0725  0.0415 -3.2859
 2895SOL     OW20146   2.755   2.643   6.267  0.2063  0.4143  0.3239
 2895SOL    HW120147   2.779   2.730   6.234  0.6257 -0.0328 -0.5164
 2895SOL    HW220148   2.717   2.608   6.187  0.4055  1.2560 -0.1442
 2896SOL     OW20149   3.165   1.368   1.118  0.6850  0.2271  0.2415
 2896SOL    HW120150   3.161   1.273   1.117  0.6253  0.2519 -1.9428
 2896SOL    HW220151   3.072   1.388   1.104  0.6368 -0.8156 -0.9234
 2897SOL     OW20152   4.223   1.641  14.958 -0.1271  0.6427 -0.1132
 2897SOL    HW120153   4.145   1.694  14.941  0.0283  1.4159  1.5978
 2897SOL    HW220154   4.245   1.679  15.043 -0.3103  1.9177 -0.6292
 2898SOL     OW20155   2.652   0.759   6.971 -0.3205  0.3089 -1.0385
 2898SOL    HW120156   2.593   0.738   7.043  1.9403  0.4286  0.8056
 2898SOL    HW220157   2.617   0.702   6.902 -0.6375 -0.6865 -0.0486
 2899SOL     OW20158   4.050   3.642   6.281 -0.0282 -0.2246  0.2024
 2899SOL    HW120159   4.065   3.665   6.373 -0.0925 -2.0727  0.6913
 2899SOL    HW220160   4.120   3.700   6.251  1.1138  0.0171  3.2802
 2900SOL     OW20161   0.191   0.728   4.589  0.0962  0.1647  0.1108
 2900SOL    HW120162   0.180   0.706   4.681 -1.7376 -2.0244 -0.6370
 2900SOL    HW220163   0.280   0.764   4.593  0.7642 -1.3472 -0.9103
 2901SOL     OW20164   0.006   1.224   1.246  0.2453  0.0377  0.6564
 2901SOL    HW120165   0.102   1.224   1.252  0.1570 -2.3327  2.0275
 2901SOL    HW220166   4.716   1.233   1.153  1.0314  0.0032  0.5142
 2902SOL     OW20167   1.461   2.906   4.924  0.6402 -0.1192  0.1899
 2902SOL    HW120168   1.441   2.969   4.993 -0.9027 -0.2316 -0.1608
 2902SOL    HW220169   1.430   2.828   4.970  2.1871 -0.9162 -0.1016
 2903SOL     OW20170   4.094   1.179   7.822  0.0560  0.4701  0.0457
 2903SOL    HW120171   4.019   1.221   7.865  1.5734  2.1338  1.0882
 2903SOL    HW220172   4.128   1.129   7.896 -0.4241  0.0298 -0.0309
 2904SOL     OW20173   3.845   4.112   4.580  0.3948  0.8088  0.3353
 2904SOL    HW120174   3.790   4.150   4.649  2.0993 -0.6839  2.4830
 2904SOL    HW220175   3.842   4.172   4.506 -3.0950 -0.4430 -0.5888
 2905SOL     OW20176   3.407   2.277   0.590 -0.4838  0.3371 -0.1997
 2905SOL    HW120177   3.458   2.221   0.649  1.9647  1.7277 -0.9743
 2905SOL    HW220178   3.412   2.353   0.649  2.3958 -2.0970  2.6696
 2906SOL     OW20179   4.252   3.275  13.653 -0.4654  0.2662 -0.0376
 2906SOL    HW120180   4.341   3.272  13.620 -1.6117  0.2190 -3.0642
 2906SOL    HW220181   4.218   3.231  13.576  0.2944  0.8013 -0.6720
 2907SOL     OW20182   1.273   1.202   3.151 -0.2032  0.2319 -0.2249
 2907SOL    HW120183   1.238   1.280   3.194 -1.0572  0.7829 -1.9083
 2907SOL    HW220184   1.345   1.243   3.104 -1.1416 -0.3918 -2.2433
 2908SOL     OW20185   1.881   0.579   5.521 -0.1595 -0.3710  0.0951
 2908SOL    HW120186   1.798   0.554   5.563  1.2080  2.5882  4.5454
 2908SOL    HW220187   1.894   0.661   5.569 -3.2948  1.5021 -2.2389
 2909SOL     OW20188   1.439   0.969   8.739 -0.4683 -0.4230  0.4456
 2909SOL    HW120189   1.455   1.021   8.660 -0.4138 -2.2532 -0.7405
 2909SOL    HW220190   1.401   1.037   8.794 -2.4834  0.3843 -1.9041
 2910SOL     OW20191   3.520   2.111   7.837 -0.6262 -0.4410  0.1757
 2910SOL    HW120192   3.581   2.037   7.836  0.2537  0.2904 -0.4870
 2910SOL    HW220193   3.486   2.121   7.748 -1.0059 -2.0564  0.1448
 2911SOL     OW20194   1.488   3.274   7.223  0.1011 -0.2046  0.2722
 2911SOL    HW120195   1.516   3.266   7.314  1.6391  1.3031 -0.0811
 2911SOL    HW220196   1.420   3.206   7.224 -1.0772  1.0022  4.0367
 2912SOL     OW20197   2.594   4.191   1.272  0.5315 -0.2978  0.5102
 2912SOL    HW120198   2.673   4.227   1.311 -0.0943  0.9396  0.6410
 2912SOL    HW220199   2.539   4.197   1.351  0.7593 -0.8398  0.7100
 2913SOL     OW20200   2.270   0.075   5.246 -0.0810 -0.1541  0.5123
 2913SOL    HW120201   2.244   4.714   5.214 -1.3394  0.9413 -1.3885
 2913SOL    HW220202   2.184   0.114   5.232  1.2775  2.8458  0.5355
 2914SOL     OW20203   1.810   2.479   6.581 -0.2419  0.2696 -0.1346
 2914SOL    HW120204   1.761   2.529   6.647 -0.1799 -1.1004  0.9662
 2914SOL    HW220205   1.762   2.494   6.500  1.4581 -1.8404 -1.5311
 2915SOL     OW20206   0.277   2.835   2.582  0.3539  0.1865  0.0852
 2915SOL    HW120207   0.283   2.834   2.677  1.9321 -0.3153 -0.0251
 2915SOL    HW220208   0.358   2.873   2.549  0.2522 -0.6415 -1.1216
 2916SOL     OW20209   2.159   4.400   9.377  0.4881  0.9010 -0.1019
 2916SOL    HW120210   2.231   4.380   9.318  0.1965 -0.9993  0.1792
 2916SOL    HW220211   2.167   4.494   9.393  1.1484  1.0600 -1.4044
 2917SOL     OW20212   0.562   3.915  12.345 -0.3851 -0.2706 -0.1438
 2917SOL    HW120213   0.549   3.824  12.372  1.0270 -0.8222 -1.3605
 2917SOL    HW220214   0.477   3.947  12.374  0.0413 -1.7864  2.7378
 2918SOL     OW20215   3.943   0.606  17.650  0.2602  0.2809 -0.1286
 2918SOL    HW120216   3.994   0.673  17.696 -0.5959  0.4816  0.5355
 2918SOL    HW220217   3.866   0.654  17.620 -0.2860 -0.2423  0.4509
 2919SOL     OW20218   3.303   1.692   7.378 -0.2283 -0.5668  0.1939
 2919SOL    HW120219   3.254   1.698   7.461 -0.5586  0.1122 -0.0496
 2919SOL    HW220220   3.377   1.749   7.397 -0.2033  0.3734 -2.7604
 2920SOL     OW20221   3.521   1.467   9.737 -0.2676 -0.1418  0.7058
 2920SOL    HW120222   3.527   1.418   9.819  1.2092 -0.0864  0.6315
 2920SOL    HW220223   3.603   1.517   9.733  0.0309 -0.5150  2.0668
 2921SOL     OW20224   2.349   3.976   8.771  0.4014  0.2709 -0.2872
 2921SOL    HW120225   2.292   3.900   8.784 -0.4293  1.2867  1.8412
 2921SOL    HW220226   2.407   3.965   8.846  0.7391  1.3395 -0.3965
 2922SOL     OW20227   0.523   3.985   5.338  0.0146 -0.0465 -0.1566
 2922SOL    HW120228   0.451   3.952   5.391 -1.7018  0.7481 -2.0240
 2922SOL    HW220229   0.531   3.920   5.268 -0.0175 -0.7353  0.4744
 2923SOL     OW20230   3.767   0.991   1.927  0.1106  0.3087 -0.3322
 2923SOL    HW120231   3.852   1.032   1.936  0.9440 -1.3946 -0.3626
 2923SOL    HW220232   3.794   0.899   1.932  1.0317  0.6904  1.5888
 2924SOL     OW20233   2.460   0.588   7.751 -0.5735 -0.5907 -0.3294
 2924SOL    HW120234   2.554   0.607   7.749 -0.5231 -0.9373 -1.5355
 2924SOL    HW220235   2.454   0.502   7.792  1.6807 -0.7193 -0.2652
 2925SOL     OW20236   4.072   2.685   8.429  0.3844 -0.2462 -0.1338
 2925SOL    HW120237   4.121   2.617   8.476 -1.2919  0.2972  2.4166
 2925SOL    HW220238   4.118   2.763   8.461 -0.2675  0.5635 -1.1786
 2926SOL     OW20239   2.477   4.279   4.219 -0.3667 -0.1859 -0.2961
 2926SOL    HW120240   2.467   4.186   4.198  0.9326 -0.5084  0.5392
 2926SOL    HW220241   2.444   4.315   4.137 -2.1045  0.4947  0.7164
 2927SOL     OW20242   0.071   2.768   2.855 -0.4568  0.0151  0.1933
 2927SOL    HW120243   0.021   2.692   2.887  0.6763 -0.9801 -0.3834
 2927SOL    HW220244   0.146   2.717   2.825  0.2751  0.3747  1.4327
 2928SOL     OW20245   0.127   3.638  14.500  0.3498  0.5918 -0.0735
 2928SOL    HW120246   0.208   3.688  14.504  1.3946 -1.0148 -0.9665
 2928SOL    HW220247   0.172   3.554  14.493  0.9152  0.9580 -0.7966
 2929SOL     OW20248   4.368   1.476   9.117  0.0660 -0.0505  0.3170
 2929SOL    HW120249   4.451   1.480   9.071 -0.4422  1.4520 -0.4829
 2929SOL    HW220250   4.376   1.532   9.194  1.0746 -0.1038  0.2427
 2930SOL     OW20251   4.451   1.873   2.131  0.1009 -0.2866  0.2082
 2930SOL    HW120252   4.514   1.929   2.087 -1.1308  0.3818 -0.7163
 2930SOL    HW220253   4.403   1.922   2.198 -0.3683  0.1320 -0.4345
 2931SOL     OW20254   2.741   3.787  15.003  0.6177  0.3303  0.3134
 2931SOL    HW120255   2.818   3.736  15.028 -0.4349 -1.7595 -0.6513
 2931SOL    HW220256   2.682   3.717  14.974 -0.1123  0.5524  1.2742
 2932SOL     OW20257   4.414   1.576  14.771 -0.4113  0.0258 -0.2656
 2932SOL    HW120258   4.352   1.591  14.842 -0.3407  1.3123 -0.4795
 2932SOL    HW220259   4.385   1.488  14.747  0.8230 -0.7123  0.9250
 2933SOL     OW20260   0.112   0.363  13.357 -0.1406 -0.2662  0.1152
 2933SOL    HW120261   0.142   0.317  13.279 -0.0968  0.4174 -0.2742
 2933SOL    HW220262   0.093   0.445  13.311 -1.3127 -1.1769 -0.9975
 2934SOL     OW20263   4.460   3.471   5.196 -0.0411  0.2853  0.1410
 2934SOL    HW120264   4.517   3.400   5.166 -0.5633 -0.2565  0.4230
 2934SOL    HW220265   4.398   3.484   5.125  0.1775  0.9572  0.0711
 2935SOL     OW20266   0.082   0.033   4.851  0.3247 -0.3134  0.2940
 2935SOL    HW120267   0.046   0.120   4.832 -0.0070 -0.9694 -2.0348
 2935SOL    HW220268   0.025   4.710   4.911 -1.2569  0.5319 -0.5335
 2936SOL     OW20269   3.153   1.314   5.520 -0.4856  0.6991 -0.6440
 2936SOL    HW120270   3.094   1.355   5.457 -0.6237  0.7367 -0.4872
 2936SOL    HW220271   3.099   1.252   5.568 -2.0886  1.3798 -1.5855
 2937SOL     OW20272   1.926   1.217   5.290 -0.3937 -0.5232 -0.2180
 2937SOL    HW120273   1.868   1.184   5.358  0.0295 -0.2081  0.2885
 2937SOL    HW220274   1.882   1.296   5.260  0.2139 -0.5210 -1.1371
 2938SOL     OW20275   1.632   2.720  13.211  0.2335  0.0557 -0.4497
 2938SOL    HW120276   1.541   2.691  13.211 -0.0063  0.7958 -1.6630
 2938SOL    HW220277   1.647   2.755  13.123 -1.5653  1.9832  0.0204
 2939SOL     OW20278   3.668   4.611   7.356  0.1033 -0.6970  0.2539
 2939SOL    HW120279   3.591   4.560   7.332  0.3381 -0.0031 -1.9654
 2939SOL    HW220280   3.635   4.654   7.435  2.5384  0.4426  0.6512
 2940SOL     OW20281   3.629   1.252   3.097  0.2966  0.4478  0.1554
 2940SOL    HW120282   3.547   1.231   3.141  0.8534 -1.3825  0.2803
 2940SOL    HW220283   3.605   1.330   3.046  0.0623 -0.3657 -0.9770
 2941SOL     OW20284   2.632   2.578   4.835  0.6477  0.1456  0.4594
 2941SOL    HW120285   2.577   2.624   4.772  0.0048 -2.5664 -0.9617
 2941SOL    HW220286   2.690   2.650   4.860  1.2553  0.1022 -0.7994
 2942SOL     OW20287   4.181   3.278   1.690 -0.9771 -0.2928  0.5626
 2942SOL    HW120288   4.226   3.294   1.607  0.4355 -3.2580  0.7485
 2942SOL    HW220289   4.149   3.368   1.698 -2.8079 -0.8044 -0.9128
 2943SOL     OW20290   3.209   3.396   5.938 -0.2078  0.0480  0.3204
 2943SOL    HW120291   3.211   3.334   6.010  1.5093 -1.6931 -1.2208
 2943SOL    HW220292   3.119   3.378   5.912 -0.5135  0.3095  1.2260
 2944SOL     OW20293   0.968   3.718   4.323 -0.0815 -0.5034 -0.4566
 2944SOL    HW120294   0.966   3.749   4.232 -0.4068  1.6657  0.2739
 2944SOL    HW220295   0.928   3.632   4.312  0.7995 -0.7588 -1.6029
 2945SOL     OW20296   3.216   2.333   6.056  0.0469 -0.1295  0.5362
 2945SOL    HW120297   3.221   2.355   5.963  0.7004  1.4592  0.9338
 2945SOL    HW220298   3.253   2.245   6.058  0.6993  0.1392  0.5537
 2946SOL     OW20299   1.369   2.037   7.389 -0.2803  0.2623  0.1396
 2946SOL    HW120300   1.339   2.047   7.299 -0.9831  0.4377  0.3951
 2946SOL    HW220301   1.302   1.982   7.429 -0.9121  2.5635  2.2353
 2947SOL     OW20302   4.182   1.955   7.765  0.3927 -0.0903 -0.5365
 2947SOL    HW120303   4.253   2.009   7.797  0.2035 -1.2401  1.8340
 2947SOL    HW220304   4.122   2.025   7.790  1.6579  0.8547 -0.1719
 2948SOL     OW20305   3.933   1.007   2.749 -0.0191  0.0251 -0.0671
 2948SOL    HW120306   3.932   1.047   2.836 -2.0546 -1.2290  0.4967
 2948SOL    HW220307   4.015   1.033   2.709  1.4691  0.1166  3.0526
 2949SOL     OW20308   1.295   1.165   2.209 -0.0469  0.1591  0.4187
 2949SOL    HW120309   1.292   1.191   2.117 -2.9142 -0.2295  0.3976
 2949SOL    HW220310   1.252   1.080   2.200 -1.0174  0.6540  0.3954
 2950SOL     OW20311   0.380   1.166  10.610  0.3448  0.3951  0.2347
 2950SOL    HW120312   0.401   1.250  10.651  0.2718  0.6895 -0.3450
 2950SOL    HW220313   0.390   1.112  10.689 -0.2537  0.5971  0.4398
 2951SOL     OW20314   0.401   2.199   0.252  0.3278 -0.3156  0.1482
 2951SOL    HW120315   0.382   2.148   0.330 -1.9821 -0.1984 -0.3403
 2951SOL    HW220316   0.332   2.164   0.195  1.9946 -1.6454 -1.0746
 2952SOL     OW20317   3.030   3.123  16.475  0.4585 -0.1638  0.6181
 2952SOL    HW120318   3.115   3.125  16.430  0.8539  0.2761  1.3854
 2952SOL    HW220319   3.026   3.189  16.545  1.9941  0.9379 -0.3242
 2953SOL     OW20320   2.681   2.655   4.170  0.3475  0.0022  0.0686
 2953SOL    HW120321   2.645   2.709   4.241  1.4995 -1.0871  1.4708
 2953SOL    HW220322   2.725   2.579   4.208 -0.9612  0.2049  2.0388
 2954SOL     OW20323   0.968   1.428   0.244 -0.1543  0.3012  0.0508
 2954SOL    HW120324   1.022   1.389   0.313 -0.5192  0.4547  0.4221
 2954SOL    HW220325   0.991   1.381   0.163  1.4785  2.0923 -0.5178
 2955SOL     OW20326   1.091   4.039   3.233 -0.9574 -0.0559 -0.3709
 2955SOL    HW120327   1.087   4.006   3.323 -0.5249  1.5362  0.2338
 2955SOL    HW220328   1.127   3.964   3.185 -0.3725 -0.6656  0.9880
 2956SOL     OW20329   0.528   3.407   2.435  0.5430 -0.1794 -0.3064
 2956SOL    HW120330   0.468   3.400   2.361  1.8984  0.4258 -1.4606
 2956SOL    HW220331   0.591   3.475   2.414  0.7361 -1.0422 -2.5627
 2957SOL     OW20332   2.201   1.999  13.871 -0.2064 -0.2986  0.0052
 2957SOL    HW120333   2.157   2.081  13.852  1.0305  0.1297 -1.0296
 2957SOL    HW220334   2.173   1.964  13.956  1.0625 -2.5281 -0.4743
 2958SOL     OW20335   2.840   0.731  13.398 -0.0063 -0.2508  0.2123
 2958SOL    HW120336   2.767   0.751  13.340  0.5171 -1.0769 -0.7301
 2958SOL    HW220337   2.914   0.776  13.356  0.6767 -1.4804  0.0771
 2959SOL     OW20338   4.232   3.301   0.265 -0.0657 -0.4688  0.3092
 2959SOL    HW120339   4.167   3.260   0.208  1.9302 -1.8655 -0.9606
 2959SOL    HW220340   4.200   3.287   0.354 -1.0765 -0.0538  0.0180
 2960SOL     OW20341   2.596   3.519   0.085 -0.1788 -0.3411  0.1484
 2960SOL    HW120342   2.559   3.444   0.039  1.7185 -1.5657  0.5923
 2960SOL    HW220343   2.563   3.593   0.034  0.6321 -0.5458 -0.6772
 2961SOL     OW20344   3.756   0.080  11.350 -0.2832  0.0213 -0.5458
 2961SOL    HW120345   3.846   0.048  11.357 -0.0331  1.0224  0.9631
 2961SOL    HW220346   3.758   0.147  11.419  1.8857  0.6182 -1.1684
 2962SOL     OW20347   3.496   4.682  10.047  0.7376 -0.1795 -0.0268
 2962SOL    HW120348   3.579   4.650  10.011 -0.7024 -4.2292  0.1689
 2962SOL    HW220349   3.517   4.709  10.137 -1.8850  4.8310 -0.9554
 2963SOL     OW20350   0.068   2.735   7.598  0.6826 -0.2425 -0.1559
 2963SOL    HW120351   0.060   2.815   7.547 -0.2889  1.0524  2.0427
 2963SOL    HW220352   0.151   2.696   7.571 -0.3321 -0.8520 -2.4109
 2964SOL     OW20353   4.588   0.004   3.280  0.0485 -0.1475  0.0651
 2964SOL    HW120354   4.518   4.726   3.214  1.2881  0.6337 -1.3034
 2964SOL    HW220355   4.659   4.690   3.230  0.4640  0.8307 -0.1083
 2965SOL     OW20356   2.951   0.682   5.433  0.2498  0.5423 -0.2810
 2965SOL    HW120357   3.004   0.606   5.409 -1.4516 -0.3894 -1.1359
 2965SOL    HW220358   2.867   0.654   5.396  1.1274 -2.6675  0.1046
 2966SOL     OW20359   4.612   2.249   4.183 -0.2785 -0.4899  0.1019
 2966SOL    HW120360   4.527   2.275   4.147 -0.0227  0.6395  0.3270
 2966SOL    HW220361   4.672   2.317   4.151  0.1970 -1.5037 -1.1540
 2967SOL     OW20362   1.401   4.455   8.944  0.0810  0.0590 -0.8112
 2967SOL    HW120363   1.453   4.512   8.888 -0.8007  0.5852 -1.0945
 2967SOL    HW220364   1.334   4.421   8.885 -0.6727  0.5705 -0.2438
 2968SOL     OW20365   2.362   2.830  14.196 -0.7091  1.3627  0.6199
 2968SOL    HW120366   2.351   2.818  14.102  1.3770  2.5315  0.2294
 2968SOL    HW220367   2.270   2.826  14.221 -0.9667 -0.0709 -0.5372
 2969SOL     OW20368   3.015   3.383  14.441 -0.3514  0.3302  0.5328
 2969SOL    HW120369   3.069   3.348  14.370 -0.2966  0.5673  0.4564
 2969SOL    HW220370   2.953   3.431  14.385  0.5866  0.8240 -0.0894
 2970SOL     OW20371   3.747   2.710   9.392 -0.1972 -0.1894  0.3932
 2970SOL    HW120372   3.699   2.774   9.340 -0.8197 -0.7936  0.2292
 2970SOL    HW220373   3.835   2.745   9.374 -0.6158  0.7976  0.2807
 2971SOL     OW20374   3.154   3.140   7.430 -0.3998  0.3960  0.1950
 2971SOL    HW120375   3.163   3.085   7.352  0.5174  0.1797  0.4524
 2971SOL    HW220376   3.216   3.209   7.406 -1.3723  1.0867 -0.3620
 2972SOL     OW20377   1.396   2.182  10.063  0.0844 -0.6933  0.0706
 2972SOL    HW120378   1.349   2.104  10.092 -1.2945 -0.0835 -0.5413
 2972SOL    HW220379   1.366   2.252  10.121 -2.7781 -0.4772 -1.6884
 2973SOL     OW20380   1.732   0.265   9.057  0.2153 -0.0600  0.1664
 2973SOL    HW120381   1.685   0.343   9.085  1.6939  1.1098 -0.6636
 2973SOL    HW220382   1.722   0.279   8.963 -0.9369 -0.3484  0.2435
 2974SOL     OW20383   0.038   0.986   3.873 -0.0214 -0.3162  0.2314
 2974SOL    HW120384   4.721   0.975   3.788 -0.5554  1.2923  0.3047
 2974SOL    HW220385   4.718   1.059   3.914  0.9677  0.6270 -0.3392
 2975SOL     OW20386   3.656   3.654   4.632 -0.1239  0.2478 -0.0552
 2975SOL    HW120387   3.664   3.573   4.582 -0.4440  1.1669 -1.6198
 2975SOL    HW220388   3.564   3.672   4.609  0.0024 -0.8390 -1.4154
 2976SOL     OW20389   1.602   0.899   9.995 -0.0982 -0.0367  0.0156
 2976SOL    HW120390   1.686   0.866  10.027 -1.2196 -0.7563  2.1505
 2976SOL    HW220391   1.610   0.882   9.901  1.3743 -0.2202  0.1657
 2977SOL     OW20392   1.419   0.028   8.755 -0.5564 -0.3440  0.1706
 2977SOL    HW120393   1.452   0.091   8.691  0.1822  1.7305  2.5628
 2977SOL    HW220394   1.429   0.067   8.842  0.1475  0.0221 -0.0776
 2978SOL     OW20395   2.979   0.026  10.127 -0.1229  0.0150 -0.3738
 2978SOL    HW120396   2.990   0.045  10.220  0.8303 -0.8588 -0.3098
 2978SOL    HW220397   3.043   4.686  10.100  0.0164 -0.0536  0.1273
 2979SOL     OW20398   3.470   2.826   7.204 -0.2969 -0.3077  0.3779
 2979SOL    HW120399   3.563   2.820   7.224 -0.2706  0.1102  0.3821
 2979SOL    HW220400   3.455   2.920   7.210 -0.6555 -0.4292  1.4239
 2980SOL     OW20401   2.625   1.562   3.979  0.2483 -0.4342 -0.7828
 2980SOL    HW120402   2.597   1.647   3.944 -1.1396  0.1766  1.8185
 2980SOL    HW220403   2.695   1.592   4.037 -0.7636  1.8889 -0.7698
 2981SOL     OW20404   4.114   1.413   8.723  0.1532 -0.4244 -0.1335
 2981SOL    HW120405   4.119   1.501   8.758 -2.3872  0.4690 -1.9738
 2981SOL    HW220406   4.193   1.378   8.764  0.0614  0.3657  0.6856
 2982SOL     OW20407   0.389   3.813   4.989 -0.3693  0.6861 -0.0393
 2982SOL    HW120408   0.327   3.881   5.017 -1.5098 -0.4855  0.3023
 2982SOL    HW220409   0.472   3.857   5.004  1.2976 -2.4310 -0.1464
 2983SOL     OW20410   1.771   3.063   6.386  0.4833  0.0660  0.4712
 2983SOL    HW120411   1.841   3.006   6.418 -0.4735 -1.1976  0.3167
 2983SOL    HW220412   1.820   3.138   6.352  0.3325  0.5478  1.3230
 2984SOL     OW20413   3.446   2.426  16.001  0.7446 -0.6735  0.1192
 2984SOL    HW120414   3.482   2.479  15.930 -0.7689 -1.9565 -1.5842
 2984SOL    HW220415   3.505   2.447  16.074 -1.3463 -1.0961  1.9214
 2985SOL     OW20416   2.380   2.218   9.143  0.2524 -0.1531 -0.4597
 2985SOL    HW120417   2.395   2.303   9.101 -0.8143 -0.3114 -1.1553
 2985SOL    HW220418   2.311   2.187   9.085  1.0891  0.9866 -2.0637
 2986SOL     OW20419   1.477   4.232   6.268 -0.1251 -0.6484 -0.1053
 2986SOL    HW120420   1.497   4.166   6.202 -1.9752 -0.1645 -1.1747
 2986SOL    HW220421   1.496   4.183   6.348  0.8483  0.8056  0.5473
 2987SOL     OW20422   1.276   0.768   3.681  0.1508  0.5272  0.3268
 2987SOL    HW120423   1.347   0.732   3.733 -0.6079  0.4881  1.3475
 2987SOL    HW220424   1.222   0.691   3.665 -0.2018  1.1902 -1.7173
 2988SOL     OW20425   3.536   3.831   9.326  0.0256  0.3643  0.1939
 2988SOL    HW120426   3.587   3.802   9.402  1.8638  2.0567 -0.3779
 2988SOL    HW220427   3.520   3.751   9.276 -0.5404  1.4670 -1.3728
 2989SOL     OW20428   1.287   1.231   0.284  0.9130  0.2124  0.0029
 2989SOL    HW120429   1.368   1.215   0.332  0.8647  0.3432  0.1247
 2989SOL    HW220430   1.281   1.151   0.232 -2.6160 -0.1782  0.9981
 2990SOL     OW20431   1.987   2.692   7.225 -0.1331  0.1124 -0.5834
 2990SOL    HW120432   1.908   2.744   7.234 -0.8795 -0.7996 -1.8093
 2990SOL    HW220433   2.059   2.753   7.209  2.3314 -2.3796  0.8463
 2991SOL     OW20434   4.688   1.455   4.868  0.4085  0.7466 -0.9284
 2991SOL    HW120435   0.016   1.517   4.918 -0.5462 -0.6267  1.8424
 2991SOL    HW220436   0.032   1.418   4.814  0.3810 -0.8438  0.1256
 2992SOL     OW20437   1.104   2.695   8.945  0.7877  0.3266  0.7936
 2992SOL    HW120438   1.170   2.745   8.898 -0.6027 -0.0073 -1.5283
 2992SOL    HW220439   1.154   2.642   9.007  0.5347 -0.1416  0.6007
 2993SOL     OW20440   3.076   3.700   3.208  0.0507 -0.2022  0.0774
 2993SOL    HW120441   3.090   3.606   3.194  1.2245  0.0405 -0.3989
 2993SOL    HW220442   3.079   3.719   3.115  0.6482  1.9331  0.5199
 2994SOL     OW20443   0.235   3.259  11.009 -0.3173  0.2303 -0.1794
 2994SOL    HW120444   0.304   3.195  11.026 -0.2417  0.2018 -0.5901
 2994SOL    HW220445   0.265   3.303  10.930 -0.5509  0.7490  0.0218
 2995SOL     OW20446   3.434   4.030   8.789 -0.5349  0.1369  0.9257
 2995SOL    HW120447   3.470   4.004   8.874 -0.1381 -1.5597  0.2351
 2995SOL    HW220448   3.483   4.109   8.768  2.0012 -1.5410  0.5252
 2996SOL     OW20449   3.627   2.275   9.438  0.3701  0.2488  0.3862
 2996SOL    HW120450   3.534   2.273   9.416  0.6802 -1.3372 -0.7616
 2996SOL    HW220451   3.660   2.365   9.430 -0.6526  0.5960  0.0710
 2997SOL     OW20452   4.270   3.339  14.874 -0.0653 -0.6187 -0.5279
 2997SOL    HW120453   4.278   3.350  14.779  0.3523 -1.0728 -0.5477
 2997SOL    HW220454   4.337   3.272  14.892  0.5041  0.3673  1.0323
 2998SOL     OW20455   3.059   0.141   1.491 -0.6138 -0.2936 -0.4374
 2998SOL    HW120456   2.994   0.205   1.460  0.0810  0.7502  0.2446
 2998SOL    HW220457   3.010   0.114   1.568  2.5228 -1.0558  1.2777
 2999SOL     OW20458   1.169   3.175   5.270 -0.5143  0.4959  0.3937
 2999SOL    HW120459   1.104   3.161   5.338  0.4921  2.9702  1.8361
 2999SOL    HW220460   1.244   3.211   5.318  0.9536 -1.1712 -0.6398
 3000SOL     OW20461   0.164   1.657   1.013  0.0302  0.7325  0.5087
 3000SOL    HW120462   0.124   1.586   1.062  1.1518 -1.2067 -1.4087
 3000SOL    HW220463   0.195   1.612   0.934  2.8628  1.7458  1.0169
 3001SOL     OW20464   3.540   0.036   5.156  0.4154  0.3708  0.1236
 3001SOL    HW120465   3.592   4.712   5.219  1.2049  1.9080  0.6771
 3001SOL    HW220466   3.561   0.011   5.066  0.6907 -1.3600  0.6723
 3002SOL     OW20467   3.244   3.805   0.512  0.2638 -0.1740 -0.8230
 3002SOL    HW120468   3.295   3.847   0.581  0.8643 -0.7959 -0.8867
 3002SOL    HW220469   3.279   3.858   0.441  0.5934 -0.7405 -1.0797
 3003SOL     OW20470   1.170   3.235   4.841 -0.1003 -0.4171  0.4670
 3003SOL    HW120471   1.129   3.299   4.783  3.8145  2.8243  1.2653
 3003SOL    HW220472   1.223   3.178   4.786  0.7833 -0.2184  1.1102
 3004SOL     OW20473   2.191   0.988   2.768  0.3379 -0.2968  0.4877
 3004SOL    HW120474   2.206   1.081   2.787  1.0196 -0.1264 -0.8242
 3004SOL    HW220475   2.170   0.958   2.856  0.9189 -1.5866  0.1887
 3005SOL     OW20476   1.977   0.748   7.345  0.5317 -0.5569  0.4495
 3005SOL    HW120477   1.938   0.686   7.406 -0.9278  0.7238  0.8112
 3005SOL    HW220478   1.918   0.733   7.271 -0.1760  1.1386  0.6757
 3006SOL     OW20479   0.957   4.632   5.330 -0.3879 -0.1888  0.1297
 3006SOL    HW120480   1.010   4.568   5.281 -0.3519 -1.0146  1.2398
 3006SOL    HW220481   1.020   4.684   5.380 -0.7927 -1.5512  2.0531
 3007SOL     OW20482   2.971   2.661   5.070 -0.2594 -0.0955 -0.3441
 3007SOL    HW120483   2.913   2.671   4.994 -0.3898  0.0927 -0.2202
 3007SOL    HW220484   2.984   2.748   5.106  1.3024 -1.1943  1.6984
 3008SOL     OW20485   3.879   0.466  12.193 -0.0698 -0.8227  0.2491
 3008SOL    HW120486   3.942   0.492  12.261  0.1414 -0.8600  0.0654
 3008SOL    HW220487   3.934   0.467  12.115  0.2090  0.9153  0.4479
 3009SOL     OW20488   2.147   0.695   9.844  0.3761 -0.1640  0.2332
 3009SOL    HW120489   2.158   0.628   9.911 -0.3524  0.1975  0.7231
 3009SOL    HW220490   2.125   0.646   9.764 -0.7862 -0.4218  0.7122
 3010SOL     OW20491   0.400   1.215   6.887  0.3079  0.0819 -0.3171
 3010SOL    HW120492   0.370   1.220   6.978 -4.4146 -0.4839 -1.8581
 3010SOL    HW220493   0.320   1.229   6.836  0.8926  0.8229 -1.0333
 3011SOL     OW20494   2.424   3.926   0.789 -0.1395 -0.1092 -0.5587
 3011SOL    HW120495   2.513   3.892   0.800  0.0658  0.8635  0.8662
 3011SOL    HW220496   2.382   3.904   0.873 -1.3398 -1.6200 -1.5655
 3012SOL     OW20497   2.556   4.088  11.095  0.2626  0.0991  0.1778
 3012SOL    HW120498   2.563   4.038  11.013 -0.1766 -0.0939  0.2600
 3012SOL    HW220499   2.484   4.052  11.146  0.0168  1.0556  0.5063
 3013SOL     OW20500   2.695   3.589  12.979  0.1409  0.1422  0.4679
 3013SOL    HW120501   2.679   3.495  12.985 -1.7524  0.4312 -0.1315
 3013SOL    HW220502   2.748   3.591  12.899  0.0656  1.1305  0.4489
 3014SOL     OW20503   1.683   0.094  10.528  0.2335 -0.4129  0.6488
 3014SOL    HW120504   1.645   0.180  10.546  0.2735 -0.2716  0.0429
 3014SOL    HW220505   1.626   0.044  10.587 -1.0309  1.1308  0.7098
 3015SOL     OW20506   4.674   3.731   4.816  0.0519 -0.5607  0.1008
 3015SOL    HW120507   0.026   3.725   4.761 -0.0731  2.1345 -0.3804
 3015SOL    HW220508   4.617   3.794   4.772  1.9754  2.8048  2.4083
 3016SOL     OW20509   1.824   1.445   8.691 -0.1046  0.1204  0.1596
 3016SOL    HW120510   1.830   1.485   8.604  1.5010 -3.1392 -1.2191
 3016SOL    HW220511   1.737   1.476   8.719  1.0709  2.3507  1.3064
 3017SOL     OW20512   3.831   0.717   5.436  0.4214  0.2942  0.2559
 3017SOL    HW120513   3.771   0.681   5.371  0.8451  1.5207 -0.8179
 3017SOL    HW220514   3.771   0.748   5.504  1.7522 -0.1132  1.6025
 3018SOL     OW20515   2.367   3.586  10.032 -0.0786 -0.4638  0.2261
 3018SOL    HW120516   2.410   3.652   9.976 -1.2110  1.5244  1.6761
 3018SOL    HW220517   2.347   3.636  10.112  1.6826  0.5436  0.0337
 3019SOL     OW20518   0.055   3.769   8.349 -0.5535  0.8213 -1.0541
 3019SOL    HW120519   0.042   3.768   8.254  1.4562 -1.5283 -1.3326
 3019SOL    HW220520   4.722   3.841   8.370  0.2636  1.2586 -0.2818
 3020SOL     OW20521   2.435   2.479   4.652 -0.1353  0.1923 -0.0240
 3020SOL    HW120522   2.490   2.478   4.731 -1.3667 -2.2016  0.8051
 3020SOL    HW220523   2.451   2.396   4.608  1.5838  0.8772 -0.6798
 3021SOL     OW20524   2.400   1.277   0.214  0.5606  0.1369  0.3259
 3021SOL    HW120525   2.380   1.183   0.214  1.1647 -0.0040 -3.2943
 3021SOL    HW220526   2.453   1.281   0.294 -0.8020 -1.2518  1.2879
 3022SOL     OW20527   4.433   3.679   4.063  0.4426 -0.0197 -0.4611
 3022SOL    HW120528   4.475   3.655   3.980 -0.2837 -0.8236 -0.5901
 3022SOL    HW220529   4.359   3.619   4.057 -1.1849  1.6365  2.9956
 3023SOL     OW20530   3.445   3.346   6.593 -0.1687  0.1085  0.2453
 3023SOL    HW120531   3.457   3.261   6.634 -2.4662  0.2207  1.1527
 3023SOL    HW220532   3.382   3.382   6.656 -1.3561  0.1363 -0.9586
 3024SOL     OW20533   0.233   0.224   6.015  0.1970 -1.0696  0.0689
 3024SOL    HW120534   0.191   0.167   5.951  0.4022  0.0183 -1.0354
 3024SOL    HW220535   0.192   0.181   6.090  1.2497 -2.8118 -0.3704
 3025SOL     OW20536   2.480   2.375   1.443  0.1688 -0.3065  0.1338
 3025SOL    HW120537   2.500   2.468   1.432 -0.3195 -0.3094 -0.7288
 3025SOL    HW220538   2.461   2.342   1.355  0.4495 -0.1127  0.0005
 3026SOL     OW20539   2.379   1.065   7.908 -0.0155  0.3013  0.2859
 3026SOL    HW120540   2.453   1.048   7.966 -1.2874 -1.5184  1.3592
 3026SOL    HW220541   2.424   1.063   7.823 -0.6899  2.0917 -0.1082
 3027SOL     OW20542   1.538   2.172   5.744  0.3102 -0.4487  0.1729
 3027SOL    HW120543   1.531   2.116   5.822  0.5722  1.5638  1.6490
 3027SOL    HW220544   1.594   2.120   5.686  0.5557  1.2348 -1.0984
 3028SOL     OW20545   0.108   0.748   2.132  0.5149  0.3077 -0.6065
 3028SOL    HW120546   0.042   0.734   2.200  1.9050  0.7750  0.8361
 3028SOL    HW220547   0.114   0.656   2.105  1.2764  0.3028 -0.4185
 3029SOL     OW20548   4.452   1.824  16.006  0.0147  0.1838 -0.1038
 3029SOL    HW120549   4.470   1.804  16.098  0.9719 -1.7360 -0.7144
 3029SOL    HW220550   4.542   1.827  15.973 -0.6005  0.6723 -1.7385
 3030SOL     OW20551   4.100   2.983   4.499 -1.2332  0.0010 -0.4984
 3030SOL    HW120552   4.136   2.961   4.413 -0.0250 -0.1974  0.0645
 3030SOL    HW220553   4.101   3.079   4.491 -0.1777 -0.1081 -1.5685
 3031SOL     OW20554   2.266   0.828   6.743  0.7325  0.9116 -0.3058
 3031SOL    HW120555   2.171   0.840   6.738  0.8966  1.9172 -1.0290
 3031SOL    HW220556   2.283   0.836   6.836  0.0616  0.5135 -0.1494
 3032SOL     OW20557   2.560   1.145   1.341 -0.4072  0.3757 -0.1864
 3032SOL    HW120558   2.645   1.187   1.329  1.5515 -4.1040 -2.1504
 3032SOL    HW220559   2.571   1.072   1.280  0.0392 -1.3648  1.9790
 3033SOL     OW20560   3.528   3.135  11.610 -0.3970  0.4779  0.1680
 3033SOL    HW120561   3.624   3.134  11.617 -0.5125  0.5407  1.8887
 3033SOL    HW220562   3.515   3.206  11.548  1.0090 -0.2601 -0.9866
 3034SOL     OW20563   1.658   1.085   8.173  0.6461 -0.0417  0.1004
 3034SOL    HW120564   1.587   1.145   8.150  0.2081 -0.4629  0.3759
 3034SOL    HW220565   1.720   1.149   8.209  0.9694 -0.3056  0.0063
 3035SOL     OW20566   3.117   3.198   5.116 -0.3859  0.2399  0.3334
 3035SOL    HW120567   3.203   3.221   5.151 -0.1748  0.8516 -0.6007
 3035SOL    HW220568   3.081   3.284   5.094  1.7217  0.5801 -1.7528
 3036SOL     OW20569   1.941   3.911   4.467  0.1998 -0.1730 -0.2214
 3036SOL    HW120570   1.915   3.830   4.424 -0.6854 -0.3766  0.6756
 3036SOL    HW220571   1.931   3.901   4.562 -1.1535  1.3996 -0.1885
 3037SOL     OW20572   3.533   4.440   3.711  0.0143  0.3609  0.1540
 3037SOL    HW120573   3.627   4.449   3.696  0.2363 -0.2951  1.1770
 3037SOL    HW220574   3.508   4.409   3.624 -0.4232  0.3792  0.2728
 3038SOL     OW20575   4.329   0.848   5.557  0.2456  0.1911  0.1914
 3038SOL    HW120576   4.342   0.757   5.531 -0.2502  0.3335 -0.5824
 3038SOL    HW220577   4.347   0.891   5.473  0.4707 -3.0917 -1.4537
 3039SOL     OW20578   4.553   2.461   8.865  0.0225 -0.3546 -0.1884
 3039SOL    HW120579   4.591   2.545   8.839 -1.4140 -0.1180 -1.5096
 3039SOL    HW220580   4.518   2.474   8.953 -1.5985 -1.3334 -0.6956
 3040SOL     OW20581   2.589   3.709   7.693 -0.0189  0.3639 -0.0076
 3040SOL    HW120582   2.655   3.724   7.761  0.4998 -1.1931 -0.1623
 3040SOL    HW220583   2.604   3.791   7.645 -1.4938  0.6643  0.0604
 3041SOL     OW20584   1.853   2.177   0.504  0.2313 -0.1109 -0.4630
 3041SOL    HW120585   1.806   2.255   0.475 -1.6302 -1.1267 -0.2012
 3041SOL    HW220586   1.911   2.167   0.429 -1.7477 -0.1622 -1.9969
 3042SOL     OW20587   1.016   1.828  17.020 -0.6909  0.5709  0.7879
 3042SOL    HW120588   1.033   1.807  17.112 -1.7084 -1.1382  0.5983
 3042SOL    HW220589   0.953   1.899  17.022  1.8499  2.8705 -1.2111
 3043SOL     OW20590   2.712   0.038   8.882  0.0853  0.4700  0.6494
 3043SOL    HW120591   2.801   0.064   8.905  1.5477 -1.3121 -2.9578
 3043SOL    HW220592   2.670   0.118   8.850  0.4154 -0.3398 -1.7798
 3044SOL     OW20593   0.994   0.174  15.805 -0.1372  0.0257  0.1022
 3044SOL    HW120594   0.999   0.189  15.711 -0.3247 -0.6911 -0.0235
 3044SOL    HW220595   0.905   0.141  15.817 -0.7702  1.0268 -1.8583
 3045SOL     OW20596   2.528   2.275   4.449  0.5360 -0.1848 -0.0102
 3045SOL    HW120597   2.537   2.240   4.361 -1.1775  0.8035 -0.5941
 3045SOL    HW220598   2.467   2.214   4.491  1.5115  0.0474  1.7559
 3046SOL     OW20599   4.266   2.687  15.092  0.6861  0.5205  0.0979
 3046SOL    HW120600   4.258   2.600  15.129 -0.5212  0.6813  0.2282
 3046SOL    HW220601   4.348   2.684  15.042  0.6302 -4.3259  0.3128
 3047SOL     OW20602   0.808   0.897   6.491 -0.4929 -0.0733 -0.5778
 3047SOL    HW120603   0.821   0.924   6.582 -0.0098  3.4888 -1.6955
 3047SOL    HW220604   0.750   0.970   6.467 -0.0554  0.7222  0.7546
 3048SOL     OW20605   4.306   2.479   3.489 -0.3424 -0.6903  0.1193
 3048SOL    HW120606   4.278   2.476   3.398  1.5636 -0.3067 -0.4896
 3048SOL    HW220607   4.267   2.397   3.518  1.7301 -1.8621 -0.4374
 3049SOL     OW20608   3.665   0.072  10.287 -0.4806  0.5195 -0.5124
 3049SOL    HW120609   3.708   0.051  10.370  0.4022 -1.5922 -1.4835
 3049SOL    HW220610   3.651   0.166  10.297 -0.9387  0.3728  0.2098
 3050SOL     OW20611   2.507   3.207   9.188  0.4895 -0.2354 -0.0317
 3050SOL    HW120612   2.423   3.181   9.227  0.7333 -0.8798  0.0709
 3050SOL    HW220613   2.572   3.156   9.237 -1.2094 -1.5021  0.8982
 3051SOL     OW20614   1.988   1.561   9.442 -0.3977 -0.2227  0.5464
 3051SOL    HW120615   1.936   1.483   9.422 -0.6402 -0.2023  1.0992
 3051SOL    HW220616   1.933   1.603   9.508 -1.1082  1.6272 -1.2096
 3052SOL     OW20617   1.974   2.849   2.900  0.1006  0.0243  0.9942
 3052SOL    HW120618   1.962   2.769   2.952 -0.7651  0.0041  0.7636
 3052SOL    HW220619   1.886   2.883   2.889  0.4313  0.1665 -1.1362
 3053SOL     OW20620   4.214   0.423   9.798 -0.1337 -0.2405  0.2466
 3053SOL    HW120621   4.282   0.357   9.810 -2.1403 -2.6767 -1.6351
 3053SOL    HW220622   4.138   0.365   9.791 -0.2898  0.0325 -0.3502
 3054SOL     OW20623   2.608   3.175   8.470  0.4232  0.3103 -0.3599
 3054SOL    HW120624   2.616   3.148   8.562 -3.1734 -0.3524 -0.2384
 3054SOL    HW220625   2.619   3.270   8.471  0.1192  0.3433 -0.0451
 3055SOL     OW20626   2.151   4.702   4.525  0.5156 -0.0399 -0.0191
 3055SOL    HW120627   2.140   4.659   4.440  0.0885  2.0459 -1.0193
 3055SOL    HW220628   2.106   0.058   4.504 -0.8769 -0.4771  1.2156
 3056SOL     OW20629   0.197   2.627   3.403  0.2239 -0.2923 -0.2283
 3056SOL    HW120630   0.194   2.595   3.493  1.9998 -0.1597 -0.1305
 3056SOL    HW220631   0.103   2.643   3.393  0.3635 -0.1852 -1.3930
 3057SOL     OW20632   1.510   4.401  11.845  0.1244  0.0004 -0.1879
 3057SOL    HW120633   1.423   4.439  11.835  0.4163  0.7272  0.0561
 3057SOL    HW220634   1.532   4.365  11.759 -0.1034 -2.4746  0.7711
 3058SOL     OW20635   0.938   1.019   4.841  0.4610 -0.0845 -0.2103
 3058SOL    HW120636   0.974   1.100   4.804 -0.0056  0.2772  0.1232
 3058SOL    HW220637   0.917   1.032   4.934 -0.3183 -0.3211 -0.3561
 3059SOL     OW20638   1.202   0.656   0.189 -0.3032  0.1742  0.3901
 3059SOL    HW120639   1.229   0.659   0.097  2.3575  1.2708  1.2015
 3059SOL    HW220640   1.192   0.750   0.207 -0.3795 -0.4552  3.6820
 3060SOL     OW20641   4.681   0.814   3.459  0.0544  0.1829  0.0253
 3060SOL    HW120642   4.675   0.719   3.466  0.2792  0.0078 -2.0372
 3060SOL    HW220643   0.045   0.815   3.425 -0.2706 -2.3527 -0.9642
 3061SOL     OW20644   1.858   3.130   9.177 -0.3579  0.3606 -0.7404
 3061SOL    HW120645   1.780   3.183   9.190 -0.2957  0.2628  0.0366
 3061SOL    HW220646   1.818   3.070   9.114 -2.1959  1.4373 -0.5887
 3062SOL     OW20647   0.833   0.134   7.163  0.1581 -0.3526  0.3834
 3062SOL    HW120648   0.871   0.046   7.164  1.2670  0.1175 -0.4719
 3062SOL    HW220649   0.891   0.167   7.232 -0.7214 -0.5180  1.2013
 3063SOL     OW20650   0.617   2.928   0.567 -1.1864  0.1866 -0.0971
 3063SOL    HW120651   0.652   2.839   0.575  1.3121  1.2646  1.1061
 3063SOL    HW220652   0.687   2.981   0.604  0.8720 -2.5177 -0.1104
 3064SOL     OW20653   0.191   2.558   0.507  0.3382 -0.1392  0.1507
 3064SOL    HW120654   0.205   2.496   0.435 -2.1480 -1.0452  0.4539
 3064SOL    HW220655   0.279   2.594   0.518  1.6747 -2.6583 -2.3794
 3065SOL     OW20656   2.996   0.674   3.173  0.1692  0.1010 -0.0115
 3065SOL    HW120657   2.954   0.590   3.195 -1.6540  1.0527  0.1055
 3065SOL    HW220658   3.011   0.669   3.079 -2.9975 -2.4914 -0.3793
 3066SOL     OW20659   3.080   2.149   4.070 -0.3204  0.0393 -0.6899
 3066SOL    HW120660   3.068   2.119   4.161  0.3318  0.1677 -0.5584
 3066SOL    HW220661   3.103   2.239   4.091  0.8678 -0.3750 -0.1622
 3067SOL     OW20662   3.727   2.383  13.944  0.1349  0.6119 -0.2648
 3067SOL    HW120663   3.819   2.361  13.960 -0.9172 -1.5757  2.7544
 3067SOL    HW220664   3.720   2.365  13.850  1.6406 -2.9172  0.3155
 3068SOL     OW20665   4.425   3.627   9.262 -0.3925  0.1106 -1.1047
 3068SOL    HW120666   4.375   3.655   9.338 -0.4703 -0.6158 -0.8882
 3068SOL    HW220667   4.388   3.691   9.202  1.9674  0.8786 -1.7656
 3069SOL     OW20668   3.500   0.423   3.499 -0.3201  0.5481  0.0090
 3069SOL    HW120669   3.430   0.446   3.439 -1.3374 -2.0222  0.2101
 3069SOL    HW220670   3.559   0.498   3.511 -1.1414  1.1551  0.2436
 3070SOL     OW20671   0.254   0.585  13.414  0.4971 -0.2413  0.7002
 3070SOL    HW120672   0.188   0.534  13.461  0.0520  1.6963  2.1691
 3070SOL    HW220673   0.322   0.518  13.411  0.8083  0.0848  0.5662
 3071SOL     OW20674   2.294   0.309   3.135  0.4810 -0.5180 -0.1218
 3071SOL    HW120675   2.333   0.232   3.095  0.4612 -0.5189 -0.1398
 3071SOL    HW220676   2.283   0.372   3.063  0.7585 -2.5935 -1.9833
 3072SOL     OW20677   0.661   4.573   5.236 -0.4362  0.3285 -0.4390
 3072SOL    HW120678   0.695   4.484   5.235  2.2353  1.3059  1.9616
 3072SOL    HW220679   0.738   4.630   5.235 -0.0555 -0.2130 -2.0469
 3073SOL     OW20680   1.246   2.308   8.410 -0.0296 -0.1285 -0.1715
 3073SOL    HW120681   1.280   2.354   8.487 -1.3927  2.3057 -1.0447
 3073SOL    HW220682   1.155   2.332   8.395  0.0303  0.1288 -0.1211
 3074SOL     OW20683   2.301   1.586   7.525 -0.1409 -0.5422 -0.5326
 3074SOL    HW120684   2.266   1.584   7.614  0.2893  0.9319 -0.3266
 3074SOL    HW220685   2.332   1.496   7.516 -0.9649 -1.0485  1.6666
 3075SOL     OW20686   3.045   4.315   0.439  0.2626  0.0062  0.1583
 3075SOL    HW120687   2.975   4.322   0.374 -1.0722  0.7299  1.6784
 3075SOL    HW220688   3.071   4.224   0.427  1.5807  0.7865 -3.0013
 3076SOL     OW20689   1.244   1.547   6.267  0.4774 -0.1833 -0.2843
 3076SOL    HW120690   1.249   1.478   6.201 -1.4133 -0.7719  0.1956
 3076SOL    HW220691   1.280   1.503   6.344 -0.3557  0.5671  0.5261
 3077SOL     OW20692   1.293   2.217   7.569 -0.1118  0.0445 -0.0174
 3077SOL    HW120693   1.366   2.257   7.618  0.6839 -2.8497  1.1555
 3077SOL    HW220694   1.345   2.152   7.522  0.8888  0.0917  1.0058
 3078SOL     OW20695   0.693   2.481  11.274 -0.2217 -0.1868 -0.1939
 3078SOL    HW120696   0.619   2.521  11.229 -0.2932  0.1086  0.1919
 3078SOL    HW220697   0.645   2.426  11.336 -2.2994 -0.1476 -1.7976
 3079SOL     OW20698   2.910   3.577   3.466 -0.4458 -0.0706  0.4407
 3079SOL    HW120699   2.908   3.483   3.448  0.8799 -0.8480  4.3256
 3079SOL    HW220700   2.912   3.622   3.381 -1.0036 -0.1454  0.3840
 3080SOL     OW20701   0.313   1.836   8.335 -0.6290 -0.0430  0.0603
 3080SOL    HW120702   0.318   1.816   8.242  0.0506 -1.3083  0.3632
 3080SOL    HW220703   0.221   1.860   8.342 -0.9596 -1.5193  0.7465
 3081SOL     OW20704   4.521   2.853   7.406 -0.1653 -0.1402 -0.2355
 3081SOL    HW120705   4.505   2.759   7.421  1.4531 -0.0213  2.1411
 3081SOL    HW220706   4.429   2.876   7.396 -0.6817 -0.9000  2.8185
 3082SOL     OW20707   3.423   0.213  10.431  0.3546  0.1966 -0.0794
 3082SOL    HW120708   3.373   0.202  10.349 -1.6402  2.0949  0.8826
 3082SOL    HW220709   3.500   0.262  10.405  1.2267 -0.7496  0.7433
 3083SOL     OW20710   4.125   0.021   8.628 -0.4921 -0.3609 -0.3473
 3083SOL    HW120711   4.113   0.112   8.599 -3.7169 -0.5075  0.5308
 3083SOL    HW220712   4.060   0.021   8.699 -1.1507  1.2865 -0.9513
 3084SOL     OW20713   1.492   1.058  11.127 -0.0093 -0.2470 -0.4000
 3084SOL    HW120714   1.541   0.978  11.145  1.7317  1.4119  2.1596
 3084SOL    HW220715   1.477   1.094  11.214 -0.4104  0.9423 -0.9605
 3085SOL     OW20716   3.692   3.419   4.495 -0.2237 -0.2067 -0.3338
 3085SOL    HW120717   3.701   3.407   4.400 -3.5419 -1.1068 -0.5216
 3085SOL    HW220718   3.786   3.419   4.513  0.3224  1.0203 -3.1426
 3086SOL     OW20719   1.637   3.872   9.750 -0.1320 -0.2757 -0.4869
 3086SOL    HW120720   1.607   3.957   9.783  3.5028 -0.2468  2.6304
 3086SOL    HW220721   1.551   3.829   9.750  0.7739 -2.1043 -0.8310
 3087SOL     OW20722   4.048   2.499   6.419  0.0106  0.2292  0.3998
 3087SOL    HW120723   4.098   2.452   6.486 -2.3319 -1.1816  1.1488
 3087SOL    HW220724   4.000   2.553   6.481 -2.0916  0.1144 -1.0947
 3088SOL     OW20725   2.418   1.724   0.305 -0.0665  0.4060  0.6805
 3088SOL    HW120726   2.454   1.716   0.393  0.0980 -0.6230  0.5204
 3088SOL    HW220727   2.324   1.726   0.325  0.2251  1.2329  1.9670
 3089SOL     OW20728   3.613   1.109   5.877 -0.5331 -0.2509 -0.1532
 3089SOL    HW120729   3.520   1.090   5.863 -0.5611  0.1142 -0.4550
 3089SOL    HW220730   3.611   1.165   5.955  0.2002 -1.9288  1.0793
 3090SOL     OW20731   3.104   2.575  11.147 -0.0813  0.3142 -0.2540
 3090SOL    HW120732   3.069   2.521  11.076 -0.1590  1.3121 -0.9880
 3090SOL    HW220733   3.027   2.629  11.165 -2.2767 -2.6594 -0.9020
 3091SOL     OW20734   3.429   0.892   3.265  0.0126  0.4410  0.3069
 3091SOL    HW120735   3.365   0.926   3.204  1.0440  1.0220 -0.4547
 3091SOL    HW220736   3.376   0.846   3.330  0.0108 -0.6961 -0.4900
 3092SOL     OW20737   4.008   4.646   0.733 -0.5971  0.5260  0.1911
 3092SOL    HW120738   3.967   4.611   0.813 -1.6717  0.9476 -0.1666
 3092SOL    HW220739   3.950   4.720   0.713 -2.0761 -0.8758 -0.7656
 3093SOL     OW20740   2.746   0.014   4.124  0.2821 -0.0907 -0.1095
 3093SOL    HW120741   2.830   4.723   4.080  1.2098 -0.8443  1.9438
 3093SOL    HW220742   2.744   4.662   4.179 -2.1491 -0.1033 -0.2403
 3094SOL     OW20743   0.994   2.973   4.156  0.0740 -0.0016  0.0901
 3094SOL    HW120744   0.959   3.017   4.078  3.6308  0.0862 -1.4386
 3094SOL    HW220745   1.072   3.028   4.160 -0.9071  1.2066  2.3574
 3095SOL     OW20746   0.332   0.937   7.196 -0.6375 -0.4899 -0.0003
 3095SOL    HW120747   0.349   0.946   7.290 -0.4057  1.1256 -0.2041
 3095SOL    HW220748   0.247   0.893   7.199 -1.5050  1.0454 -1.5905
 3096SOL     OW20749   4.483   3.204   1.114 -0.0391 -0.3385 -0.6520
 3096SOL    HW120750   4.441   3.230   1.031 -0.1141 -2.3262 -1.2346
 3096SOL    HW220751   4.571   3.174   1.091  0.1825 -1.8084  2.1723
 3097SOL     OW20752   3.069   0.035  12.910  0.2938  0.7205 -0.7131
 3097SOL    HW120753   3.161   0.035  12.937 -0.0406 -0.5394  0.4575
 3097SOL    HW220754   3.049   4.670  12.931 -2.3971  1.5583  0.3301
 3098SOL     OW20755   0.818   1.196   0.463  0.3110 -0.0909  0.1849
 3098SOL    HW120756   0.810   1.276   0.515  0.7580  0.5152 -0.6772
 3098SOL    HW220757   0.909   1.207   0.435 -0.6452  1.4093 -2.2568
 3099SOL     OW20758   3.101   0.737   7.353  0.0952 -0.1226 -0.8009
 3099SOL    HW120759   3.016   0.781   7.340 -0.6029 -0.6744  1.8476
 3099SOL    HW220760   3.150   0.789   7.289  1.0177  3.5214  2.8835
 3100SOL     OW20761   4.028   1.022  17.414 -0.0020  0.0074 -0.3437
 3100SOL    HW120762   4.016   1.004  17.507 -1.1816 -1.0648 -0.6977
 3100SOL    HW220763   3.965   0.962  17.373 -2.0994  1.1627  1.1851
 3101SOL     OW20764   3.417   1.008   8.252 -0.1999  0.2875  0.2851
 3101SOL    HW120765   3.510   1.017   8.271 -0.5837 -0.3421  2.3542
 3101SOL    HW220766   3.407   1.079   8.188  0.8987 -1.8160 -2.2611
 3102SOL     OW20767   0.476   4.172   6.047 -0.0552 -0.1295  0.6609
 3102SOL    HW120768   0.481   4.262   6.078 -0.4788 -0.2910  1.1897
 3102SOL    HW220769   0.514   4.190   5.961  0.1897 -1.4352  0.4932
 3103SOL     OW20770   1.980   4.088   9.630 -0.5154  0.2273  0.3079
 3103SOL    HW120771   2.060   4.038   9.645 -1.8734 -2.8952 -2.6944
 3103SOL    HW220772   1.987   4.161   9.691  0.7191 -0.4198  0.9275
 3104SOL     OW20773   0.786   3.666   2.066  0.0164  0.2587 -0.1604
 3104SOL    HW120774   0.823   3.633   1.985 -1.0574  0.0334 -0.5636
 3104SOL    HW220775   0.699   3.626   2.058 -0.2572  1.1314 -1.5884
 3105SOL     OW20776   2.502   4.457   5.892 -0.3046  0.3876 -0.2693
 3105SOL    HW120777   2.528   4.498   5.974 -0.2928  0.2188 -0.1893
 3105SOL    HW220778   2.431   4.518   5.871  0.2656  1.4238  0.8557
 3106SOL     OW20779   0.355   2.218  10.593  0.3833 -0.1592  0.6396
 3106SOL    HW120780   0.286   2.256  10.539  1.6725  0.1347 -0.7997
 3106SOL    HW220781   0.406   2.189  10.517 -3.2453 -0.4433 -1.6877
 3107SOL     OW20782   1.937   3.420   2.718  0.4080  0.0472  0.1395
 3107SOL    HW120783   1.978   3.437   2.633  1.1334 -0.8969  0.2995
 3107SOL    HW220784   1.891   3.340   2.694  0.5319  0.1099 -0.3029
 3108SOL     OW20785   1.952   0.689  16.794  0.0217 -0.3038 -0.3280
 3108SOL    HW120786   1.877   0.715  16.847 -0.8754  0.6477 -2.0589
 3108SOL    HW220787   1.964   0.777  16.757 -0.3023  1.0142  2.6455
 3109SOL     OW20788   1.943   3.626   4.228  0.3096 -0.2387 -0.1060
 3109SOL    HW120789   1.850   3.648   4.226  0.4414  0.4233  0.8464
 3109SOL    HW220790   1.979   3.661   4.147 -0.0486 -0.0131 -0.1683
 3110SOL     OW20791   1.926   3.447   9.533  0.0076 -0.3682 -0.4397
 3110SOL    HW120792   1.920   3.467   9.440  1.0007 -1.3779 -0.7230
 3110SOL    HW220793   1.901   3.530   9.573  0.8165 -0.6301  0.6064
 3111SOL     OW20794   0.224   3.586  17.307 -0.3606 -0.0873  0.4398
 3111SOL    HW120795   0.263   3.542  17.383  1.9919  0.9765 -0.1716
 3111SOL    HW220796   0.283   3.661  17.300  0.3789 -0.7459 -0.4447
 3112SOL     OW20797   4.299   3.058   6.714  0.3277 -0.5386  0.4787
 3112SOL    HW120798   4.330   3.004   6.642 -1.9089 -0.9129 -0.2127
 3112SOL    HW220799   4.226   3.113   6.685  1.5684  2.1140  2.3865
 3113SOL     OW20800   4.131   1.695  10.445 -0.0025 -0.2585  0.5618
 3113SOL    HW120801   4.203   1.758  10.441 -0.9100  0.7828  0.9048
 3113SOL    HW220802   4.177   1.615  10.418 -1.5411 -0.1744 -2.3357
 3114SOL     OW20803   0.696   1.574  13.342  0.2292  0.0856 -0.3975
 3114SOL    HW120804   0.663   1.578  13.252 -0.1276 -1.6732 -0.3391
 3114SOL    HW220805   0.753   1.498  13.337 -0.3656 -0.3990  0.1571
 3115SOL     OW20806   0.053   0.589   6.971 -0.1021  0.1785  0.1433
 3115SOL    HW120807   0.034   0.527   7.042  0.3180  0.3735  0.4212
 3115SOL    HW220808   4.698   0.639   6.979 -0.3824 -0.5150  1.5820
 3116SOL     OW20809   3.320   1.885   8.080  0.0086 -0.0052  0.1693
 3116SOL    HW120810   3.328   1.810   8.140  1.5998  0.4523  0.5172
 3116SOL    HW220811   3.332   1.848   7.992  0.5205  0.4790  0.0402
 3117SOL     OW20812   1.643   1.572   2.586 -0.4383  0.5688 -0.5361
 3117SOL    HW120813   1.666   1.613   2.669 -0.9779  1.0371 -0.6216
 3117SOL    HW220814   1.702   1.622   2.530 -0.3228  2.1652  1.0057
 3118SOL     OW20815   0.335   4.195   7.491  0.1540 -0.8069  0.6630
 3118SOL    HW120816   0.388   4.220   7.415 -1.0419 -2.1865 -0.6357
 3118SOL    HW220817   0.287   4.120   7.457  0.8736 -0.4217 -1.2138
 3119SOL     OW20818   1.727   2.618  14.903 -0.1977  0.0000 -0.0301
 3119SOL    HW120819   1.723   2.704  14.945  1.7334  0.0199  0.0950
 3119SOL    HW220820   1.812   2.627  14.860  0.0289 -0.4619  0.3272
 3120SOL     OW20821   3.907   4.271   5.784  0.4520 -0.0329 -0.5958
 3120SOL    HW120822   3.874   4.182   5.774 -1.1868  0.5825 -0.6059
 3120SOL    HW220823   3.961   4.267   5.863 -0.5404  1.0113  0.1299
 3121SOL     OW20824   4.211   3.536   7.212 -0.1494 -0.2936  0.7293
 3121SOL    HW120825   4.198   3.448   7.247 -1.3464 -0.7260 -0.7881
 3121SOL    HW220826   4.131   3.582   7.237  0.9957  1.4458  1.2726
 3122SOL     OW20827   2.993   3.987   8.739 -0.4958  0.6765  0.4188
 3122SOL    HW120828   3.018   3.895   8.752 -1.7559 -0.1692 -3.1186
 3122SOL    HW220829   2.952   3.975   8.654  3.2215  1.4623 -1.4644
 3123SOL     OW20830   2.109   0.286   5.541  0.1470  1.1013 -0.1035
 3123SOL    HW120831   2.194   0.242   5.530 -0.1971  0.5975 -0.7704
 3123SOL    HW220832   2.113   0.342   5.463  2.4507  3.2233  1.5311
 3124SOL     OW20833   3.560   1.144   0.206  0.0529  0.9092  0.0557
 3124SOL    HW120834   3.483   1.089   0.192  1.0881 -0.1684 -1.4214
 3124SOL    HW220835   3.521   1.221   0.247  0.5744  1.1554  0.1011
 3125SOL     OW20836   4.633   3.078   3.366 -0.0787  0.2266  0.6209
 3125SOL    HW120837   4.616   3.126   3.448 -2.3472 -0.4938  0.5603
 3125SOL    HW220838   4.554   3.027   3.349  0.3589 -0.1378 -0.3188
 3126SOL     OW20839   3.626   0.507   8.915 -0.0784 -0.0088 -0.2328
 3126SOL    HW120840   3.613   0.425   8.867 -0.0980 -0.0427 -0.1688
 3126SOL    HW220841   3.719   0.494   8.937  0.0058  0.9940  0.0291
 3127SOL     OW20842   4.118   3.476   2.595 -0.4878 -0.1257  0.3528
 3127SOL    HW120843   4.212   3.489   2.582 -0.1761 -3.2438 -0.5861
 3127SOL    HW220844   4.123   3.381   2.606  2.6714  0.1622  1.2870
 3128SOL     OW20845   3.077   0.924   6.112  0.2340 -0.0460 -0.2886
 3128SOL    HW120846   3.114   0.994   6.167 -0.6898 -0.6923  1.1525
 3128SOL    HW220847   3.054   0.850   6.167  1.0283 -0.4796 -0.5426
 3129SOL     OW20848   4.079   0.354   6.806 -0.0252  0.5315 -0.2901
 3129SOL    HW120849   4.097   0.444   6.835 -1.0018  0.8636 -0.7323
 3129SOL    HW220850   4.160   0.314   6.839 -0.2994  0.2375  0.0287
 3130SOL     OW20851   3.607   4.007   3.689  0.6304  0.2901  0.0752
 3130SOL    HW120852   3.516   4.032   3.700  0.3148 -0.5319 -0.6692
 3130SOL    HW220853   3.657   4.078   3.730  1.8131  0.6973 -2.0801
 3131SOL     OW20854   3.746   2.180   3.622  0.0970  0.1247  0.0268
 3131SOL    HW120855   3.666   2.160   3.574  0.9801  0.9288 -1.7760
 3131SOL    HW220856   3.727   2.145   3.709 -3.7947 -0.6609 -1.1134
 3132SOL     OW20857   1.862   4.083   9.147  0.4522  0.6975 -0.3218
 3132SOL    HW120858   1.775   4.102   9.183  0.1064  0.1953 -0.9039
 3132SOL    HW220859   1.915   4.130   9.212 -2.0629  0.5769  1.8210
 3133SOL     OW20860   3.627   1.120   4.960 -0.1807 -0.2835 -0.1834
 3133SOL    HW120861   3.534   1.131   4.940  0.0930  2.4695  0.1730
 3133SOL    HW220862   3.654   1.195   5.012  0.4812  1.5311 -3.1421
 3134SOL     OW20863   2.715   1.443  14.718  0.1628 -0.2093  0.0334
 3134SOL    HW120864   2.719   1.381  14.646 -3.6414 -3.9037  3.0036
 3134SOL    HW220865   2.787   1.421  14.777  0.5844 -1.0745 -0.8019
 3135SOL     OW20866   0.751   3.813   7.716  0.1076  0.2367  0.0004
 3135SOL    HW120867   0.773   3.839   7.627  0.4498 -1.3056 -0.3635
 3135SOL    HW220868   0.832   3.777   7.752 -0.8539 -0.5017  1.3958
 3136SOL     OW20869   4.439   1.004   0.841  0.0989 -0.8011  0.3888
 3136SOL    HW120870   4.447   1.092   0.876  0.8570 -0.5890 -0.3190
 3136SOL    HW220871   4.505   0.965   0.898 -0.5510  0.0320  1.6997
 3137SOL     OW20872   4.173   3.118   9.636 -0.0896  0.3677 -0.2465
 3137SOL    HW120873   4.131   3.049   9.584 -0.8470 -1.7934  3.2562
 3137SOL    HW220874   4.265   3.095   9.629  0.1835  1.3193  0.1421
 3138SOL     OW20875   3.391   4.519   8.703 -0.1745 -0.4686  0.0091
 3138SOL    HW120876   3.299   4.512   8.725 -0.5749 -0.5184 -1.6533
 3138SOL    HW220877   3.386   4.577   8.627 -0.8868  0.6283  0.9081
 3139SOL     OW20878   3.389   3.465   3.520  0.2226  0.8070  0.3448
 3139SOL    HW120879   3.327   3.404   3.560  1.5455  0.6730  2.1863
 3139SOL    HW220880   3.410   3.407   3.446  0.4662  0.3521  0.7687
 3140SOL     OW20881   1.921   0.808  11.862 -0.9342 -0.0375 -0.4724
 3140SOL    HW120882   1.928   0.767  11.776 -2.4020 -2.4375  0.5509
 3140SOL    HW220883   2.012   0.814  11.890 -2.1614  0.5904  3.3846
 3141SOL     OW20884   0.728   4.321   8.651  0.1373 -0.5646 -0.4138
 3141SOL    HW120885   0.641   4.351   8.625 -0.2779 -1.1783  0.2590
 3141SOL    HW220886   0.784   4.365   8.588 -0.0531 -0.9333 -0.8490
 3142SOL     OW20887   0.794   1.407   8.172  0.0229 -0.2891  0.2147
 3142SOL    HW120888   0.731   1.342   8.142  0.7515 -0.6040 -0.6262
 3142SOL    HW220889   0.799   1.478   8.109 -2.0663  1.1254  1.6475
 3143SOL     OW20890   0.054   3.626  11.684 -0.8540 -0.0578 -0.1839
 3143SOL    HW120891   0.039   3.720  11.669 -1.9724 -0.2029  0.0059
 3143SOL    HW220892   4.712   3.598  11.746 -0.8594  2.5375  1.0060
 3144SOL     OW20893   0.065   3.988   7.845  0.4591  0.4251  0.0041
 3144SOL    HW120894   0.043   4.052   7.776 -0.0824  0.6286  0.3667
 3144SOL    HW220895   0.151   3.960   7.813  0.4320  1.0881 -0.6498
 3145SOL     OW20896   4.232   4.065   3.948  0.0897 -0.6418 -0.3015
 3145SOL    HW120897   4.209   3.973   3.955  2.7257 -1.1221  1.9857
 3145SOL    HW220898   4.251   4.094   4.037  1.7679 -0.7889 -0.6067
 3146SOL     OW20899   0.116   4.624   5.290 -0.1251 -0.2890 -0.0047
 3146SOL    HW120900   0.211   4.626   5.281 -0.0552  0.6562  1.0284
 3146SOL    HW220901   0.082   4.576   5.214  0.1198  0.6496 -0.7030
 3147SOL     OW20902   4.691   4.147   4.909 -0.1513 -0.6694 -0.1257
 3147SOL    HW120903   0.042   4.176   4.957  0.5483 -2.7480  0.0282
 3147SOL    HW220904   0.008   4.147   4.823  2.2331 -2.3165  1.0697
 3148SOL     OW20905   2.113   4.230   7.986  0.1989 -0.1253 -0.2462
 3148SOL    HW120906   2.040   4.173   7.960 -1.3707  0.8912  1.9549
 3148SOL    HW220907   2.146   4.199   8.070 -1.5952 -0.7304  0.2447
 3149SOL     OW20908   2.289   0.611   2.122 -0.3105  0.3773  0.3688
 3149SOL    HW120909   2.326   0.539   2.071  1.0360  0.1195  1.7186
 3149SOL    HW220910   2.248   0.572   2.200  0.8005 -0.1207  0.7102
 3150SOL     OW20911   0.933   1.840  11.855  0.5443 -0.0491  0.1392
 3150SOL    HW120912   0.922   1.781  11.780  2.6162 -0.9555  0.5451
 3150SOL    HW220913   1.029   1.839  11.857  0.5969  1.6334 -1.7138
 3151SOL     OW20914   3.359   3.351   5.179  0.5635 -0.2394 -0.3140
 3151SOL    HW120915   3.328   3.395   5.259 -0.7684  0.0377 -0.9785
 3151SOL    HW220916   3.441   3.396   5.158  0.3328  1.2013  1.8925
 3152SOL     OW20917   0.759   1.034   5.098  0.1328  0.3514 -0.1622
 3152SOL    HW120918   0.663   1.039   5.093 -0.0205 -0.0097  2.0464
 3152SOL    HW220919   0.780   1.112   5.150 -2.2423  1.3210 -0.6430
 3153SOL     OW20920   4.346   2.377  10.392  0.4517 -0.0653 -0.0556
 3153SOL    HW120921   4.355   2.461  10.346 -0.1760 -1.0155 -1.9150
 3153SOL    HW220922   4.297   2.336  10.321  2.2613  1.0656 -1.9650
 3154SOL     OW20923   2.217   2.636  10.450 -0.5622 -0.7353 -0.1614
 3154SOL    HW120924   2.138   2.691  10.452  0.5623  0.7782  1.7265
 3154SOL    HW220925   2.240   2.643  10.542  0.2683 -0.4016 -0.3989
 3155SOL     OW20926   3.307   2.376  16.836 -0.4981  0.1725 -0.5403
 3155SOL    HW120927   3.283   2.421  16.917 -0.5947  1.1837 -1.1332
 3155SOL    HW220928   3.285   2.449  16.778 -1.4399 -0.6085 -1.1792
 3156SOL     OW20929   0.743   2.543   6.489 -0.5788 -0.0251 -0.0815
 3156SOL    HW120930   0.717   2.482   6.557 -0.4017 -0.3059 -0.2665
 3156SOL    HW220931   0.772   2.612   6.549  1.5740  0.1713 -1.3410
 3157SOL     OW20932   3.530   4.715   3.425 -0.2253 -0.5811  0.2177
 3157SOL    HW120933   3.623   4.703   3.402  0.3326  3.1570  0.6077
 3157SOL    HW220934   3.488   4.635   3.391  1.2483 -0.6060 -1.5301
 3158SOL     OW20935   2.733   3.594   4.481 -0.2897 -0.0087 -0.0733
 3158SOL    HW120936   2.662   3.651   4.454  0.0388  0.0026 -0.9173
 3158SOL    HW220937   2.810   3.635   4.441 -1.6805  0.5335 -2.1972
 3159SOL     OW20938   4.004   0.198  10.823 -0.2217  0.2187 -0.3358
 3159SOL    HW120939   3.932   0.135  10.822 -0.7803  0.8341  2.0211
 3159SOL    HW220940   4.030   0.183  10.913  0.0438  2.2386 -0.0715
 3160SOL     OW20941   3.982   2.566   2.855  0.3066  0.4236 -0.0260
 3160SOL    HW120942   3.957   2.475   2.841 -1.1947  0.8752 -0.2812
 3160SOL    HW220943   3.899   2.601   2.823 -1.2591 -1.1851  2.2447
 3161SOL     OW20944   2.266   2.453   7.625 -0.2380 -1.1756  0.5539
 3161SOL    HW120945   2.234   2.365   7.646 -3.7970 -0.3379 -1.5432
 3161SOL    HW220946   2.210   2.512   7.675  0.2145 -1.4080  1.3407
 3162SOL     OW20947   4.120   2.328   8.336 -0.7175  0.1327  0.5576
 3162SOL    HW120948   4.189   2.373   8.287 -0.0715 -1.3500  0.1082
 3162SOL    HW220949   4.059   2.313   8.264 -1.2349  0.2214  0.9823
 3163SOL     OW20950   2.311   4.384   7.849 -0.1654 -0.1404  0.2425
 3163SOL    HW120951   2.335   4.427   7.931  1.7760  0.4834 -0.6594
 3163SOL    HW220952   2.252   4.316   7.881 -1.2191 -0.7537 -3.0296
 3164SOL     OW20953   1.778   3.411   7.116 -0.4194 -0.2371  0.1976
 3164SOL    HW120954   1.849   3.375   7.063 -0.3372 -3.0578  2.1928
 3164SOL    HW220955   1.741   3.481   7.062 -1.0820 -2.5886 -2.3943
 3165SOL     OW20956   4.253   3.944   9.346  0.0157 -0.1296 -0.4319
 3165SOL    HW120957   4.317   3.920   9.279  0.5587 -2.7933  1.0350
 3165SOL    HW220958   4.315   3.952   9.418 -1.9883 -0.2987  1.3242
 3166SOL     OW20959   4.331   0.356   0.185  0.1057 -0.6337  0.7878
 3166SOL    HW120960   4.334   0.269   0.143  1.1030 -1.1355  1.8970
 3166SOL    HW220961   4.313   0.325   0.274 -0.5040  0.8510  1.1737
 3167SOL     OW20962   2.754   4.169  17.139  0.7751 -0.3108  0.0398
 3167SOL    HW120963   2.772   4.252  17.184  1.1309  1.5095 -3.4424
 3167SOL    HW220964   2.754   4.188  17.045 -2.5359  1.6867  0.4387
 3168SOL     OW20965   0.144   3.288   3.479  0.6887 -0.2178 -0.2424
 3168SOL    HW120966   0.141   3.263   3.387 -2.0364  1.0663 -0.4987
 3168SOL    HW220967   0.055   3.265   3.504  0.6127  2.1027  1.5844
 3169SOL     OW20968   1.997   3.074   0.479 -0.1676  0.0197 -0.4834
 3169SOL    HW120969   2.051   3.080   0.559 -1.0291  2.2324 -0.0697
 3169SOL    HW220970   2.044   3.142   0.430  0.2310  2.0937  2.7486
 3170SOL     OW20971   3.437   4.038   8.449 -0.7455 -0.2027  0.0778
 3170SOL    HW120972   3.414   3.954   8.487 -2.8621  0.5696  0.4654
 3170SOL    HW220973   3.386   4.106   8.492 -0.6225 -0.8155  1.1951
 3171SOL     OW20974   2.173   2.930   9.919 -0.2175 -0.1813  0.0542
 3171SOL    HW120975   2.080   2.917   9.904  0.7613 -3.4073 -3.2235
 3171SOL    HW220976   2.169   3.025   9.932 -0.1734 -0.5298  2.4948
 3172SOL     OW20977   0.906   0.220  13.121  0.0855 -0.4797  0.1088
 3172SOL    HW120978   0.965   0.205  13.195  2.5398  0.9022 -1.5738
 3172SOL    HW220979   0.931   0.311  13.102  1.3490 -0.9640 -0.5078
 3173SOL     OW20980   4.001   2.751   8.063 -0.0857 -0.3500 -0.4815
 3173SOL    HW120981   4.087   2.711   8.079 -0.5251 -0.1474  2.4661
 3173SOL    HW220982   3.952   2.717   8.138 -0.4519 -1.7666 -1.3643
 3174SOL     OW20983   3.640   3.776   3.350  0.3696 -0.2244  0.4539
 3174SOL    HW120984   3.731   3.763   3.323 -0.0340  0.9066 -1.4390
 3174SOL    HW220985   3.632   3.716   3.423 -0.9857  0.9016  1.2226
 3175SOL     OW20986   3.877   4.156   2.226  0.9018  0.5303 -0.2691
 3175SOL    HW120987   3.866   4.239   2.180 -0.6334  0.4137 -0.1321
 3175SOL    HW220988   3.784   4.133   2.234  1.5613 -2.0378 -0.1035
 3176SOL     OW20989   1.547   3.600   6.672 -0.1859 -0.1829 -0.3444
 3176SOL    HW120990   1.629   3.553   6.686 -0.0560  0.1252 -0.0590
 3176SOL    HW220991   1.500   3.600   6.756 -2.4574  0.9107 -1.6158
 3177SOL     OW20992   2.032   1.452   9.113  0.3814 -0.1853 -0.6844
 3177SOL    HW120993   2.077   1.514   9.171  1.4378  1.3447 -3.1711
 3177SOL    HW220994   2.020   1.374   9.169  1.0108 -0.7660 -1.3653
 3178SOL     OW20995   4.520   3.208   5.058 -0.1073  0.1692  0.3014
 3178SOL    HW120996   4.613   3.188   5.055 -0.4423 -1.3901  0.2031
 3178SOL    HW220997   4.476   3.123   5.056 -3.5246  1.9422 -0.9110
 3179SOL     OW20998   0.786   4.595   0.153 -0.0826 -0.7321  0.4948
 3179SOL    HW120999   0.701   4.620   0.189  0.8619  1.3788  1.2350
 3179SOL    HW221000   0.757   4.510   0.120 -0.7985 -0.3574  0.1664
 3180SOL     OW21001   3.501   4.052   4.136 -0.1315 -0.2894  0.0330
 3180SOL    HW121002   3.577   4.035   4.079  0.5028  0.3882  0.6714
 3180SOL    HW221003   3.466   4.132   4.098 -2.1556 -1.5623 -0.7500
 3181SOL     OW21004   1.493   1.435   7.189  0.0713 -0.2617  0.4487
 3181SOL    HW121005   1.496   1.490   7.111  0.0216  0.8777  1.2589
 3181SOL    HW221006   1.580   1.456   7.223  1.3005 -2.4092 -1.3650
 3182SOL     OW21007   2.553   3.671   7.384 -0.1261  0.6165 -0.4704
 3182SOL    HW121008   2.504   3.617   7.447  0.8024 -1.7994 -1.8205
 3182SOL    HW221009   2.533   3.762   7.406 -0.1267  0.9236 -1.7298
 3183SOL     OW21010   2.272   0.639   7.105 -0.2472  0.6546 -0.1557
 3183SOL    HW121011   2.362   0.638   7.138 -0.4359  0.8520  0.3514
 3183SOL    HW221012   2.237   0.560   7.145  2.2634 -0.5180 -0.2809
 3184SOL     OW21013   4.322   3.598   3.009  0.6465 -0.6600  0.1522
 3184SOL    HW121014   4.297   3.597   3.102  0.6941  1.3152  0.1970
 3184SOL    HW221015   4.376   3.520   3.001  0.8445 -0.5580  0.4799
 3185SOL     OW21016   3.230   4.406  16.110  0.0530  0.7046  0.3907
 3185SOL    HW121017   3.259   4.485  16.064  0.6029  1.3947  1.9109
 3185SOL    HW221018   3.223   4.440  16.199 -1.7498  0.8676  0.1800
 3186SOL     OW21019   3.124   2.079  11.069  0.3926 -0.1427  0.6761
 3186SOL    HW121020   3.034   2.083  11.101 -0.0391  0.7870 -0.6557
 3186SOL    HW221021   3.137   1.989  11.042 -0.0932  0.1820 -0.6501
 3187SOL     OW21022   0.035   4.487   3.861 -0.5922 -0.1985 -0.2211
 3187SOL    HW121023   0.082   4.526   3.935 -0.3551 -3.2062  1.2165
 3187SOL    HW221024   4.686   4.546   3.866  0.5438  1.1046  1.4294
 3188SOL     OW21025   0.744   0.372   5.809 -0.5148 -0.2647  0.4606
 3188SOL    HW121026   0.739   0.325   5.726 -0.4681 -0.4610  0.5683
 3188SOL    HW221027   0.739   0.304   5.876 -1.9678  1.2527  1.8863
 3189SOL     OW21028   3.988   1.125   7.571 -0.2866 -0.2001  0.1569
 3189SOL    HW121029   4.003   1.163   7.658 -0.1070 -0.9990  0.4771
 3189SOL    HW221030   3.994   1.036   7.606  1.4501 -1.3805 -3.1333
 3190SOL     OW21031   3.280   3.547   0.338  0.1007  0.3815  0.0122
 3190SOL    HW121032   3.292   3.494   0.417  0.3589 -2.5009 -1.9754
 3190SOL    HW221033   3.242   3.627   0.374  2.4472  1.3235  0.3737
 3191SOL     OW21034   0.871   0.262  14.782 -0.7078  0.1994 -1.0445
 3191SOL    HW121035   0.896   0.332  14.722 -0.3640 -0.9638 -2.2651
 3191SOL    HW221036   0.803   0.219  14.730 -1.5302  1.3311 -0.8806
 3192SOL     OW21037   2.504   3.581   8.283  0.2563  0.1655 -0.0233
 3192SOL    HW121038   2.543   3.612   8.201 -0.4611  1.3434  0.0744
 3192SOL    HW221039   2.581   3.553   8.333  0.7227 -1.6658 -1.7999
 3193SOL     OW21040   0.196   0.349   8.148  0.0989  0.1701 -0.2681
 3193SOL    HW121041   0.259   0.364   8.218  0.1401  0.9077 -0.4569
 3193SOL    HW221042   0.146   0.270   8.170  2.4138 -1.2283 -0.0354
 3194SOL     OW21043   4.130   1.283   9.323  0.4888  0.0673  0.0687
 3194SOL    HW121044   4.200   1.333   9.365  0.4471  0.4439 -0.3159
 3194SOL    HW221045   4.118   1.213   9.387  3.5280 -0.1926  0.3844
 3195SOL     OW21046   0.978   3.877   9.425  0.1181  0.2214  0.0384
 3195SOL    HW121047   0.901   3.824   9.402  0.6233  0.4756 -2.1987
 3195SOL    HW221048   0.970   3.937   9.351 -0.6780  0.0946  0.0218
 3196SOL     OW21049   2.392   2.160  14.142  0.0930  0.7794 -0.4455
 3196SOL    HW121050   2.343   2.217  14.083  0.5963  1.4830 -0.1848
 3196SOL    HW221051   2.449   2.228  14.177  1.1001  0.4428 -1.4272
 3197SOL     OW21052   0.449   2.003  10.084  0.3484  0.8988  0.1125
 3197SOL    HW121053   0.540   1.975  10.090 -0.1621 -1.3874 -2.3236
 3197SOL    HW221054   0.409   1.931  10.134  1.4039 -0.1932 -0.6134
 3198SOL     OW21055   1.837   0.680   6.603 -0.0156  0.3250  0.0826
 3198SOL    HW121056   1.853   0.612   6.669  0.6788 -0.9910 -1.4405
 3198SOL    HW221057   1.745   0.703   6.618  0.1715  0.3802  1.1304
 3199SOL     OW21058   3.860   1.407   0.910  0.5318 -0.2863 -0.1951
 3199SOL    HW121059   3.886   1.443   0.826  0.4977  0.3488  0.0648
 3199SOL    HW221060   3.863   1.484   0.967 -0.3772  0.5310 -1.2490
 3200SOL     OW21061   1.890   0.858   2.525  0.1686  0.5174 -0.1270
 3200SOL    HW121062   1.893   0.834   2.433 -0.2393  1.5382 -0.4049
 3200SOL    HW221063   1.845   0.942   2.522 -0.2506  0.3610  1.5525
 3201SOL     OW21064   0.521   1.990   7.990 -0.3534  0.4144  0.4891
 3201SOL    HW121065   0.511   1.895   7.981 -1.0565  0.1456  3.9686
 3201SOL    HW221066   0.559   2.021   7.908 -0.5193  1.9430  1.0048
 3202SOL     OW21067   3.494   3.451  12.212 -0.1354 -0.4058 -0.2599
 3202SOL    HW121068   3.490   3.355  12.216 -1.7363 -0.2922  1.2781
 3202SOL    HW221069   3.575   3.471  12.166  1.1974 -1.1329  1.7671
 3203SOL     OW21070   2.401   1.994   3.245  0.4535 -0.1669 -0.0068
 3203SOL    HW121071   2.358   1.941   3.313 -0.4630  0.9134  0.2619
 3203SOL    HW221072   2.432   1.922   3.191  0.8786 -2.2096  2.9780
 3204SOL     OW21073   0.373   3.368   2.181  0.4262  0.7064 -0.2245
 3204SOL    HW121074   0.435   3.412   2.123 -0.1924  0.9782 -0.6822
 3204SOL    HW221075   0.340   3.298   2.125 -1.1000 -0.8468  2.6039
 3205SOL     OW21076   0.639   3.314  17.596 -0.1609 -0.1148  0.1555
 3205SOL    HW121077   0.548   3.328  17.570 -0.4524 -2.0093  0.1878
 3205SOL    HW221078   0.637   3.314  17.692  0.7891  0.3829  0.1764
 3206SOL     OW21079   0.871   4.211   5.850 -0.2431 -0.1889  0.3275
 3206SOL    HW121080   0.909   4.137   5.898 -1.7248 -1.7487 -0.9014
 3206SOL    HW221081   0.877   4.283   5.912 -1.0402  1.1834 -1.1925
 3207SOL     OW21082   2.451   2.708   5.756 -0.1137  0.3087  0.4005
 3207SOL    HW121083   2.524   2.648   5.742 -2.1983 -2.2052  0.2984
 3207SOL    HW221084   2.384   2.655   5.714 -0.3150  1.8889 -1.2600
 3208SOL     OW21085   4.078   3.676   5.647 -0.5125 -0.2026 -0.3161
 3208SOL    HW121086   4.149   3.643   5.592  0.8822  1.2773  0.6161
 3208SOL    HW221087   4.046   3.745   5.589 -1.1909 -1.2692 -1.2100
 3209SOL     OW21088   1.434   1.062  11.398  0.0997  0.0777 -0.3008
 3209SOL    HW121089   1.357   1.072  11.454  0.9768  2.6158  0.4426
 3209SOL    HW221090   1.502   1.037  11.460  1.5279  0.5048 -1.6656
 3210SOL     OW21091   3.833   4.400   2.079  0.3559  0.0263  0.1303
 3210SOL    HW121092   3.810   4.380   1.988  0.5387 -0.1666  0.1237
 3210SOL    HW221093   3.904   4.462   2.065 -0.4739  0.7996 -0.5855
 3211SOL     OW21094   2.188   3.355   4.407 -0.2680 -0.3310 -0.5386
 3211SOL    HW121095   2.221   3.417   4.342 -0.8848  2.0043  1.4291
 3211SOL    HW221096   2.203   3.273   4.359 -0.3265 -0.9633  0.5311
 3212SOL     OW21097   4.721   1.374  11.025  0.0563  0.7082  0.0340
 3212SOL    HW121098   4.724   1.322  10.945  1.0334 -0.8939  1.1294
 3212SOL    HW221099   4.626   1.386  11.036  0.2359  0.7213  1.5496
 3213SOL     OW21100   2.895   2.678   2.816 -0.1060  0.1514 -0.3561
 3213SOL    HW121101   2.817   2.725   2.787 -1.7444 -0.1910  3.5151
 3213SOL    HW221102   2.926   2.647   2.731 -0.2172  1.2914 -0.8127
 3214SOL     OW21103   2.251   0.770   1.152  0.2888  0.0068  0.6454
 3214SOL    HW121104   2.289   0.684   1.131  0.6720  0.8797 -2.2789
 3214SOL    HW221105   2.204   0.737   1.228  0.6291 -0.1939  0.7713
 3215SOL     OW21106   3.449   3.851   0.851  0.5290  0.0882 -0.7777
 3215SOL    HW121107   3.470   3.760   0.827  0.2853 -0.8527  2.5304
 3215SOL    HW221108   3.428   3.841   0.944  1.2803  3.2121 -0.2701
 3216SOL     OW21109   1.914   3.418   4.405  0.3033 -0.2770 -0.4500
 3216SOL    HW121110   1.960   3.464   4.334  0.7610  0.2436  0.1875
 3216SOL    HW221111   1.976   3.357   4.444  1.9329  1.1510 -0.7687
 3217SOL     OW21112   2.413   1.090   6.734 -0.3690 -0.5008 -0.0341
 3217SOL    HW121113   2.343   1.028   6.756 -0.4855 -1.2249 -2.4482
 3217SOL    HW221114   2.473   1.040   6.679 -1.4604  1.2249 -2.8401
 3218SOL     OW21115   2.751   0.672   7.777 -0.1416  0.5204 -0.1074
 3218SOL    HW121116   2.778   0.712   7.859  0.7846  0.6244 -0.4654
 3218SOL    HW221117   2.836   0.633   7.757  0.0454  0.2868  1.1147
 3219SOL     OW21118   2.902   2.640  11.942  0.0137 -0.7886  0.3700
 3219SOL    HW121119   2.906   2.654  11.847  1.3893  0.0244  0.5579
 3219SOL    HW221120   2.939   2.553  11.957  0.9573 -0.4903 -0.2050
 3220SOL     OW21121   1.080   1.158   7.509 -0.5975  0.0171  0.2167
 3220SOL    HW121122   0.991   1.155   7.544 -0.7869 -1.1632 -0.3575
 3220SOL    HW221123   1.141   1.165   7.583  0.3144  0.2090 -0.5452
 3221SOL     OW21124   3.103   0.380   6.390 -0.3641 -0.2612  0.1957
 3221SOL    HW121125   3.035   0.444   6.370  2.0428  1.5773 -2.0984
 3221SOL    HW221126   3.047   0.302   6.402 -2.3635  1.0253 -0.6956
 3222SOL     OW21127   1.337   2.318   0.228  0.0251  0.3165  0.5064
 3222SOL    HW121128   1.429   2.293   0.218 -0.3819 -1.9361  2.3456
 3222SOL    HW221129   1.344   2.404   0.269 -4.2325  2.2664 -2.8840
 3223SOL     OW21130   3.105   0.001   2.279 -0.3430 -0.1855 -0.0893
 3223SOL    HW121131   3.150   0.037   2.202  0.8103  0.0929  0.7007
 3223SOL    HW221132   3.100   4.637   2.249 -3.9716 -0.1636  0.5490
 3224SOL     OW21133   0.887   3.742   8.197  0.8131 -0.0195 -0.0792
 3224SOL    HW121134   0.952   3.736   8.127  0.6073  0.8568 -0.3495
 3224SOL    HW221135   0.830   3.812   8.165  1.6837  0.5044 -0.5102
 3225SOL     OW21136   0.614   0.393  15.254  0.1008  0.2613 -0.0498
 3225SOL    HW121137   0.546   0.449  15.292 -0.0786 -0.3141  0.4784
 3225SOL    HW221138   0.606   0.311  15.303  1.0199 -0.7405 -1.5572
 3226SOL     OW21139   2.593   0.155   8.474  0.2064  0.3642  0.0757
 3226SOL    HW121140   2.630   0.085   8.528 -0.4626 -0.4540 -0.5237
 3226SOL    HW221141   2.552   0.213   8.539  1.8270 -0.3289  1.7023
 3227SOL     OW21142   1.904   1.001  15.938 -0.3502 -0.3736  0.2849
 3227SOL    HW121143   1.951   1.012  15.856 -0.3256 -0.9514  0.2201
 3227SOL    HW221144   1.820   1.044  15.922 -0.4278 -1.4863 -2.3801
 3228SOL     OW21145   3.296   0.582  13.722  0.3925 -0.0346  0.2292
 3228SOL    HW121146   3.303   0.508  13.663  0.5396  0.1912 -0.0383
 3228SOL    HW221147   3.331   0.647  13.661 -2.1062  0.0997 -1.0667
 3229SOL     OW21148   1.456   2.549   0.364  0.2084 -0.4706  0.1139
 3229SOL    HW121149   1.369   2.587   0.373  1.2888  2.3876 -1.3958
 3229SOL    HW221150   1.506   2.627   0.388 -1.2468 -0.0348  1.7472
 3230SOL     OW21151   0.833   2.405   3.983  0.2423 -0.1947  0.2212
 3230SOL    HW121152   0.843   2.489   4.029  2.3937 -0.7703  0.8213
 3230SOL    HW221153   0.922   2.377   3.960  0.9806  2.1556  0.1253
 3231SOL     OW21154   4.087   0.876   7.579 -0.1564 -0.0394  0.1475
 3231SOL    HW121155   4.019   0.812   7.556  1.7773 -2.1247  0.2439
 3231SOL    HW221156   4.102   0.853   7.671 -0.2969  1.7953  0.6315
 3232SOL     OW21157   4.003   1.567   1.356  0.7328 -0.1744 -0.3665
 3232SOL    HW121158   3.907   1.563   1.354  0.7246 -0.8523  1.3038
 3232SOL    HW221159   4.027   1.572   1.264 -2.0251  1.9295 -0.9874
 3233SOL     OW21160   3.396   1.615   5.570 -0.2995 -0.2994  0.0565
 3233SOL    HW121161   3.461   1.569   5.623  0.9642  0.5680 -0.7322
 3233SOL    HW221162   3.362   1.680   5.632  0.4116 -1.9154  2.1058
 3234SOL     OW21163   1.564   0.443   1.093 -0.3357  0.1996  0.5452
 3234SOL    HW121164   1.590   0.359   1.132  1.4377  0.4332 -0.1349
 3234SOL    HW221165   1.628   0.448   1.022 -0.5583  1.6545  0.4463
 3235SOL     OW21166   0.840   1.855   5.846 -0.1484 -0.5996 -0.0120
 3235SOL    HW121167   0.755   1.819   5.870  0.2824 -0.5976  1.4975
 3235SOL    HW221168   0.860   1.815   5.761  0.6377 -0.1304 -0.0529
 3236SOL     OW21169   1.950   4.499   1.362 -0.5616  0.0811 -0.0030
 3236SOL    HW121170   1.914   4.548   1.288 -1.6345  0.4570  0.7623
 3236SOL    HW221171   1.911   4.412   1.350 -0.2470  0.0316 -0.6823
 3237SOL     OW21172   0.043   1.637   3.989  0.3285  0.5732 -0.0413
 3237SOL    HW121173   0.015   1.635   3.897 -0.8431  1.8965  0.2867
 3237SOL    HW221174   4.683   1.625   4.030  1.5602  0.3959  2.5220
 3238SOL     OW21175   0.257   0.908   9.829 -0.6817 -0.3532 -0.2829
 3238SOL    HW121176   0.246   0.918   9.924 -2.0582  1.4957 -0.6397
 3238SOL    HW221177   0.349   0.926   9.812 -0.7403 -1.2211 -1.4864
 3239SOL     OW21178   1.430   3.357   9.974  0.4646 -0.1236  0.0762
 3239SOL    HW121179   1.397   3.421   9.910 -0.0577  0.3733  0.8476
 3239SOL    HW221180   1.525   3.357   9.960  0.1813  0.9506 -1.9771
 3240SOL     OW21181   2.372   1.350  16.183 -0.4812 -0.0882  0.0610
 3240SOL    HW121182   2.403   1.260  16.190 -0.9975 -0.1571  1.5510
 3240SOL    HW221183   2.445   1.391  16.231  0.0978 -0.0184 -0.8907
 3241SOL     OW21184   1.562   3.544   3.392  0.1117 -0.1187  0.3489
 3241SOL    HW121185   1.482   3.521   3.438 -0.1531  3.8315  1.8514
 3241SOL    HW221186   1.609   3.460   3.392 -1.2537 -0.8824 -1.3631
 3242SOL     OW21187   1.974   1.867   8.026  0.1654 -0.0623  0.4092
 3242SOL    HW121188   2.031   1.794   8.050  0.5206 -0.4096 -1.4747
 3242SOL    HW221189   1.908   1.876   8.094 -0.2016  1.7163 -0.1890
 3243SOL     OW21190   1.098   1.806   7.233 -0.2245 -0.1677  0.6481
 3243SOL    HW121191   1.100   1.900   7.215  0.1086  0.1386  2.3013
 3243SOL    HW221192   1.108   1.805   7.328  3.7823 -0.5738  0.2534
 3244SOL     OW21193   1.049   0.121   3.783  0.2885 -0.2204  0.4932
 3244SOL    HW121194   0.995   0.057   3.829  0.9358  1.0165  2.9278
 3244SOL    HW221195   1.040   0.204   3.830 -0.8032  0.4348 -0.8455
 3245SOL     OW21196   1.566   4.142   8.841  0.4615  0.1411  0.4052
 3245SOL    HW121197   1.647   4.190   8.821  0.7706 -1.3063 -1.8924
 3245SOL    HW221198   1.546   4.168   8.931 -0.1963  1.0275  0.0088
 3246SOL     OW21199   4.224   2.566   9.197 -0.3237 -0.5391 -0.2666
 3246SOL    HW121200   4.193   2.518   9.120  1.1592 -1.4103 -0.3214
 3246SOL    HW221201   4.316   2.572   9.171 -0.3878  1.1611 -0.1070
 3247SOL     OW21202   3.971   2.103  14.315  0.0205 -0.1446  0.0082
 3247SOL    HW121203   4.055   2.076  14.353 -0.6235 -1.6067  0.4017
 3247SOL    HW221204   3.901   2.067  14.369  0.0528 -1.2752 -0.7030
 3248SOL     OW21205   0.772   0.567  14.849  0.2655  0.0195  0.4239
 3248SOL    HW121206   0.797   0.589  14.759 -1.6557 -0.2032 -0.1708
 3248SOL    HW221207   0.742   0.476  14.841 -1.0262  0.4439  0.3341
 3249SOL     OW21208   3.959   0.121   3.905 -0.2447  0.4724  0.2584
 3249SOL    HW121209   4.024   0.181   3.941  1.4751 -1.8070  0.8811
 3249SOL    HW221210   4.001   0.112   3.820 -1.9027  1.9200 -0.7129
 3250SOL     OW21211   1.077   2.902  16.236  0.1378 -0.2008 -0.4185
 3250SOL    HW121212   1.028   2.841  16.291  0.1413 -1.2510 -1.5829
 3250SOL    HW221213   1.109   2.967  16.299 -0.0653 -0.3988 -0.1147
 3251SOL     OW21214   3.662   3.694  15.337  0.4365 -0.1410  0.0259
 3251SOL    HW121215   3.731   3.744  15.294  0.9052 -1.2437 -0.5088
 3251SOL    HW221216   3.686   3.712  15.428  0.6545  0.2271 -0.1045
 3252SOL     OW21217   0.252   2.625  14.660 -0.1558 -0.1314  0.2062
 3252SOL    HW121218   0.244   2.531  14.677 -1.1386 -0.1861 -0.5539
 3252SOL    HW221219   0.280   2.616  14.569  3.7983 -2.1757  1.6234
 3253SOL     OW21220   4.067   3.547  14.942 -0.2257  0.3589  0.1838
 3253SOL    HW121221   4.127   3.488  14.895  0.0462  1.8785 -1.3498
 3253SOL    HW221222   4.130   3.613  14.969  1.5028 -1.2981  0.2346
 3254SOL     OW21223   1.301   2.415   5.078  0.2038 -0.1068 -0.0577
 3254SOL    HW121224   1.387   2.376   5.096  0.4073  0.3918  0.0479
 3254SOL    HW221225   1.244   2.379   5.146  0.2973  0.9602  0.5794
 3255SOL     OW21226   0.931   1.814   2.390  0.0510  0.3123 -0.3052
 3255SOL    HW121227   0.845   1.788   2.423  1.8244 -0.0897  3.9235
 3255SOL    HW221228   0.933   1.767   2.306 -2.5321  1.1742 -0.8339
 3256SOL     OW21229   3.979   2.786   1.026 -0.4009 -0.5994  0.1608
 3256SOL    HW121230   4.031   2.826   1.096  0.1566 -0.0013 -0.6024
 3256SOL    HW221231   4.016   2.698   1.022  1.3324  0.0822  1.2906
 3257SOL     OW21232   1.821   0.558   9.519 -0.8281 -0.4729  0.2014
 3257SOL    HW121233   1.888   0.514   9.572  0.8155 -0.3966 -1.8238
 3257SOL    HW221234   1.784   0.491   9.461 -1.6086  1.9794 -2.1274
 3258SOL     OW21235   0.580   1.377   6.110 -1.0172  0.4180  0.0402
 3258SOL    HW121236   0.511   1.438   6.084 -0.8581 -0.5191 -2.6002
 3258SOL    HW221237   0.589   1.391   6.204 -0.2235 -3.5385  0.5672
 3259SOL     OW21238   4.366   3.686   6.821  0.0467 -0.0284  0.0253
 3259SOL    HW121239   4.304   3.703   6.892  0.1616 -0.2355  0.1734
 3259SOL    HW221240   4.411   3.610   6.858 -0.9872 -0.2845  0.7703
 3260SOL     OW21241   2.671   3.461  13.281 -0.2939  0.4492  0.4887
 3260SOL    HW121242   2.702   3.442  13.192  0.9478  0.6944  0.8736
 3260SOL    HW221243   2.577   3.477  13.270 -0.4549 -0.2835  0.8660
 3261SOL     OW21244   0.188   0.495   3.193 -0.0305 -0.3522 -0.1544
 3261SOL    HW121245   0.207   0.572   3.247 -1.4256 -0.4555  0.4899
 3261SOL    HW221246   0.100   0.512   3.160 -0.8398  0.6825  2.4933
 3262SOL     OW21247   4.638   3.357  14.880 -0.2932  0.0236 -0.4154
 3262SOL    HW121248   4.632   3.282  14.821  0.6015 -2.8339  3.0829
 3262SOL    HW221249   4.603   3.431  14.831 -1.0250  0.5208  0.8614
 3263SOL     OW21250   3.553   1.184   4.563 -0.2182  0.2725 -0.4576
 3263SOL    HW121251   3.638   1.225   4.584 -0.1014 -0.8163  1.2392
 3263SOL    HW221252   3.576   1.094   4.542 -0.0859  0.2100 -0.0494
 3264SOL     OW21253   1.284   1.571   5.179 -0.7064 -0.0549 -0.6426
 3264SOL    HW121254   1.277   1.648   5.236 -1.6040 -0.5186 -0.1358
 3264SOL    HW221255   1.377   1.550   5.177 -0.6915 -0.0473  0.3309
 3265SOL     OW21256   3.359   4.481   1.644  0.2957  0.2813  0.1240
 3265SOL    HW121257   3.369   4.388   1.664  0.9729  0.5110  0.8501
 3265SOL    HW221258   3.447   4.517   1.652  0.2402  0.7559 -1.4684
 3266SOL     OW21259   2.047   1.838  13.669  0.2850  0.4563 -0.1969
 3266SOL    HW121260   2.097   1.878  13.740  0.4277  0.9852 -0.5966
 3266SOL    HW221261   2.111   1.839  13.597  2.0286 -0.4762  1.3623
 3267SOL     OW21262   0.603   4.183   5.790  0.6593  0.4099  0.4450
 3267SOL    HW121263   0.618   4.232   5.709 -2.2915 -1.1036 -1.0003
 3267SOL    HW221264   0.695   4.179   5.817  1.1275  2.2919 -0.8462
 3268SOL     OW21265   2.446   2.344   7.107  0.5363 -0.2306  0.3289
 3268SOL    HW121266   2.453   2.259   7.152  3.6554 -0.6170 -0.8910
 3268SOL    HW221267   2.437   2.406   7.179  2.4996  0.7844 -0.2903
 3269SOL     OW21268   3.348   0.678   5.931 -0.0273  0.5521 -0.6632
 3269SOL    HW121269   3.256   0.696   5.909 -0.2543 -0.5153 -0.5773
 3269SOL    HW221270   3.348   0.587   5.902 -0.1195  0.0104  1.0361
 3270SOL     OW21271   2.514   0.917   8.561 -0.1252  0.1610 -0.0046
 3270SOL    HW121272   2.480   0.830   8.586  1.4276  0.0269  1.6382
 3270SOL    HW221273   2.458   0.974   8.615  0.2227 -0.7274  1.3105
 3271SOL     OW21274   2.488   1.253   7.267 -0.2123  0.4412 -0.1767
 3271SOL    HW121275   2.489   1.343   7.234 -1.3395  0.7917  0.7319
 3271SOL    HW221276   2.578   1.226   7.252 -1.5858 -2.3992 -3.2650
 3272SOL     OW21277   3.164   3.122   5.875  0.4888  0.2232  0.0367
 3272SOL    HW121278   3.243   3.083   5.914 -0.6632 -1.1769  0.9541
 3272SOL    HW221279   3.185   3.099   5.784 -1.1172 -0.7603 -0.0727
 3273SOL     OW21280   4.075   3.569   8.971  0.2995 -0.3348  0.0214
 3273SOL    HW121281   4.057   3.621   9.050  1.6766  0.0291  0.0958
 3273SOL    HW221282   4.170   3.567   8.957  0.0193  1.2350 -2.1048
 3274SOL     OW21283   2.065   1.624  11.786 -0.3644  0.2605  0.0756
 3274SOL    HW121284   2.121   1.700  11.798 -0.9291  0.7088 -0.1232
 3274SOL    HW221285   2.000   1.654  11.723 -0.6879 -0.4789  0.0584
 3275SOL     OW21286   0.446   0.643   8.695 -0.1445  0.1117 -0.2472
 3275SOL    HW121287   0.532   0.682   8.682  1.2888 -2.8528  0.4516
 3275SOL    HW221288   0.398   0.699   8.756 -0.5158 -2.1957  1.6060
 3276SOL     OW21289   2.809   4.389   2.028  0.6615  0.1521 -0.1479
 3276SOL    HW121290   2.866   4.312   2.022  1.1564  0.4897  0.3117
 3276SOL    HW221291   2.767   4.363   2.110 -1.3770  2.0583 -0.6039
 3277SOL     OW21292   3.813   4.242   5.123 -0.0748 -0.1761 -0.5934
 3277SOL    HW121293   3.783   4.157   5.090 -2.8477  1.1409 -1.4513
 3277SOL    HW221294   3.907   4.223   5.125  0.0951  0.6947 -0.2968
 3278SOL     OW21295   3.420   4.544   6.863 -0.3361 -0.6337 -0.0176
 3278SOL    HW121296   3.501   4.584   6.830  0.8850 -0.4208  3.2053
 3278SOL    HW221297   3.364   4.607   6.818  0.2838  0.4605  0.7078
 3279SOL     OW21298   1.040   4.478   0.913 -0.4210 -0.1010  0.3347
 3279SOL    HW121299   1.103   4.548   0.897 -0.8472  0.5775  1.6395
 3279SOL    HW221300   0.980   4.509   0.981 -0.7871  1.6438 -0.7871
 3280SOL     OW21301   1.855   0.253   9.806 -0.3485 -0.0060  0.0403
 3280SOL    HW121302   1.822   0.198   9.734  0.8755  0.0183 -0.5399
 3280SOL    HW221303   1.783   0.297   9.851 -1.9593 -1.5382 -1.0251
 3281SOL     OW21304   2.672   1.225   6.177  0.1840  0.0709 -0.2180
 3281SOL    HW121305   2.591   1.218   6.128  0.4098  1.7496 -0.8321
 3281SOL    HW221306   2.646   1.292   6.240 -0.3790  0.0407 -0.4180
 3282SOL     OW21307   3.762   1.377   8.141 -0.2556 -0.2136 -0.6468
 3282SOL    HW121308   3.709   1.370   8.221 -0.1228  0.4464 -0.4976
 3282SOL    HW221309   3.718   1.455   8.106  1.0338  0.5730 -0.5058
 3283SOL     OW21310   4.666   0.811  13.407 -0.3620  0.7919 -0.2587
 3283SOL    HW121311   4.674   0.899  13.444  0.9409  1.3070 -1.7760
 3283SOL    HW221312   4.585   0.820  13.357 -0.1052 -0.8964 -0.9664
 3284SOL     OW21313   0.041   1.946  12.952  0.2687  0.9237 -0.1597
 3284SOL    HW121314   0.074   2.033  12.930  1.2105  0.7160  0.4549
 3284SOL    HW221315   4.688   1.940  12.898 -0.1941 -2.3361  0.8620
 3285SOL     OW21316   0.143   3.534   8.883  0.1145  0.4123  0.2268
 3285SOL    HW121317   0.070   3.477   8.908  0.1704  1.1630  2.1129
 3285SOL    HW221318   0.165   3.493   8.799  0.0636  1.8132 -0.4645
 3286SOL     OW21319   4.156   0.330   3.757 -0.4390 -0.4679 -0.0708
 3286SOL    HW121320   4.122   0.404   3.706  0.3212  0.3012  0.5469
 3286SOL    HW221321   4.114   0.335   3.843  0.6768 -1.1546  0.5039
 3287SOL     OW21322   1.339   0.687   8.415  0.1082 -0.8430  0.2819
 3287SOL    HW121323   1.314   0.595   8.404 -1.2279 -0.7001  2.1764
 3287SOL    HW221324   1.274   0.725   8.473  0.2269  1.1918 -0.9040
 3288SOL     OW21325   3.062   1.004  14.227 -0.5338  0.4967 -0.1454
 3288SOL    HW121326   3.066   0.967  14.139  2.1898  0.1015  0.1421
 3288SOL    HW221327   3.150   1.040  14.238 -0.4977  0.8346 -1.6153
 3289SOL     OW21328   2.407   2.955   4.482 -0.5209 -0.0311 -0.5123
 3289SOL    HW121329   2.465   2.984   4.412 -0.2380 -1.9924 -1.0988
 3289SOL    HW221330   2.323   2.983   4.446  0.2458  1.1322 -1.4001
 3290SOL     OW21331   3.451   1.355   0.334  0.5746 -0.1324 -0.0468
 3290SOL    HW121332   3.373   1.300   0.333  0.1004  0.5098  2.0982
 3290SOL    HW221333   3.411   1.434   0.296 -0.5486 -1.2206 -1.1014
 3291SOL     OW21334   3.524   2.566   3.817 -0.3659 -0.1423 -0.7225
 3291SOL    HW121335   3.616   2.553   3.840 -0.3095  0.2220 -0.7371
 3291SOL    HW221336   3.504   2.476   3.793  0.4544 -0.3649 -0.5772
 3292SOL     OW21337   1.229   0.531  10.149 -0.3275  0.5391  0.0327
 3292SOL    HW121338   1.299   0.562  10.091  0.1728  0.0323  0.3662
 3292SOL    HW221339   1.167   0.604  10.144 -0.6795  0.0925 -2.2390
 3293SOL     OW21340   2.641   2.482  17.267 -0.7721 -0.3290  0.0880
 3293SOL    HW121341   2.578   2.419  17.302 -1.7150  0.6269  0.1159
 3293SOL    HW221342   2.625   2.548  17.335 -0.9045 -0.4839  0.2068
 3294SOL     OW21343   2.435   2.424   3.914 -0.4929  0.1254  0.1200
 3294SOL    HW121344   2.478   2.507   3.894 -0.1057 -0.4260 -1.3245
 3294SOL    HW221345   2.406   2.405   3.825  0.7508 -1.5578  0.0809
 3295SOL     OW21346   2.352   1.892  16.205  0.6119  0.2539 -0.0752
 3295SOL    HW121347   2.399   1.877  16.287  1.2910 -1.3723 -0.7556
 3295SOL    HW221348   2.387   1.821  16.151  1.0610  0.3316  0.1194
 3296SOL     OW21349   0.373   1.417   3.520  0.6044 -0.1533  0.1773
 3296SOL    HW121350   0.367   1.366   3.601  0.1765 -0.3188  0.0401
 3296SOL    HW221351   0.468   1.412   3.530  0.2519 -4.9058  1.4615
 3297SOL     OW21352   3.864   3.779   5.335  0.3280  0.4411 -0.2638
 3297SOL    HW121353   3.959   3.791   5.339  0.1945  2.0256 -1.7730
 3297SOL    HW221354   3.831   3.861   5.371 -1.0642  0.4577 -1.5996
 3298SOL     OW21355   3.284   0.372   6.170 -0.0827 -0.2276  0.1963
 3298SOL    HW121356   3.241   0.384   6.255 -1.4874 -0.4096 -0.5044
 3298SOL    HW221357   3.368   0.351   6.211 -0.3120 -0.8742  0.3296
 3299SOL     OW21358   1.650   4.348   4.396 -0.0841 -0.0277 -0.3227
 3299SOL    HW121359   1.605   4.353   4.311  1.0991  1.5105 -0.8636
 3299SOL    HW221360   1.684   4.259   4.393 -2.7300 -1.0351 -0.8478
 3300SOL     OW21361   2.039   1.273   0.348  0.6989 -0.0548  0.0760
 3300SOL    HW121362   1.992   1.222   0.281 -1.2198  1.5342  0.2078
 3300SOL    HW221363   1.965   1.319   0.389  1.0979  0.3737  0.3123
 3301SOL     OW21364   2.658   3.984   2.540 -0.0848 -0.7052  0.5443
 3301SOL    HW121365   2.718   3.961   2.469 -0.8421 -0.6468 -0.1205
 3301SOL    HW221366   2.634   4.076   2.529  0.6091 -0.2900  2.4975
 3302SOL     OW21367   3.296   2.280   4.724 -0.3336  0.6351  0.1197
 3302SOL    HW121368   3.227   2.215   4.708 -1.0669  1.3007  0.5959
 3302SOL    HW221369   3.250   2.353   4.765 -0.4428  0.2348  0.7125
 3303SOL     OW21370   2.871   1.070  11.890  0.1889 -0.7157  0.2053
 3303SOL    HW121371   2.879   1.118  11.972  3.1044 -1.7491  0.5286
 3303SOL    HW221372   2.953   1.092  11.846 -0.8654 -0.1753 -1.5241
 3304SOL     OW21373   1.133   3.278   0.888  0.2408  0.0646  0.5684
 3304SOL    HW121374   1.099   3.360   0.852 -2.2217 -0.8166  0.8447
 3304SOL    HW221375   1.119   3.222   0.811 -0.5033 -0.4688  1.0878
 3305SOL     OW21376   0.423   2.562   6.004 -0.0106  0.1685 -0.2672
 3305SOL    HW121377   0.341   2.512   5.999  0.6476 -0.9357 -0.0170
 3305SOL    HW221378   0.481   2.498   6.045 -1.2580 -0.1006  1.0843
 3306SOL     OW21379   0.634   2.794   5.215 -0.0538 -0.4025  0.1501
 3306SOL    HW121380   0.701   2.730   5.193 -0.5796 -0.6710 -0.6611
 3306SOL    HW221381   0.616   2.778   5.308 -0.6765  2.3674  0.5047
 3307SOL     OW21382   1.399   3.275   8.488  0.0738  0.9559  0.1999
 3307SOL    HW121383   1.446   3.295   8.570  1.5452  1.0900 -0.6717
 3307SOL    HW221384   1.351   3.358   8.485 -1.5301 -0.0073 -0.0158
 3308SOL     OW21385   1.093   1.026   8.382  0.4681  0.7287  0.2216
 3308SOL    HW121386   1.075   1.076   8.462  0.0752  1.7320 -0.4924
 3308SOL    HW221387   1.104   0.941   8.424 -1.1500 -0.0588 -0.9497
 3309SOL     OW21388   0.381   4.028   3.954  0.3653 -0.3497 -0.6091
 3309SOL    HW121389   0.323   3.990   4.020  0.4393 -0.3058 -0.5198
 3309SOL    HW221390   0.446   3.958   3.951  1.8693  1.0508 -0.6542
 3310SOL     OW21391   3.444   3.024   8.288  0.1088 -0.0890 -0.0025
 3310SOL    HW121392   3.459   3.109   8.248 -0.2454  1.2948  2.7387
 3310SOL    HW221393   3.414   2.975   8.212 -0.0188  0.9381 -0.6149
 3311SOL     OW21394   4.714   3.677  12.107  0.1321  0.0988 -0.4342
 3311SOL    HW121395   0.027   3.764  12.103 -2.0789  1.0553 -1.2841
 3311SOL    HW221396   0.010   3.649  12.196  0.9791 -1.6977 -1.2162
 3312SOL     OW21397   3.008   0.164   5.403 -0.0143 -0.0544 -0.1818
 3312SOL    HW121398   2.947   0.091   5.416 -1.1798  1.0040  0.3181
 3312SOL    HW221399   3.000   0.188   5.311  1.5087 -1.2598 -0.6339
 3313SOL     OW21400   1.192   0.390  11.403  0.0406  0.2414  0.1127
 3313SOL    HW121401   1.202   0.317  11.342 -0.8066  0.0683  0.1747
 3313SOL    HW221402   1.146   0.342  11.472  0.6588  0.7773  0.8997
 3314SOL     OW21403   3.147   1.222  12.808 -0.9272  0.2972  0.5456
 3314SOL    HW121404   3.051   1.212  12.804 -0.8886  0.8706 -1.5815
 3314SOL    HW221405   3.171   1.154  12.745 -0.1057  1.5347 -0.4644
 3315SOL     OW21406   3.232   2.640  16.818 -0.5268  0.0659 -0.3619
 3315SOL    HW121407   3.196   2.725  16.844 -0.5226  0.3971 -1.4285
 3315SOL    HW221408   3.325   2.660  16.814 -1.2539  3.6736  0.3350
 3316SOL     OW21409   2.330   2.280   5.164 -0.1551  0.3243 -0.6144
 3316SOL    HW121410   2.313   2.285   5.070  3.0996 -2.0369 -1.3338
 3316SOL    HW221411   2.380   2.361   5.177  1.4939 -0.6945 -0.6035
 3317SOL     OW21412   1.341   4.153  14.640 -0.1580  0.4201  0.6015
 3317SOL    HW121413   1.331   4.240  14.679  1.4037  0.5837  0.6524
 3317SOL    HW221414   1.408   4.122  14.701  1.0115  0.6652 -0.5521
 3318SOL     OW21415   4.065   1.224   8.485  0.0739 -0.1476 -0.4952
 3318SOL    HW121416   3.982   1.203   8.526 -0.1307  1.1183 -0.2799
 3318SOL    HW221417   4.099   1.290   8.545 -1.3650 -0.9275  1.1531
 3319SOL     OW21418   0.805   2.720   6.695 -0.8099 -0.4452 -0.4237
 3319SOL    HW121419   0.745   2.770   6.750 -0.5871 -1.7390  0.9873
 3319SOL    HW221420   0.869   2.782   6.659 -0.7275  0.3167  1.0181
 3320SOL     OW21421   0.174   2.301  13.395 -0.1059 -0.7462 -0.5063
 3320SOL    HW121422   0.201   2.350  13.472 -0.6443  0.0965 -0.8541
 3320SOL    HW221423   0.257   2.264  13.364  1.3142  1.1129  1.0912
 3321SOL     OW21424   1.412   0.461  15.452  0.0415 -0.0623 -0.4155
 3321SOL    HW121425   1.470   0.524  15.408  0.0829  0.8849  1.0087
 3321SOL    HW221426   1.371   0.429  15.371  1.6369 -2.6547 -0.1912
 3322SOL     OW21427   0.992   1.487   6.542  0.6726  0.2343 -1.0832
 3322SOL    HW121428   0.977   1.456   6.453  0.5710  0.0205 -0.9897
 3322SOL    HW221429   1.022   1.413   6.594 -0.7039 -1.0144 -2.0596
 3323SOL     OW21430   0.153   0.640   8.526  0.3127 -0.1905  0.8668
 3323SOL    HW121431   0.098   0.714   8.500 -0.2426 -1.2907 -1.1024
 3323SOL    HW221432   0.241   0.675   8.527 -0.2734  1.2544  1.7807
 3324SOL     OW21433   2.786   1.846   6.143  0.3492 -0.3033 -0.6890
 3324SOL    HW121434   2.851   1.914   6.123  0.5169  0.3722  2.2140
 3324SOL    HW221435   2.716   1.893   6.188  0.1524 -0.3989 -0.8956
 3325SOL     OW21436   3.692   0.895   6.108 -0.1665 -0.4973  0.1471
 3325SOL    HW121437   3.643   0.870   6.030 -3.4191 -1.7145  2.5936
 3325SOL    HW221438   3.739   0.813   6.123  0.6405  0.1199  0.9916
 3326SOL     OW21439   3.606   1.734   2.415  0.7244  0.4522 -0.1439
 3326SOL    HW121440   3.631   1.674   2.345 -0.2142  0.1318 -0.2116
 3326SOL    HW221441   3.510   1.735   2.407  0.6650  0.9349  0.6959
 3327SOL     OW21442   2.224   2.669   5.487 -0.7085 -0.0445  0.2993
 3327SOL    HW121443   2.293   2.734   5.475 -1.6029  0.7249 -0.6757
 3327SOL    HW221444   2.172   2.706   5.559 -1.1483  2.4580 -1.3013
 3328SOL     OW21445   0.943   4.601   7.235 -0.0984  0.3280 -0.1708
 3328SOL    HW121446   0.875   4.534   7.231  1.8581 -1.6662  0.2798
 3328SOL    HW221447   0.992   4.576   7.313  2.4166  0.2633 -1.7370
 3329SOL     OW21448   0.215   0.231  13.123  0.4238  0.1936 -0.4923
 3329SOL    HW121449   0.142   0.266  13.071  0.9526  0.3862 -1.1038
 3329SOL    HW221450   0.192   0.138  13.120  2.2030 -0.3778  3.5540
 3330SOL     OW21451   0.809   2.735  10.350 -0.6996 -0.0429  0.6282
 3330SOL    HW121452   0.850   2.820  10.335 -2.5460  0.0684 -3.7641
 3330SOL    HW221453   0.780   2.720  10.260 -1.9438  0.7045  0.9201
 3331SOL     OW21454   4.050   2.825  15.171  0.1342  0.1770 -0.3546
 3331SOL    HW121455   4.059   2.906  15.122  0.2842  0.1797 -0.3251
 3331SOL    HW221456   4.128   2.778  15.139  0.2627  1.0672 -1.3306
 3332SOL     OW21457   1.140   2.574   1.233  0.4840 -0.0404 -0.4086
 3332SOL    HW121458   1.153   2.570   1.138 -0.9981  1.3495 -0.6714
 3332SOL    HW221459   1.051   2.538   1.236  0.5449  0.0889  2.2227
 3333SOL     OW21460   1.866   3.730  16.052  0.5319 -0.1233  0.2386
 3333SOL    HW121461   1.780   3.760  16.023  0.3234  1.8900  2.9290
 3333SOL    HW221462   1.861   3.636  16.032  2.3690  0.4861 -2.9273
 3334SOL     OW21463   0.885   1.977   4.109 -0.8906 -0.0092  0.0705
 3334SOL    HW121464   0.817   2.043   4.096 -0.4949  0.5243  0.6960
 3334SOL    HW221465   0.850   1.896   4.145  0.4046 -0.3064  0.6859
 3335SOL     OW21466   4.487   2.472   3.206  0.0409  0.3905  0.1771
 3335SOL    HW121467   4.455   2.559   3.182 -0.1097  0.0844 -0.7136
 3335SOL    HW221468   4.403   2.427   3.197  1.4819 -2.4781  0.8967
 3336SOL     OW21469   0.045   2.550   0.992  0.0411  0.0582 -0.1518
 3336SOL    HW121470   4.694   2.566   1.047  0.6320 -1.4457  1.1007
 3336SOL    HW221471   0.119   2.575   1.046 -1.6374 -0.7149  2.4829
 3337SOL     OW21472   1.767   0.536   4.237  0.1441 -0.1459  0.2148
 3337SOL    HW121473   1.855   0.506   4.260 -0.1182 -0.2623  1.0832
 3337SOL    HW221474   1.766   0.628   4.264 -2.5431 -0.1229  0.0863
 3338SOL     OW21475   4.142   3.840   5.323  0.0482  0.3807  0.3213
 3338SOL    HW121476   4.171   3.847   5.232 -0.7874 -0.2104  0.0111
 3338SOL    HW221477   4.230   3.856   5.358 -0.5878 -0.8328  2.4425
 3339SOL     OW21478   0.341   2.985   7.467  0.1406 -0.1206 -0.1337
 3339SOL    HW121479   0.366   3.057   7.525  0.6098 -1.3828  1.2264
 3339SOL    HW221480   0.271   3.028   7.419  1.1902 -0.2858 -1.8086
 3340SOL     OW21481   0.733   1.551  11.476  0.5002  0.6314 -0.4041
 3340SOL    HW121482   0.751   1.494  11.550  1.1609  0.1451 -0.9498
 3340SOL    HW221483   0.821   1.567  11.443  1.6852 -2.8289  1.0627
 3341SOL     OW21484   2.532   3.243   6.614  0.4659 -0.6070 -0.1776
 3341SOL    HW121485   2.497   3.332   6.627 -0.4017 -1.1031  0.8503
 3341SOL    HW221486   2.621   3.253   6.647  0.5025 -2.8866  0.4017
 3342SOL     OW21487   0.636   0.077  14.844  0.1053 -0.0155  0.1853
 3342SOL    HW121488   0.652   0.019  14.770 -0.8703  1.1674 -0.9511
 3342SOL    HW221489   0.544   0.053  14.855 -0.1077  0.3487 -0.8385
 3343SOL     OW21490   1.926   2.798  13.096 -0.3430  0.0018 -0.1401
 3343SOL    HW121491   1.844   2.805  13.048  0.2337  0.3059 -1.0826
 3343SOL    HW221492   1.900   2.750  13.175  0.8344  0.5900  0.6114
 3344SOL     OW21493   3.654   0.612   2.025  0.8860  0.5470  0.5511
 3344SOL    HW121494   3.729   0.670   2.039  1.2671  0.2969 -0.5206
 3344SOL    HW221495   3.583   0.657   2.071  1.8060  1.3771  1.1751
 3345SOL     OW21496   2.281   1.815   4.765 -0.5466 -0.5757 -0.0870
 3345SOL    HW121497   2.330   1.843   4.688  0.2065  1.2753  1.0750
 3345SOL    HW221498   2.338   1.861   4.825 -0.4850 -0.7485 -0.0151
 3346SOL     OW21499   4.669   2.099  14.787  0.2185  0.2952 -0.7917
 3346SOL    HW121500   4.663   2.174  14.728 -1.4587  1.2462  0.6075
 3346SOL    HW221501   0.039   2.104  14.784  0.2886 -0.9308 -0.6871
 3347SOL     OW21502   2.092   1.426   8.793  0.3543 -0.2618  0.0469
 3347SOL    HW121503   2.086   1.457   8.883 -0.7215  0.3549 -0.2351
 3347SOL    HW221504   2.011   1.457   8.752 -0.3398  1.9163  2.9980
 3348SOL     OW21505   1.447   3.758   7.673 -0.0459 -0.7387 -0.2372
 3348SOL    HW121506   1.466   3.714   7.755  0.5076 -1.2586 -0.6487
 3348SOL    HW221507   1.533   3.770   7.634  0.4927 -2.0340  0.5530
 3349SOL     OW21508   4.063   4.044   8.069  0.0008  0.3253 -0.4022
 3349SOL    HW121509   4.080   4.124   8.021 -1.2888 -1.2013 -3.3639
 3349SOL    HW221510   4.034   4.073   8.156  1.2654 -0.7490  0.3972
 3350SOL     OW21511   2.748   1.739   3.344 -0.5324 -0.5923 -0.2151
 3350SOL    HW121512   2.726   1.719   3.435 -1.3834  1.4159  0.0425
 3350SOL    HW221513   2.842   1.752   3.355 -1.3783  3.9352  1.8407
 3351SOL     OW21514   0.809   0.234  16.115  0.2625  0.1395  0.0383
 3351SOL    HW121515   0.830   0.320  16.079 -0.9837  0.1254 -0.7342
 3351SOL    HW221516   0.764   0.199  16.037 -0.9665 -2.3621  1.8780
 3352SOL     OW21517   4.388   3.120  15.709 -0.6808  0.6694 -0.3087
 3352SOL    HW121518   4.304   3.106  15.665 -1.9364 -2.7074  3.2173
 3352SOL    HW221519   4.384   3.215  15.722  0.1805  0.5349  0.9059
 3353SOL     OW21520   0.388   1.605  15.691 -0.4611 -0.2087  0.0436
 3353SOL    HW121521   0.413   1.537  15.753  0.5253  1.1339  1.1236
 3353SOL    HW221522   0.382   1.556  15.610 -0.2519  0.3379 -0.3016
 3354SOL     OW21523   2.589   4.646   5.507  0.1351 -0.1999 -0.1382
 3354SOL    HW121524   2.535   4.596   5.568 -1.2525  1.2459 -0.1678
 3354SOL    HW221525   2.527   4.719   5.507  1.5530  1.0133  1.7555
 3355SOL     OW21526   4.523   2.605   5.408  0.4101 -0.6568 -0.1646
 3355SOL    HW121527   4.609   2.573   5.382  0.3973 -1.4127  0.7325
 3355SOL    HW221528   4.501   2.664   5.336  3.5744  1.5327  0.6465
 3356SOL     OW21529   2.525   3.938   7.426  0.2924 -0.0065  0.2226
 3356SOL    HW121530   2.512   3.980   7.341  1.0044 -0.0252  0.1064
 3356SOL    HW221531   2.555   4.017   7.469 -0.5738  0.2936  0.2836
 3357SOL     OW21532   0.867   3.577  16.606 -0.2208  0.0247 -0.0988
 3357SOL    HW121533   0.910   3.551  16.524 -0.0534  1.0161 -0.3290
 3357SOL    HW221534   0.844   3.669  16.595  0.5369  0.5249  2.5725
 3358SOL     OW21535   1.612   3.975   4.841 -0.4637 -0.6959  0.7338
 3358SOL    HW121536   1.558   3.925   4.902 -1.2881 -2.6112 -1.5413
 3358SOL    HW221537   1.617   4.064   4.876  1.0588 -0.2511 -0.6320
 3359SOL     OW21538   1.843   1.606   0.941  0.2128  0.2483  0.5558
 3359SOL    HW121539   1.859   1.517   0.910  1.0805 -0.4854  3.0814
 3359SOL    HW221540   1.897   1.663   0.886 -0.4147  0.5800  0.2815
 3360SOL     OW21541   0.387   4.587   5.285 -0.4900  0.3763 -0.0428
 3360SOL    HW121542   0.450   4.656   5.261  1.6048 -1.1512  1.1558
 3360SOL    HW221543   0.402   4.599   5.379  0.3528 -0.7257 -0.0543
 3361SOL     OW21544   4.361   1.347   3.647 -0.2852 -0.4355 -0.1005
 3361SOL    HW121545   4.398   1.293   3.577  0.2473 -1.0562  0.6509
 3361SOL    HW221546   4.269   1.321   3.643 -0.4251 -0.0569  0.5961
 3362SOL     OW21547   0.282   2.779   1.948  0.0360  0.2315  0.2502
 3362SOL    HW121548   0.274   2.736   2.034  0.4935 -2.9621 -1.2754
 3362SOL    HW221549   0.195   2.784   1.909  0.4650  1.8539 -0.4883
 3363SOL     OW21550   0.260   0.869  12.743  0.1372 -0.3339  0.3309
 3363SOL    HW121551   0.230   0.908  12.662  0.2745 -1.0549 -0.0725
 3363SOL    HW221552   0.317   0.935  12.783  0.4079 -1.9201  2.6260
 3364SOL     OW21553   1.294   0.816   5.488 -0.0536 -0.2171 -0.4240
 3364SOL    HW121554   1.229   0.824   5.419 -2.7067 -2.5724  1.7898
 3364SOL    HW221555   1.341   0.899   5.481  0.9255 -0.4813  2.7979
 3365SOL     OW21556   4.043   0.976   2.100  0.0574 -0.5669 -0.0898
 3365SOL    HW121557   4.006   0.892   2.073  2.4146 -1.9514  0.9820
 3365SOL    HW221558   4.061   1.014   2.014  1.3942 -0.5780  0.1756
 3366SOL     OW21559   4.024   0.536   3.660 -0.1609  0.2225  0.4637
 3366SOL    HW121560   3.992   0.531   3.570 -0.9571  2.3161  0.6441
 3366SOL    HW221561   3.951   0.582   3.700  0.0455 -0.7259  1.9489
 3367SOL     OW21562   1.104   3.876  13.514  0.2058 -0.3204  0.0886
 3367SOL    HW121563   1.069   3.884  13.602 -3.2795  1.5942 -1.5001
 3367SOL    HW221564   1.034   3.834  13.464 -2.5066  1.9843  1.9472
 3368SOL     OW21565   1.841   2.179   9.670  0.1015 -0.0815  0.4297
 3368SOL    HW121566   1.816   2.235   9.597 -0.5244  2.9370  2.9353
 3368SOL    HW221567   1.765   2.123   9.680 -0.4980  0.1541 -2.9770
 3369SOL     OW21568   4.638   1.057   5.970 -0.0723 -0.0622 -0.4291
 3369SOL    HW121569   4.717   1.104   5.943 -1.1467  2.7034  1.1507
 3369SOL    HW221570   4.583   1.063   5.891  0.3850 -1.0443 -0.8136
 3370SOL     OW21571   3.628   0.542   2.390  0.0834  0.2255  0.4446
 3370SOL    HW121572   3.565   0.603   2.427 -0.9179 -0.9483  0.6683
 3370SOL    HW221573   3.653   0.490   2.466  0.9949  1.8422  1.2441
 3371SOL     OW21574   0.035   1.070  11.954 -0.2528  0.2404  0.1660
 3371SOL    HW121575   0.123   1.038  11.934  0.3174  0.6270  2.0084
 3371SOL    HW221576   4.706   0.992  11.951  0.2443 -0.0042 -2.6973
 3372SOL     OW21577   0.537   1.696   7.992 -0.1063 -0.4337  0.2340
 3372SOL    HW121578   0.545   1.632   7.921  0.2895 -0.0807 -0.0398
 3372SOL    HW221579   0.629   1.707   8.017  0.3738  1.4877 -2.3786
 3373SOL     OW21580   4.165   2.260   0.856 -0.0621  0.2640 -0.0465
 3373SOL    HW121581   4.106   2.333   0.841 -0.5616 -0.0348  0.4648
 3373SOL    HW221582   4.113   2.183   0.834  1.9766 -1.7049  2.0030
 3374SOL     OW21583   0.338   2.714   8.095  0.2736 -0.2115 -0.4874
 3374SOL    HW121584   0.346   2.628   8.055 -0.5766 -0.5964  0.1697
 3374SOL    HW221585   0.290   2.764   8.030 -1.5078  0.7569  1.5825
 3375SOL     OW21586   2.156   0.762  15.049  0.3492 -0.5094 -0.3636
 3375SOL    HW121587   2.133   0.679  15.091 -0.0574  0.4214  1.2374
 3375SOL    HW221588   2.085   0.779  14.987  0.6273 -0.6302 -0.7132
 3376SOL     OW21589   2.514   2.129   0.742  0.3145 -0.4405 -0.4553
 3376SOL    HW121590   2.559   2.045   0.731 -1.3871 -1.2567 -1.1686
 3376SOL    HW221591   2.586   2.191   0.750 -1.6377  1.5508  1.4616
 3377SOL     OW21592   3.315   0.119   3.592  0.5329  0.5500  0.1801
 3377SOL    HW121593   3.410   0.128   3.579  0.4033  2.1382  0.2885
 3377SOL    HW221594   3.316   0.024   3.584  0.9717  0.7764 -2.4175
 3378SOL     OW21595   1.633   3.725   5.150  0.1663  0.3034  0.5953
 3378SOL    HW121596   1.622   3.639   5.190  0.0130 -0.6655 -1.5265
 3378SOL    HW221597   1.671   3.782   5.217  2.0124  0.6560 -0.7390
 3379SOL     OW21598   4.639   3.878   3.791 -0.3828 -0.5234  0.6741
 3379SOL    HW121599   4.698   3.907   3.721 -1.6165  0.7184  0.1478
 3379SOL    HW221600   4.590   3.956   3.818  3.7089  2.4012 -0.4299
 3380SOL     OW21601   2.492   2.853   9.403 -0.5195 -0.5952 -0.0911
 3380SOL    HW121602   2.447   2.937   9.388 -0.1553 -0.5183 -0.7606
 3380SOL    HW221603   2.523   2.833   9.315  0.5644 -1.2313  0.4394
 3381SOL     OW21604   3.430   4.158  11.785  0.3843  0.2564 -0.0739
 3381SOL    HW121605   3.401   4.119  11.867  0.2280  0.6088  0.0388
 3381SOL    HW221606   3.383   4.115  11.713  0.8326 -1.0049  0.4053
 3382SOL     OW21607   1.823   0.331   0.759 -0.1646 -0.4731  0.0596
 3382SOL    HW121608   1.775   0.339   0.677  1.1213  0.5857 -0.5824
 3382SOL    HW221609   1.809   0.409   0.813 -1.0733  0.2479 -1.2203
 3383SOL     OW21610   3.187   2.555   7.736  0.5540  0.1113 -0.2202
 3383SOL    HW121611   3.256   2.591   7.792 -0.3787  1.2884  0.1660
 3383SOL    HW221612   3.152   2.636   7.698 -0.9250 -0.1203  0.6659
 3384SOL     OW21613   2.339   1.387   6.929  0.6748  0.2272 -0.0562
 3384SOL    HW121614   2.395   1.442   6.984  2.3868 -0.8841 -0.6730
 3384SOL    HW221615   2.316   1.328   7.000 -0.4261 -0.0724 -0.6621
 3385SOL     OW21616   3.697   3.373   8.318 -0.2163 -0.1663 -0.3659
 3385SOL    HW121617   3.778   3.408   8.355  0.8771 -2.3011 -0.7358
 3385SOL    HW221618   3.656   3.340   8.398  0.7841  1.5975  0.8903
 3386SOL     OW21619   1.473   2.140   9.424 -0.0225 -0.0809 -0.2080
 3386SOL    HW121620   1.457   2.104   9.512  0.7899 -0.1428 -0.0787
 3386SOL    HW221621   1.466   2.233   9.445  0.8465 -0.1966  0.6346
 3387SOL     OW21622   1.102   0.408   3.003  0.2113  0.7291 -0.3465
 3387SOL    HW121623   1.081   0.411   2.910 -0.2955 -0.0215 -0.2605
 3387SOL    HW221624   1.138   0.494   3.022  0.3710  0.4509  0.6065
 3388SOL     OW21625   4.308   0.878   9.820  0.5743  0.4301  0.2970
 3388SOL    HW121626   4.232   0.936   9.815 -0.2018 -0.4568  1.9970
 3388SOL    HW221627   4.381   0.940   9.823  0.4919  0.5672 -0.5325
 3389SOL     OW21628   3.884   0.508   2.754  0.2654 -0.4265  0.5278
 3389SOL    HW121629   3.871   0.536   2.844  0.3702  0.0586  0.3958
 3389SOL    HW221630   3.930   0.581   2.712 -0.5514 -0.2317 -0.0471
 3390SOL     OW21631   4.449   0.465   0.862  0.3446  0.2490  0.3274
 3390SOL    HW121632   4.394   0.391   0.834  1.3673 -1.3713  2.5803
 3390SOL    HW221633   4.520   0.453   0.799 -0.3815 -0.0921 -0.4182
 3391SOL     OW21634   4.345   2.948  16.879 -0.5333  0.0594 -0.0149
 3391SOL    HW121635   4.286   3.005  16.928 -0.3798  0.2469 -0.0483
 3391SOL    HW221636   4.413   3.007  16.848  0.1131 -0.9474 -0.5293
 3392SOL     OW21637   0.988   0.296   8.893  0.3395 -0.1088  0.0384
 3392SOL    HW121638   1.068   0.252   8.864 -0.1865 -1.2008  0.2358
 3392SOL    HW221639   0.921   0.250   8.842  0.9264  0.5620 -1.3331
 3393SOL     OW21640   0.988   3.623   3.104 -0.1504  1.0433 -0.2143
 3393SOL    HW121641   0.946   3.605   3.020 -0.1530  2.4260 -0.5087
 3393SOL    HW221642   1.038   3.542   3.102 -0.8682  0.5078  3.5473
 3394SOL     OW21643   1.081   1.181  11.796  0.0985 -0.4108 -0.9044
 3394SOL    HW121644   0.989   1.180  11.824  1.4930 -0.9035  3.7075
 3394SOL    HW221645   1.120   1.240  11.861  0.4498 -0.6766 -0.8756
 3395SOL     OW21646   1.806   3.477   3.074  0.6380 -0.3141  0.3972
 3395SOL    HW121647   1.749   3.403   3.053 -0.7560  0.5940  0.9655
 3395SOL    HW221648   1.738   3.544   3.069 -0.4709 -1.5746 -1.5859
 3396SOL     OW21649   1.848   4.585   4.686  0.2946 -0.4604 -0.2995
 3396SOL    HW121650   1.858   4.590   4.591 -0.2517 -0.6985 -0.3679
 3396SOL    HW221651   1.918   4.528   4.717 -0.0675 -2.6995 -3.6474
 3397SOL     OW21652   4.462   2.885   3.012 -0.1191 -0.2497  0.3355
 3397SOL    HW121653   4.396   2.935   3.061  0.1191  0.1902  0.2103
 3397SOL    HW221654   4.416   2.839   2.942  0.3703 -1.2053  0.6398
 3398SOL     OW21655   3.987   2.169   5.858  0.1759 -0.7106  0.6931
 3398SOL    HW121656   4.022   2.258   5.871 -0.5589  0.0116 -2.3008
 3398SOL    HW221657   3.972   2.162   5.764 -0.0147 -0.4622  0.7046
 3399SOL     OW21658   0.416   2.499   3.624 -0.1208  0.2051  0.3131
 3399SOL    HW121659   0.457   2.515   3.709  0.3170 -0.7990  0.2926
 3399SOL    HW221660   0.457   2.416   3.599 -2.3495 -0.5415 -0.8376
 3400SOL     OW21661   3.599   1.618   7.526 -0.0281  0.1827 -0.3197
 3400SOL    HW121662   3.567   1.602   7.437  0.3751  0.1252 -0.4534
 3400SOL    HW221663   3.683   1.659   7.505  2.1736 -3.6864  0.9432
 3401SOL     OW21664   3.398   3.125   8.870  0.5496 -0.7169  0.4073
 3401SOL    HW121665   3.471   3.134   8.808 -0.7890  0.6473 -0.9597
 3401SOL    HW221666   3.322   3.088   8.824  2.3819 -2.2431 -1.4484
 3402SOL     OW21667   2.377   0.825   6.233  0.4255 -0.0044 -0.6351
 3402SOL    HW121668   2.451   0.864   6.187  0.3327 -2.1146 -2.5803
 3402SOL    HW221669   2.336   0.787   6.155  1.6811 -2.0289 -0.2937
 3403SOL     OW21670   3.638   1.578  11.844  0.2187  0.0242  0.2134
 3403SOL    HW121671   3.555   1.551  11.804  0.9271  0.0160 -1.2259
 3403SOL    HW221672   3.682   1.600  11.762  1.3039 -0.4037  0.6760
 3404SOL     OW21673   3.112   1.533   0.391  0.0718  0.3077  0.0915
 3404SOL    HW121674   3.038   1.564   0.338  1.4582  0.5970 -1.6691
 3404SOL    HW221675   3.176   1.512   0.323 -2.2428  2.6002 -2.8120
 3405SOL     OW21676   4.201   0.927   4.873 -0.3569 -0.4680 -0.2050
 3405SOL    HW121677   4.254   0.994   4.831 -0.9984  1.0137  1.3645
 3405SOL    HW221678   4.175   0.978   4.949  0.2213 -0.8707  0.2556
 3406SOL     OW21679   0.897   2.124   7.934 -0.2365  0.0166 -0.5541
 3406SOL    HW121680   0.811   2.110   7.895 -1.4845  0.6232  2.0034
 3406SOL    HW221681   0.939   2.142   7.850  1.9699 -1.5076  0.2123
 3407SOL     OW21682   2.299   3.663   3.758  0.1678  0.2414 -0.4828
 3407SOL    HW121683   2.347   3.740   3.729  2.3954  0.0287  2.6792
 3407SOL    HW221684   2.213   3.692   3.728  0.0585  1.1702  0.7356
 3408SOL     OW21685   2.172   4.009   3.748  0.6692  0.0295  0.8714
 3408SOL    HW121686   2.090   3.962   3.754  0.4457  0.5087  1.5910
 3408SOL    HW221687   2.225   3.943   3.793  2.4360 -0.0989 -1.3476
 3409SOL     OW21688   0.541   0.790   3.775 -0.2949 -0.4469 -0.1620
 3409SOL    HW121689   0.454   0.820   3.801 -0.0277 -0.6125  0.9245
 3409SOL    HW221690   0.562   0.731   3.847  2.1467  2.2417  1.3221
 3410SOL     OW21691   2.040   4.371   7.483  0.6229  0.2615 -0.3625
 3410SOL    HW121692   2.013   4.445   7.538 -2.6882 -0.1784 -1.3881
 3410SOL    HW221693   2.066   4.311   7.553  1.6036  1.0007 -0.1065
 3411SOL     OW21694   1.262   0.386   0.410  0.1048 -0.1611  0.4611
 3411SOL    HW121695   1.320   0.363   0.337  1.3645  0.9148  1.1136
 3411SOL    HW221696   1.209   0.308   0.427 -0.2024  0.0876  0.6474
 3412SOL     OW21697   4.405   1.408  11.321  0.4837 -0.1467  0.3969
 3412SOL    HW121698   4.462   1.413  11.245  1.2550  1.8760  1.1109
 3412SOL    HW221699   4.333   1.349  11.299 -0.0559  1.3068 -1.7263
 3413SOL     OW21700   2.252   3.225   7.614 -0.2049  0.5909  0.3622
 3413SOL    HW121701   2.300   3.206   7.695  1.2038 -0.9406 -0.8345
 3413SOL    HW221702   2.162   3.205   7.641 -0.0627 -1.4244 -0.6477
 3414SOL     OW21703   3.514   3.739  16.201 -0.0455 -0.1403  0.1487
 3414SOL    HW121704   3.458   3.676  16.247 -0.2166  0.0930  0.2642
 3414SOL    HW221705   3.504   3.699  16.115  1.2478 -0.0642 -0.0366
 3415SOL     OW21706   0.327   2.028   1.389 -0.2479 -0.8240  0.2004
 3415SOL    HW121707   0.304   1.950   1.339 -0.8238 -0.4018 -0.1947
 3415SOL    HW221708   0.296   1.998   1.474 -2.5474  0.1815 -0.2888
 3416SOL     OW21709   3.803   2.466   9.292  0.3345  0.0445 -0.6217
 3416SOL    HW121710   3.898   2.470   9.303  0.2243  0.1462  0.3535
 3416SOL    HW221711   3.770   2.556   9.298 -0.4844 -0.3124  0.3241
 3417SOL     OW21712   2.683   1.138   4.782  0.1334  0.5753 -0.1023
 3417SOL    HW121713   2.650   1.227   4.791 -2.6451 -0.0967 -3.8811
 3417SOL    HW221714   2.605   1.087   4.804  1.7180 -0.8203  2.3826
 3418SOL     OW21715   4.518   2.344   8.621  0.0046  0.1048 -0.6250
 3418SOL    HW121716   4.533   2.384   8.707 -0.9754 -0.8208 -0.0362
 3418SOL    HW221717   4.425   2.327   8.629 -0.1268  1.4720  0.8891
 3419SOL     OW21718   2.339   3.779   9.175  0.0130 -0.1390 -0.0967
 3419SOL    HW121719   2.265   3.726   9.144 -0.9379 -0.0720  2.0720
 3419SOL    HW221720   2.381   3.716   9.234  1.5566  4.1267  3.3274
 3420SOL     OW21721   4.179   0.564   5.698 -0.3784 -0.4714  0.5083
 3420SOL    HW121722   4.269   0.576   5.729  0.4339 -3.7633 -0.5674
 3420SOL    HW221723   4.201   0.541   5.608 -0.4095 -1.9172  0.8550
 3421SOL     OW21724   4.618   4.491   7.102  0.1181 -0.0787 -0.3350
 3421SOL    HW121725   4.657   4.501   7.188 -2.0406  2.1729  0.4000
 3421SOL    HW221726   4.675   4.550   7.053 -1.4211  2.1480  0.5255
 3422SOL     OW21727   2.167   2.822   5.989 -0.2004 -0.0895 -0.3714
 3422SOL    HW121728   2.257   2.800   6.013  0.1345  2.1250  0.3899
 3422SOL    HW221729   2.175   2.916   6.006 -0.7266 -0.4810  2.0319
 3423SOL     OW21730   4.510   2.359   9.314 -0.5139 -0.2550  0.2139
 3423SOL    HW121731   4.465   2.419   9.373  2.5874  0.2417  2.1108
 3423SOL    HW221732   4.584   2.327   9.365  0.2223  1.0743 -0.0113
 3424SOL     OW21733   1.432   3.124   3.272  0.2537  0.1330 -0.3597
 3424SOL    HW121734   1.488   3.181   3.324  0.0088  0.2524 -0.2296
 3424SOL    HW221735   1.504   3.064   3.253  0.6377  0.8012 -1.0048
 3425SOL     OW21736   4.241   1.069  10.081 -0.1847 -0.0917 -0.0227
 3425SOL    HW121737   4.188   0.989  10.081 -0.1149 -0.1535  1.8187
 3425SOL    HW221738   4.328   1.034  10.065 -0.4415 -0.7075 -0.0985
 3426SOL     OW21739   0.202   4.711   3.462 -0.3737 -0.0857 -0.5392
 3426SOL    HW121740   0.231   4.714   3.553  0.7193 -0.0196 -0.8867
 3426SOL    HW221741   0.189   4.618   3.444  1.7775 -0.8495  1.8654
 3427SOL     OW21742   1.615   3.640   0.518 -0.0122  0.0765 -0.3966
 3427SOL    HW121743   1.612   3.708   0.450  2.4110  0.3950 -0.2067
 3427SOL    HW221744   1.677   3.577   0.482 -1.3210 -1.6657  0.4392
 3428SOL     OW21745   3.006   3.195  13.583  0.1886  0.0906 -0.4818
 3428SOL    HW121746   2.945   3.232  13.519  1.7183  3.3990  0.0024
 3428SOL    HW221747   2.968   3.108  13.599  2.3843 -0.5920  0.8842
 3429SOL     OW21748   0.726   0.599   5.248  0.3045  0.1723 -0.3454
 3429SOL    HW121749   0.705   0.544   5.173 -0.5683 -2.4265  1.8358
 3429SOL    HW221750   0.795   0.656   5.212  1.0229  0.6889  1.8268
 3430SOL     OW21751   0.953   2.593   2.130  0.5599  0.4211 -0.5012
 3430SOL    HW121752   0.909   2.675   2.156  0.1479 -0.8015  2.7019
 3430SOL    HW221753   1.001   2.623   2.053  0.3780 -0.0870 -0.8124
 3431SOL     OW21754   1.733   2.003   7.932  0.1821 -0.2572  0.0879
 3431SOL    HW121755   1.809   1.947   7.919 -1.4966 -2.0630 -1.8591
 3431SOL    HW221756   1.702   1.974   8.018 -0.3156 -1.2747 -0.4460
 3432SOL     OW21757   3.371   0.148   9.901 -0.3293  0.7350 -0.4010
 3432SOL    HW121758   3.381   0.219   9.965  1.1449  0.7987 -0.7003
 3432SOL    HW221759   3.399   0.070   9.948 -1.0870  1.4273  1.2052
 3433SOL     OW21760   2.840   0.681   1.629 -0.7692 -0.1955  0.4115
 3433SOL    HW121761   2.895   0.672   1.551 -0.9389 -0.1322  0.2835
 3433SOL    HW221762   2.861   0.773   1.645 -0.3117  0.2930 -2.9415
 3434SOL     OW21763   0.344   0.987   8.708  1.0902  0.3373  0.0703
 3434SOL    HW121764   0.421   0.945   8.669  2.0156  0.9168  1.2725
 3434SOL    HW221765   0.379   1.076   8.715  2.2406 -0.1385  0.4585
 3435SOL     OW21766   1.745   2.347   0.043 -0.2580  0.1640 -0.3389
 3435SOL    HW121767   1.837   2.370   0.028 -0.2813  0.4542 -0.0400
 3435SOL    HW221768   1.705   2.359  17.662  1.5738 -2.0228 -1.5133
 3436SOL     OW21769   4.201   3.282   3.982 -0.0639  0.6742 -0.1189
 3436SOL    HW121770   4.154   3.199   3.969  0.1290 -0.0747  3.8089
 3436SOL    HW221771   4.291   3.249   3.976 -0.6188 -0.8790  0.0139
 3437SOL     OW21772   2.672   3.743  13.448  0.5128 -0.0014 -0.1483
 3437SOL    HW121773   2.682   3.668  13.508  0.3585 -1.1818 -1.6023
 3437SOL    HW221774   2.674   3.696  13.365 -2.2477  0.2594 -0.3559
 3438SOL     OW21775   0.072   2.144   5.119 -0.2990  0.4254  0.0109
 3438SOL    HW121776   0.165   2.124   5.109 -0.7752 -2.0179  0.3678
 3438SOL    HW221777   0.042   2.071   5.174 -0.4953 -0.4102 -1.2060
 3439SOL     OW21778   3.567   0.950   9.200 -0.7623  0.2486  0.2430
 3439SOL    HW121779   3.654   0.987   9.218 -0.7910  1.5119 -2.3117
 3439SOL    HW221780   3.578   0.860   9.231 -0.6871 -0.2213 -1.1592
 3440SOL     OW21781   4.572   2.161   3.228  0.2391  0.1751  0.3315
 3440SOL    HW121782   4.575   2.095   3.158 -3.6371 -1.0562  1.3329
 3440SOL    HW221783   4.609   2.238   3.185  1.1468 -1.0283 -1.0649
 3441SOL     OW21784   3.612   0.810   2.942 -0.2380  0.2780 -0.1610
 3441SOL    HW121785   3.577   0.799   2.854  0.6954 -1.5284 -0.3071
 3441SOL    HW221786   3.566   0.891   2.965  1.2970  1.5735 -1.6056
 3442SOL     OW21787   0.894   1.827  12.765 -0.0220 -0.4274  0.3190
 3442SOL    HW121788   0.938   1.911  12.776 -2.1121  0.8030 -0.7483
 3442SOL    HW221789   0.829   1.842  12.696 -3.1128 -3.8123  2.4591
 3443SOL     OW21790   2.865   3.813   1.760 -0.6098  0.0298 -0.1171
 3443SOL    HW121791   2.940   3.753   1.754  0.2739  1.1584 -0.4145
 3443SOL    HW221792   2.796   3.747   1.749  0.1652 -0.6058 -1.1987
 3444SOL     OW21793   3.166   4.575   6.977 -0.2554 -0.0654 -0.0419
 3444SOL    HW121794   3.254   4.539   6.965 -0.2716 -0.3348  0.6250
 3444SOL    HW221795   3.178   4.664   6.944 -1.4949  0.2631  0.4032
 3445SOL     OW21796   1.935   1.705  14.362 -0.2276 -0.3046 -0.1451
 3445SOL    HW121797   1.904   1.753  14.439 -1.1060  0.8040 -1.1722
 3445SOL    HW221798   2.021   1.744  14.351 -0.3878  0.4734  1.4210
 3446SOL     OW21799   0.043   3.801   8.085 -0.6611  0.1505 -0.3003
 3446SOL    HW121800   0.030   3.879   8.032  0.7351 -0.5554 -1.6904
 3446SOL    HW221801   0.039   3.739   8.011  1.1484 -0.3531  0.0423
 3447SOL     OW21802   4.542   2.599  14.962 -0.2000  0.1968 -0.3163
 3447SOL    HW121803   4.563   2.645  14.881  1.1104  0.9123  0.4267
 3447SOL    HW221804   4.629   2.577  14.993 -0.4378  0.3295  0.4582
 3448SOL     OW21805   0.636   4.376   8.213 -0.5333  0.0763 -0.8485
 3448SOL    HW121806   0.542   4.394   8.203 -0.6341  0.4155  0.7055
 3448SOL    HW221807   0.641   4.294   8.262  1.7897  1.8323  1.8400
 3449SOL     OW21808   1.380   1.041  10.082 -0.0857 -0.4128  0.0997
 3449SOL    HW121809   1.361   1.072   9.994 -0.0823  3.0512  1.3197
 3449SOL    HW221810   1.467   1.005  10.067 -0.0444 -0.1196 -0.3387
 3450SOL     OW21811   1.711   1.280   1.474  0.5080  0.6645 -0.1444
 3450SOL    HW121812   1.674   1.353   1.425 -0.5375  0.3173  0.1326
 3450SOL    HW221813   1.792   1.314   1.513  0.8393  0.3017 -0.5250
 3451SOL     OW21814   1.219   3.673   5.023  0.3457  0.1029 -0.3300
 3451SOL    HW121815   1.269   3.612   4.969  0.2981 -0.7131  0.5426
 3451SOL    HW221816   1.193   3.611   5.091  2.8834 -1.8174 -1.1149
 3452SOL     OW21817   4.157   4.276   4.394  0.1190 -0.8501 -0.0158
 3452SOL    HW121818   4.209   4.197   4.405 -1.2205 -1.7698 -0.2211
 3452SOL    HW221819   4.078   4.254   4.443 -0.3720  0.6494 -0.1333
 3453SOL     OW21820   0.287   2.812   7.135 -0.1677  0.2367 -0.1958
 3453SOL    HW121821   0.291   2.726   7.175 -0.3807 -0.6160 -2.0251
 3453SOL    HW221822   0.199   2.826   7.171 -0.4276  0.5134 -0.9409
 3454SOL     OW21823   1.541   4.583   5.511  0.9963 -0.2915  0.1745
 3454SOL    HW121824   1.574   4.615   5.426 -1.6140 -0.9222 -1.0811
 3454SOL    HW221825   1.502   4.496   5.508 -2.7360  1.4139 -0.9305
 3455SOL     OW21826   3.881   1.167  11.018 -0.2062 -0.3519  0.1483
 3455SOL    HW121827   3.863   1.236  11.081  1.6563  0.0818  0.1895
 3455SOL    HW221828   3.946   1.120  11.070 -1.0403 -1.7900 -0.0921
 3456SOL     OW21829   3.888   3.010   2.632 -0.8314 -0.2053  0.1024
 3456SOL    HW121830   3.843   3.006   2.716 -1.3705 -0.6466 -0.2082
 3456SOL    HW221831   3.823   3.065   2.588 -1.8508 -1.5240 -0.0263
 3457SOL     OW21832   2.818   2.154   3.983 -0.3737  0.1499 -0.1102
 3457SOL    HW121833   2.775   2.185   4.063  0.8140  0.1395  0.5270
 3457SOL    HW221834   2.904   2.182   4.013 -0.5885  1.1569 -0.4150
 3458SOL     OW21835   4.357   3.009   5.078  0.5860 -0.4014 -0.4629
 3458SOL    HW121836   4.320   3.057   5.152 -1.4638 -0.5402 -1.3880
 3458SOL    HW221837   4.295   2.939   5.055 -0.4820  1.3418 -2.9416
 3459SOL     OW21838   1.115   1.879   5.194 -0.2982  0.4227  0.0262
 3459SOL    HW121839   1.094   1.791   5.163  0.8268 -0.1720  0.9303
 3459SOL    HW221840   1.049   1.890   5.263 -1.0486  1.8908 -0.9249
 3460SOL     OW21841   3.050   0.942  16.097 -0.5390 -0.4335  0.3524
 3460SOL    HW121842   3.085   0.958  16.010 -0.6115 -0.8283  0.2489
 3460SOL    HW221843   2.981   1.008  16.099  0.4851  0.7464 -3.4576
 3461SOL     OW21844   2.144   0.565  13.152  0.2855 -0.3191  0.3738
 3461SOL    HW121845   2.159   0.550  13.245  2.3601  2.6503  0.4998
 3461SOL    HW221846   2.131   0.660  13.154 -0.3882 -0.4275  0.9774
 3462SOL     OW21847   0.179   4.690   3.740 -0.5684 -0.1376 -0.0604
 3462SOL    HW121848   0.233   0.003   3.808 -2.5372 -0.0165  1.4282
 3462SOL    HW221849   0.163   4.602   3.773  0.4033 -0.6359 -0.9311
 3463SOL     OW21850   4.416   4.524   4.712 -0.5405  0.3527 -0.0688
 3463SOL    HW121851   4.372   4.595   4.758 -0.0852 -1.1019  2.5916
 3463SOL    HW221852   4.482   4.576   4.667  0.5551 -0.7175  0.2961
 3464SOL     OW21853   3.544   4.581   6.041 -0.5509  0.1576 -0.4902
 3464SOL    HW121854   3.471   4.553   5.986  0.6173 -1.9761 -0.9264
 3464SOL    HW221855   3.606   4.534   5.986  0.6886  0.9933  0.2009
 3465SOL     OW21856   1.704   4.254   7.840  0.1503 -0.1035 -0.0651
 3465SOL    HW121857   1.730   4.238   7.749 -0.1097  4.1853 -0.8830
 3465SOL    HW221858   1.618   4.294   7.830  1.2406  2.2407 -0.0950
 3466SOL     OW21859   1.517   4.318   6.953  0.0125 -0.4181  0.5098
 3466SOL    HW121860   1.599   4.312   6.903 -0.4448 -0.5110 -0.2420
 3466SOL    HW221861   1.476   4.231   6.948  1.8220 -1.3498  1.7604
 3467SOL     OW21862   1.261   4.479   3.942 -0.1583 -0.2651  0.0655
 3467SOL    HW121863   1.192   4.416   3.927  0.9455 -1.2606 -0.8360
 3467SOL    HW221864   1.206   4.558   3.937 -0.9774 -0.9006 -0.8386
 3468SOL     OW21865   2.542   4.678   6.028 -0.4282 -0.3413  0.3604
 3468SOL    HW121866   2.597   0.024   6.060  1.3949 -1.7439  0.3852
 3468SOL    HW221867   2.463   0.002   6.052 -0.7152 -1.5051  1.8447
 3469SOL     OW21868   1.683   1.598  12.885  0.2779  0.0363 -0.1901
 3469SOL    HW121869   1.755   1.546  12.919  0.3995 -0.1684 -0.7546
 3469SOL    HW221870   1.625   1.524  12.865  0.0665  0.6603 -1.8432
 3470SOL     OW21871   3.386   0.204   3.284  0.7502  0.3114 -0.0318
 3470SOL    HW121872   3.411   0.132   3.341  1.3984  1.9730  1.7907
 3470SOL    HW221873   3.303   0.237   3.317  0.2189  0.1041 -1.1618
 3471SOL     OW21874   3.120   2.366   3.412  0.6365  0.9463 -0.1484
 3471SOL    HW121875   3.185   2.392   3.477 -0.8038 -0.2101  1.7276
 3471SOL    HW221876   3.094   2.279   3.442  3.9545 -0.0639 -0.2043
 3472SOL     OW21877   1.220   0.612  11.581  0.1824  0.3909  0.6891
 3472SOL    HW121878   1.313   0.634  11.579 -0.0209  1.2578  0.5575
 3472SOL    HW221879   1.215   0.541  11.517  1.2696 -0.0460  1.0853
 3473SOL     OW21880   3.993   2.648  12.976  0.2677  0.1584  0.6770
 3473SOL    HW121881   4.071   2.600  13.004  1.2047  0.6166 -1.1565
 3473SOL    HW221882   3.925   2.585  13.002 -1.1479  1.8968  1.2233
 3474SOL     OW21883   1.179   4.173   4.291  0.4255 -0.3101 -0.0738
 3474SOL    HW121884   1.162   4.137   4.204  3.1643 -2.7425  0.4019
 3474SOL    HW221885   1.136   4.115   4.354  0.4311 -0.2805 -0.0426
 3475SOL     OW21886   2.732   0.771  10.391 -0.1462  0.3561 -0.3029
 3475SOL    HW121887   2.763   0.779  10.301 -0.4514  2.6264 -0.2156
 3475SOL    HW221888   2.793   0.703  10.419 -0.8845  1.0829  3.1133
 3476SOL     OW21889   4.414   3.849   3.020 -0.3758 -0.5483 -0.1605
 3476SOL    HW121890   4.377   3.761   3.014  0.3089 -0.9025  0.7820
 3476SOL    HW221891   4.358   3.895   3.082  0.5880 -0.1098  0.3876
 3477SOL     OW21892   3.553   0.524   1.622 -0.1437 -0.2675  0.3761
 3477SOL    HW121893   3.479   0.556   1.674 -1.4164 -0.4955 -1.2840
 3477SOL    HW221894   3.596   0.468   1.687 -0.4116  0.2158  0.9681
 3478SOL     OW21895   1.631   1.944   9.322 -0.3659 -0.6682  0.0977
 3478SOL    HW121896   1.705   1.929   9.380  0.0552 -0.2682 -0.3335
 3478SOL    HW221897   1.586   2.020   9.360 -1.0792 -2.7184  3.2911
 3479SOL     OW21898   3.874   4.130   8.980  0.1202  0.3141  0.0317
 3479SOL    HW121899   3.784   4.161   8.977  0.0842  0.1038 -1.0621
 3479SOL    HW221900   3.890   4.114   9.074 -0.7685  0.8586  0.2764
 3480SOL     OW21901   1.275   2.179   5.241  0.2685  0.3774  0.0035
 3480SOL    HW121902   1.210   2.161   5.309  0.3885 -0.5769 -0.1374
 3480SOL    HW221903   1.352   2.158   5.294 -0.0372  0.2381  0.3906
 3481SOL     OW21904   3.230   1.601   8.929  0.5199 -0.4363  0.3835
 3481SOL    HW121905   3.314   1.646   8.920  0.2290  0.5840  2.7324
 3481SOL    HW221906   3.193   1.661   8.993 -0.4979 -2.6901  1.9079
 3482SOL     OW21907   4.661   4.104   4.239 -0.0652  0.1721 -0.2255
 3482SOL    HW121908   0.005   4.041   4.221 -1.5856 -0.9750 -2.0266
 3482SOL    HW221909   4.676   4.157   4.160 -0.7732 -0.3382 -0.7052
 3483SOL     OW21910   2.153   3.056   0.742 -0.4999 -0.8527 -0.4000
 3483SOL    HW121911   2.172   3.148   0.762 -2.7583 -0.8724  1.8749
 3483SOL    HW221912   2.233   3.020   0.704 -2.4697 -2.7630 -2.7171
 3484SOL     OW21913   1.479   0.762   9.253  0.1375 -0.2303 -0.0749
 3484SOL    HW121914   1.479   0.821   9.328 -2.0230  0.6108 -0.7327
 3484SOL    HW221915   1.508   0.822   9.185 -2.4862  1.8295  0.6203
 3485SOL     OW21916   1.648   4.698   7.304 -0.5594 -0.0261 -0.5466
 3485SOL    HW121917   1.618   4.644   7.377  0.7139  0.2494  0.1629
 3485SOL    HW221918   1.734   0.002   7.331 -0.3006 -0.3090 -1.0572
 3486SOL     OW21919   4.525   0.439   1.173 -0.0730  0.6735  0.6528
 3486SOL    HW121920   4.469   0.443   1.095 -1.1159  1.7144  1.4630
 3486SOL    HW221921   4.612   0.437   1.132  0.0256 -1.0111  0.9621
 3487SOL     OW21922   2.443   0.296   7.754 -0.5467 -0.4347 -0.4007
 3487SOL    HW121923   2.433   0.235   7.827  3.3108  1.1700  1.4457
 3487SOL    HW221924   2.518   0.255   7.710 -1.3657 -2.2859 -0.1057
 3488SOL     OW21925   2.429   0.784   1.467 -0.3019 -0.0837  0.1790
 3488SOL    HW121926   2.417   0.836   1.546  0.4846 -1.2272  1.0404
 3488SOL    HW221927   2.346   0.737   1.466 -0.1561 -0.2875 -2.5324
 3489SOL     OW21928   0.094   1.257   0.450 -0.1015 -0.4291  0.0098
 3489SOL    HW121929   0.118   1.180   0.398 -1.3023 -0.7938 -0.0136
 3489SOL    HW221930   0.168   1.263   0.510  0.3335 -0.0195 -0.5753
 3490SOL     OW21931   3.184   0.399   5.409  0.6478  0.5323 -0.4203
 3490SOL    HW121932   3.262   0.412   5.463  0.4646 -1.4107  0.3403
 3490SOL    HW221933   3.162   0.308   5.432  1.3060  0.9923  2.0356
 3491SOL     OW21934   2.528   4.370   5.350  0.0442 -0.1355  0.3692
 3491SOL    HW121935   2.561   4.450   5.310 -0.5970  0.1822  0.4810
 3491SOL    HW221936   2.539   4.395   5.442  1.0976  0.8393 -0.0212
 3492SOL     OW21937   3.417   3.099   7.193  0.4821 -0.2090  0.2861
 3492SOL    HW121938   3.487   3.152   7.229  0.2598  1.0143 -1.0827
 3492SOL    HW221939   3.352   3.162   7.161 -0.3008 -0.7691  0.7652
 3493SOL     OW21940   0.557   3.903   2.308 -0.1934  0.0301  0.9134
 3493SOL    HW121941   0.649   3.884   2.325  0.2545  0.1296 -1.4223
 3493SOL    HW221942   0.513   3.828   2.350  2.3760 -1.0982  1.5665
 3494SOL     OW21943   2.405   0.097   5.492  0.4283 -0.3618  0.2800
 3494SOL    HW121944   2.361   0.108   5.408 -0.4700  0.7282  0.8937
 3494SOL    HW221945   2.431   0.185   5.520  0.5555 -0.2660 -0.1341
 3495SOL     OW21946   0.307   2.037   2.455  0.2728  0.0817  0.1233
 3495SOL    HW121947   0.348   1.954   2.433  1.4546  0.1506  2.0766
 3495SOL    HW221948   0.222   2.035   2.411  0.7311 -2.0427 -0.6423
 3496SOL     OW21949   2.006   0.218   5.238  0.2102 -0.0928 -0.1480
 3496SOL    HW121950   1.936   0.179   5.290 -1.4998 -0.1295 -2.4591
 3496SOL    HW221951   2.008   0.309   5.266 -0.9154 -0.9325  2.6190
 3497SOL     OW21952   3.805   3.576   8.464  0.3646  0.4153  0.3379
 3497SOL    HW121953   3.795   3.631   8.386 -0.3395  0.6322  0.5801
 3497SOL    HW221954   3.745   3.614   8.528 -2.0969 -0.2305 -1.5898
 3498SOL     OW21955   3.201   1.160   2.750  0.2641  0.1822  0.2758
 3498SOL    HW121956   3.295   1.163   2.769  0.1851 -1.3589  0.8876
 3498SOL    HW221957   3.183   1.232   2.689 -0.3370  0.8897  1.2883
 3499SOL     OW21958   1.288   0.427   2.710  0.4271 -0.4734 -0.3057
 3499SOL    HW121959   1.354   0.381   2.658  0.9548  0.7668 -0.7326
 3499SOL    HW221960   1.346   0.479   2.765  0.2027 -0.0463 -0.4652
 3500SOL     OW21961   4.188   3.578   0.523 -0.4424 -0.3652 -0.0607
 3500SOL    HW121962   4.235   3.495   0.531 -3.1801 -2.0761 -1.7701
 3500SOL    HW221963   4.104   3.538   0.501 -0.6721 -1.1108  2.1428
 3501SOL     OW21964   4.714   1.301   2.378  0.0333 -0.8198 -0.0217
 3501SOL    HW121965   4.629   1.345   2.367  1.2662  1.8790  1.1204
 3501SOL    HW221966   4.715   1.275   2.470  0.6648  0.8618  0.4512
 3502SOL     OW21967   2.002   1.185   8.484 -0.2081 -0.1241 -0.1461
 3502SOL    HW121968   2.096   1.168   8.483  0.0370  1.0473  1.3011
 3502SOL    HW221969   1.988   1.246   8.412 -0.2864 -1.6033 -1.3835
 3503SOL     OW21970   1.492   2.016   5.987  0.2386 -0.0898  0.3628
 3503SOL    HW121971   1.503   1.935   6.036  0.0035 -1.8496 -2.4951
 3503SOL    HW221972   1.524   2.075   6.055  0.6026  0.4960 -0.3261
 3504SOL     OW21973   2.286   4.661   8.694  1.0711 -0.0804 -0.1439
 3504SOL    HW121974   2.357   4.629   8.750  2.3667  2.5529 -0.2318
 3504SOL    HW221975   2.263   0.022   8.728  2.4408  0.1201  0.2618
 3505SOL     OW21976   0.094   0.063   6.212 -0.1298  0.4798 -0.4288
 3505SOL    HW121977   0.001   0.040   6.206 -0.3902  1.1591  0.9613
 3505SOL    HW221978   0.089   0.116   6.291  1.2285 -0.7692  0.4963
 3506SOL     OW21979   3.599   0.238   3.656  0.2851  0.0321 -0.0147
 3506SOL    HW121980   3.649   0.200   3.583  1.0614 -1.6641  1.3946
 3506SOL    HW221981   3.557   0.316   3.620 -0.6327 -0.1997  0.5581
 3507SOL     OW21982   2.552   1.681   4.497 -0.0437 -0.2522 -0.5519
 3507SOL    HW121983   2.576   1.622   4.426 -2.6038 -0.3677 -1.3245
 3507SOL    HW221984   2.476   1.638   4.536  1.1642 -0.2274  1.8163
 3508SOL     OW21985   3.578   2.396   3.013  0.5276  0.2665 -0.0855
 3508SOL    HW121986   3.531   2.474   3.045 -1.7564 -1.9917  2.0753
 3508SOL    HW221987   3.515   2.354   2.954  0.1905 -1.0940  1.2700
 3509SOL     OW21988   3.739   4.072   3.455  0.4969  0.1634  0.1082
 3509SOL    HW121989   3.690   4.037   3.530 -0.8200 -1.2877 -1.4374
 3509SOL    HW221990   3.676   4.057   3.385  0.4258  1.2181 -0.0504
 3510SOL     OW21991   4.186   0.841  10.260  0.2725 -0.3118  0.0947
 3510SOL    HW121992   4.142   0.852  10.344 -0.0711 -1.6146  0.0779
 3510SOL    HW221993   4.271   0.815  10.295  0.0624  1.9791  2.3145
 3511SOL     OW21994   1.493   4.382   1.864  0.7198  0.3594  0.3360
 3511SOL    HW121995   1.494   4.432   1.782 -1.5134  0.8082  0.5672
 3511SOL    HW221996   1.582   4.391   1.896  1.8055 -2.8275 -1.7989
 3512SOL     OW21997   2.268   3.205   9.666 -0.1671 -0.0812  0.1606
 3512SOL    HW121998   2.317   3.223   9.585 -1.9228 -0.3092 -0.9484
 3512SOL    HW221999   2.315   3.128   9.697 -1.7534 -0.7454  0.8778
 3513SOL     OW22000   3.166   2.271   7.119 -0.7638 -0.0674  0.1046
 3513SOL    HW122001   3.151   2.332   7.047 -0.6643 -0.8670 -0.5866
 3513SOL    HW222002   3.120   2.192   7.091  0.6455 -0.2710 -1.6302
 3514SOL     OW22003   0.832   1.111   2.867 -0.0971  0.5079 -0.0318
 3514SOL    HW122004   0.918   1.135   2.901  0.1568  0.4943 -0.6487
 3514SOL    HW222005   0.851   1.103   2.773 -1.2701  0.3711 -0.2554
 3515SOL     OW22006   1.991   1.260   7.995  0.4596  0.7329 -0.1359
 3515SOL    HW122007   1.954   1.236   7.910  1.1692 -2.1117  0.3623
 3515SOL    HW222008   2.009   1.167   8.013 -0.4920  0.9325  1.8996
 3516SOL     OW22009   3.854   4.292   7.549  0.1522  0.6575  0.3580
 3516SOL    HW122010   3.763   4.314   7.529  0.1545  1.4882  1.2711
 3516SOL    HW222011   3.855   4.248   7.634  1.0645 -2.2848 -1.1814
 3517SOL     OW22012   4.160   0.314   1.461  0.2413  0.0442  0.2765
 3517SOL    HW122013   4.236   0.292   1.409  1.1783  0.8195  1.3107
 3517SOL    HW222014   4.161   0.409   1.446 -2.3070  0.2716  1.3874
 3518SOL     OW22015   0.229   2.264   2.659 -0.5342  0.2861  0.0386
 3518SOL    HW122016   0.183   2.315   2.592  1.1262 -0.0334 -1.3318
 3518SOL    HW222017   0.178   2.185   2.677  0.6494 -0.9703 -2.0605
 3519SOL     OW22018   0.212   3.264   5.409 -0.3608  0.0797  0.8852
 3519SOL    HW122019   0.256   3.311   5.479 -0.9888  2.7779 -0.5436
 3519SOL    HW222020   0.226   3.333   5.344 -1.0755  0.4316  1.1014
 3520SOL     OW22021   3.826   1.875   7.032  0.1698 -0.4098  0.3098
 3520SOL    HW122022   3.748   1.880   7.086  0.4931  1.3460  0.6025
 3520SOL    HW222023   3.864   1.791   7.057  0.9052  0.7099  2.8715
 3521SOL     OW22024   4.109   1.052  11.488 -0.2843  0.0595  0.2207
 3521SOL    HW122025   4.038   1.069  11.550 -0.1340  2.0503 -0.1343
 3521SOL    HW222026   4.128   0.959  11.498  1.7745  0.5179  0.5702
 3522SOL     OW22027   0.909   3.709   6.675 -0.3070 -0.0612 -0.0483
 3522SOL    HW122028   0.873   3.729   6.761 -0.7001 -1.6215  0.1533
 3522SOL    HW222029   0.999   3.681   6.692 -0.5082 -2.3126 -2.6681
 3523SOL     OW22030   0.656   0.501   8.436 -0.0788 -0.0911  0.1017
 3523SOL    HW122031   0.669   0.458   8.520  0.2835  2.4462  1.3467
 3523SOL    HW222032   0.716   0.576   8.434 -0.8103  0.4827 -0.3257
 3524SOL     OW22033   1.676   1.321  16.893 -0.5557  0.1545 -0.3869
 3524SOL    HW122034   1.615   1.380  16.939  0.2068  0.9418 -0.3837
 3524SOL    HW222035   1.615   1.285  16.829  0.0874  0.0416 -0.9304
 3525SOL     OW22036   4.022   3.605   7.893 -0.0518  0.4963 -0.2522
 3525SOL    HW122037   4.044   3.544   7.963  0.8977 -0.9554 -1.8132
 3525SOL    HW222038   4.009   3.569   7.805 -1.2464 -0.4612  0.3180
 3526SOL     OW22039   2.115   3.611   5.734  0.6003 -0.2583  0.4623
 3526SOL    HW122040   2.156   3.619   5.648 -0.3358 -0.8939 -0.0389
 3526SOL    HW222041   2.026   3.647   5.733  0.8821  0.3593 -1.5268
 3527SOL     OW22042   1.293   2.162   6.220 -0.0123  0.7890 -0.3935
 3527SOL    HW122043   1.343   2.225   6.272  1.6271 -1.9709  1.3728
 3527SOL    HW222044   1.308   2.200   6.134 -0.1428  0.2933 -0.6364
 3528SOL     OW22045   1.847   0.849   6.037  0.4169  0.0083  0.5749
 3528SOL    HW122046   1.817   0.902   6.111 -0.5630  0.9669 -0.5251
 3528SOL    HW222047   1.884   0.770   6.079 -1.1579 -0.8443  0.3333
 3529SOL     OW22048   3.887   0.110   9.071 -0.5319  0.3799 -0.0228
 3529SOL    HW122049   3.917   0.192   9.109 -0.5859  0.5693 -0.3992
 3529SOL    HW222050   3.795   0.120   9.093 -0.5523  0.0552  0.0414
 3530SOL     OW22051   0.805   0.270  17.356  0.2815  0.0393  0.6109
 3530SOL    HW122052   0.804   0.268  17.260  0.7229 -2.0450  0.6480
 3530SOL    HW222053   0.895   0.295  17.376  0.5468 -0.5372  0.1374
 3531SOL     OW22054   0.606   3.397  16.856  0.5692  0.0580  0.2514
 3531SOL    HW122055   0.532   3.457  16.852 -0.4446 -1.0985  1.5935
 3531SOL    HW222056   0.626   3.384  16.763  1.2553  0.5871  0.3276
 3532SOL     OW22057   0.454   1.305  10.349  0.1652 -0.1889 -0.1107
 3532SOL    HW122058   0.457   1.220  10.393  0.3244 -1.3168 -2.3086
 3532SOL    HW222059   0.368   1.305  10.307  0.7332  0.3857 -1.3014
 3533SOL     OW22060   0.846   0.358   3.461  0.4040  0.6112  0.2955
 3533SOL    HW122061   0.867   0.417   3.389 -1.7749 -1.3713 -1.9648
 3533SOL    HW222062   0.882   0.275   3.430  0.8448  0.9539 -0.1058
 3534SOL     OW22063   1.387   1.512   2.512 -0.0199  0.0146 -0.2065
 3534SOL    HW122064   1.464   1.550   2.554 -1.3799 -0.5365  2.7738
 3534SOL    HW222065   1.411   1.422   2.488 -1.5859 -0.6023  0.5298
 3535SOL     OW22066   2.328   0.454   3.981  0.4136 -0.6639 -0.5323
 3535SOL    HW122067   2.376   0.502   4.048  0.1787 -0.2822 -0.6353
 3535SOL    HW222068   2.304   0.372   4.023 -2.3696 -0.0545 -0.9223
 3536SOL     OW22069   1.595   0.073   4.355 -0.4950  0.4739 -0.5597
 3536SOL    HW122070   1.624   0.008   4.292 -0.7385  1.3564 -1.5880
 3536SOL    HW222071   1.566   0.140   4.292 -1.9536 -1.2140 -1.6802
 3537SOL     OW22072   3.429   0.978  12.132  0.4130 -0.6845  0.0776
 3537SOL    HW122073   3.514   0.933  12.136  0.0323 -1.3858  0.2262
 3537SOL    HW222074   3.429   1.009  12.223  3.1993  0.7707 -0.4163
 3538SOL     OW22075   0.372   3.935   0.808 -0.1681 -0.1355 -0.3830
 3538SOL    HW122076   0.341   4.024   0.793  0.4380  0.2007  0.3220
 3538SOL    HW222077   0.317   3.907   0.881  1.0346  0.2645  0.6803
 3539SOL     OW22078   3.529   0.757   9.537  0.0376  0.0805  0.4871
 3539SOL    HW122079   3.610   0.808   9.540 -0.5387  1.0089  0.2998
 3539SOL    HW222080   3.545   0.707   9.457  0.7638  0.7995  0.1844
 3540SOL     OW22081   0.128   1.627   4.275  0.3406 -0.2761 -0.1638
 3540SOL    HW122082   0.132   1.598   4.184  0.3491  0.4906 -0.4068
 3540SOL    HW222083   0.190   1.580   4.331  0.3898 -1.3509 -1.1216
 3541SOL     OW22084   3.959   0.558   5.175 -0.6475  0.2508  0.1324
 3541SOL    HW122085   3.864   0.563   5.161 -0.1150  3.1103 -2.4889
 3541SOL    HW222086   3.981   0.650   5.163  0.1040  0.0202 -0.2777
 3542SOL     OW22087   1.332   3.723   5.422 -0.3859  0.2890 -1.0786
 3542SOL    HW122088   1.413   3.685   5.387  1.0125  1.4097  0.9027
 3542SOL    HW222089   1.264   3.656   5.422  0.5492 -0.6597 -0.3667
 3543SOL     OW22090   3.876   2.031   3.918  0.1187  0.0781 -0.0100
 3543SOL    HW122091   3.965   2.064   3.932 -0.6361  1.9542  0.4032
 3543SOL    HW222092   3.869   1.966   3.988 -0.9936  1.7147  1.3652
 3544SOL     OW22093   3.048   1.727   3.266 -0.3787 -0.7160  0.5704
 3544SOL    HW122094   3.005   1.767   3.190 -0.7907 -2.2292  0.0206
 3544SOL    HW222095   3.099   1.801   3.300  0.0029  0.1544 -1.8904
 3545SOL     OW22096   4.639   4.196  16.962 -0.5109 -0.3134  0.0454
 3545SOL    HW122097   4.644   4.288  16.987 -1.8583  0.0112 -0.8494
 3545SOL    HW222098   4.559   4.168  17.007 -0.1863 -1.6673 -0.2175
 3546SOL     OW22099   0.802   2.900   3.862 -0.1883 -0.3516  0.2858
 3546SOL    HW122100   0.882   2.910   3.810 -0.9750 -0.7447 -0.9942
 3546SOL    HW222101   0.800   2.990   3.895  1.0909  0.0275 -0.6805
 3547SOL     OW22102   4.645   3.572   3.116 -0.2613  0.1238 -0.3783
 3547SOL    HW122103   4.604   3.516   3.182 -0.4579  0.9946  0.2396
 3547SOL    HW222104   0.010   3.577   3.145 -0.8098  1.4099  1.1313
 3548SOL     OW22105   2.466   0.549   1.719 -0.1019  0.4474  0.1710
 3548SOL    HW122106   2.515   0.603   1.781 -1.7514  2.2846 -0.1262
 3548SOL    HW222107   2.385   0.597   1.701  0.3533  1.4087  0.6756
 3549SOL     OW22108   0.110   4.684   2.781 -0.3951 -0.7009 -0.2042
 3549SOL    HW122109   0.102   0.042   2.735  0.6145 -1.9463 -2.6287
 3549SOL    HW222110   0.201   4.656   2.777  0.1638  0.7228  2.5973
 3550SOL     OW22111   3.656   2.898   4.631  0.4123  0.4527 -0.4455
 3550SOL    HW122112   3.587   2.841   4.597 -0.9039  1.2546  0.8672
 3550SOL    HW222113   3.622   2.939   4.711  3.3052 -0.0365  1.0411
 3551SOL     OW22114   3.273   2.977   8.477 -0.6647  0.3860  0.1568
 3551SOL    HW122115   3.347   2.991   8.419  1.3345 -0.4642  2.4894
 3551SOL    HW222116   3.234   3.064   8.467 -0.1518  0.7428  1.2705
 3552SOL     OW22117   2.903   4.502   4.555 -0.0439  0.0250 -0.0840
 3552SOL    HW122118   2.940   4.542   4.477 -1.2336  0.2078 -0.5608
 3552SOL    HW222119   2.968   4.437   4.583 -0.6645 -0.5188  0.0998
 3553SOL     OW22120   2.926   2.111  14.510 -0.0703  0.0161 -0.0503
 3553SOL    HW122121   2.937   2.026  14.552 -0.0413  0.0912  0.0951
 3553SOL    HW222122   2.957   2.164  14.584 -1.2095 -2.0982  1.9374
 3554SOL     OW22123   0.097   2.580  15.020 -0.0759  0.4468  0.2507
 3554SOL    HW122124   0.099   2.489  15.049  0.7072 -0.4271 -2.5794
 3554SOL    HW222125   0.091   2.618  15.108 -2.0307 -0.2797  0.4202
 3555SOL     OW22126   2.822   3.758  10.613 -0.5613 -0.7301  0.0268
 3555SOL    HW122127   2.896   3.789  10.561 -0.9279 -0.1370 -0.1512
 3555SOL    HW222128   2.768   3.838  10.617  0.4396 -0.1310  1.4688
 3556SOL     OW22129   0.978   4.302   2.010 -0.0098  0.2104  0.0129
 3556SOL    HW122130   1.069   4.284   1.989 -0.3910 -0.9489 -0.6143
 3556SOL    HW222131   0.974   4.381   1.956 -1.0303  0.4320  0.3976
 3557SOL     OW22132   3.701   3.405   4.944 -0.6189  0.2313 -0.3853
 3557SOL    HW122133   3.785   3.375   4.909 -0.6212 -0.3167  0.0732
 3557SOL    HW222134   3.724   3.497   4.962  0.3884  0.0769 -0.8889
 3558SOL     OW22135   1.544   1.681   9.299  0.1868  0.7991  0.2297
 3558SOL    HW122136   1.556   1.775   9.309  1.6278  0.8295 -1.7225
 3558SOL    HW222137   1.592   1.661   9.219  1.0186  0.4496  0.8097
 3559SOL     OW22138   4.590   2.703   2.421 -0.4266  0.1694  0.1833
 3559SOL    HW122139   4.642   2.783   2.438  0.7401 -0.6019  0.2407
 3559SOL    HW222140   4.512   2.747   2.387 -2.2380 -2.0514  1.5353
 3560SOL     OW22141   2.630   4.428   5.037 -0.0326  0.4403 -0.0347
 3560SOL    HW122142   2.661   4.338   5.038  0.3001  0.5624  0.5375
 3560SOL    HW222143   2.683   4.468   5.106  0.0858  2.2712 -1.1723
 3561SOL     OW22144   4.590   0.442   4.977 -0.1298  0.0618  0.0020
 3561SOL    HW122145   4.615   0.375   5.041  0.7232  0.9808  0.6169
 3561SOL    HW222146   4.605   0.516   5.035  0.7998  0.0582 -0.2319
 3562SOL     OW22147   3.466   2.295   6.549 -0.2556  0.5415  0.0176
 3562SOL    HW122148   3.513   2.358   6.605 -0.8294  0.8470  0.1599
 3562SOL    HW222149   3.506   2.211   6.571 -3.0254 -0.6040  0.7505
 3563SOL     OW22150   2.572   0.921   6.595  0.0530  0.1259 -0.4761
 3563SOL    HW122151   2.634   0.937   6.523 -1.6711 -0.5681 -2.1179
 3563SOL    HW222152   2.522   0.843   6.571 -0.7276  0.3173  0.5366
 3564SOL     OW22153   3.185   2.018   7.348 -0.3564 -0.0351 -0.2081
 3564SOL    HW122154   3.266   1.993   7.392 -1.0470  0.7613  1.5208
 3564SOL    HW222155   3.184   2.110   7.374  0.7050  0.0648 -0.5047
 3565SOL     OW22156   3.763   0.464   3.199 -0.2269 -0.1980  0.3880
 3565SOL    HW122157   3.796   0.396   3.259  3.0015 -0.1310 -1.3123
 3565SOL    HW222158   3.676   0.427   3.189  0.6756 -2.3137  0.3609
 3566SOL     OW22159   3.897   0.095   8.799  0.2518 -0.3088  0.3524
 3566SOL    HW122160   3.895   0.076   8.892  0.6296 -0.1887  0.3854
 3566SOL    HW222161   3.815   0.054   8.770  1.1710 -0.9048 -1.4118
 3567SOL     OW22162   3.546   0.100   4.461  0.0856  0.0195  0.5877
 3567SOL    HW122163   3.542   0.041   4.536 -1.1669 -0.3001  0.2680
 3567SOL    HW222164   3.528   0.047   4.384  0.6989  0.0569  0.4223
 3568SOL     OW22165   0.153   1.825  14.016 -0.4955 -0.3506 -0.3778
 3568SOL    HW122166   0.086   1.787  13.960 -0.5069  0.6897 -1.0489
 3568SOL    HW222167   0.101   1.876  14.078  2.8879  1.2898  1.1175
 3569SOL     OW22168   2.974   0.218   5.855  0.1985 -0.0756  0.3937
 3569SOL    HW122169   2.935   0.265   5.928 -0.9594 -1.4989  0.6923
 3569SOL    HW222170   2.901   0.177   5.809 -0.5497 -0.0095  1.5009
 3570SOL     OW22171   4.002   0.254   8.054 -0.2396 -0.2255  0.0481
 3570SOL    HW122172   3.998   0.349   8.060  0.6904 -0.1882  0.1440
 3570SOL    HW222173   4.068   0.241   8.122  1.8605  2.2046 -1.5047
 3571SOL     OW22174   0.438   4.454   1.280  0.2731  0.1511  0.0565
 3571SOL    HW122175   0.343   4.447   1.292 -0.1505  1.4874 -2.6067
 3571SOL    HW222176   0.453   4.482   1.370  1.0242  0.1925 -0.0776
 3572SOL     OW22177   0.916   4.601   3.535  0.2339  0.5702 -0.0681
 3572SOL    HW122178   0.964   4.519   3.532 -3.1693 -1.3006 -3.1202
 3572SOL    HW222179   0.862   4.581   3.612 -0.8030  2.4355 -0.3034
 3573SOL     OW22180   0.662   1.751  11.743 -0.2692  0.1773  0.1387
 3573SOL    HW122181   0.610   1.712  11.673 -0.6596 -0.8442  1.0061
 3573SOL    HW222182   0.708   1.823  11.699 -2.4096  2.1601  1.1673
 3574SOL     OW22183   0.442   0.162  14.614  0.2216  0.0224 -0.8829
 3574SOL    HW122184   0.489   0.087  14.576  0.7314 -0.4129  0.6118
 3574SOL    HW222185   0.372   0.123  14.665 -0.1935  0.0515 -1.4290
 3575SOL     OW22186   1.540   1.409  10.623 -0.4321  0.1713  0.3062
 3575SOL    HW122187   1.506   1.319  10.620  0.4493 -0.1084 -1.2305
 3575SOL    HW222188   1.463   1.466  10.625 -2.2741 -2.2707 -1.3945
 3576SOL     OW22189   3.374   0.758   2.008 -0.1337  0.0161  0.3211
 3576SOL    HW122190   3.281   0.751   2.031 -0.0568 -2.4289 -0.2000
 3576SOL    HW222191   3.401   0.828   2.068 -1.8128 -0.1464  1.2627
 3577SOL     OW22192   3.441   4.665   7.624  0.0264 -0.0669 -0.3968
 3577SOL    HW122193   3.420   0.032   7.628 -0.8456 -0.1942 -2.1176
 3577SOL    HW222194   3.352   4.635   7.608  0.0034 -1.0398  1.5526
 3578SOL     OW22195   1.580   2.426  14.970  0.6794 -0.6525 -0.1582
 3578SOL    HW122196   1.652   2.483  14.944 -0.6148  1.5230  0.9965
 3578SOL    HW222197   1.575   2.459  15.060  0.4997  1.5955 -1.0029
 3579SOL     OW22198   1.160   0.775   7.313  0.3863  0.1692  0.1100
 3579SOL    HW122199   1.158   0.860   7.268  0.2767 -0.2810 -0.7263
 3579SOL    HW222200   1.132   0.712   7.246  0.7590 -0.1956  0.2950
 3580SOL     OW22201   0.101   3.957  15.276  0.3612 -0.0882  0.2730
 3580SOL    HW122202   0.193   3.967  15.300 -0.0303  3.2131  0.3858
 3580SOL    HW222203   0.083   4.040  15.231 -0.3952 -1.5077 -2.0885
 3581SOL     OW22204   1.516   2.172   2.887 -0.5698 -0.0385  0.3508
 3581SOL    HW122205   1.524   2.124   2.969 -0.6019 -0.0056  0.3731
 3581SOL    HW222206   1.437   2.142   2.842  0.4362  0.1546 -1.5560
 3582SOL     OW22207   3.998   1.191   2.499  0.5962  0.2039 -0.4911
 3582SOL    HW122208   4.090   1.186   2.526  1.2083 -1.0946 -2.7706
 3582SOL    HW222209   3.987   1.282   2.473  0.1262 -0.5203 -2.8694
 3583SOL     OW22210   2.408   3.125   0.096 -0.1222 -0.0456  0.3850
 3583SOL    HW122211   2.418   3.207   0.046 -1.5202  1.2033  2.1795
 3583SOL    HW222212   2.481   3.132   0.158  1.5635  0.6959 -1.6666
 3584SOL     OW22213   3.679   1.634   3.876 -0.0465  0.7455  0.1750
 3584SOL    HW122214   3.622   1.709   3.894  2.2522  1.7296  3.4446
 3584SOL    HW222215   3.750   1.677   3.829  1.1712 -0.1236  1.2109
 3585SOL     OW22216   1.586   2.486   1.927 -0.2366  0.1668 -0.2905
 3585SOL    HW122217   1.553   2.418   1.987  0.5439  0.8252  0.8887
 3585SOL    HW222218   1.517   2.506   1.864  1.2270 -1.2297 -2.3251
 3586SOL     OW22219   1.905   3.841  11.171 -0.5282 -0.1075  0.0534
 3586SOL    HW122220   1.919   3.759  11.124  0.9114 -1.0153  2.0632
 3586SOL    HW222221   1.951   3.815  11.251  0.2250  0.0812 -0.3122
 3587SOL     OW22222   2.644   3.522   2.554 -0.5347  0.6295  0.5236
 3587SOL    HW122223   2.563   3.549   2.599 -1.7449  0.6567 -1.6368
 3587SOL    HW222224   2.633   3.559   2.466 -1.8206 -0.2600  0.3166
 3588SOL     OW22225   1.055   3.392   8.873 -0.5772 -0.5875  0.7836
 3588SOL    HW122226   1.120   3.445   8.919 -1.1908  1.2164 -0.4406
 3588SOL    HW222227   1.078   3.400   8.780  1.2702 -1.4514  1.1722
 3589SOL     OW22228   0.993   0.591   2.390 -0.3088 -0.0919 -0.6401
 3589SOL    HW122229   0.940   0.536   2.332 -0.4378  0.8565 -1.4135
 3589SOL    HW222230   1.024   0.527   2.454 -1.5302  0.2700  0.3061
 3590SOL     OW22231   1.598   2.789   0.399  0.9823  1.1409  0.6608
 3590SOL    HW122232   1.536   2.841   0.349  2.6186  1.8898 -0.5764
 3590SOL    HW222233   1.647   2.858   0.443  0.8145  2.9421 -1.9856
 3591SOL     OW22234   3.270   0.379   3.672  0.1707 -0.3956 -0.3343
 3591SOL    HW122235   3.290   0.355   3.763  2.1824  1.7981 -0.1821
 3591SOL    HW222236   3.303   0.301   3.628 -1.6573 -0.9486 -0.6798
 3592SOL     OW22237   4.390   4.404   7.742 -0.4229 -0.2048 -0.5412
 3592SOL    HW122238   4.304   4.410   7.702 -0.9129  1.1493  0.7323
 3592SOL    HW222239   4.444   4.399   7.663  2.3360 -0.2986  1.3176
 3593SOL     OW22240   2.098   3.460   3.009 -0.3407  0.1279 -0.1775
 3593SOL    HW122241   2.033   3.426   2.947 -1.1410  0.8999  0.2370
 3593SOL    HW222242   2.060   3.535   3.056  1.2971  1.2497 -0.6091
 3594SOL     OW22243   3.032   0.076   5.076  0.8116 -0.3146  0.5584
 3594SOL    HW122244   2.996   0.144   5.020 -0.0413 -0.2772  1.1506
 3594SOL    HW222245   3.126   0.092   5.091  0.4830  1.9810  0.1718
 3595SOL     OW22246   1.642   1.202   0.086  0.5475 -0.0425 -0.3228
 3595SOL    HW122247   1.567   1.248   0.049  0.8442  0.1201 -0.7200
 3595SOL    HW222248   1.606   1.116   0.109 -1.4086  0.8065 -0.1569
 3596SOL     OW22249   2.809   3.352  15.434 -0.2903  0.2326 -0.4322
 3596SOL    HW122250   2.753   3.427  15.449  1.8421  1.7061  0.1278
 3596SOL    HW222251   2.734   3.296  15.413 -1.7944  2.5955 -1.2734
 3597SOL     OW22252   1.715   3.247   6.110 -0.2347 -0.1273 -0.1264
 3597SOL    HW122253   1.671   3.247   6.195 -0.5683  3.2780 -0.3210
 3597SOL    HW222254   1.647   3.262   6.045 -1.5490  0.5965  1.4291
 3598SOL     OW22255   4.720   3.984   2.719  0.6090 -0.6419  0.5810
 3598SOL    HW122256   4.695   4.044   2.790  0.6627  1.0475 -0.8470
 3598SOL    HW222257   4.689   3.897   2.745 -1.1799  0.0936  0.9770
 3599SOL     OW22258   0.783   1.657   4.659  0.3273 -0.1978  0.0234
 3599SOL    HW122259   0.706   1.618   4.619  0.6300 -1.7018  0.9330
 3599SOL    HW222260   0.749   1.711   4.731  0.2795 -0.8094  0.4525
 3600SOL     OW22261   4.300   1.313   2.829  0.0536 -0.1043 -0.0086
 3600SOL    HW122262   4.264   1.228   2.804 -0.0869 -0.0271 -0.0625
 3600SOL    HW222263   4.356   1.289   2.903  0.0073  0.5813  0.2539
 3601SOL     OW22264   2.869   4.663  10.537 -0.2942  0.2377 -0.8806
 3601SOL    HW122265   2.811   4.589  10.554 -0.5795  0.8793  0.9497
 3601SOL    HW222266   2.915   4.665  10.621 -0.1235  1.8402 -1.0120
 3602SOL     OW22267   0.875   2.594   2.609  0.0843 -0.0026  0.1473
 3602SOL    HW122268   0.940   2.527   2.629  0.4319  0.3282  0.1255
 3602SOL    HW222269   0.816   2.607   2.682  0.7863 -1.2628  0.9352
 3603SOL     OW22270   4.514   2.437  11.076 -0.4338  0.1201  0.1197
 3603SOL    HW122271   4.454   2.392  11.136  3.1039 -0.6491  3.0718
 3603SOL    HW222272   4.453   2.482  11.018 -2.0696 -3.9648 -1.3176
 3604SOL     OW22273   0.398   0.268  10.855 -0.9121 -0.2018 -0.3957
 3604SOL    HW122274   0.319   0.234  10.896 -1.4622  1.7820  0.1529
 3604SOL    HW222275   0.396   0.362  10.872  1.9010 -0.2821  0.3292
 3605SOL     OW22276   3.589   1.955   4.504  0.1331 -0.4458  0.2124
 3605SOL    HW122277   3.562   1.903   4.580  0.9019  2.3052  2.3779
 3605SOL    HW222278   3.505   1.991   4.477 -0.8138 -0.6639  2.8676
 3606SOL     OW22279   4.207   2.113   5.333  0.2466 -0.1179  0.0228
 3606SOL    HW122280   4.240   2.042   5.278 -0.9865 -2.4975  2.3858
 3606SOL    HW222281   4.119   2.077   5.348  0.2464  0.2011  0.8102
 3607SOL     OW22282   2.266   0.448  16.458 -0.6534  0.1639 -0.9541
 3607SOL    HW122283   2.191   0.425  16.514  0.3625  0.9420  0.7351
 3607SOL    HW222284   2.316   0.497  16.523  1.2048 -1.1747 -1.4110
 3608SOL     OW22285   4.405   4.609   8.682 -0.0926  0.2808 -1.0263
 3608SOL    HW122286   4.388   4.703   8.685 -1.6916  0.0021 -0.9103
 3608SOL    HW222287   4.416   4.592   8.776 -1.0199 -0.3806 -1.0285
 3609SOL     OW22288   3.804   2.788  14.976  0.1331 -0.1889 -0.3071
 3609SOL    HW122289   3.896   2.790  15.002 -0.2688  0.0453  1.0826
 3609SOL    HW222290   3.800   2.842  14.897  0.8258  0.7732  0.3124
 3610SOL     OW22291   4.550   3.236   3.574 -0.4600 -0.5814 -0.1220
 3610SOL    HW122292   4.526   3.304   3.512  1.2644 -0.0072 -0.1398
 3610SOL    HW222293   4.512   3.266   3.657 -0.2858 -3.6076  1.0515
 3611SOL     OW22294   1.439   2.232   4.415 -0.4257  0.1039 -0.1731
 3611SOL    HW122295   1.499   2.158   4.420  0.4496  0.8030 -0.4092
 3611SOL    HW222296   1.492   2.289   4.360  0.8105 -2.6239 -1.7745
 3612SOL     OW22297   0.085   3.443   3.992 -0.1107  0.3697 -0.1609
 3612SOL    HW122298   0.102   3.408   3.904  1.1341 -2.4025  1.1954
 3612SOL    HW222299   0.035   3.522   3.970  1.4853  0.9374 -1.8615
 3613SOL     OW22300   3.435   0.087   9.308  0.1142 -0.6055  0.2040
 3613SOL    HW122301   3.486   0.157   9.350 -1.8166  0.8687  0.0855
 3613SOL    HW222302   3.415   0.027   9.379 -0.3265  1.0713  1.5024
 3614SOL     OW22303   1.632   1.912   4.087 -0.1194  0.2990 -0.3728
 3614SOL    HW122304   1.661   1.821   4.090  0.5552  0.3207 -5.1477
 3614SOL    HW222305   1.551   1.918   4.137  0.0643 -1.7071  0.1702
 3615SOL     OW22306   1.738   1.557   7.919  0.3380 -0.1332  0.2223
 3615SOL    HW122307   1.833   1.541   7.915  0.6984  1.6073  1.6148
 3615SOL    HW222308   1.726   1.604   7.836  0.1540 -0.3483  0.1288
 3616SOL     OW22309   3.954   1.122  16.113  0.0025  0.3541 -0.1412
 3616SOL    HW122310   3.973   1.029  16.101 -0.3366  0.1657  0.8004
 3616SOL    HW222311   4.022   1.160  16.058  1.0137 -1.4921 -0.1765
 3617SOL     OW22312   0.075   4.415  16.558 -0.0511  0.5132 -0.1139
 3617SOL    HW122313   0.042   4.325  16.549  0.5858  0.4840 -2.2768
 3617SOL    HW222314   0.127   4.432  16.480 -0.2601  0.4608 -0.2662
 3618SOL     OW22315   4.230   1.667   1.459  0.6513 -0.2017 -0.3456
 3618SOL    HW122316   4.158   1.623   1.415  0.9204  1.1445 -2.1304
 3618SOL    HW222317   4.185   1.734   1.511  0.7799 -0.9933  0.7827
 3619SOL     OW22318   1.110   4.685  13.609  0.2098  0.5195  0.9899
 3619SOL    HW122319   1.167   4.689  13.685 -0.5547  0.8447  1.5464
 3619SOL    HW222320   1.024   4.693  13.651 -0.0911  0.4015  0.3985
 3620SOL     OW22321   3.461   3.331   6.041  0.3026  0.8330 -0.1349
 3620SOL    HW122322   3.386   3.370   5.996 -0.7266  0.7800  1.5366
 3620SOL    HW222323   3.496   3.289   5.963 -2.8533  0.5504 -1.3647
 3621SOL     OW22324   0.846   0.782   3.776  0.1551 -0.0345  0.2630
 3621SOL    HW122325   0.756   0.763   3.801 -0.3461  1.4690 -0.3869
 3621SOL    HW222326   0.867   0.691   3.757  0.2365 -0.3419  1.7938
 3622SOL     OW22327   1.098   3.501   2.536  0.1352 -0.0574 -0.0693
 3622SOL    HW122328   1.021   3.521   2.482 -1.7436 -1.1477  2.2194
 3622SOL    HW222329   1.167   3.553   2.494  1.7054 -0.7741  1.6499
 3623SOL     OW22330   0.165   4.642  16.039  0.0500 -0.2449  0.2994
 3623SOL    HW122331   0.074   4.630  16.066 -0.5774  2.6992 -0.4805
 3623SOL    HW222332   0.211   4.563  16.068  0.3219 -0.2442 -0.1405
 3624SOL     OW22333   3.911   3.022  17.603 -0.2922  0.1393 -0.5456
 3624SOL    HW122334   3.919   3.106  17.647  1.0396 -0.1185 -0.2940
 3624SOL    HW222335   3.985   2.982  17.650 -1.5703 -0.1252  1.2341
 3625SOL     OW22336   0.946   2.484   1.811 -0.2446 -0.4446 -0.0541
 3625SOL    HW122337   0.930   2.399   1.770  0.5711 -1.3989  1.6171
 3625SOL    HW222338   0.865   2.525   1.783 -0.6776 -0.7782  0.7132
 3626SOL     OW22339   4.501   0.254   1.832  0.1485 -0.2572  0.0472
 3626SOL    HW122340   4.498   0.336   1.880  1.8209 -0.2755  0.1871
 3626SOL    HW222341   4.445   0.198   1.886 -0.3520 -0.7519 -0.9758
 3627SOL     OW22342   3.120   0.888   6.593  0.9966 -0.3112  0.4336
 3627SOL    HW122343   3.205   0.928   6.575  0.4669 -0.0602 -1.4679
 3627SOL    HW222344   3.056   0.950   6.558  1.2976 -0.5358 -0.5121
 3628SOL     OW22345   2.951   3.436   3.759 -0.1986 -0.1017  0.5098
 3628SOL    HW122346   2.905   3.356   3.784  2.6049 -1.7098  0.5240
 3628SOL    HW222347   3.018   3.405   3.698  0.5414  0.7974  0.8726
 3629SOL     OW22348   1.894   3.798   7.960 -0.4056  0.2275 -0.5970
 3629SOL    HW122349   1.949   3.731   8.000 -1.2619  0.1235  0.3974
 3629SOL    HW222350   1.829   3.744   7.917  0.0367 -1.9523  1.5148
 3630SOL     OW22351   1.404   1.618   5.714  0.2513 -0.0990 -0.1978
 3630SOL    HW122352   1.499   1.630   5.709  0.2898 -0.4642 -0.3619
 3630SOL    HW222353   1.374   1.707   5.695  0.8496  0.2518  0.5278
 3631SOL     OW22354   0.969   1.872   4.887 -0.2693 -0.1325  0.4549
 3631SOL    HW122355   0.901   1.934   4.863  0.4016  1.1250  1.7516
 3631SOL    HW222356   0.922   1.811   4.943 -0.1732  0.3051  1.0186
 3632SOL     OW22357   1.001   3.190   1.434 -0.4324 -0.1765  0.5237
 3632SOL    HW122358   1.063   3.258   1.462 -1.2066  1.0930 -0.8515
 3632SOL    HW222359   0.999   3.149   1.521  0.0813  1.8574  1.4975
 3633SOL     OW22360   4.302   1.502   1.805  0.2222 -0.0063  0.6269
 3633SOL    HW122361   4.328   1.594   1.814  1.1259 -0.2346  0.3367
 3633SOL    HW222362   4.336   1.473   1.720 -0.0376 -1.8644  1.1637
 3634SOL     OW22363   2.364   1.818  12.264 -0.3777 -1.2091  0.2990
 3634SOL    HW122364   2.370   1.847  12.173 -0.9394  0.5140  0.8069
 3634SOL    HW222365   2.299   1.877  12.303  1.4239 -0.7857  2.6984
 3635SOL     OW22366   3.030   1.645   0.647 -0.0202 -0.1501  0.2791
 3635SOL    HW122367   3.032   1.616   0.556 -0.0144 -1.3502  0.6679
 3635SOL    HW222368   3.096   1.716   0.645 -0.0291 -0.2127 -1.9108
 3636SOL     OW22369   3.564   4.443  15.390  0.7102  0.3921 -0.1863
 3636SOL    HW122370   3.476   4.480  15.386 -0.2228 -1.8248 -0.3779
 3636SOL    HW222371   3.600   4.494  15.462 -0.2745  1.3526 -0.3706
 3637SOL     OW22372   3.391   2.455   7.429  0.2874  0.2842 -0.6507
 3637SOL    HW122373   3.386   2.421   7.339  2.0826 -1.7789  0.0266
 3637SOL    HW222374   3.480   2.491   7.433  0.2456  0.1633  1.2043
 3638SOL     OW22375   0.005   3.555   5.289 -0.1885  0.5233 -0.3134
 3638SOL    HW122376   4.697   3.474   5.326 -0.5540  0.3732 -0.9765
 3638SOL    HW222377   4.686   3.627   5.334 -0.5033 -0.1332  0.3994
 3639SOL     OW22378   1.303   3.923   6.598  0.7373 -0.3437 -0.4191
 3639SOL    HW122379   1.285   3.929   6.504  0.8474  2.3187 -0.2852
 3639SOL    HW222380   1.266   4.006   6.627  0.7835  0.4870 -2.7202
 3640SOL     OW22381   0.617   3.883  14.542  0.5758 -0.4235 -0.0895
 3640SOL    HW122382   0.611   3.948  14.471 -1.5054 -0.5286 -0.0274
 3640SOL    HW222383   0.709   3.873  14.566  1.2787  1.4855 -1.9445
 3641SOL     OW22384   1.168   2.447   5.359  0.3482  0.5701 -0.3867
 3641SOL    HW122385   1.150   2.452   5.453  1.4557 -3.5458  0.0146
 3641SOL    HW222386   1.093   2.395   5.329 -1.7940  2.0555  2.3691
 3642SOL     OW22387   0.463   1.229   8.746  0.0286 -0.0772  0.4040
 3642SOL    HW122388   0.559   1.229   8.747  0.0508 -2.4010 -2.4793
 3642SOL    HW222389   0.443   1.323   8.741 -2.0528 -0.5198  0.2653
 3643SOL     OW22390   2.693   1.739   7.768  0.7544 -0.1533  0.8267
 3643SOL    HW122391   2.702   1.699   7.854 -1.4242 -0.5079  0.8874
 3643SOL    HW222392   2.612   1.791   7.774  1.3457  0.9442 -0.6506
 3644SOL     OW22393   3.183   0.727  16.423 -0.3381 -0.3915  0.2078
 3644SOL    HW122394   3.242   0.802  16.421 -1.6526  0.6312 -0.6874
 3644SOL    HW222395   3.169   0.699  16.333 -1.2777 -1.2881  0.6343
 3645SOL     OW22396   0.793   1.388   0.661  0.6106 -0.2143  0.3604
 3645SOL    HW122397   0.733   1.461   0.647  0.0424 -0.0823  3.3809
 3645SOL    HW222398   0.814   1.403   0.753 -0.8448 -1.2409  0.8510
 3646SOL     OW22399   0.364   4.156   7.221  0.3952 -1.0263 -0.0679
 3646SOL    HW122400   0.456   4.133   7.208  0.5606 -1.6619  2.2990
 3646SOL    HW222401   0.318   4.078   7.190 -2.3764  0.1446  1.0348
 3647SOL     OW22402   4.014   4.162  12.476  0.0348  0.1198 -0.5616
 3647SOL    HW122403   3.935   4.211  12.498  0.0416 -0.8773  1.6912
 3647SOL    HW222404   4.020   4.114  12.559  0.3204  1.2397  0.0643
 3648SOL     OW22405   3.305   0.708   8.222 -0.2283 -0.0919 -0.2101
 3648SOL    HW122406   3.296   0.645   8.294  3.5298 -1.1037 -0.6352
 3648SOL    HW222407   3.300   0.791   8.268  1.3012 -0.5469  0.7754
 3649SOL     OW22408   4.182   3.426  11.303  0.0168 -0.2061 -0.4477
 3649SOL    HW122409   4.181   3.392  11.392  2.7823  0.1932 -0.2612
 3649SOL    HW222410   4.130   3.358  11.260 -0.1516 -0.2860 -0.1140
 3650SOL     OW22411   0.894   1.163   3.942 -1.3611  0.5147 -0.0298
 3650SOL    HW122412   0.896   1.143   3.849 -0.5685 -1.6317  0.4528
 3650SOL    HW222413   0.987   1.160   3.964 -1.1952 -1.0533 -0.9380
 3651SOL     OW22414   2.968   3.998   5.069  0.5936 -0.0300  0.0881
 3651SOL    HW122415   3.049   3.962   5.106 -0.0170  0.1014  1.5520
 3651SOL    HW222416   2.989   4.085   5.036 -3.4063  1.7938  2.3673
 3652SOL     OW22417   2.564   0.357   3.797  0.4965  0.7089  0.2024
 3652SOL    HW122418   2.534   0.448   3.799  2.5691  1.3296  3.5483
 3652SOL    HW222419   2.541   0.326   3.885  3.4981 -0.9319  0.4249
 3653SOL     OW22420   3.165   0.334   6.693 -0.2136  0.7527  0.6254
 3653SOL    HW122421   3.112   0.256   6.707 -1.3120  1.8919  2.7740
 3653SOL    HW222422   3.144   0.352   6.601  0.1514  0.3803  0.4711
 3654SOL     OW22423   0.075   4.495  17.335  0.3625  0.6696  0.7941
 3654SOL    HW122424   4.710   4.475  17.314  1.4457 -0.8107 -2.3896
 3654SOL    HW222425   0.082   4.491  17.431  1.6775  1.3763  0.7294
 3655SOL     OW22426   3.536   1.727  10.626 -0.0683 -0.3499 -0.0806
 3655SOL    HW122427   3.533   1.741  10.531 -2.0572 -0.4171 -0.0357
 3655SOL    HW222428   3.587   1.798  10.663  1.0790 -0.4308 -1.5096
 3656SOL     OW22429   1.521   2.117   5.365  0.0985  0.2489 -0.7519
 3656SOL    HW122430   1.593   2.125   5.427 -0.8339 -0.3996  0.3946
 3656SOL    HW222431   1.570   2.150   5.289 -0.9801  0.0858 -1.5158
 3657SOL     OW22432   1.295   3.121   9.086 -0.2760 -0.0219 -0.0203
 3657SOL    HW122433   1.203   3.142   9.075 -0.0833  0.3652 -0.8963
 3657SOL    HW222434   1.339   3.193   9.133 -0.2354 -0.1584  0.1538
 3658SOL     OW22435   3.149   0.612  15.876  0.0998 -0.2681  0.0842
 3658SOL    HW122436   3.102   0.529  15.875  0.4979 -0.4990  0.7195
 3658SOL    HW222437   3.106   0.658  15.804  1.0679 -1.7417 -1.4276
 3659SOL     OW22438   0.975   1.205   9.345 -0.0172 -0.5629 -0.1364
 3659SOL    HW122439   1.037   1.261   9.297 -0.9210  0.4443 -0.1254
 3659SOL    HW222440   0.893   1.214   9.298 -1.5353  2.3334  3.0432
 3660SOL     OW22441   0.868   2.643  14.720 -0.0277 -0.1787 -0.5366
 3660SOL    HW122442   0.848   2.653  14.813 -1.9823 -0.1465 -0.9674
 3660SOL    HW222443   0.960   2.668  14.710  0.4302 -0.3784  3.0991
 3661SOL     OW22444   1.549   1.616   2.285  0.1108 -0.2803  0.2359
 3661SOL    HW122445   1.612   1.658   2.344  0.9762  1.0648 -1.6462
 3661SOL    HW222446   1.481   1.600   2.350 -0.1289 -1.4280 -0.2996
 3662SOL     OW22447   0.595   1.276   5.258  0.4124  0.1578 -0.5554
 3662SOL    HW122448   0.568   1.217   5.187 -0.6111 -0.1508  0.0988
 3662SOL    HW222449   0.690   1.265   5.250  0.6367  1.7021  0.0144
 3663SOL     OW22450   3.280   2.703   8.432 -1.3716  0.1351  0.1835
 3663SOL    HW122451   3.262   2.796   8.443  0.7354  0.9057 -2.8311
 3663SOL    HW222452   3.292   2.696   8.337  1.5022  2.2657  0.3973
 3664SOL     OW22453   3.586   3.069   9.104 -0.2335  0.1673 -0.3611
 3664SOL    HW122454   3.631   3.154   9.104 -0.7320  0.4301 -0.3880
 3664SOL    HW222455   3.514   3.098   9.048  0.0192 -1.1445 -1.3476
 3665SOL     OW22456   3.501   2.196  13.768 -0.0145 -0.4624 -0.1718
 3665SOL    HW122457   3.448   2.139  13.824  1.0289 -0.5297  0.7447
 3665SOL    HW222458   3.574   2.137  13.750  0.9090  0.3514  0.9166
 3666SOL     OW22459   0.649   3.648  10.771  0.4467  0.3076  0.0845
 3666SOL    HW122460   0.555   3.649  10.752  0.3587  1.5284  0.5743
 3666SOL    HW222461   0.676   3.683  10.686 -2.2193 -3.1519 -2.1769
 3667SOL     OW22462   2.001   0.443   3.929  0.8152  0.2151 -0.5672
 3667SOL    HW122463   1.954   0.459   3.848  0.1416  0.6965 -0.0840
 3667SOL    HW222464   2.001   0.525   3.978  3.1612  0.1013 -0.3660
 3668SOL     OW22465   4.476   0.372   4.636  0.0842  1.1029 -0.6420
 3668SOL    HW122466   4.437   0.439   4.691  1.5303  0.5744  1.0487
 3668SOL    HW222467   4.417   0.354   4.563  1.6166 -0.6978 -1.4460
 3669SOL     OW22468   3.860   1.379   1.992  0.1950 -0.2354  0.9040
 3669SOL    HW122469   3.928   1.401   2.055 -0.0675  0.6080  0.8958
 3669SOL    HW222470   3.912   1.379   1.913 -1.6635 -0.6358 -0.3213
 3670SOL     OW22471   0.896   3.904   3.873 -0.5916  0.0918 -0.2768
 3670SOL    HW122472   0.953   3.839   3.831 -1.3730 -0.4183 -0.5483
 3670SOL    HW222473   0.901   3.872   3.963 -4.0326  0.4294  0.0177
 3671SOL     OW22474   4.574   3.089   1.838 -0.2889 -0.0979  0.0371
 3671SOL    HW122475   4.580   3.026   1.909  0.2301  1.0377  1.0140
 3671SOL    HW222476   4.483   3.113   1.853  0.1204  1.0140  0.7531
 3672SOL     OW22477   3.286   1.190  13.855  0.0043  0.1813 -0.4059
 3672SOL    HW122478   3.198   1.219  13.831 -0.5849 -3.0597 -2.1435
 3672SOL    HW222479   3.300   1.126  13.785 -1.5569 -0.4269 -0.1606
 3673SOL     OW22480   4.615   3.797   1.746 -0.4740 -0.3671  0.5023
 3673SOL    HW122481   4.610   3.702   1.758 -1.3562 -0.3097  0.5706
 3673SOL    HW222482   4.710   3.806   1.735 -0.4537 -0.5201  0.5470
 3674SOL     OW22483   0.552   0.083   6.449  0.3108 -0.6223 -0.2655
 3674SOL    HW122484   0.481   0.056   6.507 -0.8942 -1.4493 -2.1324
 3674SOL    HW222485   0.545   0.177   6.465 -1.2699 -0.6932 -0.5555
 3675SOL     OW22486   4.613   3.608   3.844  0.5111 -0.1885  0.1961
 3675SOL    HW122487   4.684   3.590   3.782 -0.4100  1.7894 -1.4323
 3675SOL    HW222488   4.609   3.703   3.840 -2.3250 -0.3480 -0.4622
 3676SOL     OW22489   3.347   0.445   2.310  0.7173  0.0972  0.0525
 3676SOL    HW122490   3.428   0.487   2.337  0.5977 -0.0781  0.6789
 3676SOL    HW222491   3.287   0.519   2.312 -1.5545 -1.6578 -1.9809
 3677SOL     OW22492   1.341   3.174   1.037  0.6796  0.2619  0.5601
 3677SOL    HW122493   1.259   3.192   0.992  1.1364  2.2440  0.4989
 3677SOL    HW222494   1.300   3.126   1.108  1.0725  0.3673  0.8627
 3678SOL     OW22495   3.105   1.346   6.792  0.3395  0.2527 -0.0198
 3678SOL    HW122496   3.144   1.377   6.874  0.5714  0.5250 -0.2315
 3678SOL    HW222497   3.183   1.343   6.737  2.0810  0.7829  2.3954
 3679SOL     OW22498   3.603   1.666   2.676 -0.0081 -0.5082 -0.3686
 3679SOL    HW122499   3.552   1.744   2.698  0.4919 -0.1166 -0.6221
 3679SOL    HW222500   3.627   1.695   2.588  1.7850 -1.0434 -0.0494
 3680SOL     OW22501   4.030   4.343   4.887  0.1882  0.3330  0.1872
 3680SOL    HW122502   4.037   4.383   4.800 -0.2010 -1.2387 -0.5633
 3680SOL    HW222503   3.973   4.410   4.924 -1.0179  0.1571 -1.3437
 3681SOL     OW22504   0.378   1.561   6.503  0.4587 -0.4237  0.1655
 3681SOL    HW122505   0.364   1.472   6.472 -0.6544 -0.1660 -0.0851
 3681SOL    HW222506   0.388   1.619   6.428 -0.4334 -0.1135  0.2901
 3682SOL     OW22507   0.416   4.714   8.333  0.5004 -0.1018 -0.3275
 3682SOL    HW122508   0.411   4.618   8.335 -0.3410 -0.0830 -1.6302
 3682SOL    HW222509   0.323   0.009   8.321  0.6710 -0.7089 -2.8111
 3683SOL     OW22510   2.654   1.758   5.239  0.1863  0.5832 -0.3181
 3683SOL    HW122511   2.694   1.682   5.281 -0.2603 -0.7795 -2.3699
 3683SOL    HW222512   2.623   1.803   5.319  3.7327 -0.8816  1.8570
 3684SOL     OW22513   2.928   2.872   1.281 -0.1379  0.2734 -0.1458
 3684SOL    HW122514   2.966   2.930   1.347 -3.1196  1.0660  0.9046
 3684SOL    HW222515   2.931   2.790   1.329 -2.9906  0.0348 -0.3669
 3685SOL     OW22516   2.208   4.172   1.506 -0.1603  0.5136  0.0221
 3685SOL    HW122517   2.278   4.107   1.499 -1.2085 -0.7717  1.3889
 3685SOL    HW222518   2.250   4.252   1.537  1.7689 -0.2328 -0.6536
 3686SOL     OW22519   1.266   2.301   0.560 -1.0932  0.2941 -0.0709
 3686SOL    HW122520   1.337   2.260   0.511  0.1704  0.6765  1.4222
 3686SOL    HW222521   1.259   2.238   0.631  1.8669  0.4358  0.3382
 3687SOL     OW22522   3.873   2.438   5.626 -0.5239 -0.1288 -0.1207
 3687SOL    HW122523   3.818   2.513   5.603 -0.9800 -0.3097  0.3652
 3687SOL    HW222524   3.940   2.480   5.679 -0.9580 -0.1368  0.4386
 3688SOL     OW22525   0.889   3.246   7.293 -0.3132  0.2087 -0.1922
 3688SOL    HW122526   0.871   3.205   7.378 -1.8559  0.4600 -0.3925
 3688SOL    HW222527   0.887   3.339   7.316  2.3148  0.0413  0.6106
 3689SOL     OW22528   4.342   0.244   0.751 -0.1242  0.1946  0.0344
 3689SOL    HW122529   4.361   0.170   0.808 -1.2042 -0.3172 -0.2582
 3689SOL    HW222530   4.284   0.197   0.690  1.4572 -0.2636 -1.1087
 3690SOL     OW22531   2.381   2.462   7.353  0.0590 -0.5338  0.5698
 3690SOL    HW122532   2.342   2.466   7.440  0.1561  1.9778  0.4946
 3690SOL    HW222533   2.471   2.477   7.382  1.0298 -2.0196 -1.6947
 3691SOL     OW22534   3.426   0.459   5.533 -0.2650  0.1415  0.4089
 3691SOL    HW122535   3.500   0.411   5.570 -1.3356  1.6059  4.3476
 3691SOL    HW222536   3.458   0.548   5.521 -0.5034  0.0998 -0.5897
 3692SOL     OW22537   3.567   3.257   4.770 -0.3145 -0.7402 -0.3356
 3692SOL    HW122538   3.605   3.305   4.697 -0.8874  1.4435  0.7857
 3692SOL    HW222539   3.577   3.323   4.839  2.6340 -1.6525  0.0986
 3693SOL     OW22540   0.220   1.348  15.771  0.4174  0.4749  0.1108
 3693SOL    HW122541   0.213   1.258  15.804 -0.4077  1.0165  1.3940
 3693SOL    HW222542   0.309   1.380  15.790  0.1084  1.4064 -0.0280
 3694SOL     OW22543   0.249   3.958   2.322 -0.2170 -0.1845 -0.3041
 3694SOL    HW122544   0.340   3.974   2.294  0.4588  0.3467  2.2324
 3694SOL    HW222545   0.227   4.032   2.377  3.5462  0.0316  0.9016
 3695SOL     OW22546   2.188   4.058   5.265 -0.2745  0.3267  0.8699
 3695SOL    HW122547   2.265   4.028   5.314  1.0834 -0.0806 -1.5492
 3695SOL    HW222548   2.216   4.135   5.215 -0.8150 -0.5061 -0.7082
 3696SOL     OW22549   1.892   2.057  13.567 -0.1823  0.6837 -0.0693
 3696SOL    HW122550   1.825   2.012  13.618 -1.6327  2.0769 -0.7490
 3696SOL    HW222551   1.867   2.016  13.484 -1.3066 -1.4752  1.3243
 3697SOL     OW22552   4.159   3.757   6.985 -0.3245 -0.0333 -0.3056
 3697SOL    HW122553   4.094   3.750   7.055 -0.5281  1.6704 -0.3330
 3697SOL    HW222554   4.107   3.755   6.905 -0.8017 -1.9997  0.0487
 3698SOL     OW22555   0.180   1.107   5.891  0.3169  0.3132 -0.2574
 3698SOL    HW122556   0.225   1.056   5.958  0.0095 -0.1623 -0.4120
 3698SOL    HW222557   0.163   1.182   5.949  0.0652 -0.3031  0.4665
 3699SOL     OW22558   0.459   2.314   0.769  0.3535 -0.5326  0.4415
 3699SOL    HW122559   0.424   2.378   0.706 -0.3227  0.1286  1.4874
 3699SOL    HW222560   0.400   2.325   0.844 -2.1895 -0.4819 -1.5577
 3700SOL     OW22561   2.939   4.053   0.680  0.0581 -0.1754  0.2557
 3700SOL    HW122562   2.854   4.042   0.638 -0.3465  1.7845  0.5571
 3700SOL    HW222563   2.942   4.138   0.724  1.3175  0.5542 -1.2320
 3701SOL     OW22564   2.086   2.000   6.629 -0.8944 -0.1556  0.4117
 3701SOL    HW122565   2.031   2.077   6.614 -1.4312 -1.1223 -2.6008
 3701SOL    HW222566   2.161   2.027   6.683 -0.5298  1.5224 -0.9309
 3702SOL     OW22567   3.916   4.704  14.024  0.2781 -0.1521 -0.1762
 3702SOL    HW122568   3.835   4.683  14.070  0.2905  3.6695  1.5770
 3702SOL    HW222569   3.923   4.627  13.968 -1.3305 -1.0735  0.9093
 3703SOL     OW22570   4.291   0.540   0.564 -0.0122  0.1549  0.5701
 3703SOL    HW122571   4.310   0.600   0.492 -0.1853 -0.0049  0.3897
 3703SOL    HW222572   4.375   0.534   0.609  0.0743  0.5787  0.4665
 3704SOL     OW22573   4.130   0.798   9.198 -0.0655  0.1293 -0.7579
 3704SOL    HW122574   4.181   0.791   9.279  0.6232  0.4212 -1.1731
 3704SOL    HW222575   4.168   0.719   9.160  0.5567  0.5874 -1.0860
 3705SOL     OW22576   1.896   3.353   3.998  0.1049  0.2808  0.4472
 3705SOL    HW122577   1.975   3.311   4.032  0.1979 -0.6956 -0.9458
 3705SOL    HW222578   1.918   3.342   3.905  0.3563  2.5825  0.2387
 3706SOL     OW22579   2.076   0.064   8.519 -0.2822  0.1143 -0.4939
 3706SOL    HW122580   2.125   4.712   8.541 -3.2134 -1.4429  0.5782
 3706SOL    HW222581   2.127   0.094   8.444 -1.2880 -0.7938 -1.5426
 3707SOL     OW22582   4.356   1.995   4.286 -0.3600  0.1510 -0.4368
 3707SOL    HW122583   4.444   1.965   4.263  0.9371  2.0857  2.0044
 3707SOL    HW222584   4.382   2.076   4.329  1.7520 -0.9348  0.3809
 3708SOL     OW22585   2.822   1.392   3.495  0.0088  0.0355 -0.2941
 3708SOL    HW122586   2.795   1.432   3.577  0.7304 -0.5195  0.2136
 3708SOL    HW222587   2.870   1.317   3.530 -2.7006 -2.1656 -1.2606
 3709SOL     OW22588   1.572   2.624   8.551  0.3714  0.1142 -0.1445
 3709SOL    HW122589   1.509   2.611   8.480  2.6970 -0.7268 -2.0379
 3709SOL    HW222590   1.642   2.670   8.505 -1.2559  0.3152 -2.4008
 3710SOL     OW22591   0.429   2.661   0.535  0.4979  0.4895  0.0748
 3710SOL    HW122592   0.479   2.643   0.615  0.5008  2.5228  0.5170
 3710SOL    HW222593   0.466   2.584   0.492 -2.1245 -1.7528  1.7891
 3711SOL     OW22594   1.946   4.415   7.212 -0.1514 -0.5832 -0.1754
 3711SOL    HW122595   1.955   4.382   7.301 -0.7847  0.1881  0.1740
 3711SOL    HW222596   1.853   4.438   7.211 -0.1850 -0.6738  2.2722
 3712SOL     OW22597   1.603   3.885  15.558 -0.0585 -0.1361 -0.3572
 3712SOL    HW122598   1.695   3.862  15.545 -0.3896 -1.8117  0.2817
 3712SOL    HW222599   1.609   3.962  15.502 -0.2827  0.3625  0.3011
 3713SOL     OW22600   2.037   4.597   8.128 -0.1655 -0.4583 -0.0674
 3713SOL    HW122601   2.016   4.536   8.199 -0.0799 -0.4361 -0.0235
 3713SOL    HW222602   1.988   4.548   8.063 -0.2722 -2.8794  1.8307
 3714SOL     OW22603   2.325   3.413   3.865 -0.4987 -0.1375 -0.6997
 3714SOL    HW122604   2.411   3.427   3.826 -0.6448 -3.0052 -2.0437
 3714SOL    HW222605   2.282   3.494   3.839 -2.2155 -0.6750  0.4715
 3715SOL     OW22606   1.041   4.583  15.388 -0.1997  0.2020 -0.2541
 3715SOL    HW122607   1.033   4.638  15.310  0.5592  0.7059  0.0202
 3715SOL    HW222608   1.132   4.557  15.376 -0.2590 -0.1160 -0.0366
 3716SOL     OW22609   3.689   3.024   6.267  1.1052  0.4960 -0.0280
 3716SOL    HW122610   3.657   2.947   6.220  0.4242  0.6210  0.2351
 3716SOL    HW222611   3.756   3.043   6.201 -1.5686 -1.0250 -3.1957
 3717SOL     OW22612   3.942   0.226   5.753  0.1338 -0.0668  0.2020
 3717SOL    HW122613   3.994   0.181   5.687  1.1025  0.7650  0.3984
 3717SOL    HW222614   3.865   0.259   5.707  0.2030  1.1484  0.9371
 3718SOL     OW22615   2.771   0.771   5.877 -0.0716 -0.6386  0.4760
 3718SOL    HW122616   2.819   0.777   5.794 -1.6630  0.0328 -0.4093
 3718SOL    HW222617   2.843   0.792   5.936 -0.3708  3.1223 -0.4781
 3719SOL     OW22618   3.357   2.765   3.465 -0.0644 -0.3319  0.2783
 3719SOL    HW122619   3.266   2.790   3.450 -0.0832 -1.3066 -1.1683
 3719SOL    HW222620   3.349   2.765   3.561  0.1388  1.1411  0.2949
 3720SOL     OW22621   4.540   2.417   1.808  0.3265 -0.1149  0.0267
 3720SOL    HW122622   4.499   2.404   1.723  1.6171  3.4729 -1.1197
 3720SOL    HW222623   4.472   2.475   1.842 -1.2291 -2.3959  0.8795
 3721SOL     OW22624   0.340   2.721  16.169 -0.4206  0.1919 -0.2085
 3721SOL    HW122625   0.246   2.710  16.154 -0.7608  3.0744 -0.2495
 3721SOL    HW222626   0.345   2.800  16.115  0.4575 -1.7904 -3.0204
 3722SOL     OW22627   1.616   2.424   2.919 -0.5888  0.2448 -0.4291
 3722SOL    HW122628   1.576   2.338   2.906 -0.9210  0.1853  1.0297
 3722SOL    HW222629   1.538   2.471   2.948  0.8686  2.2867  0.1724
 3723SOL     OW22630   2.196   1.022  11.152 -0.4475  0.2489  0.3948
 3723SOL    HW122631   2.277   1.018  11.100 -1.2612 -0.5060 -0.8388
 3723SOL    HW222632   2.178   1.114  11.167 -1.3976  0.5416 -2.4006
 3724SOL     OW22633   0.912   4.392   8.867 -0.3861 -0.0033 -0.7345
 3724SOL    HW122634   0.883   4.387   8.776 -1.4109  2.1298 -0.5273
 3724SOL    HW222635   0.838   4.432   8.914  0.3859 -0.8053  1.1865
 3725SOL     OW22636   2.280   3.386   4.866 -0.2840 -0.0084  0.0981
 3725SOL    HW122637   2.256   3.473   4.898 -0.3631  0.2471 -0.6645
 3725SOL    HW222638   2.224   3.375   4.790 -2.4049  1.6314  1.4304
 3726SOL     OW22639   3.682   2.896  17.255  0.3207 -0.1048  0.1117
 3726SOL    HW122640   3.719   2.833  17.317 -0.7390  0.2351  1.0807
 3726SOL    HW222641   3.735   2.974  17.270 -0.3310  0.6003 -1.2765
 3727SOL     OW22642   0.292   1.843   2.238 -0.0642  0.1547 -0.1319
 3727SOL    HW122643   0.272   1.851   2.145 -2.1321 -1.3173  0.1905
 3727SOL    HW222644   0.205   1.850   2.277  0.3858  3.7041  0.2101
 3728SOL     OW22645   3.733   3.913   2.319 -0.0964 -0.1292  0.1034
 3728SOL    HW122646   3.722   3.920   2.414 -0.0126 -1.9061  0.2457
 3728SOL    HW222647   3.666   3.972   2.286  0.0028 -0.7432 -1.1798
 3729SOL     OW22648   3.678   3.849   2.596 -0.3543 -0.4976  0.5867
 3729SOL    HW122649   3.629   3.795   2.658 -4.2399  2.2110 -0.1635
 3729SOL    HW222650   3.760   3.838   2.645 -0.6184  0.0442  1.1604
 3730SOL     OW22651   0.669   2.454  14.155 -0.0567 -0.1061  0.0950
 3730SOL    HW122652   0.719   2.475  14.234 -1.1883  2.3779  0.1475
 3730SOL    HW222653   0.704   2.513  14.088  1.1898 -0.0692  0.7797
 3731SOL     OW22654   4.506   1.309   1.379  0.0069  0.0480  0.1275
 3731SOL    HW122655   4.484   1.348   1.294 -0.3397  2.0604  1.1447
 3731SOL    HW222656   4.595   1.278   1.361  0.0528  1.0719 -1.4730
 3732SOL     OW22657   3.582   2.532   9.752  0.7442 -0.0857  0.0728
 3732SOL    HW122658   3.675   2.533   9.733  0.9138  0.1918  0.9028
 3732SOL    HW222659   3.541   2.574   9.676 -0.8055  0.2345  1.0713
 3733SOL     OW22660   4.170   2.892   8.597  0.3904  0.2325 -0.0585
 3733SOL    HW122661   4.201   2.982   8.593  0.6500  0.0116 -2.9438
 3733SOL    HW222662   4.242   2.852   8.646 -0.5619  0.1416  1.2729
 3734SOL     OW22663   1.397   4.721  12.724 -0.2073 -0.5795  0.4459
 3734SOL    HW122664   1.307   0.021  12.705 -0.2390 -2.6689 -2.0888
 3734SOL    HW222665   1.419   0.045  12.803  1.4825 -2.0156  0.8571
 3735SOL     OW22666   1.149   0.997   7.056  0.2390  0.5181  0.1478
 3735SOL    HW122667   1.055   1.008   7.072  0.0396 -0.5490 -0.2978
 3735SOL    HW222668   1.181   1.051   7.129  1.0093 -1.3755  1.2070
 3736SOL     OW22669   1.378   2.617   5.600 -0.4562 -0.4263 -0.0781
 3736SOL    HW122670   1.360   2.580   5.686 -3.5318 -1.8754 -1.3472
 3736SOL    HW222671   1.324   2.565   5.541 -1.8634  0.6740  0.2403
 3737SOL     OW22672   4.390   0.261   0.466 -0.9478  0.1214  0.4691
 3737SOL    HW122673   4.470   0.306   0.440 -1.7167  0.7119 -0.8876
 3737SOL    HW222674   4.402   0.253   0.561  0.6980  2.2291  0.4361
 3738SOL     OW22675   2.540   3.971  15.457 -0.5166  0.1765  0.6882
 3738SOL    HW122676   2.486   3.893  15.470 -1.8676  0.4579 -3.3447
 3738SOL    HW222677   2.589   3.941  15.381 -0.5510  0.9618  0.3588
 3739SOL     OW22678   3.173   1.103   1.128  0.1432  0.8722  0.3259
 3739SOL    HW122679   3.083   1.075   1.109 -0.1101  0.1233  2.5753
 3739SOL    HW222680   3.184   1.052   1.209 -1.6268  2.4221  1.5504
 3740SOL     OW22681   3.880   3.448   1.164 -0.1735  0.2817 -0.0129
 3740SOL    HW122682   3.878   3.404   1.079  1.8165 -0.4814  0.3460
 3740SOL    HW222683   3.957   3.503   1.153 -1.1325  1.7568  0.5994
 3741SOL     OW22684   3.574   0.794   8.863 -0.1165  0.1541 -0.6510
 3741SOL    HW122685   3.571   0.698   8.860  0.2310  0.1565 -1.0563
 3741SOL    HW222686   3.548   0.805   8.772 -0.6721 -1.1815 -0.6467
 3742SOL     OW22687   2.458   2.090   8.023  0.6275  0.3663  0.4981
 3742SOL    HW122688   2.370   2.069   7.990  1.2484  0.4256 -1.2286
 3742SOL    HW222689   2.453   2.071   8.116 -4.2141 -2.3110 -0.3084
 3743SOL     OW22690   4.101   0.200   9.448  0.5837 -1.1474  0.2184
 3743SOL    HW122691   4.184   0.172   9.409  0.2286  0.6631 -1.8847
 3743SOL    HW222692   4.113   0.293   9.431 -2.3505 -1.1146 -1.6811
 3744SOL     OW22693   2.799   0.362   1.456  1.0678 -0.4244  0.3753
 3744SOL    HW122694   2.735   0.392   1.391  1.7209  0.9589  0.3522
 3744SOL    HW222695   2.756   0.382   1.539  0.7193  0.1102  0.0691
 3745SOL     OW22696   4.234   3.993  15.562  0.0055 -0.4063 -0.3534
 3745SOL    HW122697   4.212   4.000  15.469 -0.1555 -2.8572 -0.5132
 3745SOL    HW222698   4.294   3.920  15.548  0.2822 -0.0671 -0.9233
 3746SOL     OW22699   2.779   2.711   5.656  0.5562  0.3811 -0.6350
 3746SOL    HW122700   2.760   2.788   5.603  0.6075  0.7616 -0.1003
 3746SOL    HW222701   2.869   2.694   5.629  0.8638 -0.2927  0.7921
 3747SOL     OW22702   0.448   0.225   7.579 -0.3759 -0.1671 -0.1517
 3747SOL    HW122703   0.529   0.235   7.530  1.1288  3.3020  3.0504
 3747SOL    HW222704   0.411   0.171   7.509  0.3981  0.3781 -0.9751
 3748SOL     OW22705   3.041   4.072   3.510 -0.2308  0.7895  0.0716
 3748SOL    HW122706   3.058   4.125   3.588  0.5006  4.2439 -2.4748
 3748SOL    HW222707   2.945   4.066   3.516 -0.0780 -0.0838  1.6943
 3749SOL     OW22708   0.736   3.296   8.384 -0.0956 -0.3508 -0.3294
 3749SOL    HW122709   0.650   3.317   8.347 -0.1344 -1.3251 -0.7631
 3749SOL    HW222710   0.722   3.271   8.476  1.0815 -1.4736 -0.4526
 3750SOL     OW22711   0.224   3.110   3.669 -0.0768  0.2378  0.4269
 3750SOL    HW122712   0.139   3.067   3.679 -1.0110  1.8939 -0.3399
 3750SOL    HW222713   0.201   3.165   3.594  0.3024  1.1871  1.0012
 3751SOL     OW22714   4.330   3.809   2.577  0.0566  0.0219 -0.2926
 3751SOL    HW122715   4.338   3.715   2.594 -0.1092 -0.4957 -2.9815
 3751SOL    HW222716   4.253   3.819   2.520 -1.0771 -1.7831  0.9188
 3752SOL     OW22717   1.094   1.407  15.362 -0.0698  0.0306  0.2776
 3752SOL    HW122718   1.161   1.355  15.407 -0.6134  0.3091  1.4237
 3752SOL    HW222719   1.034   1.411  15.436  2.3596 -0.8633  2.2941
 3753SOL     OW22720   0.403   3.511   8.033 -0.0841 -0.0212 -0.6295
 3753SOL    HW122721   0.482   3.555   8.066  0.8939 -0.9500 -1.7273
 3753SOL    HW222722   0.337   3.576   8.057  1.2598  0.8191  0.7515
 3754SOL     OW22723   0.681   2.302   5.792  0.1521 -0.2581 -0.1067
 3754SOL    HW122724   0.663   2.346   5.709  1.5816  0.7052  0.0943
 3754SOL    HW222725   0.729   2.365   5.846  0.9572 -2.1174  1.3124
 3755SOL     OW22726   2.248   0.260   3.406 -0.0881 -0.0049  0.4954
 3755SOL    HW122727   2.273   0.286   3.317 -0.2458  1.1547  0.7887
 3755SOL    HW222728   2.247   0.165   3.396 -0.7865 -0.1560  1.9416
 3756SOL     OW22729   3.760   1.838  15.104 -0.0037 -0.0509  0.4750
 3756SOL    HW122730   3.803   1.752  15.107  2.6410  1.2779  1.0018
 3756SOL    HW222731   3.831   1.898  15.127 -0.8389  1.0614  0.1474
 3757SOL     OW22732   1.877   2.483   9.730 -0.1079  0.9848  0.0987
 3757SOL    HW122733   1.782   2.479   9.718  0.0201 -0.8765 -0.3355
 3757SOL    HW222734   1.894   2.388   9.730  1.3829  1.2563  0.7487
 3758SOL     OW22735   4.708   1.210   8.011 -0.1157 -0.1298 -0.3590
 3758SOL    HW122736   0.052   1.275   8.002  0.8600 -1.3332 -1.5269
 3758SOL    HW222737   0.035   1.133   7.989  0.5453  0.3986 -0.6039
 3759SOL     OW22738   4.144   2.737   0.249  0.1172  0.0749  0.0449
 3759SOL    HW122739   4.114   2.649   0.272  0.0982 -0.3496 -1.5747
 3759SOL    HW222740   4.183   2.756   0.334  1.0221  0.2193 -0.3978
 3760SOL     OW22741   1.289   0.612   9.358  0.0229 -0.1651  0.7317
 3760SOL    HW122742   1.338   0.677   9.307 -2.4067  0.3125 -1.0083
 3760SOL    HW222743   1.206   0.658   9.377 -1.3666 -2.8771  1.2646
 3761SOL     OW22744   4.117   2.845   6.944  0.0133 -1.0428  0.4644
 3761SOL    HW122745   4.046   2.878   6.890  0.0421 -0.3965  0.8250
 3761SOL    HW222746   4.135   2.761   6.901  3.8919  0.8590 -1.6446
 3762SOL     OW22747   2.497   0.637   5.592 -0.1510 -0.3942  0.6124
 3762SOL    HW122748   2.573   0.693   5.577 -1.0254  0.5002 -0.5052
 3762SOL    HW222749   2.435   0.707   5.614 -1.4603 -1.3260 -0.1231
 3763SOL     OW22750   1.035   2.700   4.263  0.0911  0.3903 -0.1556
 3763SOL    HW122751   0.956   2.688   4.209  0.1536  0.1236 -0.1885
 3763SOL    HW222752   1.085   2.776   4.234 -1.1287  0.6866 -1.4659
 3764SOL     OW22753   1.696   0.053  12.075  0.1626 -0.1669  0.1916
 3764SOL    HW122754   1.613   0.086  12.042  0.2725  0.0892  0.1787
 3764SOL    HW222755   1.705   4.696  12.028 -0.0417  0.6676 -1.3009
 3765SOL     OW22756   1.332   3.945   8.465  0.6551 -0.2242 -0.6024
 3765SOL    HW122757   1.349   3.996   8.544  1.3941 -1.2142 -0.1234
 3765SOL    HW222758   1.417   3.957   8.422 -0.0042  2.5122 -1.1378
 3766SOL     OW22759   2.600   2.102   7.201  0.2015  0.0099  0.3022
 3766SOL    HW122760   2.660   2.171   7.173 -0.5598  0.6389  0.2178
 3766SOL    HW222761   2.629   2.023   7.157 -0.4743  1.0481 -1.9969
 3767SOL     OW22762   0.749   1.309  11.614  0.4289 -0.4874  0.1537
 3767SOL    HW122763   0.778   1.288  11.525 -1.7716 -0.0209 -0.6670
 3767SOL    HW222764   0.674   1.251  11.625 -1.0438  1.8998  2.6469
 3768SOL     OW22765   3.481   2.147   4.883 -0.1543 -0.1552 -0.4383
 3768SOL    HW122766   3.499   2.061   4.845 -0.1499  0.1571 -1.1271
 3768SOL    HW222767   3.431   2.191   4.814 -0.3626  2.2214  1.2273
 3769SOL     OW22768   3.862   2.560   9.617  0.3793  0.4163 -0.3895
 3769SOL    HW122769   3.939   2.615   9.602  0.1686  0.4959 -1.1901
 3769SOL    HW222770   3.801   2.583   9.547  2.1051 -3.0929 -2.9986
 3770SOL     OW22771   0.952   2.522   1.471  0.0922  0.1412  0.1206
 3770SOL    HW122772   0.919   2.496   1.385 -2.5896  0.7642  0.9829
 3770SOL    HW222773   1.023   2.582   1.449  1.1790 -1.7034 -1.5236
 3771SOL     OW22774   0.870   2.724   3.077  0.3059 -0.0373 -0.7140
 3771SOL    HW122775   0.866   2.643   3.127  0.6657 -0.2432 -1.0173
 3771SOL    HW222776   0.785   2.763   3.095  0.4812  0.4206 -0.8585
 3772SOL     OW22777   0.184   0.077   7.140  0.1044 -0.0029 -0.2832
 3772SOL    HW122778   0.262   0.065   7.085 -1.6886  3.4064 -3.5286
 3772SOL    HW222779   0.176   4.715   7.177 -2.4604  0.9282  1.3620
 3773SOL     OW22780   1.814   1.123  10.802  0.2611  0.0035 -0.1255
 3773SOL    HW122781   1.781   1.037  10.777  3.0240 -0.4350 -2.2995
 3773SOL    HW222782   1.733   1.166  10.828  0.1079  0.3873 -1.2305
 3774SOL     OW22783   0.582   4.433   6.038  0.0435 -0.4460 -0.1442
 3774SOL    HW122784   0.663   4.387   6.061  1.0444  1.5795  0.3947
 3774SOL    HW222785   0.589   4.516   6.085 -0.5647 -1.1166  1.1270
 3775SOL     OW22786   2.807   3.399   8.334 -0.0417  0.7033 -0.0065
 3775SOL    HW122787   2.842   3.310   8.324  0.4165  0.7606  1.0909
 3775SOL    HW222788   2.887   3.450   8.326 -0.8252  1.9289 -0.0992
 3776SOL     OW22789   3.244   2.722   5.897  0.4294 -0.7791  0.0005
 3776SOL    HW122790   3.315   2.671   5.858 -0.2705 -1.9671  0.2779
 3776SOL    HW222791   3.174   2.657   5.895 -1.4543  1.3533 -2.8880
 3777SOL     OW22792   3.905   2.749   6.259 -0.7491  0.2778 -0.0577
 3777SOL    HW122793   3.879   2.817   6.196 -0.6730  0.5365  0.1890
 3777SOL    HW222794   3.869   2.672   6.215 -0.4324  0.3239 -0.3941
 3778SOL     OW22795   2.156   4.722   7.909  0.0960  0.1503  0.3196
 3778SOL    HW122796   2.119   4.685   7.989 -3.0389 -0.2222 -1.2976
 3778SOL    HW222797   2.082   0.035   7.863 -1.0191 -0.7620  1.3428
 3779SOL     OW22798   3.229   2.644  13.987 -0.1085  0.1310  0.2307
 3779SOL    HW122799   3.295   2.682  14.044  0.2007  3.2255 -2.2231
 3779SOL    HW222800   3.270   2.558  13.979  0.3553  0.5674 -2.0799
 3780SOL     OW22801   3.091   4.277  10.245  0.5266  0.2149 -0.1352
 3780SOL    HW122802   3.085   4.221  10.323  2.4780  0.7057  0.3888
 3780SOL    HW222803   3.057   4.358  10.281  0.5217  0.9714 -1.8867
 3781SOL     OW22804   0.663   0.174  11.232 -0.0634 -0.3509 -0.6798
 3781SOL    HW122805   0.573   0.196  11.256  0.1158  1.2950 -1.4861
 3781SOL    HW222806   0.699   0.256  11.199 -0.5559 -0.1733 -0.7814
 3782SOL     OW22807   4.566   0.977   1.417  0.5111  0.4878 -0.1496
 3782SOL    HW122808   4.530   1.061   1.388  1.4709  0.4671 -1.3817
 3782SOL    HW222809   4.581   0.997   1.510  1.6884 -0.5308 -0.1210
 3783SOL     OW22810   3.771   2.880   2.290  0.1105 -0.0772 -0.6281
 3783SOL    HW122811   3.715   2.885   2.213  2.2954  1.3264 -2.1219
 3783SOL    HW222812   3.711   2.828   2.343  1.5347  2.2895  3.3150
 3784SOL     OW22813   1.683   3.497   3.908 -0.3652 -0.2347 -0.1578
 3784SOL    HW122814   1.769   3.480   3.946 -0.3350  2.0039  0.7491
 3784SOL    HW222815   1.677   3.422   3.849  1.1586 -0.7191  0.3215
 3785SOL     OW22816   0.932   3.799   6.013 -0.1967 -0.9855 -0.2215
 3785SOL    HW122817   1.005   3.744   5.986  0.9263  0.0916  0.6663
 3785SOL    HW222818   0.866   3.730   6.027  1.2571 -2.3148  0.0389
 3786SOL     OW22819   1.875   1.966   4.220  0.6069 -0.0164  0.2483
 3786SOL    HW122820   1.865   1.887   4.273  0.6212 -0.1480  0.0550
 3786SOL    HW222821   1.815   1.957   4.146 -0.2002 -0.3188  0.9514
 3787SOL     OW22822   0.232   0.993  10.387  0.2855 -0.3854 -0.1411
 3787SOL    HW122823   0.282   1.020  10.463  0.0488  0.8982 -0.4400
 3787SOL    HW222824   0.226   0.899  10.407 -1.2302 -0.1578  0.4899
 3788SOL     OW22825   1.880   4.539   4.414 -0.6451  0.2558 -0.3498
 3788SOL    HW122826   1.932   4.547   4.334  0.3475  0.5533  0.3220
 3788SOL    HW222827   1.817   4.468   4.397 -0.5868  0.7310 -2.5064
 3789SOL     OW22828   2.982   2.746  13.924  0.1398  0.3109 -0.0454
 3789SOL    HW122829   3.070   2.715  13.944  0.2270  0.4281 -0.2408
 3789SOL    HW222830   2.955   2.671  13.871 -3.5707  2.3671 -1.0275
 3790SOL     OW22831   1.050   0.697  16.668  0.5387  0.2015  0.1181
 3790SOL    HW122832   1.010   0.750  16.737  2.2606  0.4169  0.9771
 3790SOL    HW222833   1.033   0.610  16.703  0.2691 -0.0152 -0.5613
 3791SOL     OW22834   3.782   3.543  14.659 -0.1030 -0.6457  0.0164
 3791SOL    HW122835   3.698   3.565  14.618  1.1697  1.7386 -1.3076
 3791SOL    HW222836   3.797   3.614  14.722 -1.9071  0.4686 -0.8007
 3792SOL     OW22837   4.508   2.105   5.481  0.3308  0.5753 -0.3455
 3792SOL    HW122838   4.594   2.097   5.439  1.3038  1.4392  1.4756
 3792SOL    HW222839   4.449   2.092   5.407  0.2141  1.5792 -0.4344
 3793SOL     OW22840   2.456   1.577   6.722  0.0128  0.0223 -0.7005
 3793SOL    HW122841   2.409   1.618   6.649 -1.6615 -0.3827  0.1589
 3793SOL    HW222842   2.521   1.643   6.742 -0.5563  0.2983  0.2324
 3794SOL     OW22843   3.670   0.841   2.274 -0.1780 -0.2749  0.0752
 3794SOL    HW122844   3.745   0.888   2.310 -0.5257  0.6883 -0.4526
 3794SOL    HW222845   3.674   0.758   2.322  1.3463 -0.9242 -1.1572
 3795SOL     OW22846   2.250   3.183  12.007 -0.0123  0.6463 -0.4793
 3795SOL    HW122847   2.299   3.153  12.083  1.3713 -0.8238 -1.9610
 3795SOL    HW222848   2.278   3.127  11.934 -0.2503  0.2183 -0.2388
 3796SOL     OW22849   1.385   3.253   3.920 -0.0093  0.1333 -0.6464
 3796SOL    HW122850   1.476   3.248   3.947 -0.9367  1.6213  2.7367
 3796SOL    HW222851   1.387   3.183   3.855 -1.1382 -1.2238  0.7664
 3797SOL     OW22852   1.246   3.851   7.839  0.0755  0.3307  0.0253
 3797SOL    HW122853   1.300   3.856   7.760  1.9170 -0.6603  1.2293
 3797SOL    HW222854   1.300   3.794   7.894  0.6500  3.0356  2.3254
 3798SOL     OW22855   1.301   1.715   4.169  0.1165 -0.0658 -0.0351
 3798SOL    HW122856   1.377   1.759   4.206  0.5437 -1.9946  1.3607
 3798SOL    HW222857   1.279   1.778   4.099 -0.1045  0.3080  0.3721
 3799SOL     OW22858   3.657   3.144   9.636 -0.2793  0.4725 -0.0277
 3799SOL    HW122859   3.716   3.203   9.684 -0.5234 -0.0335  0.8982
 3799SOL    HW222860   3.716   3.122   9.565 -0.3688 -1.0417  0.3725
 3800SOL     OW22861   0.965   3.563   4.959 -0.4225  0.4705  0.3276
 3800SOL    HW122862   0.997   3.547   4.870  0.4243 -0.3823  0.7930
 3800SOL    HW222863   1.014   3.642   4.980 -0.0857 -0.0080  1.3436
 3801SOL     OW22864   0.034   3.365   4.569 -0.4136  0.3079  0.6459
 3801SOL    HW122865   4.701   3.365   4.494  0.5484  0.6256 -0.1088
 3801SOL    HW222866   0.077   3.281   4.553 -0.9889  0.6164 -2.6068
 3802SOL     OW22867   2.224   2.577   0.589  0.1481  0.2827 -0.1024
 3802SOL    HW122868   2.172   2.552   0.512  3.3260 -2.7672 -1.3045
 3802SOL    HW222869   2.163   2.642   0.623 -0.6627 -0.7654  0.4518
 3803SOL     OW22870   0.371   2.599   9.467 -0.3070  0.4047 -0.2230
 3803SOL    HW122871   0.342   2.509   9.458 -0.7991  0.4614  0.7867
 3803SOL    HW222872   0.458   2.586   9.505 -0.8714  1.9371  1.6060
 3804SOL     OW22873   3.038   2.810   3.758 -0.3323 -0.4758  0.2683
 3804SOL    HW122874   2.977   2.873   3.798 -0.0846 -0.4416  0.5926
 3804SOL    HW222875   3.039   2.828   3.665  2.7426  1.7828  0.7583
 3805SOL     OW22876   4.615   2.525   2.652 -0.7961 -0.5167 -0.1223
 3805SOL    HW122877   4.709   2.519   2.634 -0.6277 -1.2189  0.9782
 3805SOL    HW222878   4.597   2.594   2.588 -0.1839 -1.7198 -1.6055
 3806SOL     OW22879   0.881   4.042   7.223 -0.0910 -0.2851  0.5634
 3806SOL    HW122880   0.955   4.020   7.281 -0.7102 -2.4108  0.5269
 3806SOL    HW222881   0.927   4.119   7.191 -3.1096  1.9727  1.6652
 3807SOL     OW22882   3.142   1.441   3.691  0.1274  0.5415  0.1477
 3807SOL    HW122883   3.156   1.351   3.723  0.1322  0.4738 -0.0416
 3807SOL    HW222884   3.201   1.436   3.616 -1.1541  0.2419 -0.8241
 3808SOL     OW22885   3.347   0.936  14.239  0.3009 -0.2600  0.6298
 3808SOL    HW122886   3.417   0.928  14.305  0.5968  0.4179  0.3970
 3808SOL    HW222887   3.371   0.858  14.189  0.0504  1.2719 -1.8651
 3809SOL     OW22888   0.960   2.472   4.976 -0.0542 -0.2777 -0.4995
 3809SOL    HW122889   0.868   2.463   4.953 -0.1618 -0.7277  0.1192
 3809SOL    HW222890   1.002   2.422   4.906 -0.5017 -3.0240  1.2224
 3810SOL     OW22891   3.187   2.537   0.591 -0.4580 -0.2828  0.5778
 3810SOL    HW122892   3.225   2.542   0.503  0.4241 -1.5712  0.8880
 3810SOL    HW222893   3.138   2.619   0.593  0.5802  0.3311  0.7870
 3811SOL     OW22894   4.000   1.614   0.018  0.0033  0.6304 -0.1412
 3811SOL    HW122895   3.918   1.568  17.703  0.4299 -0.3504  0.4163
 3811SOL    HW222896   4.048   1.545   0.063 -2.3010 -2.1523 -1.9745
 3812SOL     OW22897   2.438   0.168   4.310  0.2628  0.5922 -0.3400
 3812SOL    HW122898   2.480   0.110   4.374 -0.0163 -0.6829 -1.3096
 3812SOL    HW222899   2.390   0.113   4.248  3.1737 -2.1554 -0.1559
 3813SOL     OW22900   4.584   2.257   2.828 -0.5201  0.1251 -0.5141
 3813SOL    HW122901   4.594   2.305   2.910 -0.7462  0.3400 -0.6127
 3813SOL    HW222902   4.592   2.328   2.765 -1.4050  1.8169  1.2714
 3814SOL     OW22903   4.225   3.195   3.236 -0.4459 -0.3709 -0.5351
 3814SOL    HW122904   4.155   3.228   3.179 -2.1660 -1.4741  0.9260
 3814SOL    HW222905   4.301   3.223   3.186 -0.2101  2.7084  1.6007
 3815SOL     OW22906   3.956   0.066  10.125  0.5138  0.7345  0.3184
 3815SOL    HW122907   3.912   4.712  10.155  1.1715 -0.1274 -1.0058
 3815SOL    HW222908   4.039   0.021  10.109 -0.5468 -1.1999  0.2254
 3816SOL     OW22909   1.312   2.011   9.200 -0.7098  0.6450 -0.6539
 3816SOL    HW122910   1.352   2.079   9.254  1.2440 -0.7194 -0.3954
 3816SOL    HW222911   1.384   1.998   9.137 -0.1251 -1.7742  0.5141
 3817SOL     OW22912   2.072   3.816   5.131  0.0850 -0.3556  0.3232
 3817SOL    HW122913   2.088   3.806   5.225  0.9603 -1.0335  0.1041
 3817SOL    HW222914   2.027   3.900   5.124  0.1969 -0.1291  2.4048
 3818SOL     OW22915   4.517   2.274   0.696 -0.2365  0.1391 -0.0358
 3818SOL    HW122916   4.442   2.225   0.663 -0.9143  1.1280  0.0319
 3818SOL    HW222917   4.537   2.229   0.778 -0.0653  0.0865 -0.1068
 3819SOL     OW22918   1.718   1.652   4.071  0.3626 -1.1090  0.0589
 3819SOL    HW122919   1.660   1.625   3.999 -0.2378 -2.0922  0.9050
 3819SOL    HW222920   1.805   1.640   4.034  0.9081 -1.3551  1.4401
 3820SOL     OW22921   1.840   0.380   5.784  0.1714 -0.5883 -0.2601
 3820SOL    HW122922   1.836   0.302   5.840  2.2055 -0.9174 -0.5608
 3820SOL    HW222923   1.935   0.390   5.782 -0.1844  2.1019 -3.1649
 3821SOL     OW22924   3.178   1.550   4.166  0.2328  0.9102 -0.1768
 3821SOL    HW122925   3.103   1.499   4.197 -1.1246  2.6049 -0.6673
 3821SOL    HW222926   3.237   1.512   4.232  0.1802  0.7311 -0.2357
 3822SOL     OW22927   0.215   1.781   5.114 -0.4442  0.3008 -0.6649
 3822SOL    HW122928   0.173   1.773   5.029 -1.0357  0.0078 -0.3464
 3822SOL    HW222929   0.178   1.711   5.169  2.8710 -1.8174 -1.1800
 3823SOL     OW22930   3.783   0.583   9.503 -0.9119 -0.0654  0.0850
 3823SOL    HW122931   3.786   0.655   9.566  2.9324 -1.8168  1.8948
 3823SOL    HW222932   3.752   0.513   9.561  0.7765 -2.6601 -2.1628
 3824SOL     OW22933   4.063   3.061  15.021 -0.2645  0.0959 -0.2298
 3824SOL    HW122934   4.050   3.052  14.926  0.9102 -0.9128 -0.3050
 3824SOL    HW222935   4.100   3.147  15.036 -2.3987  1.1013 -0.7439
 3825SOL     OW22936   4.172   0.221   7.842 -0.3430  0.2233 -0.4035
 3825SOL    HW122937   4.092   0.230   7.893 -0.2117  0.5141 -0.2529
 3825SOL    HW222938   4.136   0.163   7.774  0.4815 -2.5638  1.5569
 3826SOL     OW22939   0.847   3.306   6.863  0.2019 -0.0789  0.1208
 3826SOL    HW122940   0.894   3.228   6.891 -0.1684 -0.6667 -0.8712
 3826SOL    HW222941   0.919   3.368   6.862 -0.2062  0.3667 -2.4063
 3827SOL     OW22942   3.312   0.400   5.907 -0.1673 -0.1062  0.0670
 3827SOL    HW122943   3.340   0.365   5.992 -1.2547 -0.9728  0.0663
 3827SOL    HW222944   3.224   0.364   5.896  0.3876 -0.5366 -2.6957
 3828SOL     OW22945   4.171   0.188   2.676  0.3690 -0.3656  0.1656
 3828SOL    HW122946   4.104   0.121   2.685 -0.3526  0.0948 -1.7193
 3828SOL    HW222947   4.137   0.243   2.605 -0.0242 -2.2132 -1.0650
 3829SOL     OW22948   1.251   0.800   0.759 -0.2305  0.0719  0.4195
 3829SOL    HW122949   1.186   0.740   0.795 -1.4008  1.3831  0.5005
 3829SOL    HW222950   1.276   0.765   0.674  1.1589 -0.1705  0.9218
 3830SOL     OW22951   3.018   4.259   2.389  0.4452 -0.5048  0.3274
 3830SOL    HW122952   3.040   4.273   2.481  4.1174 -0.7536 -0.5323
 3830SOL    HW222953   3.096   4.285   2.340 -1.2126  0.6369 -1.7233
 3831SOL     OW22954   2.822   1.396   6.416 -0.2531 -0.0046  0.1680
 3831SOL    HW122955   2.899   1.418   6.363 -0.7757  0.3989 -0.4271
 3831SOL    HW222956   2.799   1.482   6.451 -1.0812 -1.5252  3.3442
 3832SOL     OW22957   4.692   1.092   3.360  0.4841  0.0162  0.2936
 3832SOL    HW122958   4.699   1.008   3.313  1.0578  0.5735 -0.6255
 3832SOL    HW222959   0.046   1.131   3.325 -0.4935  0.9183 -0.9274
 3833SOL     OW22960   0.294   1.702   8.098 -0.4432  0.1583  0.1403
 3833SOL    HW122961   0.230   1.730   8.032  0.0579 -0.3575 -0.5769
 3833SOL    HW222962   0.377   1.716   8.052 -1.0194 -4.9706 -2.4732
 3834SOL     OW22963   0.190   0.910  15.838 -0.2638  0.0117  0.2714
 3834SOL    HW122964   0.191   0.990  15.890 -0.8127 -0.0871  0.4355
 3834SOL    HW222965   0.097   0.886  15.838 -0.0273 -0.9307  1.8210
 3835SOL     OW22966   3.199   0.977   1.359  0.3260 -0.9671  0.2262
 3835SOL    HW122967   3.128   0.962   1.422 -1.3992  0.4901 -1.3534
 3835SOL    HW222968   3.272   0.920   1.382  1.2390  1.0602  2.4543
 3836SOL     OW22969   0.790   0.961  16.022 -0.0648  0.2123 -0.3011
 3836SOL    HW122970   0.741   0.880  16.034 -2.0443  1.3622 -0.6046
 3836SOL    HW222971   0.848   0.935  15.951 -0.5181  1.5033 -1.1422
 3837SOL     OW22972   1.454   4.297  14.891 -0.1216  0.0220  0.1867
 3837SOL    HW122973   1.518   4.346  14.944 -1.1917 -1.5062  2.8839
 3837SOL    HW222974   1.517   4.247  14.840 -0.4771  2.9734 -3.1515
 3838SOL     OW22975   4.170   1.382   9.966  0.0808 -0.6282  0.0894
 3838SOL    HW122976   4.202   1.303  10.009 -1.3667 -1.4355 -0.3116
 3838SOL    HW222977   4.234   1.451   9.987  1.1774 -1.1650 -1.5101
 3839SOL     OW22978   1.501   4.235   9.080  0.0904 -0.4560 -0.2140
 3839SOL    HW122979   1.564   4.249   9.150  1.6446 -2.0427 -1.3005
 3839SOL    HW222980   1.473   4.319   9.046 -1.6633  0.2499  2.9464
 3840SOL     OW22981   1.099   1.261  14.940  0.2117 -0.3635  0.3562
 3840SOL    HW122982   1.004   1.267  14.947  0.1060  0.3125 -1.4837
 3840SOL    HW222983   1.123   1.188  14.882  0.8034  0.9263 -1.0229
 3841SOL     OW22984   2.158   2.586   1.680 -0.2603 -0.0941  0.2736
 3841SOL    HW122985   2.074   2.602   1.637 -1.3803 -1.0837  2.0745
 3841SOL    HW222986   2.124   2.573   1.769 -4.6952  0.0584 -1.3571
 3842SOL     OW22987   3.357   0.972   6.521  0.2636  0.3856  0.2002
 3842SOL    HW122988   3.441   0.940   6.490 -0.7853 -2.4493  0.2489
 3842SOL    HW222989   3.383   1.060   6.548 -0.1840  0.2021  1.2565
 3843SOL     OW22990   4.636   1.345  17.262  0.1370 -0.4716  0.3222
 3843SOL    HW122991   4.597   1.363  17.177 -0.5281  0.1844  0.7752
 3843SOL    HW222992   4.601   1.261  17.292  1.5352 -1.4854 -0.8227
 3844SOL     OW22993   2.868   3.735  16.853  0.0538 -0.3520 -0.2076
 3844SOL    HW122994   2.898   3.784  16.929 -1.6663  0.5735 -0.1311
 3844SOL    HW222995   2.807   3.799  16.815  0.2619 -0.1850 -0.2581
 3845SOL     OW22996   2.795   2.895   6.164  0.6497  0.0139  0.2672
 3845SOL    HW122997   2.868   2.911   6.104  0.4453  3.9451  1.0435
 3845SOL    HW222998   2.817   2.948   6.240  0.3002  0.2256  0.2232
 3846SOL     OW22999   2.442   0.670   9.201  0.3227 -0.2435 -0.0762
 3846SOL    HW123000   2.351   0.668   9.169  0.1507  0.3022  0.3774
 3846SOL    HW223001   2.439   0.762   9.225 -0.7913 -0.3634  0.2545
 3847SOL     OW23002   0.639   1.895  12.650 -0.0237 -0.0117  0.1949
 3847SOL    HW123003   0.607   1.825  12.593  3.1525 -0.1517 -1.4364
 3847SOL    HW223004   0.558   1.921  12.694 -0.2474  0.6452 -0.6111
 3848SOL     OW23005   2.486   1.369   8.215 -0.7133 -0.2290  0.2873
 3848SOL    HW123006   2.466   1.362   8.121 -1.3709 -2.7352  0.6314
 3848SOL    HW223007   2.477   1.283   8.256  0.1525  0.5281  2.0564
 3849SOL     OW23008   3.176   0.949   2.363  0.6485  0.3028 -0.2717
 3849SOL    HW123009   3.118   0.973   2.292 -0.7562 -3.9694 -0.5699
 3849SOL    HW223010   3.263   0.963   2.325  1.1861  1.3536  1.3086
 3850SOL     OW23011   4.668   4.619   4.184  0.1895 -0.1403  0.1883
 3850SOL    HW123012   4.650   4.528   4.206 -1.5816 -0.3317 -2.0865
 3850SOL    HW223013   0.030   4.617   4.145  1.9124 -1.3073  4.0422
 3851SOL     OW23014   3.182   3.252  12.418  0.5050  0.0656 -0.2067
 3851SOL    HW123015   3.188   3.327  12.360 -0.1601 -1.2354 -1.9354
 3851SOL    HW223016   3.257   3.200  12.388  2.2165  2.0090  0.6758
 3852SOL     OW23017   2.652   3.069   1.169  0.3779 -0.1955  0.0980
 3852SOL    HW123018   2.733   3.065   1.118  0.0553 -0.7299 -0.3735
 3852SOL    HW223019   2.630   2.979   1.191  3.0194 -1.1896 -1.3555
 3853SOL     OW23020   2.130   1.065   4.525 -0.1233  0.1431  0.2454
 3853SOL    HW123021   2.125   1.003   4.452 -2.7220  1.8843 -1.0495
 3853SOL    HW223022   2.058   1.127   4.511 -1.1757 -1.1133  0.0664
 3854SOL     OW23023   4.290   1.814   0.376  0.9757  0.0593  0.0386
 3854SOL    HW123024   4.341   1.744   0.417  2.1426  1.8850  1.7209
 3854SOL    HW223025   4.362   1.852   0.327  0.0655  1.2274 -0.3881
 3855SOL     OW23026   2.624   0.635   3.220  0.0697  0.4938  0.1072
 3855SOL    HW123027   2.677   0.562   3.188  0.2882  0.3411  0.8167
 3855SOL    HW223028   2.545   0.625   3.167  0.8991  1.8402 -1.3542
 3856SOL     OW23029   1.953   4.126   8.802  0.0756 -0.1027  0.3323
 3856SOL    HW123030   1.954   4.090   8.891 -2.1020 -1.6302 -0.2470
 3856SOL    HW223031   1.922   4.215   8.815 -0.8416 -0.5199  1.0390
 3857SOL     OW23032   3.231   2.022   6.044  0.3839 -0.2564  0.5808
 3857SOL    HW123033   3.322   1.992   6.042  0.2198 -0.7342  0.1793
 3857SOL    HW223034   3.195   1.957   6.104 -0.3887 -1.4915 -1.2136
 3858SOL     OW23035   0.883   1.296  13.834 -0.1261  0.2837 -0.2291
 3858SOL    HW123036   0.820   1.224  13.843  0.2625 -0.0229  0.0433
 3858SOL    HW223037   0.962   1.245  13.813 -1.1435 -0.3268 -2.6459
 3859SOL     OW23038   0.140   1.054   6.984 -0.7929 -0.1302  0.1093
 3859SOL    HW123039   0.069   1.054   7.048 -0.1565 -0.2244  0.8226
 3859SOL    HW223040   0.212   1.026   7.042  1.8971  1.1058 -2.6423
 3860SOL     OW23041   2.743   0.875   5.280  0.6921 -0.2804 -0.2443
 3860SOL    HW123042   2.833   0.866   5.249  0.9785 -0.1247  0.5282
 3860SOL    HW223043   2.708   0.802   5.229 -1.6298  0.5543  0.1595
 3861SOL     OW23044   2.551   0.629   3.751  0.5314  0.0187  0.4389
 3861SOL    HW123045   2.541   0.673   3.667 -0.4796 -0.7817  0.1390
 3861SOL    HW223046   2.641   0.599   3.740 -0.0817 -1.5937 -0.1372
 3862SOL     OW23047   4.268   0.130   6.247 -0.2039  0.0005 -0.3039
 3862SOL    HW123048   4.175   0.149   6.231 -0.6432 -1.3134  0.6782
 3862SOL    HW223049   4.260   0.042   6.282 -1.3240  1.5526  3.3124
 3863SOL     OW23050   3.380   2.431  11.078  0.3363  0.3307 -0.3272
 3863SOL    HW123051   3.341   2.455  10.994 -1.5370  0.0076  0.4460
 3863SOL    HW223052   3.393   2.336  11.071 -0.3879  0.4858 -3.4512
 3864SOL     OW23053   2.939   1.506   4.684 -0.4549  0.0969 -0.3475
 3864SOL    HW123054   2.994   1.550   4.619  0.7978  0.2383  0.8228
 3864SOL    HW223055   2.879   1.580   4.695 -0.8341  0.0532 -2.0972
 3865SOL     OW23056   3.635   2.210  17.472  0.3079  0.0623  0.4152
 3865SOL    HW123057   3.563   2.176  17.419  1.0643 -0.8638 -0.0144
 3865SOL    HW223058   3.661   2.126  17.510  2.0152  0.1896 -0.4639
 3866SOL     OW23059   1.028   0.881   8.806  0.1958  0.1231  0.9705
 3866SOL    HW123060   1.030   0.974   8.785 -0.5047 -0.4944 -1.8541
 3866SOL    HW223061   1.027   0.888   8.901 -0.1179  1.0207  0.8981
 3867SOL     OW23062   0.461   3.307   3.068 -0.0666  0.2160 -0.4245
 3867SOL    HW123063   0.453   3.265   3.154 -0.3953  0.7607 -0.1879
 3867SOL    HW223064   0.372   3.343   3.070  0.3129  1.2608 -2.8112
 3868SOL     OW23065   2.371   2.921   2.716  0.1590  0.7154 -0.0818
 3868SOL    HW123066   2.342   2.969   2.793  0.6670  0.7356  0.0934
 3868SOL    HW223067   2.460   2.889   2.727 -0.5509 -1.5874 -1.1177
 3869SOL     OW23068   3.248   0.246   5.172 -0.3106  0.5583 -0.0282
 3869SOL    HW123069   3.295   0.174   5.214 -2.8166  0.3097  2.3872
 3869SOL    HW223070   3.227   0.303   5.246 -1.5833  0.8674 -0.6264
 3870SOL     OW23071   3.767   4.580   4.312 -0.4780  0.3026  0.0453
 3870SOL    HW123072   3.825   4.608   4.241  0.6713  1.1237  1.3239
 3870SOL    HW223073   3.685   4.619   4.281 -1.3189 -3.0212 -1.8957
 3871SOL     OW23074   2.076   4.682  14.035  0.4486  0.0444  0.2831
 3871SOL    HW123075   2.066   0.037  13.986 -0.8702 -1.5153 -2.0436
 3871SOL    HW223076   1.988   4.644  14.035 -0.4128  2.0624  0.0428
 3872SOL     OW23077   2.997   1.484   8.971  0.3815 -0.4340 -0.4341
 3872SOL    HW123078   3.062   1.537   8.925 -0.5318  1.1763  0.1361
 3872SOL    HW223079   3.059   1.442   9.030 -0.4129  1.5778  1.8618
 3873SOL     OW23080   4.455   1.661  17.087  0.0270  0.1846 -0.0984
 3873SOL    HW123081   4.541   1.685  17.121  0.6843 -0.4767 -1.2870
 3873SOL    HW223082   4.453   1.570  17.115 -2.0117 -0.1341 -1.2475
 3874SOL     OW23083   1.885   3.935   5.884  0.0813 -0.4245 -0.4556
 3874SOL    HW123084   1.953   4.001   5.894  2.6193 -3.0401 -0.2324
 3874SOL    HW223085   1.864   3.915   5.975 -1.1284 -1.3355 -0.9352
 3875SOL     OW23086   1.498   1.169   7.090 -0.2712  0.5236  0.5672
 3875SOL    HW123087   1.460   1.246   7.131 -3.7805 -1.9663  1.9147
 3875SOL    HW223088   1.546   1.215   7.020  1.2223 -1.0498  0.5603
 3876SOL     OW23089   1.832   0.516   3.389  0.4180  0.0042  0.1912
 3876SOL    HW123090   1.904   0.487   3.445 -0.0268  1.5308  1.5351
 3876SOL    HW223091   1.864   0.595   3.347 -0.5808 -0.0614 -0.6980
 3877SOL     OW23092   3.252   4.563  13.556 -0.0879  0.1988  0.0532
 3877SOL    HW123093   3.212   4.479  13.533 -1.2293  0.8567 -0.3759
 3877SOL    HW223094   3.218   4.628  13.495 -1.1016 -0.1084  0.2969
 3878SOL     OW23095   2.891   1.838   9.414  0.0867  0.5850 -0.4111
 3878SOL    HW123096   2.958   1.770   9.412 -0.9198 -0.4515  0.4335
 3878SOL    HW223097   2.814   1.785   9.436 -0.1220  1.3828  0.8161
 3879SOL     OW23098   1.824   1.590   8.457  0.3945 -0.1933 -0.4969
 3879SOL    HW123099   1.910   1.625   8.435 -0.1849  0.9219 -0.9743
 3879SOL    HW223100   1.783   1.579   8.372 -1.9109 -2.7141  0.9059
 3880SOL     OW23101   4.053   4.393   3.484  0.6559 -0.3483  0.2677
 3880SOL    HW123102   4.111   4.399   3.407 -0.8426 -0.4871 -0.8837
 3880SOL    HW223103   3.967   4.381   3.442  1.4979  0.4169 -1.6922
 3881SOL     OW23104   2.007   3.200   7.316  0.6100 -0.0735  0.4052
 3881SOL    HW123105   1.998   3.195   7.411  3.3679 -1.6751  0.5650
 3881SOL    HW223106   1.928   3.154   7.287  0.2477  0.2096  0.9621
 3882SOL     OW23107   1.821   1.247   7.366  0.5550  0.0544  0.0997
 3882SOL    HW123108   1.888   1.309   7.398  0.4585 -0.3278  1.0380
 3882SOL    HW223109   1.879   1.172   7.356 -0.5874 -1.0561  1.8088
 3883SOL     OW23110   4.239   0.786   9.455  0.8366  0.6045  0.0274
 3883SOL    HW123111   4.266   0.733   9.529  0.1738 -1.2417 -1.0416
 3883SOL    HW223112   4.262   0.872   9.490 -1.7084  1.0558  0.5880
 3884SOL     OW23113   2.467   0.760  11.266 -0.2799  0.7350  0.5818
 3884SOL    HW123114   2.435   0.809  11.190 -1.0509 -1.2197 -0.3540
 3884SOL    HW223115   2.472   0.832  11.329  2.2952  2.1825 -1.2557
 3885SOL     OW23116   4.340   4.673  11.479 -0.4728 -0.6981  0.0859
 3885SOL    HW123117   4.302   0.021  11.525 -0.4902 -0.1118 -0.8749
 3885SOL    HW223118   4.364   4.626  11.559 -3.1733  0.0591  1.3354
 3886SOL     OW23119   1.066   3.028   4.606 -0.7121 -0.4814 -0.5170
 3886SOL    HW123120   1.138   3.086   4.581  0.7489 -1.8804  0.4918
 3886SOL    HW223121   1.007   3.048   4.534  0.1280 -0.8156 -1.2893
 3887SOL     OW23122   3.121   3.234   7.689 -0.0226  0.4792 -0.0430
 3887SOL    HW123123   3.153   3.213   7.601  0.2452  0.0990  0.1444
 3887SOL    HW223124   3.197   3.216   7.745  0.9224  1.9131 -0.8812
 3888SOL     OW23125   1.004   2.406   8.314 -0.1847 -0.3733 -0.7025
 3888SOL    HW123126   0.951   2.380   8.240 -0.3379 -0.9684 -0.3832
 3888SOL    HW223127   0.988   2.499   8.328  2.0514 -0.1509  0.5396
 3889SOL     OW23128   2.789   1.740  14.998  0.6448 -0.0957  0.2947
 3889SOL    HW123129   2.865   1.736  14.939  3.0510 -0.9781  3.4408
 3889SOL    HW223130   2.742   1.808  14.950 -1.3342 -0.9590  1.0385
 3890SOL     OW23131   3.475   1.960   2.851 -0.3968  0.0284  0.2400
 3890SOL    HW123132   3.453   2.038   2.901 -2.5674  0.2248 -1.0363
 3890SOL    HW223133   3.470   1.889   2.916 -0.5163 -0.0976  0.0931
 3891SOL     OW23134   2.600   1.758   6.427 -0.2693  0.2153 -0.1608
 3891SOL    HW123135   2.597   1.810   6.346 -2.7504 -0.7322 -0.6831
 3891SOL    HW223136   2.505   1.750   6.442 -0.3958  0.9374 -0.5983
 3892SOL     OW23137   0.314   1.248   1.903  0.1211  0.1748  0.0200
 3892SOL    HW123138   0.357   1.260   1.987  0.2851  1.8404 -0.2970
 3892SOL    HW223139   0.268   1.165   1.913  2.1880 -0.7743  1.5653
 3893SOL     OW23140   4.548   2.701   7.918 -0.1836 -0.5646  0.1424
 3893SOL    HW123141   4.616   2.764   7.892  0.4057 -1.0323  0.5376
 3893SOL    HW223142   4.567   2.625   7.863 -2.7686 -1.3040  0.2953
 3894SOL     OW23143   2.144   4.442   2.000  0.5834  0.0157 -0.1137
 3894SOL    HW123144   2.160   4.481   2.086  0.2567  3.7577 -1.7243
 3894SOL    HW223145   2.053   4.466   1.983  0.1671 -1.3627  0.2040
 3895SOL     OW23146   0.737   1.538   8.822  0.1501  0.7334 -1.0768
 3895SOL    HW123147   0.747   1.571   8.733  0.0531  3.3687 -0.1127
 3895SOL    HW223148   0.715   1.624   8.857 -1.2665 -0.8597  1.9598
 3896SOL     OW23149   2.189   2.541  12.177  0.0367  0.2610 -0.5181
 3896SOL    HW123150   2.195   2.465  12.120  2.4245 -0.1720  0.3250
 3896SOL    HW223151   2.095   2.560  12.177  0.0582  0.3742 -0.8424
 3897SOL     OW23152   4.280   4.240   7.521  0.2357 -0.2914 -0.1593
 3897SOL    HW123153   4.185   4.254   7.513  0.4690  1.0536 -0.6958
 3897SOL    HW223154   4.278   4.154   7.562  1.0344  0.2093  0.9233
 3898SOL     OW23155   2.412   2.924   1.559  0.5083 -0.5184  0.0350
 3898SOL    HW123156   2.458   2.847   1.591  1.5967 -0.2821 -0.9699
 3898SOL    HW223157   2.419   2.974   1.640  0.2827  1.6125 -1.2557
 3899SOL     OW23158   1.091   3.638   7.094 -0.3717  0.5155 -0.1593
 3899SOL    HW123159   1.008   3.623   7.138  1.3463 -0.2597  2.8000
 3899SOL    HW223160   1.139   3.608   7.171 -1.3082 -2.2578 -0.6432
 3900SOL     OW23161   1.002   1.594   2.863  0.2174  0.2465 -0.4358
 3900SOL    HW123162   0.921   1.579   2.912  1.3416  0.4871  1.4992
 3900SOL    HW223163   1.032   1.503   2.869  0.9975  0.3604 -2.3634
 3901SOL     OW23164   4.121   0.782   3.819  0.2072 -0.1199  0.5953
 3901SOL    HW123165   4.029   0.796   3.799 -0.3141 -1.5361  2.0642
 3901SOL    HW223166   4.139   0.708   3.761 -2.3766 -0.9149  0.8209
 3902SOL     OW23167   0.698   2.744   4.326  0.5346 -0.2611  0.0824
 3902SOL    HW123168   0.768   2.684   4.299  0.1541 -0.3850 -0.6453
 3902SOL    HW223169   0.618   2.691   4.326  0.3646 -0.0050 -1.2145
 3903SOL     OW23170   1.734   0.767   4.658  0.3285 -0.2407  0.5815
 3903SOL    HW123171   1.820   0.751   4.696 -0.5531 -0.0772  2.6393
 3903SOL    HW223172   1.696   0.818   4.729 -0.7152  0.2077 -0.2893
 3904SOL     OW23173   3.975   0.926   1.348 -0.0021 -0.1922 -0.0006
 3904SOL    HW123174   3.917   0.891   1.415 -1.4544  2.4035  0.1179
 3904SOL    HW223175   4.036   0.853   1.341 -1.4287 -1.3993  0.3255
 3905SOL     OW23176   0.676   0.220   6.927 -0.0441 -0.3533 -0.5287
 3905SOL    HW123177   0.754   0.178   6.964  0.5637  0.4044 -0.9345
 3905SOL    HW223178   0.640   0.275   6.996  0.1178 -1.2901  0.2928
 3906SOL     OW23179   0.671   3.494   9.569 -0.1111  0.4423 -0.1067
 3906SOL    HW123180   0.651   3.402   9.586  0.4844  0.2494 -0.4661
 3906SOL    HW223181   0.718   3.510   9.651 -0.7685  1.3683  0.0999
 3907SOL     OW23182   2.886   0.290  17.154  0.0651 -0.1612  0.2272
 3907SOL    HW123183   2.876   0.375  17.111  2.7155 -0.1529 -0.3605
 3907SOL    HW223184   2.857   0.299  17.245  0.6243  4.5557 -0.0112
 3908SOL     OW23185   4.081   0.356   0.866 -0.1750  0.2582 -0.0111
 3908SOL    HW123186   4.013   0.416   0.898  1.3435  2.8545 -1.6393
 3908SOL    HW223187   4.100   0.372   0.773 -2.9545  2.6852 -0.1692
 3909SOL     OW23188   3.716   0.758   4.920  0.0644  0.0855 -0.2424
 3909SOL    HW123189   3.654   0.829   4.903  0.6746  0.5156 -0.6831
 3909SOL    HW223190   3.664   0.677   4.914  2.3819 -1.4682  0.4991
 3910SOL     OW23191   0.809   0.302   1.800  0.2515  0.2809  0.2349
 3910SOL    HW123192   0.786   0.378   1.746  0.1158  1.2499  1.6559
 3910SOL    HW223193   0.786   0.344   1.883 -0.2463  1.0926 -0.3164
 3911SOL     OW23194   2.964   1.898   7.294 -0.1236 -0.3896 -0.0323
 3911SOL    HW123195   2.943   1.857   7.377  1.2294  0.3958  0.6989
 3911SOL    HW223196   3.041   1.951   7.315 -0.6998  0.1159  0.8118
 3912SOL     OW23197   2.285   0.517  12.660  0.0585 -0.3051  0.1863
 3912SOL    HW123198   2.260   0.567  12.583  2.2248  0.6649  0.1015
 3912SOL    HW223199   2.375   0.548  12.674  1.0334 -3.1253  0.2393
 3913SOL     OW23200   1.556   4.248   7.231  0.2837 -0.1503  0.6268
 3913SOL    HW123201   1.532   4.271   7.141  1.2070 -0.8201  0.2115
 3913SOL    HW223202   1.636   4.196   7.229 -1.0902 -2.1902 -0.2643
 3914SOL     OW23203   3.203   3.770   8.478  0.0870 -0.2292 -0.0301
 3914SOL    HW123204   3.269   3.717   8.434 -0.3342  2.0546 -3.4430
 3914SOL    HW223205   3.262   3.822   8.532 -2.7477  0.5209  2.3101
 3915SOL     OW23206   3.846   3.103   9.460 -0.4446 -0.4689 -0.9418
 3915SOL    HW123207   3.904   3.028   9.476 -0.7624 -0.1729  1.6346
 3915SOL    HW223208   3.877   3.142   9.378 -0.7263  0.6958 -0.4937
 3916SOL     OW23209   0.703   2.229   2.827 -0.0418 -0.5162  0.4489
 3916SOL    HW123210   0.637   2.218   2.896  0.9706  0.1585  1.5285
 3916SOL    HW223211   0.666   2.173   2.759 -2.3825 -0.5859  1.7961
 3917SOL     OW23212   1.068   1.453   7.452 -0.0102  0.2389  0.2247
 3917SOL    HW123213   1.164   1.453   7.459 -0.0575  0.7225  0.8472
 3917SOL    HW223214   1.044   1.405   7.531  1.4267  1.9890  1.7228
 3918SOL     OW23215   1.270   0.473  11.056  0.1363 -0.1576  0.0384
 3918SOL    HW123216   1.315   0.455  10.973  1.6691 -0.7325  0.9861
 3918SOL    HW223217   1.178   0.486  11.033  0.3761  0.2278 -0.7046
 3919SOL     OW23218   2.337   1.359   2.412  0.4581 -0.5647  0.3446
 3919SOL    HW123219   2.392   1.356   2.334 -1.5810 -1.5396 -1.0758
 3919SOL    HW223220   2.277   1.431   2.391 -1.7111 -2.8117 -1.2604
 3920SOL     OW23221   4.498   2.321   3.812  0.4264 -0.0037  0.0273
 3920SOL    HW123222   4.534   2.410   3.800 -2.6872  1.1341 -0.7596
 3920SOL    HW223223   4.568   2.263   3.842  0.3186 -0.8750 -1.4280
 3921SOL     OW23224   1.937   4.542   5.657 -0.4169 -0.2463 -0.1171
 3921SOL    HW123225   1.956   4.632   5.633 -1.3796 -0.0090 -0.0014
 3921SOL    HW223226   1.962   4.553   5.749 -2.0611 -2.3626  0.5830
 3922SOL     OW23227   3.137   4.542   7.262 -0.7867 -0.0805  0.0183
 3922SOL    HW123228   3.179   4.530   7.177  0.6392  0.7264  0.6074
 3922SOL    HW223229   3.047   4.521   7.237 -0.0587 -1.3639 -1.5496
 3923SOL     OW23230   2.228   2.684   3.450 -0.6473 -0.2468  0.5213
 3923SOL    HW123231   2.191   2.729   3.374  0.3816 -1.9753 -1.0027
 3923SOL    HW223232   2.149   2.652   3.494  0.4531 -3.3651  0.2596
 3924SOL     OW23233   0.324   3.386   4.462  0.3598 -0.2036 -0.2056
 3924SOL    HW123234   0.282   3.366   4.378 -0.7108 -0.5598  0.4195
 3924SOL    HW223235   0.267   3.338   4.522 -1.8161  0.2058 -1.9592
 3925SOL     OW23236   3.204   2.075   1.923 -0.5369  0.3337  0.1247
 3925SOL    HW123237   3.120   2.029   1.919 -0.0909 -0.5466  0.7745
 3925SOL    HW223238   3.266   2.018   1.878 -2.0733 -0.2270 -1.2865
 3926SOL     OW23239   0.520   0.197   8.582 -0.2103  0.7455  0.0666
 3926SOL    HW123240   0.451   0.262   8.582  1.5879  2.6518 -1.1255
 3926SOL    HW223241   0.480   0.116   8.615 -1.1957  1.4821  0.6761
 3927SOL     OW23242   4.435   2.537   0.400 -0.8953  0.2869  0.2816
 3927SOL    HW123243   4.426   2.599   0.472 -1.5835  0.8285 -0.2647
 3927SOL    HW223244   4.370   2.471   0.423  0.9375 -0.3542  3.5888
 3928SOL     OW23245   3.960   4.251  13.940  0.1302  0.6247 -0.0845
 3928SOL    HW123246   3.898   4.192  13.982  0.6727  0.0814 -0.0539
 3928SOL    HW223247   4.032   4.243  14.001  1.1429  1.5625 -1.1435
 3929SOL     OW23248   0.690   0.179   4.824  0.3237 -0.1063  0.1619
 3929SOL    HW123249   0.747   0.256   4.821  1.3556 -0.9066 -0.3131
 3929SOL    HW223250   0.603   0.218   4.814  0.9448  1.6718  1.5868
 3930SOL     OW23251   1.149   4.390   5.816  0.2976 -0.2181 -0.2393
 3930SOL    HW123252   1.166   4.305   5.776  0.4904 -0.1200 -0.3672
 3930SOL    HW223253   1.140   4.373   5.910  0.2957  0.6786 -0.0830
 3931SOL     OW23254   2.004   3.270   5.714 -0.2588  0.0184 -0.4859
 3931SOL    HW123255   2.018   3.211   5.788  0.2058 -0.5100 -0.9985
 3931SOL    HW223256   1.937   3.330   5.747 -1.1795  0.3049 -2.8155
 3932SOL     OW23257   3.761   0.338   8.227  0.1904 -0.1628 -0.1602
 3932SOL    HW123258   3.759   0.354   8.322 -2.3064  1.1785 -0.4371
 3932SOL    HW223259   3.830   0.272   8.225  0.7650  0.4263 -0.0124
 3933SOL     OW23260   4.618   2.069   3.868 -0.1399  0.2214 -0.3476
 3933SOL    HW123261   4.656   1.993   3.823  1.5263  0.7717  0.1270
 3933SOL    HW223262   4.541   2.026   3.905  1.2557 -1.0264  1.1007
 3934SOL     OW23263   1.890   4.496   4.111  0.2294 -0.2657 -0.0240
 3934SOL    HW123264   1.843   4.474   4.031  2.7657 -1.1096 -1.2684
 3934SOL    HW223265   1.937   4.415   4.131  1.6188 -0.2902 -3.4830
 3935SOL     OW23266   1.835   4.556   0.699 -0.3246  0.5227 -0.0076
 3935SOL    HW123267   1.777   4.609   0.645  0.0521  0.1506 -0.7814
 3935SOL    HW223268   1.786   4.551   0.781 -0.8220  3.9097 -0.1086
 3936SOL     OW23269   0.695   0.196   2.670  0.1663 -0.2692  0.0162
 3936SOL    HW123270   0.670   0.120   2.618  0.8915 -1.9370  2.0813
 3936SOL    HW223271   0.715   0.270   2.613  0.5586 -0.8143 -0.5563
 3937SOL     OW23272   1.102   3.625   1.595  0.1100  0.0851 -0.0660
 3937SOL    HW123273   1.063   3.583   1.518  0.8157  1.8024 -1.3496
 3937SOL    HW223274   1.194   3.598   1.588  0.9199  2.7737  0.0842
 3938SOL     OW23275   1.185   1.312   5.097  0.0452  0.2070 -0.1405
 3938SOL    HW123276   1.201   1.406   5.104 -2.7372  0.6246  0.7525
 3938SOL    HW223277   1.263   1.275   5.138 -1.1598  0.2081  2.1688
 3939SOL     OW23278   2.460   2.856   8.718 -0.4802  0.3362  0.0017
 3939SOL    HW123279   2.509   2.932   8.749 -1.8101  1.0213  0.4622
 3939SOL    HW223280   2.393   2.847   8.786 -0.7913 -2.7121 -0.7291
 3940SOL     OW23281   1.119   2.120   0.363 -0.0685 -0.1202 -0.1711
 3940SOL    HW123282   1.210   2.093   0.350 -0.6125 -1.2293 -1.6838
 3940SOL    HW223283   1.122   2.192   0.426 -0.1127 -0.8944  0.7066
 3941SOL     OW23284   1.790   0.168   5.432 -0.5841  0.4564 -0.3381
 3941SOL    HW123285   1.771   0.255   5.397 -2.3973 -0.0260 -0.5460
 3941SOL    HW223286   1.723   0.164   5.500 -0.0502  0.7783  0.2093
 3942SOL     OW23287   2.982   1.157   7.766 -0.6721  0.1108  0.3121
 3942SOL    HW123288   2.935   1.234   7.798 -2.4570 -0.9324  0.2397
 3942SOL    HW223289   3.011   1.114   7.847 -1.0533  0.9201  0.8802
 3943SOL     OW23290   2.651   0.206   8.078 -0.2998 -0.2487  0.0693
 3943SOL    HW123291   2.677   0.249   7.997 -1.7779  1.9777  0.7731
 3943SOL    HW223292   2.562   0.238   8.092  0.4392  1.3908  0.9352
 3944SOL     OW23293   4.082   0.839   5.344  0.0186  0.0735 -0.2552
 3944SOL    HW123294   4.014   0.772   5.350  1.2989 -1.1094  1.1404
 3944SOL    HW223295   4.125   0.830   5.430  0.3071  0.3237 -0.3727
 3945SOL     OW23296   3.560   4.064   4.796  0.4708  0.0932  0.1950
 3945SOL    HW123297   3.648   4.060   4.834  1.1371 -0.2202 -1.3815
 3945SOL    HW223298   3.534   3.972   4.794 -3.3119  1.1344  1.2679
 3946SOL     OW23299   3.146   3.823   3.468  0.0018 -0.2037 -0.6854
 3946SOL    HW123300   3.094   3.903   3.460 -2.9180 -1.9070  0.8751
 3946SOL    HW223301   3.122   3.772   3.391 -0.1226  0.1933 -0.9105
 3947SOL     OW23302   2.422   0.694   8.097 -0.1723  0.4437  0.4118
 3947SOL    HW123303   2.498   0.640   8.121 -0.8871 -0.6588  0.1809
 3947SOL    HW223304   2.440   0.775   8.145 -0.2742 -0.0773  1.3304
 3948SOL     OW23305   2.393   4.459   6.752 -0.0148 -0.0128 -0.4251
 3948SOL    HW123306   2.313   4.407   6.745 -0.8566  1.2508 -0.3372
 3948SOL    HW223307   2.354   4.537   6.792  2.2469  0.5979  0.5983
 3949SOL     OW23308   3.162   1.992   8.398  0.2239  0.1160  0.4101
 3949SOL    HW123309   3.104   1.916   8.399 -1.6697  1.5529  0.3917
 3949SOL    HW223310   3.237   1.939   8.373  0.8510  0.9055  0.6227
 3950SOL     OW23311   1.672   3.674   8.998 -0.2870  0.2232  0.6269
 3950SOL    HW123312   1.694   3.609   8.930  0.3487  1.4239 -0.3096
 3950SOL    HW223313   1.598   3.716   8.954  1.1596  1.4509 -0.6346
 3951SOL     OW23314   2.537   0.845  11.009  0.0521 -0.1583  0.3211
 3951SOL    HW123315   2.535   0.933  10.971  0.5488 -0.2678  0.0470
 3951SOL    HW223316   2.621   0.810  10.979  0.6081 -2.2077  4.3900
 3952SOL     OW23317   4.583   2.689   1.183  0.1195 -0.2087 -0.3833
 3952SOL    HW123318   4.665   2.737   1.196  0.2337 -0.5689  0.2072
 3952SOL    HW223319   4.520   2.731   1.241  0.3701 -1.0986  0.5449
 3953SOL     OW23320   0.771   0.320   8.651  0.0175  0.0742 -0.7056
 3953SOL    HW123321   0.681   0.311   8.621 -1.3408  3.3134  2.3079
 3953SOL    HW223322   0.823   0.261   8.597 -0.5893 -1.6463  0.5757
 3954SOL     OW23323   1.188   2.534   8.142 -0.0098  0.0395 -0.2697
 3954SOL    HW123324   1.169   2.507   8.052  0.7046 -2.2467  0.2564
 3954SOL    HW223325   1.152   2.462   8.193 -0.7998 -0.0386 -0.9358
 3955SOL     OW23326   2.432   1.441   5.215 -0.0892 -0.0513 -0.0359
 3955SOL    HW123327   2.381   1.511   5.255 -2.6546 -1.9088 -0.1046
 3955SOL    HW223328   2.359   1.380   5.215  0.6110 -0.8885  1.2475
 3956SOL     OW23329   3.277   3.891   4.204 -0.1530  0.4833  0.1714
 3956SOL    HW123330   3.355   3.908   4.151  1.5506 -0.4729  2.3410
 3956SOL    HW223331   3.252   3.807   4.166  2.1797  0.3131 -1.0149
 3957SOL     OW23332   3.158   3.084  17.033 -0.2998 -0.2972  0.2588
 3957SOL    HW123333   3.158   3.119  17.122 -2.6511  0.7120 -0.1319
 3957SOL    HW223334   3.225   3.138  16.992  1.0505 -0.8854  1.6473
 3958SOL     OW23335   2.843   1.818  12.914  0.2113  0.0573  0.3703
 3958SOL    HW123336   2.899   1.851  12.843  0.8042  0.7710  1.1825
 3958SOL    HW223337   2.761   1.860  12.889  1.2342  2.3666  0.9152
 3959SOL     OW23338   1.005   0.145   5.937  0.6351  0.5296 -0.0329
 3959SOL    HW123339   0.918   0.178   5.960  1.1313  0.8535  1.4167
 3959SOL    HW223340   1.040   0.110   6.019  3.1189  1.0949 -0.8370
 3960SOL     OW23341   4.421   1.524   2.703 -0.3470 -0.0865 -0.1417
 3960SOL    HW123342   4.507   1.503   2.738  0.7691  2.2944 -1.4082
 3960SOL    HW223343   4.367   1.461   2.749  0.0437  0.5816  1.2319
 3961SOL     OW23344   3.829   1.752   7.459 -0.1488 -0.3753  0.2178
 3961SOL    HW123345   3.921   1.767   7.484 -0.2728 -2.3554  1.8999
 3961SOL    HW223346   3.796   1.842   7.468  0.2368 -0.2731  0.6371
 3962SOL     OW23347   1.440   1.262   2.432  0.1638  0.3945  0.2421
 3962SOL    HW123348   1.399   1.258   2.346  0.8487  0.0291 -0.0689
 3962SOL    HW223349   1.471   1.174   2.453 -0.8760  0.2387  1.0977
 3963SOL     OW23350   3.549   0.895  14.419  0.6209 -0.7289  0.0321
 3963SOL    HW123351   3.512   0.947  14.490 -1.6131 -0.5418 -1.2624
 3963SOL    HW223352   3.621   0.850  14.462  0.7922 -1.7320 -1.2912
 3964SOL     OW23353   3.411   3.651   8.346 -0.0784 -0.1867 -0.1502
 3964SOL    HW123354   3.348   3.614   8.283 -0.3471  1.7325 -1.0009
 3964SOL    HW223355   3.489   3.596   8.347 -1.0929 -1.6315 -1.0271
 3965SOL     OW23356   3.614   2.028   8.921  0.2577 -0.2578 -0.8134
 3965SOL    HW123357   3.673   1.954   8.906  3.8310  1.9100  2.5851
 3965SOL    HW223358   3.579   2.003   9.007  1.1173  0.5576 -0.2204
 3966SOL     OW23359   2.593   2.714  15.434 -0.3128  0.4852  0.2533
 3966SOL    HW123360   2.545   2.634  15.459  1.6262 -1.4702 -2.3359
 3966SOL    HW223361   2.541   2.734  15.357 -0.0129  1.0187  0.1911
 3967SOL     OW23362   1.953   3.859   3.767 -0.4562 -0.1047 -0.5106
 3967SOL    HW123363   1.865   3.896   3.771 -0.5187 -0.1741 -1.1276
 3967SOL    HW223364   1.925   3.772   3.738  1.8346 -1.3910  1.1149
 3968SOL     OW23365   3.653   0.922   1.151  0.1577  0.5531  0.0571
 3968SOL    HW123366   3.698   0.988   1.098  1.4370 -1.7716 -1.6918
 3968SOL    HW223367   3.682   0.957   1.236  1.9909 -0.0121 -0.3400
 3969SOL     OW23368   2.177   0.044   1.816 -0.5350  0.3492  0.1952
 3969SOL    HW123369   2.161   0.007   1.729 -0.4331 -0.4271  0.5035
 3969SOL    HW223370   2.272   0.035   1.811 -0.6559 -0.2466 -1.0366
 3970SOL     OW23371   2.763   2.140   5.562 -0.2751 -0.2003 -0.7833
 3970SOL    HW123372   2.837   2.190   5.528  0.7537 -0.9852  0.3352
 3970SOL    HW223373   2.713   2.101   5.490 -0.5662  1.9016 -1.7365
 3971SOL     OW23374   3.169   4.568  13.164 -0.1413  0.4337 -0.2984
 3971SOL    HW123375   3.228   4.505  13.123 -0.0131  1.6511 -1.9938
 3971SOL    HW223376   3.208   4.650  13.132 -0.4258  0.1564 -1.3582
 3972SOL     OW23377   0.202   2.539   2.152  0.0318  0.1196  0.3873
 3972SOL    HW123378   0.126   2.519   2.206  0.2251 -1.4294  0.0920
 3972SOL    HW223379   0.171   2.526   2.062 -1.1611  1.1697  0.6464
 3973SOL     OW23380   0.942   2.783  16.489 -0.2636 -0.4103 -0.1979
 3973SOL    HW123381   0.901   2.700  16.465  2.1209 -1.3986 -0.8542
 3973SOL    HW223382   1.005   2.755  16.555  0.4690  0.1407 -0.6596
 3974SOL     OW23383   3.977   0.239   7.368  0.0539 -0.0222  0.8360
 3974SOL    HW123384   4.065   0.270   7.348  1.0512 -2.0575  2.1355
 3974SOL    HW223385   3.929   0.319   7.342 -1.3626 -1.2132 -0.2316
 3975SOL     OW23386   2.815   2.451  13.376 -0.0590  0.5313 -0.2373
 3975SOL    HW123387   2.871   2.504  13.432  0.8325 -2.9468  2.1422
 3975SOL    HW223388   2.790   2.379  13.433  0.3788  0.3045 -0.3349
 3976SOL     OW23389   3.892   3.279   3.725  0.4546 -0.2838 -0.3807
 3976SOL    HW123390   3.929   3.215   3.785 -0.7916 -0.3265  0.3355
 3976SOL    HW223391   3.952   3.274   3.650 -1.3248  3.1210 -2.0569
 3977SOL     OW23392   4.490   2.144  12.701 -1.1042  0.0301 -0.2924
 3977SOL    HW123393   4.395   2.143  12.684 -0.9841 -1.7277 -0.8879
 3977SOL    HW223394   4.481   2.146  12.796  1.8548 -0.2971 -0.0137
 3978SOL     OW23395   1.895   0.720   8.767  0.2745  0.2124  0.8836
 3978SOL    HW123396   1.920   0.685   8.681 -2.3746  2.0250 -0.6336
 3978SOL    HW223397   1.881   0.812   8.741  0.4673  0.3309  1.2090
 3979SOL     OW23398   3.504   3.557  13.582 -0.0972  0.0114  0.5041
 3979SOL    HW123399   3.541   3.594  13.502 -1.1971 -0.0183 -0.0250
 3979SOL    HW223400   3.437   3.505  13.537 -1.7600  1.9427  0.7613
 3980SOL     OW23401   3.026   0.511   0.928  0.2879 -0.0671 -0.3131
 3980SOL    HW123402   2.967   0.458   0.875  0.2296 -2.0916  1.8224
 3980SOL    HW223403   3.078   0.568   0.871 -0.1693  0.3202 -0.3490
 3981SOL     OW23404   1.218   4.447   1.693  0.3709 -0.7084 -0.3663
 3981SOL    HW123405   1.217   4.391   1.771 -0.7896 -1.6742 -1.0659
 3981SOL    HW223406   1.287   4.509   1.716 -1.6853  0.9804  1.3401
 3982SOL     OW23407   0.259   2.000  15.846 -0.3112  0.2825  0.1138
 3982SOL    HW123408   0.337   2.055  15.848  1.7964 -2.6320 -1.8136
 3982SOL    HW223409   0.226   2.040  15.926  0.7741  0.5461  0.4356
 3983SOL     OW23410   4.481   0.708  13.026 -0.6799 -0.0027  0.4135
 3983SOL    HW123411   4.442   0.624  13.003 -1.0732  0.8478 -2.0017
 3983SOL    HW223412   4.409   0.757  13.066  1.5631  1.3611  2.8161
 3984SOL     OW23413   0.615   2.224  13.809 -0.1339  0.0015 -0.2845
 3984SOL    HW123414   0.576   2.306  13.780 -0.2269  0.2024  0.4078
 3984SOL    HW223415   0.594   2.223  13.902 -0.0404  1.9033 -0.2461
 3985SOL     OW23416   2.685   1.471   5.285 -0.0167  0.0826 -0.0468
 3985SOL    HW123417   2.689   1.467   5.190  0.7107 -0.5606  0.0157
 3985SOL    HW223418   2.592   1.449   5.283 -0.0785  0.4202 -0.8510
 3986SOL     OW23419   4.354   4.650  16.723 -0.4120 -0.4322  0.2706
 3986SOL    HW123420   4.286   4.582  16.728 -0.2948 -0.4307  1.8432
 3986SOL    HW223421   4.427   4.605  16.765 -1.2059 -1.5387  0.4706
 3987SOL     OW23422   2.648   4.240   8.143  0.0732 -0.0497  0.2936
 3987SOL    HW123423   2.710   4.271   8.210  1.1909 -1.1495 -0.2352
 3987SOL    HW223424   2.689   4.285   8.069 -0.9721 -0.8348 -0.7574
 3988SOL     OW23425   2.595   1.835   3.928  0.3487 -0.3262  0.1521
 3988SOL    HW123426   2.511   1.861   3.890  1.0358 -0.5117 -1.4884
 3988SOL    HW223427   2.578   1.860   4.019 -2.0179  1.1531 -0.7155
 3989SOL     OW23428   1.914   1.308   7.747  0.2422  0.0678  0.0359
 3989SOL    HW123429   1.945   1.399   7.745  0.1464  0.0585 -1.5263
 3989SOL    HW223430   1.820   1.320   7.736  0.1984 -1.0055 -0.7131
 3990SOL     OW23431   2.016   1.659   1.460  0.0682 -0.0937 -0.2445
 3990SOL    HW123432   1.948   1.720   1.492 -0.8652 -0.7305 -1.0061
 3990SOL    HW223433   2.000   1.652   1.366 -0.9135 -1.8094  0.0481
 3991SOL     OW23434   3.302   3.132   1.183 -0.1860 -0.1289 -0.3215
 3991SOL    HW123435   3.299   3.037   1.180  3.5548 -0.3614  3.2920
 3991SOL    HW223436   3.356   3.147   1.105 -0.5337  0.2429 -0.4900
 3992SOL     OW23437   3.163   4.159   4.674 -0.0549  0.2572 -0.0445
 3992SOL    HW123438   3.144   4.251   4.656  1.0505  0.0913 -2.0765
 3992SOL    HW223439   3.213   4.148   4.593  0.8775  1.5251  0.3795
 3993SOL     OW23440   0.103   1.715   2.754 -0.5081 -0.1535 -0.0207
 3993SOL    HW123441   0.109   1.619   2.758 -1.2190 -0.1805  0.4327
 3993SOL    HW223442   0.077   1.740   2.843  1.2943  1.6285 -0.0057
 3994SOL     OW23443   2.539   0.893   2.628  0.8306  0.2808 -0.4428
 3994SOL    HW123444   2.604   0.904   2.559 -0.1047 -2.4335 -1.7352
 3994SOL    HW223445   2.480   0.964   2.605  0.1373  0.0758  0.7363
 3995SOL     OW23446   1.777   1.712   0.405 -0.2915 -0.2731  0.0121
 3995SOL    HW123447   1.757   1.746   0.492 -0.3292  2.7683 -1.1684
 3995SOL    HW223448   1.863   1.674   0.421  1.0434  1.0460 -3.8432
 3996SOL     OW23449   2.873   4.296   5.438  0.0190  0.1603 -0.0723
 3996SOL    HW123450   2.889   4.369   5.497  1.5387  0.7659 -1.2132
 3996SOL    HW223451   2.940   4.317   5.372 -1.6496 -0.1730 -1.8811
 3997SOL     OW23452   3.064   3.175  12.650  0.0172 -0.2715  0.1517
 3997SOL    HW123453   3.089   3.210  12.565  1.1964  1.8678  1.3794
 3997SOL    HW223454   2.969   3.169  12.640  0.2717 -1.3834 -1.5967
 3998SOL     OW23455   3.451   0.790   4.955  0.4867  0.0807 -0.3968
 3998SOL    HW123456   3.423   0.764   4.868 -1.3393 -0.9552  0.4769
 3998SOL    HW223457   3.422   0.881   4.966 -0.0454 -0.2346  0.8773
 3999SOL     OW23458   3.872   0.256   5.047  0.3811  0.2659 -0.1195
 3999SOL    HW123459   3.887   0.166   5.077 -2.4874  0.3551  1.5963
 3999SOL    HW223460   3.940   0.262   4.980  1.2425 -3.1705  0.4470
 4000SOL     OW23461   1.040   1.567   4.635 -0.0221  0.2645  0.1628
 4000SOL    HW123462   1.068   1.579   4.544 -1.9681  3.0597 -0.0681
 4000SOL    HW223463   0.958   1.616   4.634 -0.5708 -0.6825 -0.6524
 4001SOL     OW23464   0.959   0.158  15.533 -0.2272 -0.5687  0.2726
 4001SOL    HW123465   0.869   0.141  15.508 -0.3310 -1.6495  1.3761
 4001SOL    HW223466   0.987   0.203  15.454 -0.5602  0.5177  0.7782
 4002SOL     OW23467   1.388   4.079   7.966  0.5024 -0.7394 -0.0372
 4002SOL    HW123468   1.365   4.014   8.032 -1.0232  0.3461  0.5196
 4002SOL    HW223469   1.332   4.056   7.892  1.2513  0.9716 -1.1501
 4003SOL     OW23470   2.402   2.917   3.742 -0.8395  0.4777  0.6129
 4003SOL    HW123471   2.411   3.009   3.714 -0.7642  0.4609  0.5826
 4003SOL    HW223472   2.425   2.877   3.658  1.9250  0.8390  1.2024
 4004SOL     OW23473   1.094   0.754   5.995 -0.4391 -0.3814 -0.5382
 4004SOL    HW123474   1.083   0.680   5.935 -0.4056  1.0339 -2.3058
 4004SOL    HW223475   1.084   0.715   6.081  0.1412  0.0019 -0.2940
 4005SOL     OW23476   0.496   0.824  12.573  0.3527 -0.6597  0.4363
 4005SOL    HW123477   0.554   0.886  12.617 -0.6159 -0.0286  0.8128
 4005SOL    HW223478   0.476   0.756  12.636 -1.7607  0.0956  0.5808
 4006SOL     OW23479   0.263   0.501   0.915 -0.2639 -0.1246 -0.3450
 4006SOL    HW123480   0.332   0.452   0.961 -0.2724  0.5201  0.3664
 4006SOL    HW223481   0.297   0.590   0.926 -0.0551 -0.4558  1.8397
 4007SOL     OW23482   0.146   3.919   3.646 -0.2544  0.5645 -0.0187
 4007SOL    HW123483   0.161   3.987   3.581 -1.4367  0.7535 -0.0833
 4007SOL    HW223484   0.218   3.862   3.620  0.8425  0.8769  2.3157
 4008SOL     OW23485   3.269   1.797   4.935 -0.5473  0.7864  0.2448
 4008SOL    HW123486   3.212   1.866   4.968 -1.2154  0.5654 -0.4723
 4008SOL    HW223487   3.244   1.793   4.843 -3.1720  0.8357  0.9694
 4009SOL     OW23488   4.294   2.324   7.167 -0.2030 -0.2234 -0.0997
 4009SOL    HW123489   4.377   2.279   7.184 -0.7917 -1.2593  0.0128
 4009SOL    HW223490   4.276   2.291   7.079 -0.2901 -1.8985  0.5505
 4010SOL     OW23491   2.207   0.743   4.117  0.2002 -0.0414 -0.0477
 4010SOL    HW123492   2.132   0.741   4.059  0.8846 -0.1001 -0.9372
 4010SOL    HW223493   2.224   0.649   4.126  0.0751  0.0394  0.9866
 4011SOL     OW23494   1.273   3.009  13.206 -0.0396  0.3671  0.4212
 4011SOL    HW123495   1.256   3.049  13.291  0.3023  0.4427  0.4546
 4011SOL    HW223496   1.287   3.090  13.156  0.4699 -0.2408 -0.4197
 4012SOL     OW23497   3.627   1.604   8.091  0.9083  0.0777 -0.6163
 4012SOL    HW123498   3.699   1.667   8.093  2.4696 -1.7924  1.6504
 4012SOL    HW223499   3.623   1.595   7.995 -1.3475 -3.1680 -0.2185
 4013SOL     OW23500   1.221   1.551  12.393 -0.3596  0.1860 -0.1289
 4013SOL    HW123501   1.217   1.525  12.485  0.2396  0.3719 -0.0497
 4013SOL    HW223502   1.308   1.524  12.363 -0.4878  1.5746 -1.7532
 4014SOL     OW23503   0.841   1.309  17.619 -0.2087  0.5614  0.1828
 4014SOL    HW123504   0.786   1.262  17.557 -0.7936 -1.4912  2.2493
 4014SOL    HW223505   0.782   1.351  17.682 -0.9816  0.7390 -0.6568
 4015SOL     OW23506   2.549   3.939   3.278  0.4768 -0.2407  0.0644
 4015SOL    HW123507   2.553   3.868   3.214  1.1214 -0.4770  0.3618
 4015SOL    HW223508   2.616   3.998   3.242  1.4146 -0.3700  1.5864
 4016SOL     OW23509   2.907   1.179   1.413  0.3545 -0.2837  0.1587
 4016SOL    HW123510   2.912   1.149   1.322 -2.1531  1.8168 -0.6856
 4016SOL    HW223511   2.902   1.271   1.388 -0.0621  0.7763  4.1044
 4017SOL     OW23512   4.123   0.841   8.566 -0.0726  0.0542 -0.4654
 4017SOL    HW123513   4.047   0.811   8.616  1.3254 -0.9019  1.0711
 4017SOL    HW223514   4.187   0.865   8.633  0.1671  0.2684 -0.7668
 4018SOL     OW23515   0.961   1.824   1.229 -0.1867  0.1858  0.0400
 4018SOL    HW123516   1.015   1.900   1.248  1.9533 -1.4026  0.3630
 4018SOL    HW223517   0.898   1.827   1.301  0.5325  2.1984  0.5849
 4019SOL     OW23518   2.457   2.840   3.493 -0.0188  0.1938  0.0146
 4019SOL    HW123519   2.520   2.829   3.423 -1.0405  0.1253 -0.8860
 4019SOL    HW223520   2.400   2.764   3.483 -0.8767  0.4899  2.3983
 4020SOL     OW23521   1.952   1.161   6.115  0.2873  0.3342  0.2372
 4020SOL    HW123522   2.031   1.114   6.142  0.7777  1.6936  1.1871
 4020SOL    HW223523   1.886   1.093   6.118  0.1024  0.4556 -0.8347
 4021SOL     OW23524   0.505   1.853  15.854 -0.3921  0.4127 -0.0604
 4021SOL    HW123525   0.411   1.866  15.863 -0.2914  0.0619  1.4935
 4021SOL    HW223526   0.517   1.793  15.780 -1.0721  1.9298 -1.3979
 4022SOL     OW23527   0.754   2.189   6.686 -0.0881 -0.2675 -0.3242
 4022SOL    HW123528   0.815   2.148   6.747 -0.6596 -0.3801  0.1705
 4022SOL    HW223529   0.821   2.243   6.644  0.1565 -1.9414 -2.1001
 4023SOL     OW23530   2.099   4.139  17.503 -0.2209 -0.1004  0.0193
 4023SOL    HW123531   2.043   4.143  17.425  1.1434 -2.1595 -1.1002
 4023SOL    HW223532   2.032   4.137  17.571 -1.6315  0.4097 -1.3306
 4024SOL     OW23533   4.323   3.130   1.894  0.2149  0.4412  0.1089
 4024SOL    HW123534   4.251   3.117   1.955  1.7411  0.5266  1.9281
 4024SOL    HW223535   4.280   3.186   1.829  0.0709  0.0185 -0.1637
 4025SOL     OW23536   0.549   4.222   4.040  1.0647 -0.0229 -0.1942
 4025SOL    HW123537   0.639   4.227   4.007  0.1459  0.6335 -2.6080
 4025SOL    HW223538   0.511   4.181   3.963 -0.1396 -1.4603  1.1941
 4026SOL     OW23539   3.603   4.423  16.042 -0.0244  0.6476 -1.2772
 4026SOL    HW123540   3.662   4.369  16.095 -1.7153  0.0411 -0.0331
 4026SOL    HW223541   3.584   4.488  16.110  2.3318  1.6426 -1.5545
 4027SOL     OW23542   3.225   4.673   4.882 -0.1850 -0.5217  0.0496
 4027SOL    HW123543   3.204   4.699   4.971 -1.7880 -0.9647 -0.2040
 4027SOL    HW223544   3.276   4.595   4.903  0.1600 -0.7077 -1.4571
 4028SOL     OW23545   0.010   1.476   0.339 -0.1425  0.1091 -0.1095
 4028SOL    HW123546   0.031   1.390   0.377  1.1956  0.6376  0.3499
 4028SOL    HW223547   4.685   1.456   0.261 -1.3406 -0.9920  0.9424
 4029SOL     OW23548   2.167   2.934   6.650 -0.1587  0.5947  0.5468
 4029SOL    HW123549   2.244   2.979   6.686  0.8463  0.3186 -1.2179
 4029SOL    HW223550   2.181   2.855   6.701  0.7352 -0.4146 -1.2597
 4030SOL     OW23551   0.781   3.341   6.336  0.5966  0.5683 -0.2612
 4030SOL    HW123552   0.725   3.264   6.326  1.0681  0.0944  0.6762
 4030SOL    HW223553   0.722   3.393   6.391  0.7805  0.2196  0.2655
 4031SOL     OW23554   1.284   0.098   8.448  0.4493  0.0327 -0.0142
 4031SOL    HW123555   1.301   0.069   8.358  1.5176  0.9505 -0.1064
 4031SOL    HW223556   1.304   0.028   8.509  0.9820  0.6736  0.5427
 4032SOL     OW23557   0.656   1.212   1.939  0.4866 -0.1522  0.0071
 4032SOL    HW123558   0.748   1.239   1.939  0.5894 -0.4981 -0.1566
 4032SOL    HW223559   0.628   1.238   2.026 -2.0722  1.0669 -1.2049
 4033SOL     OW23560   3.022   2.446   7.945 -0.1208  0.5740 -0.4810
 4033SOL    HW123561   3.077   2.486   7.877  0.3019 -1.3843 -1.2973
 4033SOL    HW223562   3.085   2.429   8.015  0.2029 -1.8991 -1.3831
 4034SOL     OW23563   0.421   1.755   6.280 -0.4125 -0.2333 -0.7170
 4034SOL    HW123564   0.479   1.682   6.260  0.6370  0.6505 -0.9422
 4034SOL    HW223565   0.479   1.828   6.256 -2.1281  1.2030 -0.5209
 4035SOL     OW23566   0.750   3.094   2.581 -0.2012  0.1891  0.2765
 4035SOL    HW123567   0.670   3.131   2.619 -0.8487 -1.3856  0.4490
 4035SOL    HW223568   0.725   3.104   2.489 -2.9527  0.9678  1.0962
 4036SOL     OW23569   4.711   2.640   4.355 -0.0930 -0.1152 -0.4515
 4036SOL    HW123570   0.001   2.698   4.281 -3.9842  0.5780 -0.7371
 4036SOL    HW223571   4.616   2.628   4.349  0.0601 -1.4226 -0.2488
 4037SOL     OW23572   4.600   0.517   0.597 -0.5086  0.0925 -0.0916
 4037SOL    HW123573   4.695   0.507   0.610 -0.4129 -1.7122 -2.2570
 4037SOL    HW223574   4.589   0.506   0.502 -0.8105 -1.6834  0.1676
 4038SOL     OW23575   3.366   1.744   3.583  0.1092 -0.3773  0.0917
 4038SOL    HW123576   3.368   1.721   3.676  0.5260  0.2987  0.2530
 4038SOL    HW223577   3.370   1.654   3.550  0.0743  0.2845 -1.7383
 4039SOL     OW23578   3.048   2.071   5.477  0.3764 -0.4014 -0.1346
 4039SOL    HW123579   3.025   2.053   5.386 -0.0769 -1.6858  0.2318
 4039SOL    HW223580   2.985   2.013   5.520 -0.7958  2.5751  2.1651
 4040SOL     OW23581   0.831   1.771   5.588  0.4252 -0.0917 -0.1068
 4040SOL    HW123582   0.889   1.695   5.582  0.6170  0.1524 -1.2075
 4040SOL    HW223583   0.747   1.726   5.586  0.1093  0.4055  1.3296
 4041SOL     OW23584   3.433   1.444   4.015 -0.1126 -0.2582  0.0680
 4041SOL    HW123585   3.394   1.357   4.017 -0.4443 -0.1357 -1.1502
 4041SOL    HW223586   3.389   1.484   4.091  0.3702 -0.5448  0.4991
 4042SOL     OW23587   2.612   2.151  13.657 -0.1395 -0.1201  0.0874
 4042SOL    HW123588   2.537   2.172  13.600  0.0030 -0.0846 -0.0895
 4042SOL    HW223589   2.577   2.118  13.739 -2.9329 -0.7982 -1.3599
 4043SOL     OW23590   2.817   3.434   0.867 -0.2108  0.2076 -0.0279
 4043SOL    HW123591   2.794   3.464   0.955  0.3131 -0.7469  0.4450
 4043SOL    HW223592   2.907   3.460   0.889  0.3433 -0.6559 -1.2391
 4044SOL     OW23593   0.905   3.582  14.712 -0.6217  0.0754  0.3924
 4044SOL    HW123594   0.955   3.510  14.675  1.0648  1.2844  0.3125
 4044SOL    HW223595   0.821   3.582  14.666 -1.2913 -1.1045  1.6187
 4045SOL     OW23596   3.096   0.018   6.000  0.3314 -0.3762  0.5424
 4045SOL    HW123597   3.177   0.070   5.993 -1.0392  1.7336  0.3287
 4045SOL    HW223598   3.035   0.066   5.944  1.0274 -2.4444 -1.9871
 4046SOL     OW23599   3.780   1.256   5.239 -0.2062  0.3405  0.0861
 4046SOL    HW123600   3.741   1.328   5.189 -1.6219  0.4457  1.3376
 4046SOL    HW223601   3.735   1.257   5.323 -2.1962 -1.2685 -0.9459
 4047SOL     OW23602   2.837   2.970   4.391 -0.0663  0.6403  0.1161
 4047SOL    HW123603   2.850   3.052   4.438 -2.5916  1.6991 -1.0699
 4047SOL    HW223604   2.742   2.966   4.386 -0.1630  0.8748  1.6478
 4048SOL     OW23605   3.952   1.990   0.273 -0.2562  0.0113  0.5021
 4048SOL    HW123606   3.906   1.908   0.290 -1.2812  0.7869  1.4177
 4048SOL    HW223607   3.976   1.971   0.182  1.8843 -0.7244  1.2239
 4049SOL     OW23608   4.625   1.542   3.159 -0.0287  0.1633 -0.3841
 4049SOL    HW123609   4.571   1.477   3.112  0.8534 -1.0187  0.2498
 4049SOL    HW223610   4.559   1.609   3.177  0.3898  0.2665  0.7324
 4050SOL     OW23611   2.411   4.674   9.497 -0.3968  0.1917 -0.1466
 4050SOL    HW123612   2.316   4.687   9.493 -0.4766 -0.2172  0.3454
 4050SOL    HW223613   2.425   4.693   9.590  0.3668 -2.1852  0.2340
 4051SOL     OW23614   2.837   3.723   7.824 -0.3489 -0.2158 -0.2185
 4051SOL    HW123615   2.839   3.810   7.784  1.8063 -0.6565 -1.0328
 4051SOL    HW223616   2.889   3.671   7.763 -1.5713 -3.5999  1.5933
 4052SOL     OW23617   4.149   2.739  12.434 -0.2763 -0.2176 -0.0502
 4052SOL    HW123618   4.145   2.689  12.352  0.9589 -2.0925  1.0347
 4052SOL    HW223619   4.084   2.695  12.489 -2.9000  3.3425 -0.2996
 4053SOL     OW23620   2.680   3.042  10.753  0.1657 -0.2061 -0.3183
 4053SOL    HW123621   2.717   3.092  10.826  1.2605 -0.3397 -0.7831
 4053SOL    HW223622   2.738   3.083  10.688 -0.6239 -0.3416 -1.0950
 4054SOL     OW23623   4.440   0.765   6.035  0.1520  0.3449 -0.2719
 4054SOL    HW123624   4.404   0.683   6.001 -0.1982  0.6574 -0.6513
 4054SOL    HW223625   4.484   0.793   5.955  0.4186 -2.2525 -1.0245
 4055SOL     OW23626   2.424   0.643   3.058 -0.3085  0.7304 -0.3679
 4055SOL    HW123627   2.338   0.666   3.094  0.1485  2.7714 -0.5417
 4055SOL    HW223628   2.408   0.623   2.965  4.4678 -2.2254 -0.5116
 4056SOL     OW23629   0.404   0.329   4.721 -0.0126  0.0028  0.0846
 4056SOL    HW123630   0.478   0.388   4.702  0.5207 -0.8056 -0.3286
 4056SOL    HW223631   0.356   0.360   4.644 -0.0727 -1.1856 -0.3547
 4057SOL     OW23632   1.258   2.061   0.709  0.2958  0.4285 -0.1943
 4057SOL    HW123633   1.324   1.992   0.714  0.3855  0.6039  1.1066
 4057SOL    HW223634   1.193   1.998   0.737  3.6742 -3.6863 -1.6102
 4058SOL     OW23635   4.131   2.599   5.390  0.2065  0.0535 -0.0033
 4058SOL    HW123636   4.077   2.678   5.396 -1.4949 -1.0267 -1.0012
 4058SOL    HW223637   4.092   2.565   5.309  0.7993  0.0650 -0.2908
 4059SOL     OW23638   3.200   2.496   1.834  0.0918 -0.2014  0.5241
 4059SOL    HW123639   3.201   2.545   1.917  0.3809 -0.0563  0.4349
 4059SOL    HW223640   3.116   2.451   1.843  0.1262 -0.2878  0.4137
 4060SOL     OW23641   1.455   3.638  12.881 -0.3320  0.3318  0.6984
 4060SOL    HW123642   1.436   3.680  12.797  0.4809 -3.0821 -1.1872
 4060SOL    HW223643   1.526   3.585  12.845  0.6024  0.1084  2.8866
 4061SOL     OW23644   2.162   2.117   2.699  0.5755  0.8101 -0.5399
 4061SOL    HW123645   2.236   2.122   2.638 -0.4553 -1.3600 -1.9319
 4061SOL    HW223646   2.088   2.116   2.640  0.9775 -1.9229 -0.9676
 4062SOL     OW23647   0.018   3.896   6.224 -0.4553 -0.1781 -0.7910
 4062SOL    HW123648   0.021   3.875   6.131 -0.2500 -0.0272 -0.8191
 4062SOL    HW223649   0.007   3.990   6.235  1.1730 -0.0560 -0.2740
 4063SOL     OW23650   4.664   0.298  13.039  0.1626  0.1878  0.2598
 4063SOL    HW123651   4.621   0.217  13.014  2.0437 -0.0352 -2.2982
 4063SOL    HW223652   4.680   0.335  12.952 -0.4096  0.8690  0.4484
 4064SOL     OW23653   1.334   4.318  13.280 -0.9674  0.0829  0.1662
 4064SOL    HW123654   1.296   4.404  13.300 -0.0667  0.9067 -1.6444
 4064SOL    HW223655   1.272   4.259  13.322  0.7586 -1.3596  0.6996
 4065SOL     OW23656   1.985   1.335   8.263  0.6797  0.1489  0.8514
 4065SOL    HW123657   1.935   1.395   8.209 -1.1873 -0.6301  1.7066
 4065SOL    HW223658   2.027   1.294   8.187 -1.4338 -2.9370  1.3233
 4066SOL     OW23659   1.506   4.202  17.354  0.3664 -0.1962  0.1806
 4066SOL    HW123660   1.502   4.203  17.450 -1.3197  2.1072  0.1029
 4066SOL    HW223661   1.446   4.274  17.333 -0.6365 -0.9722  0.3877
 4067SOL     OW23662   0.192   3.152   4.437 -0.0047 -0.4075 -0.3885
 4067SOL    HW123663   0.221   3.075   4.486 -2.8466  0.5156  2.8034
 4067SOL    HW223664   0.208   3.126   4.347 -2.1337  2.5252 -1.6188
 4068SOL     OW23665   4.724   2.680  14.466 -0.0397 -0.0566 -0.0923
 4068SOL    HW123666   0.011   2.677  14.371 -1.4014 -0.6649 -0.2563
 4068SOL    HW223667   4.686   2.593  14.478  0.7453 -0.2883  0.7014
 4069SOL     OW23668   2.884   4.004   6.377 -0.3115 -0.1030 -0.5538
 4069SOL    HW123669   2.927   4.002   6.292 -0.7358  0.8403 -0.7898
 4069SOL    HW223670   2.830   4.082   6.364  0.5970  0.4289 -1.1269
 4070SOL     OW23671   4.129   0.453  17.500 -0.1526 -0.2772 -0.0928
 4070SOL    HW123672   4.206   0.489  17.545  1.0590 -0.9878 -1.5945
 4070SOL    HW223673   4.063   0.501  17.550 -1.6631 -0.9056 -1.4971
 4071SOL     OW23674   1.156   3.804  12.468 -0.1359  0.4747 -0.9411
 4071SOL    HW123675   1.096   3.856  12.414 -2.0197 -1.0100 -0.2643
 4071SOL    HW223676   1.242   3.841  12.450 -0.7563  1.8123 -1.1264
 4072SOL     OW23677   3.899   2.609  12.566 -0.6899 -0.0714 -0.1890
 4072SOL    HW123678   3.833   2.631  12.632 -1.0670 -0.7441 -0.3447
 4072SOL    HW223679   3.863   2.628  12.480  0.2993 -0.2221 -0.6354
 4073SOL     OW23680   2.697   4.641   8.560  0.1729  0.1977  0.0543
 4073SOL    HW123681   2.631   4.579   8.589 -1.4061  1.1718 -1.4429
 4073SOL    HW223682   2.745   4.577   8.507 -2.6173  0.1682 -2.4425
 4074SOL     OW23683   3.988   1.618   3.419 -0.3717  0.1553  0.0710
 4074SOL    HW123684   4.040   1.671   3.359  1.4112 -2.7593 -0.9402
 4074SOL    HW223685   3.906   1.608   3.370 -0.0823  1.0535 -0.5775
 4075SOL     OW23686   2.667   2.270   2.144  0.1841  0.1382 -0.0932
 4075SOL    HW123687   2.756   2.297   2.164 -0.7311  1.8763  1.6151
 4075SOL    HW223688   2.615   2.324   2.203 -2.3913 -1.7092 -0.6574
 4076SOL     OW23689   2.687   3.523  10.484 -0.0365  0.1312  0.1930
 4076SOL    HW123690   2.755   3.556  10.424 -2.3608  1.2387 -1.8425
 4076SOL    HW223691   2.735   3.528  10.566  0.0774 -0.7259  0.1730
 4077SOL     OW23692   2.130   3.096   6.025 -0.4913  0.0016  1.0230
 4077SOL    HW123693   2.036   3.095   6.008 -0.1255  0.0963 -0.9800
 4077SOL    HW223694   2.143   3.191   6.025 -0.7934  0.0340 -2.7609
 4078SOL     OW23695   4.507   3.270   8.310  0.2735 -0.7165 -0.0020
 4078SOL    HW123696   4.507   3.216   8.231 -0.8439  1.1570 -1.2672
 4078SOL    HW223697   4.482   3.353   8.269  3.0967  0.8006  1.2968
 4079SOL     OW23698   1.636   4.214  11.998  0.9274  0.0694 -0.2386
 4079SOL    HW123699   1.664   4.272  12.070  0.0660 -0.4955  0.5463
 4079SOL    HW223700   1.593   4.272  11.936 -2.2636 -1.4433  0.5656
 4080SOL     OW23701   4.239   4.600   3.648 -0.0041 -0.3360  0.3399
 4080SOL    HW123702   4.317   4.623   3.597 -0.1132  0.9995  0.7727
 4080SOL    HW223703   4.205   4.690   3.652  1.5285  0.2793 -0.4266
 4081SOL     OW23704   1.963   1.081   6.583  0.0813  0.7738 -0.1017
 4081SOL    HW123705   1.998   1.144   6.521 -2.9705  0.7051 -1.8637
 4081SOL    HW223706   1.967   1.009   6.520  0.4308  0.4636  0.2749
 4082SOL     OW23707   1.330   2.686   5.048 -0.2019 -0.0846  0.1937
 4082SOL    HW123708   1.249   2.733   5.027  0.3298  1.1602  0.9493
 4082SOL    HW223709   1.297   2.600   5.073  1.1056 -0.1726  1.6206
 4083SOL     OW23710   3.873   3.663   8.166  0.3051  0.0917  0.2969
 4083SOL    HW123711   3.802   3.691   8.108 -0.8363 -3.5155 -0.0598
 4083SOL    HW223712   3.915   3.588   8.124 -0.2935 -0.8206  1.3094
 4084SOL     OW23713   3.238   2.668  10.606 -0.2972 -0.1893 -0.3489
 4084SOL    HW123714   3.293   2.717  10.667  0.2547 -0.0330 -0.9787
 4084SOL    HW223715   3.186   2.739  10.569  1.6508  1.0174 -0.7709
 4085SOL     OW23716   0.350   0.831  13.390 -0.0843 -0.5469  0.4076
 4085SOL    HW123717   0.341   0.739  13.417  1.1296 -0.7797  0.0069
 4085SOL    HW223718   0.342   0.826  13.295 -0.9696 -1.1910  0.5135
 4086SOL     OW23719   2.181   1.756   8.697  0.0298 -0.0159  0.2560
 4086SOL    HW123720   2.243   1.828   8.707  0.6924 -0.2046 -2.6463
 4086SOL    HW223721   2.187   1.716   8.784  0.5879  0.1364  0.2874
 4087SOL     OW23722   3.379   1.741   1.620 -0.0383  0.1730 -0.0678
 4087SOL    HW123723   3.375   1.646   1.616  1.6710  0.1126 -0.5269
 4087SOL    HW223724   3.468   1.766   1.593  0.9526 -3.9238 -0.4991
 4088SOL     OW23725   0.181   0.845  15.433 -0.1070  0.3154 -0.0363
 4088SOL    HW123726   0.202   0.894  15.353 -0.0198  1.2465  0.5550
 4088SOL    HW223727   0.088   0.868  15.435 -0.6578 -2.0606  1.0675
 4089SOL     OW23728   0.078   2.416   8.384  0.1351 -0.5791 -0.0948
 4089SOL    HW123729   0.101   2.505   8.357 -0.7316 -0.2720  0.1975
 4089SOL    HW223730   0.130   2.398   8.462 -1.1480  2.1352  1.3837
 4090SOL     OW23731   4.395   0.402   2.517 -0.9714  0.5315 -0.1025
 4090SOL    HW123732   4.397   0.333   2.583  1.6273  0.4688 -0.2391
 4090SOL    HW223733   4.369   0.362   2.434  1.1574 -0.2191 -0.4161
 4091SOL     OW23734   4.241   0.432  11.656  0.5272 -0.0849  0.0754
 4091SOL    HW123735   4.269   0.509  11.606  1.1867  0.3841  1.1690
 4091SOL    HW223736   4.314   0.427  11.717 -0.4884 -0.3855  1.2649
 4092SOL     OW23737   1.697   2.061   0.708 -0.2815  0.2798  0.2295
 4092SOL    HW123738   1.763   2.074   0.776 -1.1039 -2.4370  1.5714
 4092SOL    HW223739   1.742   2.100   0.634  0.7953  0.5049  1.0148
 4093SOL     OW23740   0.871   3.027   6.688  0.5166  0.6665  0.3682
 4093SOL    HW123741   0.966   3.040   6.690  0.3038  2.3513 -0.4512
 4093SOL    HW223742   0.835   3.098   6.742  0.4859  0.4973  0.5706
 4094SOL     OW23743   3.553   1.018   8.685 -0.2512 -0.7863 -0.0980
 4094SOL    HW123744   3.490   1.031   8.756 -0.8033 -1.6845 -0.4349
 4094SOL    HW223745   3.510   1.075   8.621 -1.3323  1.8859  3.0037
 4095SOL     OW23746   0.837   3.459  10.788 -0.0301 -0.1799  0.2957
 4095SOL    HW123747   0.766   3.517  10.817 -1.1399 -1.0781 -0.6640
 4095SOL    HW223748   0.800   3.372  10.802  0.0068 -0.3208 -0.5264
 4096SOL     OW23749   1.494   0.605   0.160 -0.7902  0.0211  0.0497
 4096SOL    HW123750   1.399   0.617   0.168 -1.0588 -1.6475 -0.6305
 4096SOL    HW223751   1.483   0.516   0.126 -1.2377  0.4141 -0.8240
 4097SOL     OW23752   1.958   1.935   7.515 -0.0239 -0.0098 -0.3000
 4097SOL    HW123753   1.926   1.859   7.468  0.1552  1.2258 -2.4394
 4097SOL    HW223754   2.027   1.889   7.563  0.4603 -1.5238 -2.4480
 4098SOL     OW23755   2.032   1.837   0.879  0.4676 -0.1037 -0.4478
 4098SOL    HW123756   2.104   1.783   0.847  0.5565  1.2588 -2.5491
 4098SOL    HW223757   2.037   1.897   0.805 -0.9209  0.0620 -0.4062
 4099SOL     OW23758   1.794   1.952  12.668  0.4095  0.0798  0.0558
 4099SOL    HW123759   1.853   2.010  12.715  1.1989 -1.9066  1.4827
 4099SOL    HW223760   1.744   1.918  12.742 -1.5948  2.3804 -0.2170
 4100SOL     OW23761   3.121   3.772   2.956  0.0953  0.2833 -0.0296
 4100SOL    HW123762   3.037   3.771   2.910 -1.1832 -3.3384  2.3848
 4100SOL    HW223763   3.177   3.725   2.894 -1.6465 -2.6857  0.6943
 4101SOL     OW23764   1.539   2.418   9.313  0.0533 -0.1803  0.1238
 4101SOL    HW123765   1.496   2.360   9.251 -0.6363 -0.6086  1.0081
 4101SOL    HW223766   1.462   2.438   9.367 -0.5669  3.3658 -2.0635
 4102SOL     OW23767   0.566   3.873  12.055 -0.0638 -0.6506  0.0321
 4102SOL    HW123768   0.557   3.893  12.148 -3.3588 -1.3117 -0.1613
 4102SOL    HW223769   0.500   3.806  12.042 -1.5477  0.5174  1.4762
 4103SOL     OW23770   1.212   3.491   6.299 -0.3426  0.4180  0.2217
 4103SOL    HW123771   1.120   3.517   6.300 -0.2534  0.7565 -0.1143
 4103SOL    HW223772   1.256   3.575   6.305 -1.2069  0.8204  0.9175
 4104SOL     OW23773   4.569   0.871   4.756  0.1868 -0.1192  0.1152
 4104SOL    HW123774   4.563   0.964   4.734  0.6116 -0.3161 -0.8153
 4104SOL    HW223775   4.583   0.832   4.670  3.0164 -0.0085  0.5453
 4105SOL     OW23776   0.672   2.694   8.850  0.1837 -0.2236 -0.0990
 4105SOL    HW123777   0.707   2.619   8.897  0.8711 -1.3773 -2.4627
 4105SOL    HW223778   0.752   2.745   8.859 -0.0431  0.0182  0.5851
 4106SOL     OW23779   3.912   2.645   1.699 -0.1818 -0.0019  0.8297
 4106SOL    HW123780   3.918   2.740   1.691  1.3123 -0.0716  1.2493
 4106SOL    HW223781   3.938   2.618   1.611 -1.4837  1.3915  0.0175
 4107SOL     OW23782   3.397   0.710   2.447  0.6071 -0.0709  0.7860
 4107SOL    HW123783   3.398   0.780   2.382  0.3372  0.6034  1.5108
 4107SOL    HW223784   3.303   0.710   2.465  0.5336 -2.0031  0.4523
 4108SOL     OW23785   1.445   4.061   3.707 -0.1538  0.3265 -0.1185
 4108SOL    HW123786   1.422   4.146   3.670 -2.1318 -0.0813  0.1611
 4108SOL    HW223787   1.506   4.084   3.777 -1.3207  1.2569  0.5784
 4109SOL     OW23788   0.544   3.177   8.828 -0.2114 -0.2285  0.5631
 4109SOL    HW123789   0.509   3.258   8.864  1.6335  0.0932  1.6008
 4109SOL    HW223790   0.465   3.154   8.779 -0.0917 -0.6816  0.5767
 4110SOL     OW23791   3.847   1.574   6.834 -0.0048  0.4074 -0.3837
 4110SOL    HW123792   3.864   1.568   6.740  1.0618 -1.4225 -0.0751
 4110SOL    HW223793   3.881   1.662   6.850 -1.1280  1.0711 -1.6949
 4111SOL     OW23794   3.802   3.533  10.555  0.3714 -0.2723 -0.3203
 4111SOL    HW123795   3.819   3.544  10.462  0.9313  0.0472 -0.1766
 4111SOL    HW223796   3.817   3.621  10.589  1.1183 -0.4533 -0.1777
 4112SOL     OW23797   4.568   0.670   9.158  0.1494  0.2129  0.4859
 4112SOL    HW123798   4.634   0.621   9.108 -0.1227  1.2207 -0.8656
 4112SOL    HW223799   4.558   0.753   9.111 -1.0048 -0.8411 -1.1296
 4113SOL     OW23800   1.759   2.894   7.369 -0.3638 -0.1076 -0.2571
 4113SOL    HW123801   1.771   2.958   7.299 -0.1830 -0.0189 -0.1454
 4113SOL    HW223802   1.843   2.900   7.415  0.4258  1.9158 -1.9333
 4114SOL     OW23803   2.925   1.123   1.869  0.4489 -0.3936 -0.3485
 4114SOL    HW123804   3.009   1.080   1.886  1.1379  0.6943 -1.0454
 4114SOL    HW223805   2.866   1.109   1.944  1.9977  0.5226  1.0268
 4115SOL     OW23806   1.644   0.990   2.481  0.0009 -0.0826  0.5722
 4115SOL    HW123807   1.588   0.913   2.491 -1.5132  1.2283  2.2171
 4115SOL    HW223808   1.671   0.987   2.389 -0.0861  1.0715  0.5067
 4116SOL     OW23809   1.357   1.535   7.722  0.4362  0.4120  0.0279
 4116SOL    HW123810   1.364   1.527   7.627  0.5722  0.8056  0.0029
 4116SOL    HW223811   1.417   1.464   7.744  0.4648  0.8193  1.2711
 4117SOL     OW23812   2.811   3.894   5.576 -0.1500  0.0295 -0.2482
 4117SOL    HW123813   2.774   3.875   5.490  1.2127  0.2965 -0.8894
 4117SOL    HW223814   2.735   3.922   5.626  0.4428  0.4297  0.4224
 4118SOL     OW23815   2.675   4.654  13.851  0.3322  0.9962 -0.1944
 4118SOL    HW123816   2.608   4.720  13.870  0.1538  0.4594  1.0642
 4118SOL    HW223817   2.642   4.586  13.910 -1.4634  0.4684 -1.7907
 4119SOL     OW23818   3.510   1.162   2.703 -0.3916 -0.1269 -0.3260
 4119SOL    HW123819   3.562   1.221   2.757  0.8621 -1.1316 -0.4434
 4119SOL    HW223820   3.583   1.105   2.681  0.7681  1.4710 -0.6241
 4120SOL     OW23821   1.988   0.805  12.354  0.7690  0.2189  0.3159
 4120SOL    HW123822   1.946   0.754  12.423 -0.2235 -1.3694 -1.4718
 4120SOL    HW223823   1.993   0.750  12.275 -1.2014  0.1923  0.2034
 4121SOL     OW23824   1.242   4.628   4.782 -0.2401  0.2397 -0.4749
 4121SOL    HW123825   1.275   4.569   4.715 -2.3841  0.5905 -1.8475
 4121SOL    HW223826   1.315   4.643   4.842 -0.6734 -2.8583  0.8275
 4122SOL     OW23827   0.729   1.808   3.686 -0.0827 -0.2247 -0.0769
 4122SOL    HW123828   0.729   1.732   3.744 -1.2644  1.1859  1.7858
 4122SOL    HW223829   0.704   1.764   3.604 -1.5684 -0.9725  0.7623
 4123SOL     OW23830   4.223   2.361   6.582 -0.4487 -0.0280 -0.4532
 4123SOL    HW123831   4.318   2.375   6.585 -0.2718 -0.8941 -2.1872
 4123SOL    HW223832   4.217   2.270   6.609 -0.0704  0.3245  0.8519
 4124SOL     OW23833   4.039   3.073   3.873  0.6255 -0.2713  0.0849
 4124SOL    HW123834   4.014   3.008   3.808  1.2921 -0.3174 -0.1302
 4124SOL    HW223835   4.020   3.038   3.960  0.7230 -2.6846 -0.8603
 4125SOL     OW23836   4.034   2.793   9.266 -0.0584 -0.4779  0.9197
 4125SOL    HW123837   4.099   2.729   9.236  0.5134  0.3293  0.4086
 4125SOL    HW223838   4.063   2.871   9.218 -0.3811 -2.3045 -2.2348
 4126SOL     OW23839   1.276   3.255   2.350  0.5525 -0.0740  0.4457
 4126SOL    HW123840   1.252   3.212   2.432  1.2045 -2.2313 -0.5044
 4126SOL    HW223841   1.224   3.205   2.288  0.7058  0.4220 -0.0841
 4127SOL     OW23842   1.927   0.229   3.327  0.1160 -0.5757 -0.4279
 4127SOL    HW123843   1.850   0.211   3.274 -0.4135  0.5371 -0.0517
 4127SOL    HW223844   1.986   0.275   3.267 -0.6384 -0.6433 -1.2075
 4128SOL     OW23845   0.214   2.087   3.580  0.7170 -0.3320 -0.3617
 4128SOL    HW123846   0.160   2.153   3.537  0.5240 -0.8021 -0.8370
 4128SOL    HW223847   0.261   2.053   3.504  0.1604  0.9113 -1.2728
 4129SOL     OW23848   1.920   2.172  17.530  0.5375 -0.5438  0.0406
 4129SOL    HW123849   1.871   2.114  17.588  0.6388 -0.9304 -0.2678
 4129SOL    HW223850   1.861   2.175  17.455 -0.1652  3.6030  0.7055
 4130SOL     OW23851   3.513   0.017  16.652 -0.1430  0.6336 -0.1297
 4130SOL    HW123852   3.474   0.010  16.565 -0.5418 -0.5935  0.1566
 4130SOL    HW223853   3.520   0.112  16.667  0.9993  0.5725 -0.2370
 4131SOL     OW23854   1.842   3.588  11.052 -0.6324 -0.3432 -0.3563
 4131SOL    HW123855   1.879   3.503  11.075  3.8015  2.3179  2.1732
 4131SOL    HW223856   1.760   3.587  11.101 -0.1459  2.8174  0.4996
 4132SOL     OW23857   1.687   3.839   1.164 -0.1549  0.3961  0.2668
 4132SOL    HW123858   1.709   3.932   1.166  2.7784 -0.3341  2.2773
 4132SOL    HW223859   1.734   3.809   1.242 -3.4857 -0.5825  1.8753
 4133SOL     OW23860   4.251   4.195   3.375 -0.3316 -0.0861 -0.2673
 4133SOL    HW123861   4.321   4.259   3.384 -0.1992 -0.2974  0.2077
 4133SOL    HW223862   4.231   4.174   3.466  1.5098 -0.2101  0.1095
 4134SOL     OW23863   4.440   1.511   1.559 -0.2259 -0.0593  0.0517
 4134SOL    HW123864   4.467   1.454   1.487 -1.1921 -0.3305 -0.0952
 4134SOL    HW223865   4.372   1.560   1.513  0.4263 -0.2825 -1.1526
 4135SOL     OW23866   2.021   4.367  14.417 -0.0086  0.1934 -0.2740
 4135SOL    HW123867   2.062   4.389  14.500  2.7137 -1.4428 -1.1878
 4135SOL    HW223868   2.045   4.440  14.360  0.2822  1.2001  1.1581
 4136SOL     OW23869   1.675   1.410   6.488  0.1697 -0.1350 -0.5404
 4136SOL    HW123870   1.673   1.388   6.581  4.2698 -0.8719 -0.6440
 4136SOL    HW223871   1.739   1.481   6.487  1.2084 -1.0439  0.7046
 4137SOL     OW23872   2.112   0.431   5.784  0.2871  0.6227 -0.0599
 4137SOL    HW123873   2.125   0.384   5.702 -2.1127 -0.8084  0.4175
 4137SOL    HW223874   2.202   0.458   5.805  1.0700 -0.5117 -1.9186
 4138SOL     OW23875   0.646   2.737   6.001 -0.2934  0.0117  0.2739
 4138SOL    HW123876   0.667   2.724   5.909 -0.7729 -0.7487  0.2721
 4138SOL    HW223877   0.576   2.675   6.021 -0.6050 -0.5759 -2.6482
 4139SOL     OW23878   2.854   4.339   3.617  0.8845 -0.3297  0.2746
 4139SOL    HW123879   2.908   4.264   3.642  1.7554  0.0892 -0.3528
 4139SOL    HW223880   2.798   4.344   3.695  1.1986 -0.0391  0.4817
 4140SOL     OW23881   1.305   3.839   3.784 -0.2542 -0.3168 -0.6731
 4140SOL    HW123882   1.381   3.786   3.759  0.5171  0.3028  0.3645
 4140SOL    HW223883   1.321   3.925   3.746 -0.2889 -0.2884 -0.6225
 4141SOL     OW23884   0.913   4.189   6.140 -0.2630 -0.2207  0.6930
 4141SOL    HW123885   0.896   4.253   6.210 -0.6736  2.6040 -2.0114
 4141SOL    HW223886   0.847   4.125   6.165 -0.2854 -0.1150  0.9069
 4142SOL     OW23887   0.774   4.077   1.706 -0.0691  0.0783  0.0537
 4142SOL    HW123888   0.782   4.003   1.767 -1.1349 -1.2397 -1.3767
 4142SOL    HW223889   0.776   4.151   1.766  0.2355 -0.8611  1.2059
 4143SOL     OW23890   2.685   3.800   7.157  0.0525  0.0716 -0.1947
 4143SOL    HW123891   2.610   3.791   7.098  2.1948 -3.5343 -2.4125
 4143SOL    HW223892   2.638   3.794   7.240  0.8265  1.6291  0.3562
 4144SOL     OW23893   4.111   1.789  11.523 -0.2260 -0.4082  0.0995
 4144SOL    HW123894   4.091   1.883  11.513 -0.4833 -0.3952  0.7751
 4144SOL    HW223895   4.120   1.779  11.618 -0.4282  1.1686  0.2990
 4145SOL     OW23896   2.051   0.402   8.896 -0.4247 -0.6145  0.3813
 4145SOL    HW123897   1.984   0.444   8.951 -0.2129  1.1385 -0.7003
 4145SOL    HW223898   2.128   0.403   8.953  0.3035  0.6197 -0.6251
 4146SOL     OW23899   4.343   1.739   7.834  0.2091  0.4655 -0.1578
 4146SOL    HW123900   4.430   1.770   7.809  0.1006  0.3151 -0.7208
 4146SOL    HW223901   4.292   1.818   7.848 -0.5332  0.2568 -1.7476
 4147SOL     OW23902   0.610   1.446   2.574  0.4148  0.6214  0.4913
 4147SOL    HW123903   0.654   1.400   2.503  1.4012 -0.8593  2.0338
 4147SOL    HW223904   0.671   1.519   2.583  0.1048  1.0640 -1.2210
 4148SOL     OW23905   4.687   3.407   8.474 -0.1890  0.1374  0.6587
 4148SOL    HW123906   4.673   3.369   8.387  0.8734 -0.3706  0.7020
 4148SOL    HW223907   4.601   3.430   8.508 -0.6904  2.1971 -2.0099
 4149SOL     OW23908   1.798   2.714   1.288  0.2336  0.2760  0.1058
 4149SOL    HW123909   1.878   2.741   1.241  0.9821 -0.2098  1.0924
 4149SOL    HW223910   1.739   2.694   1.216  0.7230  0.8502 -0.4548
 4150SOL     OW23911   0.170   4.366   3.639 -0.5217  0.1135  0.0974
 4150SOL    HW123912   0.130   4.370   3.725 -1.7311 -1.1651 -0.3961
 4150SOL    HW223913   0.198   4.274   3.645  0.2266  0.3082 -0.4125
 4151SOL     OW23914   2.814   0.504   5.189  0.2609 -0.5569 -0.0985
 4151SOL    HW123915   2.903   0.518   5.157  0.0381  1.3420  0.1490
 4151SOL    HW223916   2.764   0.542   5.117  0.3184 -1.2607 -0.5136
 4152SOL     OW23917   1.680   0.152   5.136 -0.5796  0.5386 -0.3631
 4152SOL    HW123918   1.717   0.205   5.066 -1.5576  0.8801 -0.6165
 4152SOL    HW223919   1.698   0.212   5.209 -0.5466 -0.3005  0.3220
 4153SOL     OW23920   0.038   1.943  15.193  0.4918 -0.5635  0.0918
 4153SOL    HW123921   4.716   1.862  15.180  0.1899 -0.3520 -0.1257
 4153SOL    HW223922   4.711   2.021  15.173 -1.1813 -2.3103 -2.2949
 4154SOL     OW23923   3.718   0.815  10.238  0.0443  0.5720 -0.4666
 4154SOL    HW123924   3.670   0.827  10.320  2.4034 -1.4227  1.2167
 4154SOL    HW223925   3.700   0.723  10.218  2.0062  0.0715  0.0568
 4155SOL     OW23926   0.555   4.315   7.831  0.2581  0.6261 -0.4513
 4155SOL    HW123927   0.633   4.368   7.811  0.4974  0.6321  0.5039
 4155SOL    HW223928   0.539   4.338   7.922  0.2521  1.6320 -0.7004
 4156SOL     OW23929   2.907   1.235   3.958  0.4352  0.1353 -0.6111
 4156SOL    HW123930   2.924   1.267   4.046 -2.6813 -3.5985  1.3280
 4156SOL    HW223931   2.829   1.180   3.956 -0.7752  1.7993  0.2212
 4157SOL     OW23932   4.582   3.381  16.301  0.0199 -0.3770  0.1613
 4157SOL    HW123933   4.669   3.360  16.336 -0.7301 -0.1032  2.2006
 4157SOL    HW223934   4.554   3.444  16.367  3.8278  0.1143  1.3608
 4158SOL     OW23935   0.059   1.869  11.285  0.2159  0.2223  0.2562
 4158SOL    HW123936   0.107   1.932  11.338  1.6102 -0.2864 -0.4018
 4158SOL    HW223937   0.001   1.828  11.349 -0.5997  0.9275 -0.0365
 4159SOL     OW23938   0.378   2.656   5.364  0.3189 -0.2867  0.3253
 4159SOL    HW123939   0.350   2.746   5.348  2.6162  0.3936  0.1034
 4159SOL    HW223940   0.463   2.672   5.405 -1.5259  1.9960  3.1914
 4160SOL     OW23941   1.909   0.085  10.381  0.4998 -0.3310  0.7026
 4160SOL    HW123942   1.936   4.719  10.393 -0.2916 -0.7839 -0.9402
 4160SOL    HW223943   1.828   0.099  10.430 -1.3654 -0.9072 -2.2238
 4161SOL     OW23944   1.572   1.691   1.596  0.0900 -0.5368  0.9090
 4161SOL    HW123945   1.500   1.630   1.614 -1.1969  0.5542 -0.5815
 4161SOL    HW223946   1.525   1.743   1.532 -1.2967 -0.3060  2.1237
 4162SOL     OW23947   1.117   0.464   6.633  0.2771  0.2178  0.6859
 4162SOL    HW123948   1.179   0.432   6.699  1.5553  1.1004 -0.0868
 4162SOL    HW223949   1.099   0.554   6.661 -0.4616 -0.3120  1.9078
 4163SOL     OW23950   1.104   2.968   3.699  0.4782  0.8200 -0.1919
 4163SOL    HW123951   1.139   2.997   3.615  1.8888 -0.3164  0.0084
 4163SOL    HW223952   1.010   2.962   3.680 -0.1623  2.0547  2.5077
 4164SOL     OW23953   0.531   3.671   7.672 -0.1699 -0.0209 -0.7052
 4164SOL    HW123954   0.610   3.716   7.701 -1.0251  1.5659 -0.7951
 4164SOL    HW223955   0.571   3.585   7.663  0.0125 -0.0672  0.4389
 4165SOL     OW23956   0.464   2.475   2.108 -0.2880  0.4326 -0.0960
 4165SOL    HW123957   0.374   2.505   2.118  0.0737  1.6986 -0.7119
 4165SOL    HW223958   0.495   2.497   2.196  0.6520  0.4891 -0.4495
 4166SOL     OW23959   3.424   3.038   4.835  0.0211 -0.2105  0.6580
 4166SOL    HW123960   3.476   3.113   4.804  0.7545 -1.7409 -1.8392
 4166SOL    HW223961   3.334   3.061   4.811  0.0153 -1.2636 -0.3611
 4167SOL     OW23962   4.498   2.348   7.551  0.4199 -0.2278 -0.0502
 4167SOL    HW123963   4.556   2.329   7.477  0.9141  0.1744  0.2244
 4167SOL    HW223964   4.435   2.279   7.533  1.0510 -0.0922 -2.8279
 4168SOL     OW23965   1.340   2.578   7.430  0.3666  0.2635 -0.0678
 4168SOL    HW123966   1.282   2.506   7.455  0.3224  0.6115  0.8255
 4168SOL    HW223967   1.341   2.556   7.337  2.7509  0.6064 -0.1278
 4169SOL     OW23968   1.322   2.390   9.483 -0.3172  0.1172  0.0511
 4169SOL    HW123969   1.363   2.426   9.562 -0.0848 -2.4553  1.1097
 4169SOL    HW223970   1.231   2.382   9.511  0.2156 -0.0988  1.7663
 4170SOL     OW23971   3.740   0.850   8.610  0.1635 -0.0335  0.2201
 4170SOL    HW123972   3.786   0.848   8.693 -2.0998  1.1465  1.5148
 4170SOL    HW223973   3.655   0.887   8.634  1.9161  3.5966  0.8252
 4171SOL     OW23974   2.355   0.384   2.801  0.0342  0.3097  0.0948
 4171SOL    HW123975   2.400   0.469   2.798 -0.6847  0.7125  0.8509
 4171SOL    HW223976   2.273   0.406   2.758  1.0064  0.6003 -1.6388
 4172SOL     OW23977   3.354   3.680   5.030  0.1000  0.0675  0.2559
 4172SOL    HW123978   3.300   3.622   4.977 -1.3203  1.3391  0.3173
 4172SOL    HW223979   3.287   3.738   5.065  1.3414  0.6294  1.7021
 4173SOL     OW23980   1.138   3.147   6.658 -0.5350  0.3654  0.7925
 4173SOL    HW123981   1.107   3.226   6.613 -1.0532 -1.0577 -1.3577
 4173SOL    HW223982   1.214   3.127   6.604  0.1505  0.9974  1.5347
 4174SOL     OW23983   1.460   1.192   3.931  0.3424 -0.7260 -0.2267
 4174SOL    HW123984   1.509   1.111   3.944 -0.4859 -1.2519 -0.4019
 4174SOL    HW223985   1.478   1.218   3.841 -0.8735  4.0555  0.9059
 4175SOL     OW23986   2.269   0.363   1.993  0.6926  0.1434 -0.0315
 4175SOL    HW123987   2.285   0.270   2.012  0.1133  0.3921  1.7392
 4175SOL    HW223988   2.237   0.362   1.903 -1.4957 -0.5850  0.7562
 4176SOL     OW23989   1.101   3.811  16.467  0.5345  0.0637 -0.2404
 4176SOL    HW123990   1.193   3.804  16.490 -0.3506 -0.7964  3.0203
 4176SOL    HW223991   1.082   3.718  16.455 -1.8972  0.1913  2.5942
 4177SOL     OW23992   0.919   1.411   3.643  0.1659  0.4134  0.6258
 4177SOL    HW123993   0.921   1.464   3.563 -0.6120  0.8088  0.8645
 4177SOL    HW223994   0.988   1.345   3.636 -0.8502 -0.6761  0.6903
 4178SOL     OW23995   3.367   0.682   6.552  0.1546 -0.0297 -0.2732
 4178SOL    HW123996   3.288   0.661   6.600  0.4190 -1.1911 -0.3513
 4178SOL    HW223997   3.349   0.776   6.543  0.9360  0.1883  0.4195
 4179SOL     OW23998   0.798   1.052   3.655  0.7297  0.6875  0.3246
 4179SOL    HW123999   0.806   0.970   3.704 -0.1925  0.6292  0.3735
 4179SOL    HW224000   0.712   1.079   3.687  0.0843 -0.2154 -0.6590
 4180SOL     OW24001   3.640   0.273  10.049 -0.0128  0.1792 -0.1083
 4180SOL    HW124002   3.651   0.190  10.096 -0.6185 -0.3276 -0.8660
 4180SOL    HW224003   3.691   0.257   9.969  1.2148 -1.5491  1.0322
 4181SOL     OW24004   1.639   1.990  15.190 -0.6801  0.0046 -0.6381
 4181SOL    HW124005   1.558   2.009  15.237 -2.8129 -1.0770 -3.8858
 4181SOL    HW224006   1.609   1.973  15.100 -1.3133  0.0890 -0.4446
 4182SOL     OW24007   3.391   2.648  13.199  0.0620 -0.3512 -0.0644
 4182SOL    HW124008   3.424   2.645  13.289  0.9909  1.9386 -0.3358
 4182SOL    HW224009   3.353   2.562  13.181  0.0827  0.2764 -2.9797
 4183SOL     OW24010   3.736   2.795   1.148 -0.2503  0.0012  0.3525
 4183SOL    HW124011   3.828   2.788   1.123 -0.2604 -2.5746  0.9840
 4183SOL    HW224012   3.708   2.883   1.125  1.6356  0.6398  0.5300
 4184SOL     OW24013   3.743   0.579   3.767  0.1374 -0.0315  0.3436
 4184SOL    HW124014   3.656   0.599   3.804  0.9312 -0.9065  2.7272
 4184SOL    HW224015   3.728   0.583   3.673  1.8850  1.1388  0.1133
 4185SOL     OW24016   4.000   2.078  13.738  0.3788 -0.2469 -0.4082
 4185SOL    HW124017   4.056   2.008  13.706  0.1199 -0.0771 -1.2292
 4185SOL    HW224018   3.961   2.107  13.656  0.8997 -1.9814 -1.2619
 4186SOL     OW24019   1.708   1.263   3.696  0.2973 -0.1398 -0.1574
 4186SOL    HW124020   1.717   1.168   3.696 -0.8322 -0.2497 -0.0970
 4186SOL    HW224021   1.792   1.284   3.736 -0.1375 -0.7939  1.1037
 4187SOL     OW24022   2.359   4.054   4.482  0.2586  0.0161 -0.0029
 4187SOL    HW124023   2.311   3.985   4.528 -0.1220  1.8637  2.4059
 4187SOL    HW224024   2.430   4.074   4.543  0.6510 -0.2819 -0.3714
 4188SOL     OW24025   1.992   4.129   3.008 -0.3398  0.0052 -0.0720
 4188SOL    HW124026   1.911   4.152   2.962  0.7705  1.3637 -1.3602
 4188SOL    HW224027   2.031   4.094   2.928  0.1048 -2.8771  1.4112
 4189SOL     OW24028   2.043   1.006   5.072  1.0030  0.2459  0.0776
 4189SOL    HW124029   2.048   1.081   5.131  0.6424  0.8873 -0.7155
 4189SOL    HW224030   2.008   0.940   5.132 -1.1142  2.4640  1.2675
 4190SOL     OW24031   0.128   1.951   1.989  0.1531  0.4118  0.1743
 4190SOL    HW124032   0.116   2.039   2.025 -1.3967 -0.1370  1.0296
 4190SOL    HW224033   0.048   1.945   1.936 -0.8557  0.2589  1.7048
 4191SOL     OW24034   1.522   1.965  14.535 -0.0099  0.1688 -0.4139
 4191SOL    HW124035   1.507   1.871  14.539 -1.1905  0.4463  1.6364
 4191SOL    HW224036   1.449   1.999  14.586  0.1538  0.1703 -0.1784
 4192SOL     OW24037   0.982   4.271   7.110 -0.2978 -0.3619  0.1259
 4192SOL    HW124038   0.968   4.250   7.018  1.6461  2.0487 -0.7196
 4192SOL    HW224039   0.907   4.326   7.134  0.0035  1.7217 -3.7395
 4193SOL     OW24040   1.245   0.645  17.622  0.3571  0.3314 -0.3338
 4193SOL    HW124041   1.220   0.626  17.532 -0.4596 -4.6730  0.9726
 4193SOL    HW224042   1.319   0.695  17.587 -1.6838  2.4467 -1.6033
 4194SOL     OW24043   2.923   2.536   3.388  0.0128 -0.2684 -0.4991
 4194SOL    HW124044   2.919   2.562   3.296  0.9819 -0.6924 -0.6659
 4194SOL    HW224045   2.986   2.464   3.379  0.8627  0.3211  0.6379
 4195SOL     OW24046   1.304   0.423   5.583  0.8045 -0.6648 -0.1527
 4195SOL    HW124047   1.229   0.476   5.556  0.8918 -0.6375 -0.3417
 4195SOL    HW224048   1.279   0.385   5.668  1.0062  0.9394  0.6260
 4196SOL     OW24049   2.500   1.242   5.544  0.7957  0.3331 -0.1168
 4196SOL    HW124050   2.488   1.299   5.468 -3.0049 -0.0576  0.1931
 4196SOL    HW224051   2.543   1.169   5.499 -0.0589 -0.0316 -0.3216
 4197SOL     OW24052   1.703   3.399   0.338  0.2360 -0.0388  0.5177
 4197SOL    HW124053   1.647   3.422   0.264  1.3056 -0.4831 -0.4129
 4197SOL    HW224054   1.675   3.307   0.345 -0.6666  0.1596 -0.3989
 4198SOL     OW24055   0.895   1.400  15.550  0.5125 -0.9518  0.5531
 4198SOL    HW124056   0.801   1.412  15.533  0.2353 -2.8294  0.7983
 4198SOL    HW224057   0.913   1.324  15.605  0.5656  1.1465  3.4342
 4199SOL     OW24058   4.690   4.295   5.915  0.2093  0.0407 -0.7764
 4199SOL    HW124059   4.625   4.351   5.956  0.0856 -2.6725  2.6663
 4199SOL    HW224060   4.634   4.218   5.907  1.7494 -1.1642  0.0873
 4200SOL     OW24061   3.949   3.422   4.612  0.1365  0.8947  0.0889
 4200SOL    HW124062   4.029   3.393   4.568  0.0971  0.1078  0.5325
 4200SOL    HW224063   3.937   3.515   4.592  1.2669  0.8195 -0.9299
 4201SOL     OW24064   4.424   1.561   7.306 -0.1223  1.1182  0.0271
 4201SOL    HW124065   4.386   1.587   7.390 -0.5797  1.1232 -0.1847
 4201SOL    HW224066   4.463   1.643   7.277  0.4154  1.4833  1.7362
 4202SOL     OW24067   0.775   3.856   7.449 -0.3700 -0.0943  0.2274
 4202SOL    HW124068   0.712   3.815   7.391 -1.6953  0.5189  1.2325
 4202SOL    HW224069   0.858   3.835   7.406 -0.5263  0.1586 -0.2031
 4203SOL     OW24070   2.003   3.143   7.676  0.5663  0.7160  0.6857
 4203SOL    HW124071   1.966   3.230   7.688  0.2331  1.0271 -2.7005
 4203SOL    HW224072   2.036   3.127   7.765 -0.5189 -0.9041  0.7849
 4204SOL     OW24073   0.476   4.140   4.864  0.3707  0.7024  0.0074
 4204SOL    HW124074   0.484   4.050   4.896 -0.4926  1.1604  1.5203
 4204SOL    HW224075   0.519   4.185   4.937  0.9690 -0.3374  0.3106
 4205SOL     OW24076   0.700   1.900   7.412  0.4134  0.0939 -0.0349
 4205SOL    HW124077   0.751   1.823   7.440  1.2039  0.0594 -1.5605
 4205SOL    HW224078   0.654   1.862   7.337 -1.0645  1.2253  0.3034
 4206SOL     OW24079   0.536   4.350  13.162 -0.6716  0.4231  0.2638
 4206SOL    HW124080   0.487   4.425  13.128 -0.4383 -0.0200 -1.0313
 4206SOL    HW224081   0.576   4.388  13.240  1.6084  3.6966 -2.4728
 4207SOL     OW24082   4.432   0.816   3.355 -0.7204  0.1100  0.1646
 4207SOL    HW124083   4.449   0.787   3.265  0.0446  0.9590  0.0311
 4207SOL    HW224084   4.517   0.820   3.399  0.1859 -1.5855 -1.4346
 4208SOL     OW24085   4.648   1.578   3.747  0.3051  0.4048  0.3000
 4208SOL    HW124086   4.568   1.537   3.781  0.1732  0.7067  0.3524
 4208SOL    HW224087   4.614   1.627   3.672 -2.2587  2.3538  2.7218
 4209SOL     OW24088   1.801   1.636  13.562 -0.1579 -0.2977  0.3831
 4209SOL    HW124089   1.732   1.684  13.516 -0.9968  0.2568  2.2182
 4209SOL    HW224090   1.802   1.547  13.526  2.6503  0.7552 -2.1480
 4210SOL     OW24091   2.956   3.049   1.074 -0.1075 -0.2511  0.2676
 4210SOL    HW124092   2.990   3.127   1.118 -0.5425  0.1792 -0.1503
 4210SOL    HW224093   2.947   2.984   1.143  1.6361  0.4117  1.1063
 4211SOL     OW24094   1.688   4.423   2.689  0.0998 -0.1321 -0.8007
 4211SOL    HW124095   1.629   4.484   2.642  0.5427  1.1317  0.2822
 4211SOL    HW224096   1.768   4.474   2.700  0.1976 -0.6331  0.8124
 4212SOL     OW24097   1.532   4.277   2.315 -0.5194 -0.0289  0.1681
 4212SOL    HW124098   1.609   4.323   2.281 -0.8402  0.3194 -0.0896
 4212SOL    HW224099   1.463   4.340   2.294  0.7221  1.4262  0.3819
 4213SOL     OW24100   3.937   4.287   1.223  0.2018 -0.2302  0.0810
 4213SOL    HW124101   3.851   4.280   1.183  0.3239  0.2156 -0.2586
 4213SOL    HW224102   3.934   4.368   1.274  0.4265  0.5371 -1.1318
 4214SOL     OW24103   3.081   1.806   6.976 -0.2445 -0.4947 -0.0226
 4214SOL    HW124104   3.124   1.769   6.899  1.1942 -0.6137  0.8426
 4214SOL    HW224105   3.116   1.761   7.052  0.8283 -1.6857 -1.2266
 4215SOL     OW24106   2.017   4.508   2.980  0.4025 -0.0258 -0.3463
 4215SOL    HW124107   2.104   4.493   2.943 -0.3373  0.9604 -2.4631
 4215SOL    HW224108   2.052   4.565   3.049 -0.0387 -0.4339  0.2097
 4216SOL     OW24109   2.687   1.906   4.571 -0.9059  0.2939  0.0914
 4216SOL    HW124110   2.623   1.835   4.567 -0.9397  0.2802  0.8265
 4216SOL    HW224111   2.705   1.927   4.480 -0.9867  1.8383  0.4329
 4217SOL     OW24112   2.190   0.386   9.423 -0.3553  0.8774 -0.8514
 4217SOL    HW124113   2.133   0.342   9.485  1.8255  2.3053  2.1470
 4217SOL    HW224114   2.138   0.378   9.343  0.2091  1.4523 -1.2782
 4218SOL     OW24115   4.648   0.230   7.037 -0.1450  0.1700 -0.8235
 4218SOL    HW124116   4.712   0.162   7.060  2.4812  2.1170 -2.2680
 4218SOL    HW224117   4.667   0.294   7.105 -2.8710 -0.4580  0.5406
 4219SOL     OW24118   2.919   3.356   8.673 -0.2714 -0.5306 -0.7189
 4219SOL    HW124119   2.954   3.289   8.614  1.4489  2.3329 -2.9411
 4219SOL    HW224120   2.865   3.308   8.736 -1.4300  1.4511 -0.1823
 4220SOL     OW24121   1.454   1.325  17.633  1.0825  0.7582 -0.7664
 4220SOL    HW124122   1.395   1.298  17.563  1.0846  0.3449 -0.6089
 4220SOL    HW224123   1.433   1.418  17.641  2.7275  1.3347 -2.9299
 4221SOL     OW24124   2.280   2.598   2.800  0.5721  1.2035 -0.0093
 4221SOL    HW124125   2.350   2.539   2.825 -0.0988  0.5388  0.2932
 4221SOL    HW224126   2.330   2.677   2.822  0.5363  1.1485  0.2665
 4222SOL     OW24127   4.216   2.996   4.268 -0.2914 -0.1241  0.4812
 4222SOL    HW124128   4.138   3.005   4.213  0.6155 -1.1157 -0.9739
 4222SOL    HW224129   4.294   2.994   4.212 -1.6791  0.6624 -1.4650
 4223SOL     OW24130   3.207   3.550   1.147 -0.3323  0.2853  0.6831
 4223SOL    HW124131   3.197   3.594   1.232  0.8257 -0.5709  1.2577
 4223SOL    HW224132   3.300   3.528   1.151 -0.1458  1.1050  0.8006
 4224SOL     OW24133   3.478   2.608   5.788 -0.5245 -0.0844 -0.1714
 4224SOL    HW124134   3.510   2.521   5.766 -1.8172 -0.6256  0.0823
 4224SOL    HW224135   3.551   2.637   5.843 -2.7588  3.5443  0.8968
 4225SOL     OW24136   1.575   2.801   4.170  0.3730  0.6784 -0.1910
 4225SOL    HW124137   1.542   2.715   4.143 -0.2990  0.8496  0.0716
 4225SOL    HW224138   1.666   2.788   4.144  0.7665  0.6055  1.2180
 4226SOL     OW24139   3.584   1.709   8.348 -0.1954  0.7322 -0.5580
 4226SOL    HW124140   3.637   1.642   8.393 -2.1285 -0.2717  0.2118
 4226SOL    HW224141   3.615   1.694   8.259 -1.6041  0.5541 -1.0028
 4227SOL     OW24142   1.384   0.308   3.011 -0.2290  0.1944 -0.2875
 4227SOL    HW124143   1.292   0.327   2.993 -0.9130 -1.8769  0.9825
 4227SOL    HW224144   1.394   0.383   3.069  1.6368  1.0853 -1.7664
 4228SOL     OW24145   2.479   3.052  12.584 -0.1059  0.3280 -0.2313
 4228SOL    HW124146   2.418   3.049  12.657 -1.0000  0.0659 -0.9854
 4228SOL    HW224147   2.467   3.144  12.561 -0.4003 -0.0206 -1.4790
 4229SOL     OW24148   3.090   0.022   8.746  0.1874 -0.2137  0.6187
 4229SOL    HW124149   3.034   4.670   8.743 -0.4825  0.3925 -2.5746
 4229SOL    HW224150   3.049   0.078   8.812 -2.3903 -1.1228 -0.2110
 4230SOL     OW24151   4.161   2.668   6.201  0.4169 -0.3960  0.3261
 4230SOL    HW124152   4.084   2.700   6.247  0.1355  1.5350 -1.4850
 4230SOL    HW224153   4.146   2.576   6.220  0.6689 -0.3224  0.8810
 4231SOL     OW24154   4.633   2.540   7.714  0.0906  0.0400  0.2632
 4231SOL    HW124155   4.585   2.479   7.658 -1.1396  0.3629  0.9917
 4231SOL    HW224156   4.683   2.577   7.641  0.4575  0.5231  0.7594
 4232SOL     OW24157   2.476   0.894  11.986  0.0861  0.4372  0.5165
 4232SOL    HW124158   2.442   0.823  12.040  1.7120 -0.9562 -0.2895
 4232SOL    HW224159   2.461   0.868  11.895  1.4327 -1.2807  0.7769
 4233SOL     OW24160   2.087   0.464  16.835 -0.1033 -0.4687  0.1523
 4233SOL    HW124161   2.063   0.397  16.770  1.1949  0.8965 -1.7227
 4233SOL    HW224162   2.044   0.541  16.797  0.0927  0.0869  1.0742
 4234SOL     OW24163   0.016   2.914   8.764 -0.3148  0.3961  0.7616
 4234SOL    HW124164   4.684   2.988   8.748 -3.5339 -2.7820 -2.2103
 4234SOL    HW224165   0.021   2.870   8.679  1.2785  0.2146  0.9549
 4235SOL     OW24166   0.036   0.680   3.913 -0.0347  0.0887  0.2111
 4235SOL    HW124167   0.051   0.773   3.893  1.2575  0.2172  1.8108
 4235SOL    HW224168   4.708   0.693   3.990 -2.3453 -1.5110 -1.1372
 4236SOL     OW24169   3.261   1.033   3.036 -0.0767 -0.2857 -0.2199
 4236SOL    HW124170   3.194   1.027   2.969  2.0409 -1.0587 -2.2414
 4236SOL    HW224171   3.251   1.128   3.049  0.6406 -0.1467 -0.6901
 4237SOL     OW24172   4.382   2.846  14.850  0.1242 -0.5254 -0.1417
 4237SOL    HW124173   4.395   2.840  14.755 -0.3157 -2.0968 -0.1026
 4237SOL    HW224174   4.293   2.811  14.859  0.5208 -1.1678  1.1549
 4238SOL     OW24175   2.478   4.596   8.865 -0.0577  0.1538 -0.4531
 4238SOL    HW124176   2.525   4.513   8.872 -1.3733 -0.6226 -0.8971
 4238SOL    HW224177   2.555   4.652   8.875 -1.0545  1.1341  1.8767
 4239SOL     OW24178   0.041   2.415   6.509 -0.2874 -0.4128  0.4519
 4239SOL    HW124179   0.063   2.442   6.420 -0.0059  0.2425  0.7147
 4239SOL    HW224180   0.125   2.404   6.554 -0.5446  1.6561  1.4534
 4240SOL     OW24181   4.677   2.243  14.103  0.1459  0.4632  0.5609
 4240SOL    HW124182   0.016   2.181  14.136 -1.1727  0.6137  3.4173
 4240SOL    HW224183   4.723   2.283  14.029 -1.4789  1.4632  0.0944
 4241SOL     OW24184   2.935   4.721   6.228 -0.1874 -0.4869  0.3081
 4241SOL    HW124185   3.011   0.021   6.177 -0.1122  2.9077  2.1516
 4241SOL    HW224186   2.961   4.632   6.254  0.6252 -0.1994  0.4858
 4242SOL     OW24187   1.899   0.089   2.786 -0.0749  0.1758  0.5518
 4242SOL    HW124188   1.816   0.136   2.795  0.0599  0.1457  1.9416
 4242SOL    HW224189   1.933   0.140   2.713 -0.3907 -0.5738 -0.1223
 4243SOL     OW24190   0.468   3.619   3.450 -0.2422  0.2157 -0.0164
 4243SOL    HW124191   0.457   3.526   3.469  0.7568  0.3314  1.1229
 4243SOL    HW224192   0.516   3.618   3.367  0.5034 -1.0144  0.4295
 4244SOL     OW24193   4.668   4.239  10.139  0.0420 -0.0324  0.3366
 4244SOL    HW124194   4.604   4.199  10.080 -0.0982  1.2094 -0.3555
 4244SOL    HW224195   0.009   4.262  10.075 -0.2478  1.5837  0.6079
 4245SOL     OW24196   4.289   2.685   8.032  0.5808  0.4253  0.5173
 4245SOL    HW124197   4.290   2.779   8.054 -1.0861  0.9334 -1.5735
 4245SOL    HW224198   4.376   2.671   7.995  0.6048  0.6752  0.4780
 4246SOL     OW24199   1.778   2.375   6.948  0.1699 -0.6828  0.3569
 4246SOL    HW124200   1.769   2.451   6.891 -0.5140 -0.0358  1.3332
 4246SOL    HW224201   1.728   2.406   7.023 -1.8431  0.5639 -1.4764
 4247SOL     OW24202   1.566   0.528   9.132 -0.0450  0.1768  0.9286
 4247SOL    HW124203   1.599   0.587   9.064 -1.9750 -0.6488 -0.7363
 4247SOL    HW224204   1.550   0.591   9.203  2.1135 -0.2341  1.7833
 4248SOL     OW24205   2.689   3.101   7.667  0.7663  0.1734  0.1729
 4248SOL    HW124206   2.676   3.044   7.591 -0.2335 -0.0670  0.5308
 4248SOL    HW224207   2.611   3.088   7.721  0.0989  1.0889 -0.5600
 4249SOL     OW24208   1.877   3.191  10.187  0.1310  0.2791 -0.9190
 4249SOL    HW124209   1.947   3.158  10.131  1.3519 -0.4048  1.0460
 4249SOL    HW224210   1.931   3.237  10.251 -2.7986  0.4866  1.4024
 4250SOL     OW24211   1.697   2.186   3.172 -0.3447 -0.1916  0.6924
 4250SOL    HW124212   1.782   2.167   3.133 -0.5306 -1.3620  0.8637
 4250SOL    HW224213   1.665   2.271   3.141 -0.6705 -0.3941  0.4766
 4251SOL     OW24214   4.086   0.621   1.442  0.1082 -0.2051  0.5513
 4251SOL    HW124215   4.001   0.603   1.401 -0.0533 -0.9714  1.2108
 4251SOL    HW224216   4.069   0.620   1.536  0.7608  0.6894  0.6737
 4252SOL     OW24217   1.267   2.193   5.944  0.0475 -0.3939  0.3156
 4252SOL    HW124218   1.185   2.154   5.911  0.4975  0.2760 -1.6260
 4252SOL    HW224219   1.316   2.112   5.927  2.2976  1.7584 -3.4521
 4253SOL     OW24220   4.525   3.729   5.314  0.0774 -0.3071  0.4374
 4253SOL    HW124221   4.572   3.775   5.245 -1.0040  1.1341  0.6629
 4253SOL    HW224222   4.518   3.640   5.280  1.5222  0.1997 -1.2073
 4254SOL     OW24223   0.187   1.291   7.595  0.0269  0.2653 -0.3060
 4254SOL    HW124224   0.255   1.259   7.654  0.5259 -0.4950 -1.2932
 4254SOL    HW224225   0.118   1.230   7.618  1.9040 -0.5468  3.1638
 4255SOL     OW24226   3.915   1.078  17.107  0.2244  0.3281 -0.3079
 4255SOL    HW124227   3.897   1.154  17.052  0.0855 -0.2015 -0.9978
 4255SOL    HW224228   3.911   1.122  17.192  2.3598  0.2604 -0.1547
 4256SOL     OW24229   0.857   0.189   7.708  0.3574  0.3040  0.1538
 4256SOL    HW124230   0.808   0.177   7.790  1.2056 -0.2024  0.6009
 4256SOL    HW224231   0.920   0.255   7.737 -0.9469  1.4942  0.2304
 4257SOL     OW24232   4.442   0.598   2.730 -0.0717 -0.1308  0.6361
 4257SOL    HW124233   4.444   0.529   2.664  1.7691  1.5283 -1.0193
 4257SOL    HW224234   4.449   0.547   2.811  1.6521  0.6131  0.9510
 4258SOL     OW24235   4.131   0.099  12.742  0.3764  0.1674  0.3661
 4258SOL    HW124236   4.122   0.014  12.699  0.9723  0.0344  0.5083
 4258SOL    HW224237   4.202   0.073  12.800  1.2955  1.0781 -0.3483
 4259SOL     OW24238   2.889   1.276   8.343  0.0645  0.4231 -0.1861
 4259SOL    HW124239   2.843   1.360   8.353  1.1564  1.3252 -2.7828
 4259SOL    HW224240   2.907   1.245   8.431  1.5563  0.2386 -0.5653
 4260SOL     OW24241   1.577   2.287  12.428  0.1098 -0.1253 -0.1789
 4260SOL    HW124242   1.600   2.374  12.396 -0.4876  0.3252  0.6414
 4260SOL    HW224243   1.663   2.246  12.434 -0.3445 -0.4259  3.7588
 4261SOL     OW24244   0.987   3.190   3.373  0.2875 -0.2564 -0.1276
 4261SOL    HW124245   0.981   3.094   3.377  1.2647 -0.2822  0.8185
 4261SOL    HW224246   1.053   3.191   3.303 -1.2959  0.0698 -1.5992
 4262SOL     OW24247   3.388   1.294   2.156  0.5592 -0.1938  0.2145
 4262SOL    HW124248   3.480   1.268   2.158  1.3671  2.6646 -0.3118
 4262SOL    HW224249   3.379   1.313   2.063  1.0367  2.1785  0.6416
 4263SOL     OW24250   3.523   0.072   5.838  0.8611 -0.0101 -0.1830
 4263SOL    HW124251   3.429   0.055   5.826  0.6766  0.4802  0.5781
 4263SOL    HW224252   3.548   0.026   5.918 -1.5244  0.2669  0.7322
 4264SOL     OW24253   4.063   1.391   2.169  0.3830 -0.0832  0.1471
 4264SOL    HW124254   4.142   1.433   2.203  0.9214  1.0089 -2.4551
 4264SOL    HW224255   4.091   1.299   2.160 -1.3874 -0.6887  0.7969
 4265SOL     OW24256   0.514   4.383   6.621  0.3575 -0.0331  0.5051
 4265SOL    HW124257   0.451   4.418   6.684 -1.1030  0.2215 -1.0897
 4265SOL    HW224258   0.552   4.460   6.580  0.2075  1.2780  2.8212
 4266SOL     OW24259   1.069   3.710   2.295 -0.1792 -0.2347 -0.2116
 4266SOL    HW124260   1.066   3.718   2.200 -0.8472 -1.0741 -0.2663
 4266SOL    HW224261   1.124   3.785   2.318 -0.4143 -0.3525  0.7333
 4267SOL     OW24262   0.134   3.301   5.706 -0.0961 -0.1606  0.3403
 4267SOL    HW124263   0.193   3.375   5.699  0.9122 -0.8726  1.4109
 4267SOL    HW224264   0.049   3.341   5.723 -0.6042 -0.8034 -0.6331
 4268SOL     OW24265   3.333   3.825  12.230 -0.1790  0.1192  0.1276
 4268SOL    HW124266   3.329   3.896  12.166 -0.2063 -0.3470 -0.3882
 4268SOL    HW224267   3.388   3.761  12.184 -2.3273 -1.1066 -0.7322
 4269SOL     OW24268   1.312   2.730   2.403  0.6100  0.5013 -1.0049
 4269SOL    HW124269   1.245   2.792   2.375  0.4034 -0.4528 -2.6193
 4269SOL    HW224270   1.344   2.719   2.314  0.8884 -3.6209 -0.3951
 4270SOL     OW24271   2.479   2.353  15.637 -0.1111 -0.0106 -0.8069
 4270SOL    HW124272   2.532   2.288  15.592  2.4801  1.7429 -0.3267
 4270SOL    HW224273   2.412   2.288  15.658 -1.6872  1.0921 -2.4006
 4271SOL     OW24274   1.728   1.521  15.147 -0.1264 -0.0994 -0.2389
 4271SOL    HW124275   1.688   1.564  15.224  2.0935  0.3684  0.6454
 4271SOL    HW224276   1.707   1.591  15.085  1.0013  0.2885 -0.1822
 4272SOL     OW24277   2.072   3.014   4.037 -0.2802  0.5151 -0.6883
 4272SOL    HW124278   2.112   3.101   4.035  0.5345  0.1655  0.6961
 4272SOL    HW224279   2.007   3.024   4.107 -0.2744 -0.6149 -0.5179
 4273SOL     OW24280   2.395   3.118   8.206  0.3593  0.2466  0.6640
 4273SOL    HW124281   2.392   3.213   8.193  0.7510  0.1969  0.2110
 4273SOL    HW224282   2.329   3.111   8.275  0.8961 -1.8430  0.9743
 4274SOL     OW24283   3.426   3.001   7.561  0.3920  0.3312 -0.6171
 4274SOL    HW124284   3.404   2.913   7.531  0.4593 -1.1659  3.8512
 4274SOL    HW224285   3.384   3.049   7.489  0.2390  1.3646  0.1637
 4275SOL     OW24286   2.072   2.379  17.596 -0.1429  0.1747  0.3555
 4275SOL    HW124287   2.013   2.304  17.588 -0.7458  0.5181  1.5249
 4275SOL    HW224288   2.000   2.441  17.601 -0.2820  0.3091 -3.7371
 4276SOL     OW24289   1.237   4.557  13.432 -0.0371  0.2691  0.1074
 4276SOL    HW124290   1.178   4.615  13.481  1.1389  0.4774  1.2718
 4276SOL    HW224291   1.316   4.609  13.421  2.0329 -2.7743  0.5052
 4277SOL     OW24292   3.195   2.909  17.455  0.2019 -0.4858  0.2255
 4277SOL    HW124293   3.257   2.847  17.493 -1.8658 -2.0574  1.0584
 4277SOL    HW224294   3.153   2.863  17.383 -0.1712  3.6493 -2.1892
 4278SOL     OW24295   3.604   2.588  11.856 -0.3079 -0.2201  0.5364
 4278SOL    HW124296   3.691   2.619  11.830 -0.2263 -0.7239  0.2112
 4278SOL    HW224297   3.557   2.567  11.775  0.1431 -0.8923  0.4439
 4279SOL     OW24298   4.490   2.341   6.615  0.6055 -0.1085  0.6275
 4279SOL    HW124299   4.476   2.382   6.701  1.3398  1.3480  0.0469
 4279SOL    HW224300   4.584   2.344   6.602  0.3446  0.9572 -0.9928
 4280SOL     OW24301   2.322   0.749   8.697 -0.2673 -0.4284  0.3806
 4280SOL    HW124302   2.261   0.766   8.624 -0.3055 -0.8925  0.3059
 4280SOL    HW224303   2.261   0.764   8.769  0.0641  0.3790  0.4885
 4281SOL     OW24304   1.216   1.644   8.769  0.5239  0.6607 -0.1664
 4281SOL    HW124305   1.176   1.567   8.727  2.4935 -0.0659 -0.7204
 4281SOL    HW224306   1.149   1.684   8.826  0.5380 -0.8179  0.9057
 4282SOL     OW24307   0.121   0.120   6.658  0.0071  0.4749  0.0494
 4282SOL    HW124308   0.043   0.085   6.701  0.4350  0.3743  0.7583
 4282SOL    HW224309   0.076   0.149   6.579 -2.0024  1.1099  1.4411
 4283SOL     OW24310   2.474   2.748   5.087 -0.0830  0.5194  0.3780
 4283SOL    HW124311   2.463   2.833   5.045  0.3448  1.0706  1.4006
 4283SOL    HW224312   2.559   2.761   5.127  1.5393 -0.8620 -2.5900
 4284SOL     OW24313   2.175   1.554   7.263 -0.5206 -0.1453 -0.2899
 4284SOL    HW124314   2.150   1.611   7.190  0.2978 -1.1338 -1.3475
 4284SOL    HW224315   2.229   1.612   7.316  0.3863 -0.9158 -0.3710
 4285SOL     OW24316   1.672   1.310  13.829 -0.2059 -0.2978 -0.4256
 4285SOL    HW124317   1.716   1.284  13.910 -1.3989 -2.9841 -0.6647
 4285SOL    HW224318   1.701   1.401  13.832 -2.7395  0.4673  0.7746
 4286SOL     OW24319   1.552   1.216   4.315  0.3711  0.0625  0.3938
 4286SOL    HW124320   1.463   1.249   4.300 -0.2643 -1.2405  1.2689
 4286SOL    HW224321   1.571   1.250   4.403  1.6197 -0.2104  0.2310
 4287SOL     OW24322   3.471   1.072   3.505 -0.0629 -0.1869  0.2444
 4287SOL    HW124323   3.429   1.036   3.427 -0.4737  1.1380 -0.1522
 4287SOL    HW224324   3.509   1.153   3.471 -0.7591  0.3456  0.7620
 4288SOL     OW24325   3.481   3.718   6.561  0.0602 -0.1510  0.4136
 4288SOL    HW124326   3.411   3.725   6.626  0.3836  0.3008  0.7149
 4288SOL    HW224327   3.477   3.806   6.525  1.5474 -0.6787 -1.0598
 4289SOL     OW24328   1.752   4.338  12.239 -0.4284 -0.1912 -0.1978
 4289SOL    HW124329   1.740   4.365  12.330 -0.6026  1.9555 -0.8610
 4289SOL    HW224330   1.762   4.246  12.261  3.2480 -0.2465 -2.2045
 4290SOL     OW24331   3.526   1.666   0.802  0.3695 -0.0157  0.0954
 4290SOL    HW124332   3.469   1.607   0.851 -1.4061 -0.2185 -2.2310
 4290SOL    HW224333   3.514   1.641   0.711 -4.9754 -0.7996  1.0607
 4291SOL     OW24334   1.891   0.457   6.753 -0.0960 -0.6007 -0.5408
 4291SOL    HW124335   1.834   0.437   6.827 -0.3358 -1.4262 -0.9442
 4291SOL    HW224336   1.975   0.429   6.790  0.8374  0.7262 -1.6074
 4292SOL     OW24337   0.866   1.567   5.336 -0.1726 -0.0723  0.5497
 4292SOL    HW124338   0.844   1.477   5.310 -0.4877  0.3258 -0.5646
 4292SOL    HW224339   0.904   1.549   5.422 -0.2339 -0.3844  0.5127
 4293SOL     OW24340   0.837   1.356   5.768  0.3889 -0.4276  0.0959
 4293SOL    HW124341   0.787   1.297   5.711 -0.0650  0.6728 -0.6371
 4293SOL    HW224342   0.910   1.300   5.795 -3.0356 -4.8815  0.1686
 4294SOL     OW24343   0.650   3.050   3.259 -0.1365 -0.0139  0.0498
 4294SOL    HW124344   0.624   2.986   3.193  1.4380 -0.5815 -0.0117
 4294SOL    HW224345   0.623   3.019   3.345 -0.8488  0.2965 -0.0584
 4295SOL     OW24346   2.278   2.460   4.314  0.3587 -0.0344 -0.2324
 4295SOL    HW124347   2.344   2.485   4.379 -1.5451  2.5378  0.7105
 4295SOL    HW224348   2.308   2.508   4.237  0.8991 -0.5793 -0.3628
 4296SOL     OW24349   0.312   3.942   1.973  0.2885 -0.2651  0.1945
 4296SOL    HW124350   0.263   3.871   2.015  1.5672  0.4381  2.8725
 4296SOL    HW224351   0.356   3.896   1.902  1.1656  1.7496 -0.5549
 4297SOL     OW24352   3.998   2.791  10.649 -0.5076 -1.0237 -0.0349
 4297SOL    HW124353   4.034   2.876  10.624 -1.3278 -1.0538 -1.3150
 4297SOL    HW224354   4.016   2.792  10.743  1.2479  1.0427 -0.3949
 4298SOL     OW24355   1.969   4.058   7.424  0.6520 -0.2631  0.0518
 4298SOL    HW124356   2.063   4.065   7.408  1.1744 -2.3374  2.1632
 4298SOL    HW224357   1.970   3.998   7.499 -0.5027 -0.3873 -0.0420
 4299SOL     OW24358   1.510   2.961   6.290 -0.3328  0.0760  0.2919
 4299SOL    HW124359   1.583   2.910   6.256 -0.3478 -0.1634  0.6235
 4299SOL    HW224360   1.545   3.050   6.293 -0.0478  0.0154 -1.4922
 4300SOL     OW24361   1.947   3.529   0.386  0.0816  0.5834  0.0577
 4300SOL    HW124362   2.014   3.480   0.339 -0.0807  0.5679 -0.1551
 4300SOL    HW224363   1.866   3.491   0.351 -0.2616  0.0966  1.3510
 4301SOL     OW24364   0.712   0.519  12.828  0.8401 -0.3672  0.1270
 4301SOL    HW124365   0.680   0.475  12.907  1.7968  0.7874  1.1521
 4301SOL    HW224366   0.794   0.554  12.864  1.3631 -0.6500 -0.7985
 4302SOL     OW24367   2.143   0.662   3.099 -0.4278  0.0875  0.0773
 4302SOL    HW124368   2.115   0.633   3.013 -1.3132 -3.4891  1.5780
 4302SOL    HW224369   2.056   0.676   3.137 -0.6559 -0.8433 -0.1008
 4303SOL     OW24370   4.517   2.828  12.869  0.0602 -0.1967 -0.0534
 4303SOL    HW124371   4.606   2.851  12.897  0.9734 -1.4138 -1.9276
 4303SOL    HW224372   4.493   2.746  12.913  0.9980 -0.1839  0.5041
 4304SOL     OW24373   2.679   1.297  15.778 -0.0920  0.0496 -0.0467
 4304SOL    HW124374   2.609   1.332  15.832  1.9252  3.1340  0.5622
 4304SOL    HW224375   2.628   1.249  15.713 -0.3306  0.4920 -0.1870
 4305SOL     OW24376   1.593   3.251   3.432  0.4708 -0.3861  0.7021
 4305SOL    HW124377   1.680   3.214   3.449  0.1766 -1.4729 -0.1549
 4305SOL    HW224378   1.563   3.280   3.519  0.1373 -1.8504  1.0801
 4306SOL     OW24379   0.117   3.300   8.654  0.4201  0.0847 -0.1489
 4306SOL    HW124380   0.065   3.334   8.580 -0.5563 -2.2848 -0.5442
 4306SOL    HW224381   0.199   3.348   8.657  1.5282 -1.9122  1.1509
 4307SOL     OW24382   1.202   1.961   1.174  0.1984  0.3714  0.4288
 4307SOL    HW124383   1.146   2.011   1.115  0.8637 -1.6698 -1.9246
 4307SOL    HW224384   1.211   1.883   1.120  0.4363  0.3408  0.5155
 4308SOL     OW24385   3.224   4.560   2.701  0.1776 -0.3520 -0.0210
 4308SOL    HW124386   3.178   4.477   2.714  0.6318 -0.5503  0.3351
 4308SOL    HW224387   3.306   4.533   2.659 -1.2596 -1.3653 -2.1742
 4309SOL     OW24388   1.411   3.713   3.207 -0.3756 -0.2806  0.3570
 4309SOL    HW124389   1.470   3.710   3.283  2.4271 -0.5325 -1.8432
 4309SOL    HW224390   1.477   3.692   3.141 -1.2250  1.2593 -0.9666
 4310SOL     OW24391   4.071   2.940  16.676  0.0860 -0.2370 -0.3354
 4310SOL    HW124392   4.001   2.900  16.727  0.7701 -0.9044  0.0660
 4310SOL    HW224393   4.108   3.002  16.740 -0.9336  1.4822 -1.4032
 4311SOL     OW24394   4.179   3.203  10.270  0.2109  0.2597  0.2022
 4311SOL    HW124395   4.174   3.250  10.353 -0.1647  2.4644 -1.0774
 4311SOL    HW224396   4.259   3.152  10.281  0.2568  0.5151  1.0895
 4312SOL     OW24397   0.201   0.517   0.377  0.4934 -0.7892  0.1216
 4312SOL    HW124398   0.177   0.534   0.469  0.7936  2.8571 -0.4903
 4312SOL    HW224399   0.259   0.442   0.391 -0.5279 -1.9686 -2.1168
 4313SOL     OW24400   0.118   2.653  12.852  0.4622  0.2462 -0.1642
 4313SOL    HW124401   0.069   2.731  12.876  1.7741  1.3036 -0.8726
 4313SOL    HW224402   0.080   2.582  12.902  0.3410 -0.3628 -1.1167
 4314SOL     OW24403   1.312   2.136   0.030 -0.0581 -0.3453  0.8656
 4314SOL    HW124404   1.219   2.157   0.016 -0.2578 -2.2977 -0.7563
 4314SOL    HW224405   1.329   2.189   0.107  1.8752 -2.4509  1.8865
 4315SOL     OW24406   1.124   2.066   3.724 -0.3080  0.1318  0.2514
 4315SOL    HW124407   1.081   2.148   3.746  1.5458  1.1098  0.2259
 4315SOL    HW224408   1.174   2.058   3.806 -0.8664  2.6421  0.8189
 4316SOL     OW24409   1.466   3.889  17.522 -0.2378 -0.6887  0.3698
 4316SOL    HW124410   1.473   3.973  17.567 -1.6678 -0.6167  0.4644
 4316SOL    HW224411   1.558   3.866  17.507  0.1489  1.3278 -0.2962
 4317SOL     OW24412   2.791   3.937   4.153 -0.1220 -0.1886  0.5163
 4317SOL    HW124413   2.886   3.944   4.139 -0.5016  3.3745 -0.2717
 4317SOL    HW224414   2.780   3.972   4.241  3.8957  1.4706  0.3940
 4318SOL     OW24415   2.274   4.341   2.998 -0.0707  0.1174  0.3587
 4318SOL    HW124416   2.281   4.394   2.918  2.0659 -0.6989  0.0031
 4318SOL    HW224417   2.297   4.258   2.956  0.3019  0.0612  0.6743
 4319SOL     OW24418   2.412   2.757  11.307  0.3556 -0.2176  0.5267
 4319SOL    HW124419   2.331   2.728  11.347 -0.2704  1.7408  0.6573
 4319SOL    HW224420   2.411   2.707  11.225  0.8483  1.0811 -0.2672
 4320SOL     OW24421   2.170   2.320  10.676 -0.0968  0.8124 -0.3201
 4320SOL    HW124422   2.134   2.266  10.746  0.3260 -2.4687 -2.6502
 4320SOL    HW224423   2.120   2.401  10.683  2.2910  2.2947 -0.2575
 4321SOL     OW24424   0.342   2.259   8.551  0.2381 -0.3701  0.0078
 4321SOL    HW124425   0.355   2.228   8.641  0.1433  1.4105  0.6209
 4321SOL    HW224426   0.431   2.277   8.524  0.0535  2.4634  1.2967
 4322SOL     OW24427   3.318   0.698   2.920 -0.1389  0.2655  0.4881
 4322SOL    HW124428   3.351   0.770   2.973  2.1347  0.4538 -1.1568
 4322SOL    HW224429   3.351   0.718   2.832 -1.1341  0.4738  0.1644
 4323SOL     OW24430   0.524   4.252   9.672  0.1016 -0.3816 -0.4855
 4323SOL    HW124431   0.574   4.170   9.667  0.7908  0.1474 -2.3795
 4323SOL    HW224432   0.455   4.244   9.607 -1.4236 -0.3230  1.1222
 4324SOL     OW24433   3.678   3.058   1.796  0.0868  0.2963  0.0680
 4324SOL    HW124434   3.715   3.117   1.862 -2.1836  1.9557 -0.1587
 4324SOL    HW224435   3.760   3.032   1.755 -0.7511 -1.0106 -0.7732
 4325SOL     OW24436   1.373   1.211   8.966  0.5061 -0.2877  0.2334
 4325SOL    HW124437   1.343   1.242   8.881  0.7622  0.1533  0.3080
 4325SOL    HW224438   1.409   1.291   9.004  0.1847 -0.6618  1.3514
 4326SOL     OW24439   4.125   1.242   0.925  0.0235  0.3104  0.1187
 4326SOL    HW124440   4.059   1.283   0.981  0.7734 -2.1752  2.8126
 4326SOL    HW224441   4.170   1.318   0.889 -0.0116 -0.3215 -1.2579
 4327SOL     OW24442   1.193   3.519   4.042  0.6441 -0.9309 -0.0428
 4327SOL    HW124443   1.283   3.499   4.066  2.5455  1.7060 -4.9201
 4327SOL    HW224444   1.194   3.507   3.947 -0.3373 -0.4547 -0.1139
 4328SOL     OW24445   3.753   0.661  10.595 -0.5311  0.1493  0.2583
 4328SOL    HW124446   3.767   0.567  10.605 -0.8921 -0.1480 -2.0331
 4328SOL    HW224447   3.660   0.671  10.615 -0.1983  2.9101  0.4643
 4329SOL     OW24448   1.667   3.277   9.403 -0.6249 -0.0521  0.2088
 4329SOL    HW124449   1.631   3.332   9.473 -1.6131 -0.7529  0.2471
 4329SOL    HW224450   1.760   3.286   9.424 -0.5821  2.1757 -0.8859
 4330SOL     OW24451   4.304   0.287   7.531  0.1846 -0.3564  0.8153
 4330SOL    HW124452   4.222   0.256   7.569  0.4604  0.8769  2.4164
 4330SOL    HW224453   4.374   0.231   7.564 -1.0194 -2.9849 -1.0558
 4331SOL     OW24454   0.607   3.027   7.970 -0.0085  0.2189  0.0161
 4331SOL    HW124455   0.613   3.020   8.066  0.5724  3.2392  0.2090
 4331SOL    HW224456   0.543   3.098   7.961 -0.4668 -0.1217  0.5366
 4332SOL     OW24457   0.274   2.459  13.613  0.4031  0.4245  0.1805
 4332SOL    HW124458   0.366   2.476  13.632 -0.1036  1.4116  1.7198
 4332SOL    HW224459   0.234   2.458  13.700 -1.2328  0.2686 -0.5707
 4333SOL     OW24460   2.770   2.564   7.049 -0.4731  0.1170 -0.1748
 4333SOL    HW124461   2.846   2.516   7.016 -1.5052 -1.2825 -0.5424
 4333SOL    HW224462   2.701   2.498   7.041  0.1176 -0.7166  1.5108
 4334SOL     OW24463   1.053   0.535  15.009 -0.3855  0.6264 -0.0034
 4334SOL    HW124464   1.108   0.548  14.932 -0.3000  0.2488 -0.0067
 4334SOL    HW224465   0.987   0.603  14.998 -0.9404  0.0801 -0.0697
 4335SOL     OW24466   2.025   1.887  11.906 -0.5379 -0.0215  0.2089
 4335SOL    HW124467   2.016   1.812  11.965 -0.4340 -0.1651  0.0382
 4335SOL    HW224468   1.935   1.907  11.880 -0.3814  0.7753  0.2571
 4336SOL     OW24469   3.274   3.498   6.281 -0.0912  0.3591  0.0607
 4336SOL    HW124470   3.365   3.501   6.310  0.5594 -0.6839 -1.9014
 4336SOL    HW224471   3.228   3.501   6.365  1.8616 -2.2076  1.2348
 4337SOL     OW24472   1.996   2.947   7.477 -0.2640 -0.1472  0.3980
 4337SOL    HW124473   1.997   3.027   7.530  1.2653  0.1759 -0.1104
 4337SOL    HW224474   1.994   2.873   7.537 -0.5319 -1.1577 -0.8479
 4338SOL     OW24475   0.494   0.532  11.283 -0.2559 -0.2616 -0.3241
 4338SOL    HW124476   0.421   0.486  11.241 -1.2461  0.3420  0.7200
 4338SOL    HW224477   0.573   0.487  11.255 -0.1391  0.5587 -1.3217
 4339SOL     OW24478   3.539   2.972   3.715 -0.1031  0.3292 -0.0019
 4339SOL    HW124479   3.461   2.919   3.733  0.9985 -1.2745  0.0828
 4339SOL    HW224480   3.593   2.968   3.794 -1.1830 -2.0808  0.6263
 4340SOL     OW24481   1.866   1.513  14.163 -0.0172 -0.0599 -0.5771
 4340SOL    HW124482   1.782   1.550  14.136 -0.7173 -0.6944  0.7427
 4340SOL    HW224483   1.907   1.577  14.222 -0.4848 -0.3091  0.0190
 4341SOL     OW24484   3.555   2.222   1.102  0.7144 -0.0824 -0.3183
 4341SOL    HW124485   3.600   2.303   1.076 -0.8128 -0.6251 -4.7233
 4341SOL    HW224486   3.503   2.220   1.021 -1.5034 -2.0571  1.1604
 4342SOL     OW24487   3.600   2.909   2.025 -0.3544 -0.3922 -0.7008
 4342SOL    HW124488   3.600   3.004   2.035 -1.7283 -0.6389  1.7003
 4342SOL    HW224489   3.665   2.891   1.957 -0.2324 -3.9112  0.3266
 4343SOL     OW24490   1.106   1.415   7.740  0.0452  0.2153  0.2259
 4343SOL    HW124491   1.186   1.467   7.736  2.1300 -3.0129  0.2745
 4343SOL    HW224492   1.144   1.331   7.766  0.0392  0.7903  2.1225
 4344SOL     OW24493   3.733   3.688  15.637  0.4781  0.0351 -0.1565
 4344SOL    HW124494   3.742   3.754  15.705  0.9077 -0.7927  0.5810
 4344SOL    HW224495   3.639   3.674  15.651  0.6408 -1.2269 -0.3573
 4345SOL     OW24496   4.415   0.020   3.510  0.2241 -0.5849  0.0349
 4345SOL    HW124497   4.492   0.002   3.456 -0.1053  0.8486 -0.9128
 4345SOL    HW224498   4.427   0.111   3.534 -4.5427  0.5167 -1.6886
 4346SOL     OW24499   0.521   2.365  16.248 -0.5949 -0.1602  0.0983
 4346SOL    HW124500   0.595   2.304  16.253 -0.8773 -0.6660 -1.9894
 4346SOL    HW224501   0.479   2.331  16.327 -1.5082 -0.3372 -0.4692
 4347SOL     OW24502   1.675   0.654   8.929 -0.5546 -0.3207  0.2722
 4347SOL    HW124503   1.701   0.740   8.897 -0.2460 -0.6347 -0.3258
 4347SOL    HW224504   1.750   0.598   8.908 -0.4337  0.1897 -0.6750
 4348SOL     OW24505   2.749   4.328   0.599 -0.5101 -0.3859  0.3754
 4348SOL    HW124506   2.673   4.275   0.623 -1.4968  2.3996  3.4953
 4348SOL    HW224507   2.760   4.317   0.505  0.4172  0.0548  0.4301
 4349SOL     OW24508   0.279   0.365   6.596  0.1156 -0.0162  0.4413
 4349SOL    HW124509   0.210   0.420   6.634 -0.1911  0.5503 -0.9564
 4349SOL    HW224510   0.248   0.277   6.619  0.5316 -0.6994 -1.5775
 4350SOL     OW24511   3.596   3.698   1.853 -0.5756 -0.1362  0.7984
 4350SOL    HW124512   3.551   3.781   1.866 -0.0755  0.4007 -0.8847
 4350SOL    HW224513   3.644   3.682   1.934  2.4541 -3.1599 -1.5467
 4351SOL     OW24514   4.235   3.182   8.796  0.4186  0.3447 -0.3369
 4351SOL    HW124515   4.292   3.118   8.837  0.3226  0.1110 -0.5708
 4351SOL    HW224516   4.276   3.266   8.819  0.3513  1.0127 -2.6279
 4352SOL     OW24517   2.355   1.503  10.941 -0.1329  0.1814  0.0509
 4352SOL    HW124518   2.443   1.490  10.907  0.1423  0.0141  0.8208
 4352SOL    HW224519   2.349   1.450  11.021  1.2128  2.3185  1.5583
 4353SOL     OW24520   0.028   1.988   8.350 -0.1204 -0.0426 -0.4756
 4353SOL    HW124521   0.103   2.018   8.299 -0.0637 -0.9737 -0.9385
 4353SOL    HW224522   4.713   2.073   8.367 -0.1262  0.2813 -2.0399
 4354SOL     OW24523   4.366   4.705  15.221  0.6652 -0.6502  0.1207
 4354SOL    HW124524   4.377   0.053  15.280  2.1571 -1.0574  0.3534
 4354SOL    HW224525   4.379   0.034  15.144 -1.4788  1.3095  1.1715
 4355SOL     OW24526   3.196   4.551   7.533 -0.2130  0.2541  0.2027
 4355SOL    HW124527   3.183   4.472   7.585 -1.1047 -0.1392 -0.6211
 4355SOL    HW224528   3.161   4.523   7.449  0.6523 -3.6292  1.1077
 4356SOL     OW24529   4.192   0.555   4.647 -0.3506  0.5462 -0.2534
 4356SOL    HW124530   4.104   0.560   4.683  0.0005 -0.7017  0.7568
 4356SOL    HW224531   4.238   0.538   4.729 -0.2412 -1.2257 -0.6772
 4357SOL     OW24532   2.948   4.251   9.808 -0.6679  0.4004 -0.4488
 4357SOL    HW124533   2.865   4.292   9.835 -1.0967 -0.0818 -1.0434
 4357SOL    HW224534   3.011   4.316   9.839 -0.8980  0.3254  0.1871
 4358SOL     OW24535   1.625   1.747   0.966  0.1265 -0.3461  0.0922
 4358SOL    HW124536   1.696   1.684   0.958 -0.0453 -0.6371  0.9771
 4358SOL    HW224537   1.600   1.766   0.875  0.6195 -0.0975  0.0112
 4359SOL     OW24538   2.339   4.555   5.069  0.4872  0.0698 -0.3911
 4359SOL    HW124539   2.277   4.590   5.004 -0.4684  0.5294  0.7679
 4359SOL    HW224540   2.421   4.596   5.042  1.3179  0.9278  3.5149
 4360SOL     OW24541   1.855   1.986  13.297  0.4076  0.3916 -0.5624
 4360SOL    HW124542   1.868   2.008  13.205  0.5391  1.0107 -0.3978
 4360SOL    HW224543   1.760   1.977  13.289  0.2063 -0.3964  2.5922
 4361SOL     OW24544   2.490   4.695   2.470 -0.3133 -0.0920 -0.5449
 4361SOL    HW124545   2.535   4.627   2.520  1.7165  1.0782 -0.8011
 4361SOL    HW224546   2.542   4.672   2.393 -0.6065 -2.3027 -0.0815
 4362SOL     OW24547   1.231   3.888  17.092 -0.5118 -0.2062  0.1992
 4362SOL    HW124548   1.289   3.963  17.084 -2.4151  1.5061  2.6297
 4362SOL    HW224549   1.292   3.813  17.086  1.8451  1.6368  1.0854
 4363SOL     OW24550   3.004   0.145   8.979  0.7765 -0.1820 -0.8804
 4363SOL    HW124551   2.940   0.154   9.050  2.8330 -0.2812  1.0199
 4363SOL    HW224552   3.081   0.135   9.035 -0.2743 -0.6118  0.4961
 4364SOL     OW24553   2.801   4.430   8.007  0.0705 -0.3915 -0.3760
 4364SOL    HW124554   2.752   4.486   7.946 -2.7303 -3.6663 -1.1720
 4364SOL    HW224555   2.878   4.487   8.009 -0.4125  0.2493 -0.0384
 4365SOL     OW24556   1.520   4.152   0.206 -0.6711  0.3463  0.3922
 4365SOL    HW124557   1.574   4.180   0.281  0.2783 -0.1392 -0.1017
 4365SOL    HW224558   1.461   4.099   0.260 -1.2061  1.3530  0.7927
 4366SOL     OW24559   2.067   1.355  14.294  0.7346  0.1515  0.0643
 4366SOL    HW124560   2.029   1.294  14.357  1.0090 -0.2191 -0.1307
 4366SOL    HW224561   1.983   1.370  14.251  0.1102  0.4848  1.3942
 4367SOL     OW24562   3.052   4.435  13.453 -0.0943  0.3164  0.1458
 4367SOL    HW124563   3.099   4.355  13.432  1.6868  1.2609  0.4890
 4367SOL    HW224564   2.989   4.393  13.511 -1.4505  1.3359 -0.5955
 4368SOL     OW24565   1.873   1.271  14.049 -0.2643  0.9483 -0.3732
 4368SOL    HW124566   1.964   1.258  14.021 -0.3209  1.1861 -0.6579
 4368SOL    HW224567   1.877   1.360  14.083 -0.4079  1.1767 -0.9672
 4369SOL     OW24568   1.108   3.336  14.760 -0.0480  0.6269  0.2358
 4369SOL    HW124569   1.194   3.378  14.769  0.9993 -1.6267  0.6031
 4369SOL    HW224570   1.120   3.284  14.681 -0.7986 -1.4535  1.5066
 4370SOL     OW24571   0.893   2.270   8.524 -0.1302  0.0882  0.3320
 4370SOL    HW124572   0.803   2.297   8.504  0.7906  1.5044 -1.8712
 4370SOL    HW224573   0.936   2.307   8.447 -1.0116  0.6142  0.0989
 4371SOL     OW24574   3.909   1.470   7.929  0.0875 -0.2299  0.1532
 4371SOL    HW124575   3.896   1.438   8.019  1.5682  0.9527  0.7886
 4371SOL    HW224576   4.000   1.497   7.938 -0.4663  1.5849  0.3646
 4372SOL     OW24577   2.990   2.170  17.564 -0.2136 -0.2180 -0.4561
 4372SOL    HW124578   2.951   2.224  17.633 -1.2341  0.5773 -1.6683
 4372SOL    HW224579   2.919   2.166  17.500 -1.4873 -0.7426  0.9605
 4373SOL     OW24580   1.144   3.529  12.506  0.4808 -0.1364  0.2020
 4373SOL    HW124581   1.156   3.623  12.491 -3.1550  0.2995  0.1353
 4373SOL    HW224582   1.063   3.511  12.554 -0.2152 -0.6060 -1.1510
 4374SOL     OW24583   4.442   0.817  10.380 -0.4632 -0.0324  0.4681
 4374SOL    HW124584   4.521   0.762  10.380  0.4595  1.2954 -1.1691
 4374SOL    HW224585   4.435   0.833  10.474  0.1734  0.1945  0.4830
 4375SOL     OW24586   3.780   3.189   2.021 -0.3298 -0.9752 -0.5060
 4375SOL    HW124587   3.838   3.264   2.030 -1.1108 -0.4855  0.4681
 4375SOL    HW224588   3.726   3.190   2.100 -2.5911 -0.3636 -2.0615
 4376SOL     OW24589   0.182   0.860   1.652 -0.7961  0.0734 -0.2113
 4376SOL    HW124590   0.130   0.857   1.572 -0.3887 -0.7592 -0.4467
 4376SOL    HW224591   0.275   0.847   1.634 -0.6017 -0.8023  1.3179
 4377SOL     OW24592   4.514   3.110   4.660 -0.3037  0.2477 -0.3634
 4377SOL    HW124593   4.587   3.113   4.722 -0.0235  2.1620 -0.7797
 4377SOL    HW224594   4.471   3.025   4.669  0.7688 -0.2442  0.0672
 4378SOL     OW24595   2.183   2.202   6.036  0.8148 -0.3168  0.0619
 4378SOL    HW124596   2.102   2.197   5.985 -0.1130  0.9065  1.4309
 4378SOL    HW224597   2.203   2.294   6.023  1.4184 -0.3845  0.5004
 4379SOL     OW24598   4.123   3.313   4.396 -0.0997  0.0596 -0.1577
 4379SOL    HW124599   4.201   3.314   4.340 -1.2044  1.8713 -1.6711
 4379SOL    HW224600   4.173   3.312   4.477  1.0422  1.4692 -0.8485
 4380SOL     OW24601   3.279   3.906  11.828  0.6893  0.3274  0.0837
 4380SOL    HW124602   3.189   3.876  11.839  0.7306  0.0916 -0.2213
 4380SOL    HW224603   3.282   3.920  11.733 -0.4191 -1.3215 -0.1875
 4381SOL     OW24604   4.426   2.844   0.679 -0.1158  0.0207  0.9619
 4381SOL    HW124605   4.515   2.859   0.710  0.0201  2.2424 -0.5067
 4381SOL    HW224606   4.417   2.753   0.708 -2.7298 -0.1661 -0.4403
 4382SOL     OW24607   2.979   2.187   7.860 -0.9826  0.4870 -0.0066
 4382SOL    HW124608   2.991   2.119   7.927 -1.9218 -0.5718 -0.9212
 4382SOL    HW224609   2.987   2.270   7.907  0.2317 -1.3787  3.0718
 4383SOL     OW24610   2.919   1.591  12.694 -0.8553 -0.3959 -0.1789
 4383SOL    HW124611   2.828   1.610  12.717 -0.0038  2.5817  0.6603
 4383SOL    HW224612   2.960   1.671  12.726  0.2068 -1.6575  1.5942
 4384SOL     OW24613   4.249   2.594  11.645  0.4137  0.2760  0.5455
 4384SOL    HW124614   4.210   2.510  11.621  0.5429  0.8587 -1.7230
 4384SOL    HW224615   4.326   2.561  11.692  0.7471  1.9677  1.1910
 4385SOL     OW24616   3.850   2.814   5.214 -0.4710 -0.0676  0.3903
 4385SOL    HW124617   3.858   2.806   5.309  0.6902  0.2145  0.3146
 4385SOL    HW224618   3.870   2.904   5.188  1.5103 -0.9700 -1.1731
 4386SOL     OW24619   2.427   4.057   6.843 -0.8298 -0.4548  0.6978
 4386SOL    HW124620   2.402   4.004   6.767  0.6499 -2.2052  1.4745
 4386SOL    HW224621   2.519   4.035   6.848 -1.2237 -2.2692 -0.0444
 4387SOL     OW24622   0.497   3.151  12.508 -0.4861  0.0415 -0.3129
 4387SOL    HW124623   0.401   3.155  12.510 -0.5113 -1.3644  1.2474
 4387SOL    HW224624   0.526   3.098  12.583 -2.3781  0.3183  0.6259
 4388SOL     OW24625   2.664   0.752   4.580 -0.1463  0.3657 -0.1984
 4388SOL    HW124626   2.649   0.798   4.498 -0.2164  0.2587 -0.2452
 4388SOL    HW224627   2.615   0.811   4.638 -0.1640  0.0126  0.1420
 4389SOL     OW24628   1.244   3.433   6.008  0.4179 -0.2802  0.3775
 4389SOL    HW124629   1.172   3.370   6.007  1.9654 -2.0497 -1.2717
 4389SOL    HW224630   1.242   3.471   6.095  1.7641  1.5802 -0.4092
 4390SOL     OW24631   1.666   2.919   9.727 -0.1899 -0.6565 -0.0510
 4390SOL    HW124632   1.643   3.012   9.718 -1.2879 -0.6702  2.7273
 4390SOL    HW224633   1.606   2.875   9.667  1.3705  1.0396 -2.8654
 4391SOL     OW24634   0.144   4.573   7.258 -0.2012  0.3538  0.4087
 4391SOL    HW124635   0.161   4.541   7.347 -1.2019 -0.2364  0.3978
 4391SOL    HW224636   0.176   4.499   7.207  0.6860  1.2480 -0.3247
 4392SOL     OW24637   4.298   0.491  16.000 -0.0200  0.3893 -0.7410
 4392SOL    HW124638   4.239   0.512  15.928 -2.5365 -0.1569  1.1704
 4392SOL    HW224639   4.379   0.535  15.973 -0.2685  1.6419  0.5182
 4393SOL     OW24640   1.137   0.926   3.310 -0.0878  0.3269  0.1246
 4393SOL    HW124641   1.187   0.953   3.388 -0.9027 -0.7871  1.0410
 4393SOL    HW224642   1.192   0.951   3.236  1.7842 -0.3844  1.2813
 4394SOL     OW24643   1.900   0.885  14.559 -0.0399 -0.2527 -0.0466
 4394SOL    HW124644   1.807   0.892  14.538  0.5095 -0.2546 -2.4859
 4394SOL    HW224645   1.923   0.977  14.548  0.2190 -0.3608 -0.4456
 4395SOL     OW24646   3.641   3.414   5.274  0.6012  0.5844  0.1924
 4395SOL    HW124647   3.733   3.416   5.247  0.7032  1.8523  0.6447
 4395SOL    HW224648   3.628   3.501   5.311 -2.7394  0.1879 -0.0932
 4396SOL     OW24649   3.421   1.688   9.858 -0.2664 -0.1689  0.0625
 4396SOL    HW124650   3.428   1.596   9.831 -1.2713 -1.0113  2.6853
 4396SOL    HW224651   3.467   1.696   9.941  0.7240  1.1640 -0.6110
 4397SOL     OW24652   1.673   2.701  13.873 -0.7719  0.3176 -0.0345
 4397SOL    HW124653   1.751   2.653  13.901 -0.3151  1.0241 -0.1026
 4397SOL    HW224654   1.664   2.680  13.780 -0.5148 -0.5214  0.1335
 4398SOL     OW24655   2.394   2.901   4.004  0.0293 -0.2866 -0.4383
 4398SOL    HW124656   2.378   2.915   3.911 -1.5525  1.9263  0.1808
 4398SOL    HW224657   2.442   2.980   4.032  1.1557 -1.6225  1.4248
 4399SOL     OW24658   3.152   4.401   4.581 -0.9916 -0.4669  0.5672
 4399SOL    HW124659   3.187   4.339   4.517 -1.9546  1.9264 -2.2564
 4399SOL    HW224660   3.142   4.479   4.526 -1.2729  0.9284  2.5993
 4400SOL     OW24661   1.781   2.020  17.691 -0.2923 -0.1512  0.2266
 4400SOL    HW124662   1.797   1.989   0.075  0.3679  0.7657  0.4255
 4400SOL    HW224663   1.749   1.938  17.653  0.1399 -1.1947  2.0836
 4401SOL     OW24664   2.817   0.975   8.458  0.1979 -0.2550  0.2407
 4401SOL    HW124665   2.735   0.927   8.450 -0.4889  0.2986  3.9502
 4401SOL    HW224666   2.792   1.058   8.417  1.9714 -0.8018 -1.9258
 4402SOL     OW24667   3.539   2.727  14.950 -1.0099 -0.3729 -0.0101
 4402SOL    HW124668   3.627   2.763  14.958 -1.5876  0.7206  1.3906
 4402SOL    HW224669   3.495   2.775  15.020 -0.0541 -0.2980  0.5352
 4403SOL     OW24670   1.923   0.750   3.252  0.2461 -0.3232 -0.5282
 4403SOL    HW124671   1.836   0.737   3.215 -0.1970  2.7396 -0.5780
 4403SOL    HW224672   1.936   0.845   3.258  2.9974 -0.6792 -0.9693
 4404SOL     OW24673   4.101   0.852   7.839 -0.1182  0.1531 -0.2023
 4404SOL    HW124674   4.151   0.905   7.901 -0.3009  0.7198 -0.5433
 4404SOL    HW224675   4.014   0.852   7.878  0.0182 -1.4584  0.0989
 4405SOL     OW24676   2.999   0.739  15.653 -0.5693  0.4667 -0.1790
 4405SOL    HW124677   3.020   0.802  15.584  1.1096  1.7942  1.5150
 4405SOL    HW224678   2.956   0.670  15.603 -0.9052  1.2772 -1.0164
 4406SOL     OW24679   2.560   2.787   8.161 -0.0059  0.2302  0.0008
 4406SOL    HW124680   2.577   2.813   8.251 -0.0676  1.0477 -0.2211
 4406SOL    HW224681   2.629   2.841   8.121  0.5870 -0.1921  0.4661
 4407SOL     OW24682   2.660   2.406  15.354  0.0547 -0.7843 -0.5735
 4407SOL    HW124683   2.598   2.335  15.338 -2.0713  1.3456 -1.9339
 4407SOL    HW224684   2.631   2.470  15.288  1.1467 -0.8171 -1.0813
 4408SOL     OW24685   2.488   3.021   5.709  0.3117 -0.4041 -0.6295
 4408SOL    HW124686   2.549   3.021   5.783  0.2902  2.1428 -0.6263
 4408SOL    HW224687   2.454   2.931   5.706 -0.6926 -0.0638  0.5266
 4409SOL     OW24688   0.711   1.492   4.995 -0.4254  0.5673 -0.0572
 4409SOL    HW124689   0.622   1.459   5.004  0.1176 -1.3198 -1.4307
 4409SOL    HW224690   0.760   1.413   5.018  0.3456  1.1324  0.2551
 4410SOL     OW24691   3.137   3.703   4.079  0.1802  0.0400  0.1078
 4410SOL    HW124692   3.195   3.664   4.013  0.3329 -0.1936  0.3788
 4410SOL    HW224693   3.102   3.620   4.110  1.0096  0.1404  1.3391
 4411SOL     OW24694   2.053   0.674   6.199  0.0541  0.4128 -0.2949
 4411SOL    HW124695   2.124   0.681   6.134 -0.4780  1.0257 -0.8079
 4411SOL    HW224696   2.009   0.597   6.162  0.4090  0.5612 -1.0327
 4412SOL     OW24697   3.909   2.111   4.744 -0.4918 -0.1898 -0.1892
 4412SOL    HW124698   3.890   2.116   4.838 -0.3758  0.4884 -0.2049
 4412SOL    HW224699   3.956   2.027   4.750  2.0750  1.2353 -0.3967
 4413SOL     OW24700   1.844   1.001   9.317  0.1580  0.2187 -0.5965
 4413SOL    HW124701   1.756   0.996   9.354 -0.4697  1.8204 -1.9121
 4413SOL    HW224702   1.897   0.948   9.377  1.8194  2.1930 -0.3400
 4414SOL     OW24703   4.254   3.229   2.620  0.5137  0.1802 -0.1942
 4414SOL    HW124704   4.330   3.218   2.677  0.8391 -2.1774 -1.0874
 4414SOL    HW224705   4.296   3.219   2.535  1.1589 -1.4054  0.3139
 4415SOL     OW24706   2.559   0.230   2.540 -0.1891  0.4763  0.4698
 4415SOL    HW124707   2.477   0.279   2.549 -1.0229 -0.5126 -1.8313
 4415SOL    HW224708   2.537   0.140   2.516 -0.3879  0.8648 -0.7797
 4416SOL     OW24709   2.404   3.748   6.061 -0.1020  0.2150 -0.2057
 4416SOL    HW124710   2.471   3.758   6.128 -2.4925 -1.3092  2.4152
 4416SOL    HW224711   2.386   3.839   6.040 -0.0332  0.1561 -0.5175
 4417SOL     OW24712   0.510   1.389  15.863 -0.1750 -0.2038 -0.4307
 4417SOL    HW124713   0.537   1.329  15.794  1.4977 -0.6457  0.6041
 4417SOL    HW224714   0.595   1.386  15.907  0.6389  0.3269 -1.9698
 4418SOL     OW24715   4.532   0.403   6.861 -0.1812 -0.5417 -0.3786
 4418SOL    HW124716   4.550   0.374   6.772  3.4541 -0.0849  0.2270
 4418SOL    HW224717   4.566   0.331   6.915  0.1422 -0.9640 -1.1515
 4419SOL     OW24718   2.656   0.851   7.601  0.2017  0.7461  0.5747
 4419SOL    HW124719   2.669   0.785   7.668 -2.8334  2.2450  2.6156
 4419SOL    HW224720   2.738   0.899   7.606  0.9654 -0.4376 -0.5669
 4420SOL     OW24721   3.504   0.769   5.465  0.0968 -0.0829 -0.2256
 4420SOL    HW124722   3.527   0.833   5.398  0.0018  1.3697  1.1274
 4420SOL    HW224723   3.430   0.816   5.503 -1.8187 -2.4611 -0.9748
 4421SOL     OW24724   1.040   3.443  14.390  0.3961 -0.4411 -0.4187
 4421SOL    HW124725   0.959   3.485  14.363  0.1803 -1.0548 -0.7228
 4421SOL    HW224726   1.058   3.386  14.315  1.7822  2.4237 -2.2690
 4422SOL     OW24727   0.163   4.294   4.342  0.0903  0.0993  0.4234
 4422SOL    HW124728   0.240   4.324   4.391 -0.8242  1.1008  1.2553
 4422SOL    HW224729   0.141   4.364   4.280 -0.2947  0.4366  0.9409
 4423SOL     OW24730   0.484   0.411  14.791  0.1320  0.1492  0.8017
 4423SOL    HW124731   0.434   0.342  14.749  2.0801 -1.5997  1.3223
 4423SOL    HW224732   0.570   0.395  14.752 -1.3487  2.8032 -3.5828
 4424SOL     OW24733   1.334   2.490  15.958  0.5322 -0.4682  0.4559
 4424SOL    HW124734   1.365   2.404  15.985  1.4914 -0.6418 -1.2481
 4424SOL    HW224735   1.405   2.541  15.919 -0.2235  1.8191  2.0610
 4425SOL     OW24736   1.747   4.465   3.855  0.3207  0.5561  0.0738
 4425SOL    HW124737   1.656   4.440   3.873  0.6004  0.4062  1.2447
 4425SOL    HW224738   1.741   4.449   3.761 -2.7238  1.0879  0.1816
 4426SOL     OW24739   0.016   2.140   7.928 -0.7296 -0.0230 -0.2180
 4426SOL    HW124740   0.001   2.218   7.982 -1.8510 -0.2180 -0.2452
 4426SOL    HW224741   0.110   2.128   7.942 -1.2108 -3.0469  0.3707
 4427SOL     OW24742   2.074   4.564  10.524  0.2260 -0.5358 -0.5480
 4427SOL    HW124743   2.156   4.558  10.574 -0.2976  2.4718  0.6799
 4427SOL    HW224744   2.042   4.474  10.520 -0.5126 -0.2302 -1.4661
 4428SOL     OW24745   1.554   1.281   7.440 -0.8874 -0.0044  0.5056
 4428SOL    HW124746   1.505   1.200   7.425 -1.6608  0.4926  0.3053
 4428SOL    HW224747   1.627   1.271   7.379 -1.4654 -0.8033 -0.0582
 4429SOL     OW24748   2.363   0.400  11.215  0.0851 -0.6064 -0.3314
 4429SOL    HW124749   2.321   0.436  11.294 -0.6944 -1.0595 -0.5465
 4429SOL    HW224750   2.286   0.379  11.163  0.1354 -0.2228 -0.5594
 4430SOL     OW24751   1.618   0.005  16.574 -0.0192  0.3258  0.0066
 4430SOL    HW124752   1.626   4.674  16.497  0.2633 -1.1822  1.1625
 4430SOL    HW224753   1.529   0.041  16.569  0.7191  1.6184 -3.7629
 4431SOL     OW24754   2.498   3.402  10.342  0.7649 -0.2518  0.9064
 4431SOL    HW124755   2.557   3.418  10.268 -0.5037 -0.6423 -0.1768
 4431SOL    HW224756   2.549   3.443  10.412  1.1389 -0.2379  0.6297
 4432SOL     OW24757   0.828   3.278   7.821  0.5677  0.2343  0.5400
 4432SOL    HW124758   0.921   3.303   7.819  0.3412  0.9623 -0.8136
 4432SOL    HW224759   0.819   3.303   7.913  3.8693 -0.5217  1.0778
 4433SOL     OW24760   2.395   3.545   8.564 -0.0726 -0.3126  0.2322
 4433SOL    HW124761   2.486   3.515   8.567  0.1783  0.5862  1.9437
 4433SOL    HW224762   2.410   3.612   8.631 -1.5133  0.1966  0.0415
 4434SOL     OW24763   1.275   1.847  14.359  0.0048 -0.4926  0.1463
 4434SOL    HW124764   1.335   1.775  14.379 -1.0600 -0.8657  1.9991
 4434SOL    HW224765   1.311   1.905  14.426  0.5639 -1.4368  0.6666
 4435SOL     OW24766   3.621   4.482   8.290  0.2510  0.0114  0.3766
 4435SOL    HW124767   3.690   4.451   8.231 -1.5021 -2.2160 -0.5269
 4435SOL    HW224768   3.548   4.428   8.257 -0.2881  1.2611 -0.4634
 4436SOL     OW24769   3.642   1.879  11.898  0.0147  0.1898  0.4140
 4436SOL    HW124770   3.703   1.816  11.858  0.3266 -0.0975  1.3305
 4436SOL    HW224771   3.642   1.831  11.982 -0.0734  0.4971  0.5883
 4437SOL     OW24772   0.890   0.966   3.225 -0.0817 -0.0481 -0.4242
 4437SOL    HW124773   0.878   0.877   3.193 -0.7141  0.0424 -0.4325
 4437SOL    HW224774   0.964   0.956   3.286  0.7553  2.1603 -1.0867
 4438SOL     OW24775   1.973   0.210   3.040  0.2940  0.7539 -0.4634
 4438SOL    HW124776   1.964   0.176   2.951  2.2647 -0.1300 -0.3332
 4438SOL    HW224777   1.982   0.304   3.027 -0.4774  1.1700  2.0236
 4439SOL     OW24778   4.393   0.455  13.820  0.4657  0.1410 -0.0185
 4439SOL    HW124779   4.422   0.446  13.730 -0.2808  0.2427 -0.2697
 4439SOL    HW224780   4.372   0.548  13.822 -0.6800 -0.1201  0.2169
 4440SOL     OW24781   2.527   0.138   1.379 -0.1345  0.7293 -0.4190
 4440SOL    HW124782   2.458   0.197   1.349 -1.3886 -0.5629 -0.0793
 4440SOL    HW224783   2.491   0.050   1.366 -0.7179  0.8028  0.7412
 4441SOL     OW24784   4.404   2.990  17.539  0.0792 -0.1165  0.4368
 4441SOL    HW124785   4.329   2.943  17.503 -0.1706  0.8701 -0.3513
 4441SOL    HW224786   4.377   3.014  17.627 -2.4610  0.8880 -0.6256
 4442SOL     OW24787   1.056   3.176  17.355 -0.4141  0.4000 -0.8755
 4442SOL    HW124788   0.985   3.240  17.365  0.2436  1.2779 -1.8281
 4442SOL    HW224789   1.001   3.111  17.311 -1.3791  0.7884 -0.2415
 4443SOL     OW24790   3.102   3.996   0.250  0.1527  1.0261  0.0077
 4443SOL    HW124791   3.132   4.009   0.341 -1.9405  0.4622  0.7689
 4443SOL    HW224792   3.067   3.908   0.262  0.6081  0.9876  1.0713
 4444SOL     OW24793   2.107   2.540   8.464 -0.6442  0.2182 -0.2457
 4444SOL    HW124794   2.185   2.573   8.508 -1.6397  0.4260  1.3332
 4444SOL    HW224795   2.095   2.606   8.395 -0.1607 -1.0585 -1.5659
 4445SOL     OW24796   2.047   3.808   2.971  0.3507  0.1608  0.4611
 4445SOL    HW124797   1.993   3.742   2.926  0.8268  0.3969 -0.4623
 4445SOL    HW224798   1.980   3.849   3.026  1.0080  0.3783  1.0929
 4446SOL     OW24799   4.294   4.700  10.931 -0.2210  0.9530 -0.4871
 4446SOL    HW124800   4.258   0.005  11.014  0.0003 -1.9907  0.7042
 4446SOL    HW224801   4.388   4.688  10.946 -0.2822  1.3176  0.1795
 4447SOL     OW24802   2.707   3.704   3.673 -0.0472 -0.0738 -0.1590
 4447SOL    HW124803   2.722   3.763   3.746 -0.0828 -0.8194  0.4574
 4447SOL    HW224804   2.790   3.655   3.674  0.3314  0.5545 -2.6843
 4448SOL     OW24805   1.406   2.441  12.650  0.4020 -0.6446  0.2029
 4448SOL    HW124806   1.348   2.516  12.636 -1.0270 -1.6658  0.6309
 4448SOL    HW224807   1.455   2.434  12.568  1.0394  0.2484  0.5035
 4449SOL     OW24808   4.052   2.051  11.453 -0.0329  0.1282  0.4590
 4449SOL    HW124809   4.008   2.073  11.371  0.0419 -2.6719 -0.3249
 4449SOL    HW224810   4.144   2.071  11.438 -0.0588  1.4494  2.0972
 4450SOL     OW24811   3.891   4.513  13.855 -0.2546 -0.9026  0.0331
 4450SOL    HW124812   3.917   4.423  13.875  2.1368  0.0668  1.1692
 4450SOL    HW224813   3.838   4.499  13.776 -1.5952 -0.2980  0.8384
 4451SOL     OW24814   0.302   0.683   7.022  0.3348 -0.1357  1.1251
 4451SOL    HW124815   0.210   0.680   6.999  0.9707  2.9493 -1.7820
 4451SOL    HW224816   0.312   0.590   7.042  1.2208 -0.8680 -2.7991
 4452SOL     OW24817   1.044   0.506   7.346  0.5667  0.4013  0.0970
 4452SOL    HW124818   0.971   0.564   7.368  0.6312  0.7027 -0.4637
 4452SOL    HW224819   1.106   0.544   7.407  0.6139  1.0019 -0.3267
 4453SOL     OW24820   3.905   2.799   5.500 -0.2048  0.0456 -0.2024
 4453SOL    HW124821   3.886   2.893   5.495  0.7292  0.3114  1.2590
 4453SOL    HW224822   3.999   2.809   5.511 -0.3308  0.0145  0.8722
 4454SOL     OW24823   1.085   1.061  10.128  0.0736 -0.6406 -0.4440
 4454SOL    HW124824   1.056   1.102  10.047  0.6942 -0.3542 -0.5206
 4454SOL    HW224825   1.173   1.043  10.095  0.8830 -0.9214  1.8651
 4455SOL     OW24826   0.256   1.984   5.448  0.0391 -0.0852 -0.0803
 4455SOL    HW124827   0.315   1.949   5.381  0.6817 -1.1264  1.0333
 4455SOL    HW224828   0.315   1.978   5.523  0.4114 -0.5053 -0.4036
 4456SOL     OW24829   2.504   2.147   4.189 -0.9607  0.0798 -1.3154
 4456SOL    HW124830   2.467   2.137   4.101 -2.0534 -1.0924 -0.7277
 4456SOL    HW224831   2.509   2.056   4.221  0.9536 -0.1719 -2.3464
 4457SOL     OW24832   3.380   1.175   0.717 -0.7133  0.4680  0.1141
 4457SOL    HW124833   3.363   1.160   0.810  1.9499 -0.9904  0.3644
 4457SOL    HW224834   3.342   1.263   0.708 -2.9505 -0.7803 -2.5786
 4458SOL     OW24835   3.909   4.316   3.073 -0.4685 -0.7024  0.0055
 4458SOL    HW124836   3.965   4.375   3.123  0.3433  0.0473 -1.7742
 4458SOL    HW224837   3.944   4.241   3.120  0.6723  0.8880  1.6586
 4459SOL     OW24838   1.812   1.292   4.246 -0.0100 -0.1536  0.0360
 4459SOL    HW124839   1.721   1.262   4.257 -0.4168  0.4957 -1.5226
 4459SOL    HW224840   1.833   1.290   4.339  0.5451 -0.5214 -0.0949
 4460SOL     OW24841   3.232   3.998   2.414  0.1970  0.0617 -0.2602
 4460SOL    HW124842   3.210   3.920   2.464  1.7926 -1.2241 -1.5637
 4460SOL    HW224843   3.319   4.013   2.451  0.9622 -1.4197 -1.4613
 4461SOL     OW24844   0.868   0.803   2.529  0.2404 -0.2931  0.1410
 4461SOL    HW124845   0.922   0.753   2.467 -1.1444  0.7415 -1.8750
 4461SOL    HW224846   0.794   0.743   2.539  0.2848 -0.9539 -3.2408
 4462SOL     OW24847   1.377   1.340   1.412  0.1733  0.0366 -0.1641
 4462SOL    HW124848   1.389   1.407   1.479 -0.2471 -1.2485  1.1957
 4462SOL    HW224849   1.378   1.270   1.476  1.9056 -0.3161 -0.5775
 4463SOL     OW24850   0.386   3.379   5.994 -0.2170 -0.1287 -0.2677
 4463SOL    HW124851   0.436   3.349   5.918  1.5378 -0.7468  1.1273
 4463SOL    HW224852   0.427   3.311   6.048 -1.1133 -0.3296  0.1640
 4464SOL     OW24853   3.028   2.524   6.005  0.2443  0.1773 -0.5945
 4464SOL    HW124854   3.100   2.462   6.019 -1.4035 -1.7614 -0.8158
 4464SOL    HW224855   2.988   2.524   6.092 -0.4773 -3.2026 -0.9509
 4465SOL     OW24856   2.128   2.415   5.456 -0.1747  0.1601  0.1493
 4465SOL    HW124857   2.085   2.433   5.540 -0.4450  1.7223 -0.3268
 4465SOL    HW224858   2.180   2.496   5.457 -2.1485  1.4330  0.6116
 4466SOL     OW24859   4.276   0.225   5.351 -0.7504  0.4064 -0.1953
 4466SOL    HW124860   4.276   0.319   5.371  1.4093 -0.1509  2.3331
 4466SOL    HW224861   4.321   0.223   5.267 -0.3554  1.2012 -0.0075
 4467SOL     OW24862   0.900   1.956   8.731  0.3275 -0.2943 -0.4677
 4467SOL    HW124863   0.918   1.910   8.649  0.7673 -1.5567  0.3290
 4467SOL    HW224864   0.806   1.974   8.731  0.8782  2.6102  0.3676
 4468SOL     OW24865   1.201   2.919   7.811  0.5369  0.2379  0.3614
 4468SOL    HW124866   1.127   2.874   7.771 -0.3029 -1.3423  3.7494
 4468SOL    HW224867   1.207   2.885   7.900 -0.5844  0.0446  0.3623
 4469SOL     OW24868   2.971   2.048   7.072 -0.1307  0.4665  0.6551
 4469SOL    HW124869   3.014   1.981   7.018 -0.2397  0.6571  0.3339
 4469SOL    HW224870   2.988   2.011   7.159 -0.5313  0.0213  0.5415
 4470SOL     OW24871   3.313   1.152  11.135 -0.5549 -0.1021  0.7894
 4470SOL    HW124872   3.277   1.238  11.115  0.8297 -0.3617 -2.8960
 4470SOL    HW224873   3.402   1.177  11.112 -0.2261 -0.7794  1.3100
 4471SOL     OW24874   4.521   2.101   3.508 -0.1004 -0.5595  0.1940
 4471SOL    HW124875   4.549   2.145   3.428  1.8477 -1.0187  0.6385
 4471SOL    HW224876   4.601   2.084   3.558 -0.9610  0.2687  1.8362
 4472SOL     OW24877   4.141   1.576   0.454 -0.5801 -0.3850  0.0175
 4472SOL    HW124878   4.146   1.671   0.437  1.1409  0.2906  4.5009
 4472SOL    HW224879   4.107   1.542   0.371  1.4381  0.8184 -1.3180
 4473SOL     OW24880   3.437   2.412   3.321  0.1993 -0.4436  0.0936
 4473SOL    HW124881   3.374   2.430   3.391  0.4858 -0.2183  0.2963
 4473SOL    HW224882   3.436   2.492   3.269 -3.3073  0.9677  2.3014
 4474SOL     OW24883   2.681   3.023  12.161 -0.4379 -0.4887  0.1981
 4474SOL    HW124884   2.668   2.977  12.243  2.2681 -0.7535  0.4904
 4474SOL    HW224885   2.597   3.063  12.137 -1.3019 -1.3536  1.8311
 4475SOL     OW24886   3.794   4.083   5.359  0.2378  0.3048 -0.3940
 4475SOL    HW124887   3.738   4.156   5.386 -0.8426 -0.6611 -0.0327
 4475SOL    HW224888   3.795   4.092   5.263 -1.9285  0.9688 -0.3560
 4476SOL     OW24889   1.538   4.166  13.516 -0.1251  0.0558  0.1814
 4476SOL    HW124890   1.517   4.243  13.569  0.1940  0.1312  0.1976
 4476SOL    HW224891   1.452   4.127  13.497  0.7620 -0.7973 -2.1118
 4477SOL     OW24892   3.092   3.645   1.741 -0.0341 -0.3480  0.0093
 4477SOL    HW124893   3.041   3.605   1.671  0.0854 -0.2859 -0.1136
 4477SOL    HW224894   3.177   3.601   1.738  0.6017  0.8125  1.4027
 4478SOL     OW24895   2.373   3.036   5.189  0.2702  0.5705 -0.3017
 4478SOL    HW124896   2.383   3.109   5.251 -1.4226  0.5018  0.0445
 4478SOL    HW224897   2.433   3.071   5.123  1.9677 -0.4507  0.7013
 4479SOL     OW24898   0.338   3.449   7.659 -0.0495  0.2074 -0.2471
 4479SOL    HW124899   0.248   3.435   7.689  0.7668 -1.7116  1.3183
 4479SOL    HW224900   0.350   3.540   7.685 -0.1878  0.8131 -2.3107
 4480SOL     OW24901   2.795   2.728   9.084 -0.2825  0.2868 -0.1011
 4480SOL    HW124902   2.868   2.780   9.117  0.9101 -2.8513  2.1924
 4480SOL    HW224903   2.833   2.644   9.109  0.2785  0.1361 -1.4589
 4481SOL     OW24904   4.649   4.693   6.541 -0.1181 -0.3215  0.1939
 4481SOL    HW124905   4.725   4.636   6.536 -0.0736 -0.3182  0.9088
 4481SOL    HW224906   4.587   4.646   6.596 -1.1725  1.1134  0.2579
 4482SOL     OW24907   1.732   3.516  11.384  0.6225 -0.2902 -0.1860
 4482SOL    HW124908   1.667   3.518  11.454 -0.1004 -0.7618 -0.8360
 4482SOL    HW224909   1.675   3.529  11.308 -1.1429 -1.9678  0.8330
 4483SOL     OW24910   1.150   0.558   4.384 -0.2281  0.0868  0.0582
 4483SOL    HW124911   1.173   0.647   4.357 -0.2482  0.1726  0.3214
 4483SOL    HW224912   1.096   0.528   4.310  1.1982  0.7347 -1.2312
 4484SOL     OW24913   2.627   0.779   4.217  0.6919 -0.1126  0.3244
 4484SOL    HW124914   2.545   0.780   4.266  0.6672 -1.2131  0.3061
 4484SOL    HW224915   2.625   0.688   4.185 -2.6734 -0.0324  0.2405
 4485SOL     OW24916   1.013   1.734   8.946 -0.0595  0.7836 -0.2573
 4485SOL    HW124917   1.024   1.799   9.016  0.5919  1.5074 -1.0336
 4485SOL    HW224918   0.944   1.773   8.892 -0.1899  1.5017  0.4203
 4486SOL     OW24919   1.688   1.892   8.630 -0.1819  0.7558 -0.2382
 4486SOL    HW124920   1.661   1.956   8.564  2.6302 -0.2502 -2.3895
 4486SOL    HW224921   1.776   1.881   8.594  0.0948  2.3267 -0.0429
 4487SOL     OW24922   2.271   2.780  13.931 -0.7675  0.3143  0.4637
 4487SOL    HW124923   2.187   2.742  13.905 -0.6441 -0.0147  0.5430
 4487SOL    HW224924   2.246   2.872  13.936 -2.1377 -0.0747  0.7486
 4488SOL     OW24925   4.643   3.375  17.520  0.3307 -0.7487  0.0592
 4488SOL    HW124926   4.670   3.283  17.516 -2.3846 -1.5524  0.1978
 4488SOL    HW224927   4.660   3.402  17.429 -1.0869 -1.1792 -0.3240
 4489SOL     OW24928   0.972   2.700  11.461 -0.5386 -0.2200  0.1564
 4489SOL    HW124929   0.939   2.710  11.551  0.6824  1.9408  0.3785
 4489SOL    HW224930   1.060   2.731  11.480 -1.1041  2.0286 -0.9173
 4490SOL     OW24931   0.999   1.860   3.586  0.0730  0.2522 -0.4511
 4490SOL    HW124932   1.034   1.914   3.657 -0.3441 -0.5296  0.3404
 4490SOL    HW224933   0.917   1.837   3.628  0.2794  0.1340 -0.1106
 4491SOL     OW24934   0.556   2.175   6.480 -0.0384 -0.1417  0.6869
 4491SOL    HW124935   0.603   2.201   6.558  2.0617  0.5248 -0.8029
 4491SOL    HW224936   0.614   2.203   6.410 -0.7341 -1.1743 -0.3199
 4492SOL     OW24937   1.712   1.189  17.248 -0.2663  0.1059 -0.2771
 4492SOL    HW124938   1.706   1.201  17.342 -1.0955  1.8829 -0.5473
 4492SOL    HW224939   1.628   1.228  17.224  0.0464  0.3701 -0.9442
 4493SOL     OW24940   2.127   4.702   3.151  0.0335 -0.0589 -0.1443
 4493SOL    HW124941   2.082   0.061   3.149  1.1280  0.4718 -2.2769
 4493SOL    HW224942   2.150   4.710   3.244 -2.8350  0.2969  0.5275
 4494SOL     OW24943   1.309   2.904   3.005  0.3456 -0.8986 -0.2793
 4494SOL    HW124944   1.215   2.893   3.017  0.3311  0.0806  0.4718
 4494SOL    HW224945   1.339   2.930   3.092 -0.6481  2.0729 -0.8266
 4495SOL     OW24946   1.395   4.405  13.595  0.0984 -0.4285  0.4404
 4495SOL    HW124947   1.364   4.478  13.542  0.1921 -2.1628 -2.0277
 4495SOL    HW224948   1.323   4.385  13.655 -0.4819 -3.8812 -1.4265
 4496SOL     OW24949   3.331   0.494   7.426  0.0937 -0.9585 -0.4456
 4496SOL    HW124950   3.418   0.527   7.447  0.3538 -0.9945 -1.5025
 4496SOL    HW224951   3.295   0.540   7.350  1.5192  1.8259  0.5816
 4497SOL     OW24952   3.986   3.589   4.170 -0.0879 -0.1123  0.1037
 4497SOL    HW124953   4.003   3.542   4.252 -0.1287 -1.7432 -0.8303
 4497SOL    HW224954   3.891   3.600   4.171 -0.3341 -2.3662  2.6279
 4498SOL     OW24955   1.952   1.275   3.835 -0.2290 -0.0179 -0.1843
 4498SOL    HW124956   2.037   1.315   3.817 -1.1048  2.1759  0.5314
 4498SOL    HW224957   1.959   1.190   3.792 -1.0413  0.2384 -0.8212
 4499SOL     OW24958   1.699   0.753   5.080 -0.5167  0.2622  0.4311
 4499SOL    HW124959   1.644   0.693   5.031  0.4494 -0.9420  0.8036
 4499SOL    HW224960   1.718   0.810   5.006  1.4498 -0.2724  0.5227
 4500SOL     OW24961   3.743   2.492   1.206 -0.4582 -0.0548 -0.2022
 4500SOL    HW124962   3.712   2.471   1.118  0.4077 -0.7340 -0.3577
 4500SOL    HW224963   3.764   2.584   1.191 -2.0737  0.5339  1.1995
 4501SOL     OW24964   3.208   1.318   9.383  0.1370  0.4203  0.4058
 4501SOL    HW124965   3.147   1.302   9.455  2.4991 -2.7168  1.7030
 4501SOL    HW224966   3.295   1.319   9.425  0.3098 -1.9981  0.0872
 4502SOL     OW24967   4.483   3.285   7.151 -0.1730  0.0972  0.0793
 4502SOL    HW124968   4.393   3.255   7.165 -1.7657  3.8808 -2.2709
 4502SOL    HW224969   4.520   3.199   7.131  2.3493  1.7720 -2.4023
 4503SOL     OW24970   4.426   3.596   4.935 -0.0478 -0.2632  0.1174
 4503SOL    HW124971   4.519   3.607   4.916 -0.4575  2.0713 -0.4891
 4503SOL    HW224972   4.380   3.669   4.895  0.9208  0.5196  0.4314
 4504SOL     OW24973   2.316   1.590   4.939  0.3365  0.1749  0.4439
 4504SOL    HW124974   2.349   1.648   5.007  3.4831  1.5604 -2.2603
 4504SOL    HW224975   2.312   1.649   4.863  0.3665  1.0286  1.1053
 4505SOL     OW24976   0.683   1.773   8.907  0.1044 -0.3012 -0.4179
 4505SOL    HW124977   0.708   1.862   8.934 -0.5056 -0.1980 -0.1981
 4505SOL    HW224978   0.594   1.784   8.873 -0.3072  0.7909  0.9959
 4506SOL     OW24979   1.304   3.372   7.621 -0.3350  0.1178  0.7261
 4506SOL    HW124980   1.395   3.400   7.631 -0.3091  0.6696 -1.1016
 4506SOL    HW224981   1.308   3.287   7.576  1.6735  0.7874 -0.3410
 4507SOL     OW24982   1.716   2.125   7.607 -0.0073  0.5775  0.3448
 4507SOL    HW124983   1.789   2.095   7.553 -1.2988 -0.0407 -1.0328
 4507SOL    HW224984   1.659   2.049   7.603  2.1751 -0.9220 -2.1329
 4508SOL     OW24985   3.782   1.709   3.061 -0.1850  0.1092  0.3144
 4508SOL    HW124986   3.698   1.689   3.019 -0.0469  1.2732 -0.5038
 4508SOL    HW224987   3.774   1.800   3.086  1.0038  0.6218 -1.1640
 4509SOL     OW24988   3.984   2.814   2.432  0.2945  0.3243  0.4520
 4509SOL    HW124989   3.989   2.890   2.490 -1.1412  0.1243  0.8236
 4509SOL    HW224990   3.912   2.838   2.374  0.6413  1.0772  0.3320
 4510SOL     OW24991   0.233   1.053  10.875 -0.1685  0.0333 -0.8246
 4510SOL    HW124992   0.167   1.076  10.810 -2.2705 -1.5768  0.7475
 4510SOL    HW224993   0.177   0.997  10.929 -2.0134  1.6012 -1.1191
 4511SOL     OW24994   2.252   0.574  14.837 -0.4689 -0.2600 -0.2326
 4511SOL    HW124995   2.216   0.662  14.829 -1.2351 -0.5650 -0.1809
 4511SOL    HW224996   2.179   0.524  14.874  0.1989  0.1064  1.5952
 4512SOL     OW24997   4.003   0.830  12.382 -0.0524 -0.4047  0.3901
 4512SOL    HW124998   4.048   0.746  12.368  1.6477  0.6693 -0.5901
 4512SOL    HW224999   4.064   0.886  12.334 -1.0762  0.0105 -0.4200
 4513SOL     OW25000   0.459   4.628   4.149 -0.5530  0.2056 -0.3244
 4513SOL    HW125001   0.438   4.575   4.072  0.7632  2.4897 -2.2732
 4513SOL    HW225002   0.512   4.565   4.198 -0.8103  1.0199  0.9908
 4514SOL     OW25003   3.629   2.788   5.008  0.3318  0.5467  0.0414
 4514SOL    HW125004   3.718   2.785   4.975  0.3498 -0.4708  0.1711
 4514SOL    HW225005   3.634   2.817   5.099  1.0458 -1.7262  0.7283
 4515SOL     OW25006   4.198   2.936   1.152 -0.0216 -0.1842 -0.1779
 4515SOL    HW125007   4.231   2.944   1.062  2.4885  2.6339  1.0106
 4515SOL    HW225008   4.288   2.934   1.185  0.4028 -1.2769 -1.3841
 4516SOL     OW25009   2.578   2.536   6.716  0.3644  0.7617 -0.0774
 4516SOL    HW125010   2.617   2.521   6.630 -1.0836  1.6855 -0.8998
 4516SOL    HW225011   2.602   2.458   6.766  0.9417  2.0280  1.6079
 4517SOL     OW25012   1.578   3.847   6.587 -0.0461 -0.2950  0.4195
 4517SOL    HW125013   1.488   3.874   6.602 -0.2436  0.3700 -2.0384
 4517SOL    HW225014   1.579   3.754   6.610  1.9673 -0.3740  0.0486
 4518SOL     OW25015   4.547   4.286   2.955 -0.5956  0.2682  0.0929
 4518SOL    HW125016   4.567   4.355   2.892 -1.1801 -1.0457 -1.5314
 4518SOL    HW225017   4.632   4.242   2.957 -1.7347 -1.9831 -0.8796
 4519SOL     OW25018   1.237   4.432   4.291 -0.6375  0.2087  0.5132
 4519SOL    HW125019   1.159   4.421   4.238 -1.4616  0.2809  1.7222
 4519SOL    HW225020   1.222   4.356   4.348  1.5928  0.0235  0.8691
 4520SOL     OW25021   0.390   2.963   4.305 -0.4653 -0.2120 -0.3369
 4520SOL    HW125022   0.419   3.051   4.282 -1.6244 -0.7749 -4.0476
 4520SOL    HW225023   0.470   2.945   4.355 -0.9540  2.3237  1.3760
 4521SOL     OW25024   3.330   0.085  11.646  0.4584 -0.2132  0.6437
 4521SOL    HW125025   3.407   0.049  11.602  0.8297  0.0919  1.0544
 4521SOL    HW225026   3.260   0.065  11.584  0.9479  0.0679  0.0015
 4522SOL     OW25027   4.026   4.646   8.193  0.3686 -0.6753 -0.4209
 4522SOL    HW125028   4.000   4.606   8.276 -1.4909 -1.8039 -1.5438
 4522SOL    HW225029   4.087   4.714   8.220 -0.7773  0.5543 -0.9814
 4523SOL     OW25030   2.279   0.315   1.276  0.1535  0.4351  0.4812
 4523SOL    HW125031   2.286   0.359   1.360 -3.8175  2.1274 -0.0759
 4523SOL    HW225032   2.223   0.244   1.308 -1.4219  0.7200 -1.6347
 4524SOL     OW25033   0.002   0.141   2.165  0.7926 -0.4293 -0.0072
 4524SOL    HW125034   0.096   0.127   2.175  1.2268  1.6361 -1.3651
 4524SOL    HW225035   4.709   0.093   2.085  0.7063  0.1787 -0.3481
 4525SOL     OW25036   4.255   1.496  12.626  0.5222 -0.4980 -0.1280
 4525SOL    HW125037   4.205   1.428  12.582  0.4151 -0.0501 -0.7021
 4525SOL    HW225038   4.338   1.452  12.643 -1.5400 -3.3337  2.4937
 4526SOL     OW25039   4.035   2.812   7.203 -0.3112  0.2922 -0.9786
 4526SOL    HW125040   4.033   2.854   7.117 -1.5393 -0.1240 -1.1483
 4526SOL    HW225041   4.063   2.726   7.171  1.7066  0.6973 -0.2756
 4527SOL     OW25042   4.288   4.662   0.381 -0.6156 -0.5136  0.0517
 4527SOL    HW125043   4.340   4.643   0.459  0.4501 -1.0304 -0.7780
 4527SOL    HW225044   4.275   0.029   0.397 -2.4258 -0.5467 -1.3020
 4528SOL     OW25045   1.490   0.748  17.522 -0.7286 -0.0525  0.8292
 4528SOL    HW125046   1.544   0.785  17.592  1.4774 -1.2886 -0.2131
 4528SOL    HW225047   1.549   0.696  17.468  1.9060  1.2853  2.4177
 4529SOL     OW25048   2.411   4.548   8.041 -0.0080 -0.0826 -0.3724
 4529SOL    HW125049   2.344   4.606   8.076 -0.7838 -1.4202  0.3571
 4529SOL    HW225050   2.484   4.557   8.102  0.7651  0.7915 -1.4199
 4530SOL     OW25051   1.863   0.209   7.090  0.1527 -0.2398 -0.3559
 4530SOL    HW125052   1.927   0.246   7.030 -0.2867 -2.1596 -1.9823
 4530SOL    HW225053   1.893   0.252   7.170  1.0434 -1.7658  0.1398
 4531SOL     OW25054   2.393   3.084  12.217 -0.3686  0.0703 -0.4260
 4531SOL    HW125055   2.322   3.037  12.262 -0.3464 -0.8791 -1.3756
 4531SOL    HW225056   2.419   3.140  12.290 -2.6206 -1.0121  1.2201
 4532SOL     OW25057   0.112   1.543   2.392  0.1560 -0.0163 -0.3984
 4532SOL    HW125058   0.090   1.603   2.321  1.5545  0.7719 -0.1750
 4532SOL    HW225059   0.077   1.463   2.354  0.6915 -0.3312 -0.2217
 4533SOL     OW25060   3.644   3.837   5.525 -0.5310  0.0237  0.4531
 4533SOL    HW125061   3.655   3.763   5.465  1.3551  0.7293 -0.0790
 4533SOL    HW225062   3.647   3.793   5.610 -1.5147 -0.1118  0.4107
 4534SOL     OW25063   2.036   2.969   1.443  0.1417 -0.2361  0.7652
 4534SOL    HW125064   2.024   2.886   1.396 -0.6214 -0.3897  1.2344
 4534SOL    HW225065   2.123   2.992   1.412  0.4365 -1.0307  0.9992
 4535SOL     OW25066   0.403   0.658   8.367 -0.3790 -0.1567  0.0840
 4535SOL    HW125067   0.437   0.573   8.395 -1.2111  0.3023  2.4510
 4535SOL    HW225068   0.476   0.716   8.388 -0.0464 -0.1694 -1.0428
 4536SOL     OW25069   2.261   1.495   2.652  0.3759 -0.1477 -0.0328
 4536SOL    HW125070   2.320   1.462   2.584  2.6816  0.1881  1.8338
 4536SOL    HW225071   2.206   1.556   2.602  0.3270  0.6592  1.0121
 4537SOL     OW25072   4.394   4.607   0.691  0.3784  0.1593 -0.0828
 4537SOL    HW125073   4.461   4.595   0.623  0.9884  0.4190  0.4685
 4537SOL    HW225074   4.439   4.666   0.751  1.0182  0.2625 -0.6694
 4538SOL     OW25075   3.940   1.604   0.719  0.3109  0.1072  0.1823
 4538SOL    HW125076   3.878   1.674   0.738 -2.1766 -1.7390 -1.0824
 4538SOL    HW225077   3.908   1.577   0.633  1.3398  1.1707 -0.5318
 4539SOL     OW25078   1.411   0.616   3.901 -0.0206 -0.2102 -0.0501
 4539SOL    HW125079   1.369   0.531   3.903  1.2009 -0.7970  0.4549
 4539SOL    HW225080   1.351   0.679   3.943  1.5223  0.2339  1.4934
 4540SOL     OW25081   4.203   0.248   4.928  0.1346 -0.2854  0.5753
 4540SOL    HW125082   4.209   0.285   5.016 -0.0200 -1.6144  1.1574
 4540SOL    HW225083   4.250   0.313   4.877 -0.2372 -1.0805 -0.7643
 4541SOL     OW25084   4.644   3.574   7.596 -0.1090  0.6860  0.4410
 4541SOL    HW125085   4.702   3.540   7.527 -0.5673 -2.7963  1.7915
 4541SOL    HW225086   4.568   3.592   7.541 -1.0218  0.5860  1.7044
 4542SOL     OW25087   4.079   1.826   1.669 -0.1770 -0.2590 -0.3059
 4542SOL    HW125088   4.052   1.911   1.636 -0.4245  0.0630  0.7300
 4542SOL    HW225089   4.040   1.824   1.756  1.1235  2.3885  0.3507
 4543SOL     OW25090   4.302   4.230   2.827  0.5542  0.0085 -0.3461
 4543SOL    HW125091   4.393   4.240   2.856  0.6277  1.4835 -1.0677
 4543SOL    HW225092   4.314   4.143   2.789  2.3807  0.3240 -0.5231
 4544SOL     OW25093   1.671   1.911   7.063 -0.2765  0.1591  0.2645
 4544SOL    HW125094   1.628   1.958   7.134  1.5732  0.1598  1.3644
 4544SOL    HW225095   1.762   1.924   7.087 -1.0558  0.3643  3.1322
 4545SOL     OW25096   3.386   4.674   9.540  0.3483 -0.5239  0.1408
 4545SOL    HW125097   3.316   4.637   9.595 -1.4227 -1.4263 -2.7147
 4545SOL    HW225098   3.462   4.646   9.590  0.4774 -1.7504 -0.7582
 4546SOL     OW25099   1.068   2.334   4.600 -0.3136 -0.4405 -0.1415
 4546SOL    HW125100   1.143   2.390   4.619 -0.5185 -0.1627 -0.1459
 4546SOL    HW225101   1.096   2.262   4.657 -0.8932 -1.4223 -1.1035
 4547SOL     OW25102   0.769   4.715   2.467 -0.8400  0.6642  0.2072
 4547SOL    HW125103   0.706   4.688   2.400  0.4620 -1.6130 -0.0963
 4547SOL    HW225104   0.802   4.632   2.501 -0.5302 -0.0177 -1.7682
 4548SOL     OW25105   3.130   2.884   7.255 -0.4730  0.0667  0.9930
 4548SOL    HW125106   3.148   2.869   7.162  1.5028  1.3315  1.1663
 4548SOL    HW225107   3.035   2.868   7.251 -0.4806  0.1343  0.8681
 4549SOL     OW25108   1.555   2.545   0.080  0.0621  0.6100 -0.0815
 4549SOL    HW125109   1.574   2.534   0.173  1.2248 -1.8180 -0.5899
 4549SOL    HW225110   1.609   2.478   0.037 -0.9669 -0.2563 -0.0401
 4550SOL     OW25111   3.827   0.792   9.686  0.0559 -0.3574  0.0226
 4550SOL    HW125112   3.909   0.800   9.734 -1.0027  1.4965  1.5240
 4550SOL    HW225113   3.827   0.881   9.652 -1.6353 -0.7338 -0.9809
 4551SOL     OW25114   0.484   0.372   6.430 -0.0765  0.3050 -0.0050
 4551SOL    HW125115   0.406   0.362   6.485 -1.0067 -1.0240 -1.5648
 4551SOL    HW225116   0.538   0.428   6.485 -0.8938 -1.1126  2.2132
 4552SOL     OW25117   2.840   1.641   7.046 -0.2659 -0.3842 -0.0740
 4552SOL    HW125118   2.840   1.585   6.968  1.1001 -1.2476  0.5418
 4552SOL    HW225119   2.901   1.710   7.021  0.4986 -0.9506  0.2315
 4553SOL     OW25120   0.180   4.408   1.815 -0.3580  0.0370 -0.0234
 4553SOL    HW125121   0.261   4.357   1.823 -0.5686  0.1117  2.5965
 4553SOL    HW225122   0.164   4.448   1.900  0.3891  0.6965 -0.1893
 4554SOL     OW25123   0.130   2.065  12.596  0.0772 -0.4411 -0.4768
 4554SOL    HW125124   0.145   2.122  12.671 -2.1487 -0.3903 -0.0850
 4554SOL    HW225125   0.192   2.102  12.533  1.3680 -0.8159  0.5801
 4555SOL     OW25126   1.337   0.782   5.779  0.1087 -0.0109 -0.1924
 4555SOL    HW125127   1.287   0.778   5.697 -0.2711  1.0254 -0.0056
 4555SOL    HW225128   1.270   0.772   5.847  1.6175  0.5560  1.3730
 4556SOL     OW25129   3.610   2.098  17.057  0.6388 -0.1798 -0.3852
 4556SOL    HW125130   3.560   2.166  17.103  1.6627  0.9266 -0.9188
 4556SOL    HW225131   3.605   2.136  16.970 -3.1962 -0.4135 -0.2608
 4557SOL     OW25132   2.807   2.758   4.569 -0.3697  0.0007 -0.4435
 4557SOL    HW125133   2.728   2.782   4.616  0.4666  3.4646 -0.8374
 4557SOL    HW225134   2.828   2.828   4.507 -0.5555  0.0830 -0.4135
 4558SOL     OW25135   3.922   4.141   6.796  0.3295 -0.3623  0.3467
 4558SOL    HW125136   3.934   4.123   6.890  1.5821 -1.9625 -0.1270
 4558SOL    HW225137   4.002   4.112   6.753  2.3796  0.5205  3.5126
 4559SOL     OW25138   0.696   3.338  16.608  0.9477  0.4337  0.3805
 4559SOL    HW125139   0.752   3.410  16.579  2.0868  0.0433  1.6042
 4559SOL    HW225140   0.738   3.267  16.559  1.5367  0.8483  0.2879
 4560SOL     OW25141   2.193   1.159  12.761 -0.3573 -1.1354 -0.0146
 4560SOL    HW125142   2.279   1.192  12.736  0.2987 -1.4158  1.8633
 4560SOL    HW225143   2.152   1.138  12.677  0.7495 -0.2301 -0.7848
 4561SOL     OW25144   3.764   0.929  12.397  0.0443 -0.6523  0.7642
 4561SOL    HW125145   3.734   0.854  12.448  0.8378 -0.4328  1.5687
 4561SOL    HW225146   3.851   0.892  12.381 -0.5149 -0.5807 -2.4552
 4562SOL     OW25147   1.788   0.351   3.767 -0.1863  0.0938 -0.1318
 4562SOL    HW125148   1.862   0.293   3.785  0.1438 -0.5557 -3.4859
 4562SOL    HW225149   1.720   0.326   3.829 -0.2775 -0.3882 -0.4259
 4563SOL     OW25150   3.705   3.902  13.668 -0.2320 -0.1063  0.4209
 4563SOL    HW125151   3.771   3.842  13.634 -2.1639 -1.2821 -1.2471
 4563SOL    HW225152   3.766   3.975  13.673  0.3058 -0.5001 -0.5879
 4564SOL     OW25153   3.566   2.259   6.215  0.3167  0.0726  0.3597
 4564SOL    HW125154   3.479   2.218   6.216  1.3893 -2.2973 -2.2430
 4564SOL    HW225155   3.619   2.182   6.233 -0.7728 -0.8690 -0.4459
 4565SOL     OW25156   4.126   1.706   8.167  0.0591 -0.0323 -0.7881
 4565SOL    HW125157   4.086   1.633   8.214 -0.2328  0.5961 -0.0520
 4565SOL    HW225158   4.154   1.665   8.085  0.2163  1.0603 -1.2811
 4566SOL     OW25159   1.718   1.699   2.818 -0.1464  0.1515  0.3701
 4566SOL    HW125160   1.640   1.723   2.868 -0.1948  2.5956 -0.8250
 4566SOL    HW225161   1.783   1.688   2.886  0.3471 -2.6887 -0.5622
 4567SOL     OW25162   2.855   1.430   1.344  0.5461 -0.4407 -0.3283
 4567SOL    HW125163   2.859   1.520   1.375 -0.4032 -1.3140  2.3459
 4567SOL    HW225164   2.891   1.446   1.257 -0.1211 -0.5229 -0.6148
 4568SOL     OW25165   2.816   3.810   3.370 -0.1191  0.1343 -0.1704
 4568SOL    HW125166   2.808   3.895   3.415  2.0019 -1.1513  2.6723
 4568SOL    HW225167   2.794   3.748   3.439  0.6340  1.2244  1.0603
 4569SOL     OW25168   1.072   0.961   4.124  0.2081 -0.4267  0.6567
 4569SOL    HW125169   0.982   0.992   4.124  0.7664  1.2146  0.0789
 4569SOL    HW225170   1.119   1.025   4.070  1.2813 -0.5241  1.4674
 4570SOL     OW25171   0.161   2.527   6.276  0.3010 -0.0841 -0.4299
 4570SOL    HW125172   0.243   2.571   6.296 -1.0357  0.9170  2.8747
 4570SOL    HW225173   0.115   2.607   6.252  1.4166 -0.0037 -2.2813
 4571SOL     OW25174   0.678   2.516   2.425 -0.1469  0.5813 -0.2821
 4571SOL    HW125175   0.675   2.559   2.339 -1.8612  0.4860 -0.2727
 4571SOL    HW225176   0.753   2.564   2.459 -0.9104  0.8968  0.9293
 4572SOL     OW25177   1.750   4.089  17.563  0.3866  0.2665  0.3597
 4572SOL    HW125178   1.807   4.114  17.635  0.2873  1.0065  0.1824
 4572SOL    HW225179   1.684   4.156  17.582  0.5575  0.4936  0.1617
 4573SOL     OW25180   0.007   0.137   7.540  0.1218 -0.1720 -0.1065
 4573SOL    HW125181   4.658   0.164   7.592  1.1468  2.6153 -0.0762
 4573SOL    HW225182   0.056   0.091   7.609  2.9708 -0.1383 -2.1252
 4574SOL     OW25183   3.869   2.856   5.861  0.6621 -0.5300 -0.5568
 4574SOL    HW125184   3.960   2.828   5.861  0.5637 -0.8784  2.9564
 4574SOL    HW225185   3.821   2.773   5.867 -0.8091  0.4348  1.0927
 4575SOL     OW25186   3.581   1.628  13.195 -0.3726 -0.3868  0.2668
 4575SOL    HW125187   3.649   1.587  13.250 -0.9313 -0.5584  0.8241
 4575SOL    HW225188   3.574   1.553  13.135  0.0020  1.2414 -1.7924
 4576SOL     OW25189   1.283   0.997   9.567  0.1168 -0.1810 -0.2683
 4576SOL    HW125190   1.308   1.041   9.486  0.4840 -0.7329 -0.4559
 4576SOL    HW225191   1.190   1.016   9.575 -0.5040 -3.5694  0.7642
 4577SOL     OW25192   2.644   3.122   3.456  0.3956 -0.2093  0.1082
 4577SOL    HW125193   2.553   3.135   3.428  0.6062  1.8973  0.3417
 4577SOL    HW225194   2.673   3.042   3.412 -1.1883 -1.5107  1.4582
 4578SOL     OW25195   3.977   3.211   8.753 -0.1862 -0.3348  0.1381
 4578SOL    HW125196   4.072   3.196   8.758 -0.0262 -0.1187 -2.5202
 4578SOL    HW225197   3.968   3.304   8.770  0.6032 -0.7021  2.6571
 4579SOL     OW25198   0.750   1.488  17.322  0.0698 -0.0104 -0.2279
 4579SOL    HW125199   0.786   1.516  17.239 -0.3186  1.9060  0.2599
 4579SOL    HW225200   0.733   1.574  17.360  1.9924  0.9947 -1.6614
 4580SOL     OW25201   2.636   2.576  11.459  0.3283  0.9196  0.6434
 4580SOL    HW125202   2.569   2.549  11.522  0.5275 -2.2483 -0.4681
 4580SOL    HW225203   2.591   2.620  11.387  0.6430 -2.2701 -1.5009
 4581SOL     OW25204   1.112   4.037  11.548 -0.3382  0.6726 -0.0537
 4581SOL    HW125205   1.049   4.107  11.565 -0.1599  0.7223  0.4011
 4581SOL    HW225206   1.112   3.983  11.626 -0.7826  0.5349 -0.1499
 4582SOL     OW25207   4.382   4.569   1.726  0.1460 -0.3931  0.5125
 4582SOL    HW125208   4.423   4.482   1.723  0.3384 -0.3017  0.4940
 4582SOL    HW225209   4.391   4.607   1.638  0.1367  0.4471  0.8771
 4583SOL     OW25210   2.397   0.126   2.951 -0.1136  0.3027  0.2898
 4583SOL    HW125211   2.394   0.203   2.895  2.4532 -0.8277 -1.4197
 4583SOL    HW225212   2.338   0.068   2.902  0.4417  1.7617 -2.1115
 4584SOL     OW25213   1.271   0.383   8.398 -0.4666 -0.1605  0.1189
 4584SOL    HW125214   1.190   0.412   8.438 -1.1015 -0.2415 -1.1203
 4584SOL    HW225215   1.316   0.353   8.478 -0.8421  1.3636  0.9038
 4585SOL     OW25216   0.459   2.025  17.690 -0.9508 -0.9218 -0.2911
 4585SOL    HW125217   0.448   1.941   0.030 -0.5085  0.3069  2.1167
 4585SOL    HW225218   0.376   2.064   0.012  0.0205  0.2332  1.0224
 4586SOL     OW25219   3.891   0.532   7.852  0.7552  0.7170 -0.3391
 4586SOL    HW125220   3.961   0.518   7.916  0.4244  1.6598  0.2384
 4586SOL    HW225221   3.927   0.494   7.772  2.6249  1.8242 -0.0435
 4587SOL     OW25222   3.423   0.030   6.232  0.2378  0.5530  0.4019
 4587SOL    HW125223   3.476   0.109   6.221  1.8577 -0.9696 -2.5751
 4587SOL    HW225224   3.446   4.712   6.150 -0.7885 -2.3298  1.6634
 4588SOL     OW25225   1.879   3.671   9.700  0.1320 -0.2394  0.0774
 4588SOL    HW125226   1.922   3.631   9.775  0.4686 -1.5346 -0.8159
 4588SOL    HW225227   1.802   3.716   9.735  1.2697  2.5169 -0.9464
 4589SOL     OW25228   3.528   0.672   3.923  0.4508  0.3603 -0.7538
 4589SOL    HW125229   3.493   0.603   3.980 -0.0879  1.3742  0.1392
 4589SOL    HW225230   3.510   0.746   3.981  1.2848 -0.9196  1.1539
 4590SOL     OW25231   0.285   1.092   6.512  0.3742  0.1072 -0.5071
 4590SOL    HW125232   0.353   1.040   6.553  0.2287 -2.4969 -3.5881
 4590SOL    HW225233   0.241   1.023   6.463 -0.6241  0.8605 -0.6854
 4591SOL     OW25234   1.029   0.294   5.570 -0.3281  0.0405  0.3261
 4591SOL    HW125235   0.976   0.364   5.531  0.9520  2.3907  2.8027
 4591SOL    HW225236   1.052   0.316   5.660  1.0034 -0.0823  0.0119
 4592SOL     OW25237   3.323   4.323   3.082 -0.0217 -0.6848  0.7062
 4592SOL    HW125238   3.344   4.231   3.067  2.0756 -0.1620  0.3708
 4592SOL    HW225239   3.239   4.326   3.127 -1.1708  3.2382 -1.6819
 4593SOL     OW25240   3.551   3.347   1.923 -0.3716 -0.0280 -0.4694
 4593SOL    HW125241   3.620   3.371   1.862  1.6946 -3.9645  0.3706
 4593SOL    HW225242   3.593   3.325   2.006  0.4167 -1.6367 -1.3084
 4594SOL     OW25243   1.850   1.329  10.610 -0.1559 -0.4213  0.2040
 4594SOL    HW125244   1.761   1.340  10.575 -0.1953 -0.9551  0.1333
 4594SOL    HW225245   1.840   1.245  10.656 -1.5862 -0.2988  0.1281
 4595SOL     OW25246   0.389   2.546  10.592 -0.4367  0.0845 -0.0469
 4595SOL    HW125247   0.370   2.637  10.611  1.3689  0.7298 -1.3759
 4595SOL    HW225248   0.310   2.501  10.624 -0.4472 -0.3080 -0.6289
 4596SOL     OW25249   0.628   2.399   3.162  0.6950 -1.0661  0.6473
 4596SOL    HW125250   0.705   2.454   3.177  0.4750 -0.4428 -0.5615
 4596SOL    HW225251   0.570   2.424   3.234 -1.0745 -0.4352 -0.9867
 4597SOL     OW25252   2.952   0.863   5.660 -0.4391 -0.1157 -0.2779
 4597SOL    HW125253   2.967   0.955   5.640  0.4873 -0.3976 -0.8888
 4597SOL    HW225254   2.943   0.817   5.576 -0.2369 -0.9612  0.1682
 4598SOL     OW25255   1.284   3.590   8.154  0.3279 -0.0009 -0.0826
 4598SOL    HW125256   1.310   3.511   8.108  0.0996 -0.7541  1.0776
 4598SOL    HW225257   1.208   3.615   8.101 -0.8821 -0.6981  1.3036
 4599SOL     OW25258   1.909   4.548   7.617 -0.6815  0.0535  0.1735
 4599SOL    HW125259   1.913   4.643   7.607  0.9375 -0.2029 -1.7762
 4599SOL    HW225260   1.815   4.538   7.603 -0.3472 -1.7079 -0.8730
 4600SOL     OW25261   0.588   0.813  15.399  0.3203 -0.4185  0.2332
 4600SOL    HW125262   0.597   0.868  15.476  0.2667  1.5222 -1.1515
 4600SOL    HW225263   0.574   0.886  15.338 -0.1724  1.1298  2.2077
 4601SOL     OW25264   0.334   4.663   6.119  0.1135 -0.2613  0.0727
 4601SOL    HW125265   0.269   4.608   6.076 -0.4666  0.3116  0.2182
 4601SOL    HW225266   0.271   4.704   6.178  1.2985  0.6812  0.6947
 4602SOL     OW25267   0.317   3.371   7.373  0.4278 -0.1076  0.9232
 4602SOL    HW125268   0.346   3.383   7.463 -0.5243 -2.6117  1.5551
 4602SOL    HW225269   0.393   3.394   7.319 -0.1876 -1.0488 -0.3557
 4603SOL     OW25270   4.262   0.856  14.144  0.0214  0.2447  0.1748
 4603SOL    HW125271   4.283   0.802  14.068  0.8887  0.0186  0.5804
 4603SOL    HW225272   4.351   0.873  14.173 -0.2334  2.5947 -0.3845
 4604SOL     OW25273   0.320   2.688   6.583  1.3027 -0.0289  0.4953
 4604SOL    HW125274   0.262   2.683   6.659 -0.6636 -2.1889 -1.1526
 4604SOL    HW225275   0.336   2.782   6.593  1.7295  0.2064 -2.4285
 4605SOL     OW25276   2.233   2.317   8.849  0.3556  0.2791 -0.5823
 4605SOL    HW125277   2.160   2.329   8.909 -0.6495  0.1806 -1.7851
 4605SOL    HW225278   2.301   2.368   8.894 -0.7554 -1.5195  3.0570
 4606SOL     OW25279   2.348   1.769   7.814 -0.0816 -0.1969  0.4347
 4606SOL    HW125280   2.409   1.763   7.888 -0.0930  1.4002  0.5574
 4606SOL    HW225281   2.396   1.828   7.756 -0.8349 -0.0638 -0.0525
 4607SOL     OW25282   4.390   0.492   5.910  0.0696 -0.0359  0.5449
 4607SOL    HW125283   4.370   0.449   5.993  0.3099  0.3021  0.7794
 4607SOL    HW225284   4.454   0.434   5.870 -1.5176  0.1019 -2.1741
 4608SOL     OW25285   2.557   1.178  11.723  0.0743  0.0428 -0.5507
 4608SOL    HW125286   2.541   1.152  11.814 -0.7199  1.9458 -0.1350
 4608SOL    HW225287   2.597   1.096  11.695 -1.8976 -0.4744 -1.8876
 4609SOL     OW25288   4.360   1.390   3.925 -0.8108 -0.3349 -0.0516
 4609SOL    HW125289   4.344   1.419   3.835  1.7473  0.9056 -0.0971
 4609SOL    HW225290   4.272   1.370   3.956 -1.3437  0.0830 -1.3097
 4610SOL     OW25291   1.824   2.051  13.017 -0.1157  0.4719  0.0907
 4610SOL    HW125292   1.887   2.084  12.953  1.5089 -0.1622  1.3635
 4610SOL    HW225293   1.736   2.082  12.998  0.4019  0.7537 -1.7717
 4611SOL     OW25294   4.399   2.997   4.073 -0.1337  0.3949 -0.4162
 4611SOL    HW125295   4.480   3.012   4.121 -2.1995  3.2671  2.1977
 4611SOL    HW225296   4.432   2.928   4.015 -1.6965 -0.7994  0.0990
 4612SOL     OW25297   3.397   0.418  10.025 -0.1576 -0.0745 -0.1200
 4612SOL    HW125298   3.420   0.497  10.074 -1.5223  1.8993 -2.7004
 4612SOL    HW225299   3.475   0.364  10.039  0.9639  2.0807  1.9854
 4613SOL     OW25300   4.025   4.442   6.657  0.0480 -0.1693  0.2788
 4613SOL    HW125301   4.104   4.390   6.644  1.6733  2.4452 -0.2762
 4613SOL    HW225302   4.039   4.477   6.745 -0.1724  1.7529 -0.4514
 4614SOL     OW25303   0.125   1.268  10.527 -0.0251  0.2266  0.0073
 4614SOL    HW125304   0.198   1.233  10.579 -1.1061 -1.1284  0.5937
 4614SOL    HW225305   0.126   1.357  10.560  1.3078  0.4130 -0.5219
 4615SOL     OW25306   0.445   4.290   1.570 -0.1553  0.1491  0.5993
 4615SOL    HW125307   0.414   4.380   1.564 -0.4845  0.1464  2.2784
 4615SOL    HW225308   0.443   4.273   1.664  1.1323 -1.0891  0.4015
 4616SOL     OW25309   1.447   3.810  11.211  0.3582 -0.2955  0.0486
 4616SOL    HW125310   1.401   3.859  11.280 -0.1995 -0.3315 -0.2928
 4616SOL    HW225311   1.539   3.833  11.220  0.2132 -0.0966  1.0187
 4617SOL     OW25312   1.532   4.094  11.274 -0.4954 -0.0367 -0.5224
 4617SOL    HW125313   1.486   4.131  11.199 -0.1943 -1.9490 -1.6403
 4617SOL    HW225314   1.618   4.082  11.234 -0.5905  2.0357 -1.3460
 4618SOL     OW25315   1.113   1.184   3.630 -0.6581  0.2764 -0.2153
 4618SOL    HW125316   1.087   1.106   3.679  2.5766 -1.0708 -0.6325
 4618SOL    HW225317   1.054   1.183   3.554  2.6350  0.8248 -2.7963
 4619SOL     OW25318   2.542   4.625  12.567  0.0076  0.1619  0.0843
 4619SOL    HW125319   2.486   4.574  12.626 -0.5084 -0.3312 -0.8130
 4619SOL    HW225320   2.554   4.705  12.618 -0.5566  1.9250 -2.5052
 4620SOL     OW25321   0.839   1.519   5.989 -0.1672 -0.1522 -0.2243
 4620SOL    HW125322   0.835   1.450   6.055  1.3413  0.4322  0.4840
 4620SOL    HW225323   0.800   1.472   5.915 -2.3807  0.3317  0.6398
 4621SOL     OW25324   1.767   1.724   3.093  0.0642 -0.3462  0.2424
 4621SOL    HW125325   1.724   1.808   3.107  1.1752  0.0065  1.6302
 4621SOL    HW225326   1.692   1.664   3.094 -0.6318  0.5450  0.9282
 4622SOL     OW25327   4.145   2.468   0.602  0.2274  0.0400 -0.8024
 4622SOL    HW125328   4.069   2.459   0.543  1.3008  0.4979 -2.2600
 4622SOL    HW225329   4.099   2.484   0.684  1.5888 -2.5731  0.4738
 4623SOL     OW25330   3.769   3.808   7.767 -0.2394  0.3007  0.1775
 4623SOL    HW125331   3.781   3.727   7.717 -0.2984  0.2571  0.2340
 4623SOL    HW225332   3.845   3.859   7.739 -0.1928  0.9268  1.4619
 4624SOL     OW25333   2.292   1.142   8.631  0.3576  0.1882 -0.2102
 4624SOL    HW125334   2.281   1.236   8.617 -1.2754 -0.3691 -2.8188
 4624SOL    HW225335   2.255   1.125   8.718  0.4609 -1.1731 -0.4289
 4625SOL     OW25336   1.527   3.897   4.138 -0.0831 -0.3717  0.1131
 4625SOL    HW125337   1.493   3.923   4.223 -1.9503 -0.3972 -0.6307
 4625SOL    HW225338   1.557   3.981   4.103  0.1199  0.2948  1.8674
 4626SOL     OW25339   3.293   4.198  15.913 -0.4587 -0.3274  0.2762
 4626SOL    HW125340   3.231   4.230  15.848 -0.8948 -0.9054  0.4050
 4626SOL    HW225341   3.277   4.260  15.984 -0.7121 -0.9028  0.7154
 4627SOL     OW25342   0.010   1.932   0.913 -0.0583  0.2254  0.0148
 4627SOL    HW125343   0.041   1.841   0.916 -2.5217 -0.5566  1.1207
 4627SOL    HW225344   4.671   1.930   0.983  0.7501  0.6369  0.7851
 4628SOL     OW25345   1.999   2.125   2.483  0.0540 -0.0176 -0.4024
 4628SOL    HW125346   1.937   2.056   2.462 -0.4825  0.7164 -1.2512
 4628SOL    HW225347   1.939   2.193   2.513 -0.3217 -1.4462  2.0416
 4629SOL     OW25348   3.149   4.616   4.410 -0.7043  0.0066 -0.1205
 4629SOL    HW125349   3.235   4.577   4.394 -0.5170 -0.1007  1.1900
 4629SOL    HW225350   3.141   4.685   4.344  0.5839  0.6643  0.4372
 4630SOL     OW25351   3.867   4.141   0.477 -0.4411  0.6637 -0.2041
 4630SOL    HW125352   3.858   4.233   0.502 -0.3005 -0.3106  3.4025
 4630SOL    HW225353   3.962   4.132   0.469 -0.4836 -1.1830  1.1228
 4631SOL     OW25354   0.776   0.687   6.976  0.3443 -0.1777  0.0535
 4631SOL    HW125355   0.808   0.598   6.988  0.3810 -0.2166 -0.3392
 4631SOL    HW225356   0.710   0.692   7.045 -0.6600 -0.2867 -0.8949
 4632SOL     OW25357   1.100   3.442  17.036  0.3349 -0.5496 -0.5290
 4632SOL    HW125358   1.106   3.467  16.944  3.1311 -1.5445 -0.6230
 4632SOL    HW225359   1.006   3.440  17.051  0.4245 -0.9001 -0.0210
 4633SOL     OW25360   0.972   0.260   7.343 -0.5212  0.5629  0.9256
 4633SOL    HW125361   0.996   0.352   7.348 -1.5943  0.9045 -0.2294
 4633SOL    HW225362   0.899   0.251   7.403 -1.1636 -0.3038  0.0083
 4634SOL     OW25363   0.678   4.685   1.092 -0.1321 -0.4145 -0.2550
 4634SOL    HW125364   0.752   4.624   1.095  2.1435  2.2184 -2.4153
 4634SOL    HW225365   0.654   4.702   1.001 -1.9142 -0.4147  0.2027
 4635SOL     OW25366   0.394   0.398   5.221 -0.5334  0.2246  0.7071
 4635SOL    HW125367   0.410   0.379   5.314  0.5264 -0.1494  0.4479
 4635SOL    HW225368   0.479   0.377   5.182 -0.6901  0.0336  0.4710
 4636SOL     OW25369   0.195   1.254   6.710 -0.0720 -0.1692 -0.4729
 4636SOL    HW125370   0.241   1.201   6.644 -1.7897 -0.8142 -1.1622
 4636SOL    HW225371   0.108   1.266   6.671 -1.2012 -0.1600  2.0204
 4637SOL     OW25372   1.048   2.092  15.390  0.6810  0.3021 -0.3102
 4637SOL    HW125373   0.962   2.061  15.419  0.6942  0.4976 -0.0647
 4637SOL    HW225374   1.060   2.176  15.436  1.3284 -0.3259  0.6661
 4638SOL     OW25375   2.880   3.319   3.409  0.1736 -0.3448  0.2427
 4638SOL    HW125376   2.793   3.285   3.432  0.4143 -0.5145  0.8865
 4638SOL    HW225377   2.927   3.251   3.457  2.0632  0.1727 -0.8812
 4639SOL     OW25378   0.390   2.913   6.346  0.0684  0.2193 -0.1723
 4639SOL    HW125379   0.475   2.897   6.306  1.0166  1.1179  1.4718
 4639SOL    HW225380   0.333   2.889   6.272  0.7908  0.1824 -0.7129
 4640SOL     OW25381   2.526   1.804   9.455 -0.0621 -0.6158 -0.0185
 4640SOL    HW125382   2.596   1.863   9.483 -0.2520 -1.4514  2.2873
 4640SOL    HW225383   2.579   1.725   9.444  0.1331 -0.3119 -1.2279
 4641SOL     OW25384   1.815   2.973  13.576  0.0165 -0.6394  0.0399
 4641SOL    HW125385   1.867   3.048  13.548  0.3283 -1.4961 -1.6638
 4641SOL    HW225386   1.782   2.943  13.491  0.0286 -1.1965  0.2277
 4642SOL     OW25387   1.482   1.021   5.822  0.4868 -0.3679 -0.1179
 4642SOL    HW125388   1.442   0.935   5.832 -0.7542  0.3385  0.9794
 4642SOL    HW225389   1.438   1.055   5.744 -0.2367 -0.3669  0.2980
 4643SOL     OW25390   1.957   1.794   2.631 -0.0930 -0.0040  0.4098
 4643SOL    HW125391   1.993   1.851   2.698  0.5117  0.0318  0.0564
 4643SOL    HW225392   2.037   1.746   2.609  1.1387  1.6735  1.2494
 4644SOL     OW25393   0.240   0.342   2.338  0.1317 -0.1414 -0.5556
 4644SOL    HW125394   0.323   0.328   2.383  0.9032 -1.9178 -2.5095
 4644SOL    HW225395   0.219   0.424   2.383  0.3406  0.0331 -0.7759
 4645SOL     OW25396   1.029   2.994   8.721 -0.0858 -0.3827 -0.2220
 4645SOL    HW125397   1.115   3.020   8.752 -0.0554 -2.2942  1.2824
 4645SOL    HW225398   1.032   3.024   8.630  0.8566  1.1573  0.3175
 4646SOL     OW25399   0.164   2.367   7.778 -0.0945  0.4646 -0.1670
 4646SOL    HW125400   0.080   2.411   7.775  0.1163  0.9160  0.5001
 4646SOL    HW225401   0.178   2.351   7.685  1.4561  0.4903  0.0462
 4647SOL     OW25402   1.960   1.552  15.016  0.3869 -0.0900  0.4177
 4647SOL    HW125403   1.901   1.571  15.089  0.1126 -0.8304  0.3859
 4647SOL    HW225404   1.909   1.485  14.972  0.8985 -1.5419  2.0285
 4648SOL     OW25405   1.211   2.710   8.506  0.4058 -0.4453 -0.0147
 4648SOL    HW125406   1.146   2.767   8.465  0.3622 -0.7041 -0.3082
 4648SOL    HW225407   1.250   2.765   8.574 -0.6653  0.4391 -0.1293
 4649SOL     OW25408   3.493   4.323   6.731 -0.4550 -0.3802 -0.2008
 4649SOL    HW125409   3.582   4.336   6.764 -0.6465 -0.6349  0.4176
 4649SOL    HW225410   3.445   4.394   6.772 -0.5310  0.3873 -1.6084
 4650SOL     OW25411   1.030   0.580   1.624  0.0311  0.0309 -0.6684
 4650SOL    HW125412   1.091   0.584   1.698  1.2623 -1.5398 -1.5906
 4650SOL    HW225413   1.055   0.657   1.573  2.4892 -1.2386 -1.4211
 4651SOL     OW25414   0.344   1.826   3.458 -0.3954  0.0815  0.1568
 4651SOL    HW125415   0.291   1.765   3.509  1.2633 -0.6219  1.0471
 4651SOL    HW225416   0.324   1.806   3.366  1.5548 -0.9787 -0.0367
 4652SOL     OW25417   3.130   2.784   7.524 -0.4967  0.4802 -0.1272
 4652SOL    HW125418   3.223   2.761   7.525 -0.9946 -1.6612 -2.2357
 4652SOL    HW225419   3.122   2.832   7.441  0.5332  0.7484 -0.0759
 4653SOL     OW25420   1.281   0.799   8.132 -0.1203 -0.1627  0.2506
 4653SOL    HW125421   1.336   0.733   8.090 -0.1757  0.0827 -0.2090
 4653SOL    HW225422   1.294   0.773   8.223  2.6134  1.0024  0.1735
 4654SOL     OW25423   3.672   3.871   6.159 -1.1047  0.0325 -0.2986
 4654SOL    HW125424   3.637   3.797   6.210 -2.2595  1.7536  1.4152
 4654SOL    HW225425   3.694   3.927   6.234 -0.8332  1.0557 -1.1538
 4655SOL     OW25426   1.803   0.960  12.053  0.1345  0.0014  0.2056
 4655SOL    HW125427   1.851   0.904  11.992  0.4910  0.0954  0.4018
 4655SOL    HW225428   1.716   0.928  12.029  0.4159 -0.0248 -0.7662
 4656SOL     OW25429   3.202   1.452   5.752  0.5991  0.7147 -0.1923
 4656SOL    HW125430   3.198   1.395   5.675  1.9763  2.1358 -1.3223
 4656SOL    HW225431   3.295   1.440   5.772  0.0882 -2.5492  0.3636
 4657SOL     OW25432   4.526   0.601  15.882 -0.0440  0.5899 -0.0577
 4657SOL    HW125433   4.549   0.626  15.793  3.0010 -3.8092 -0.5230
 4657SOL    HW225434   4.612   0.609  15.923  0.7202  1.6484 -1.9259
 4658SOL     OW25435   3.521   2.635  11.288 -0.5450 -0.3129 -0.6077
 4658SOL    HW125436   3.562   2.721  11.296  1.2074 -1.0836 -1.5177
 4658SOL    HW225437   3.584   2.591  11.345  0.8451 -0.7164 -2.4807
 4659SOL     OW25438   1.907   0.166   2.251  0.2174  0.0776  0.8546
 4659SOL    HW125439   1.882   0.141   2.163 -0.8433  1.6230  0.7090
 4659SOL    HW225440   1.986   0.219   2.239  0.5556 -0.7152 -0.3169
 4660SOL     OW25441   1.008   4.086   9.224  0.5555 -0.0128 -0.3775
 4660SOL    HW125442   1.076   4.152   9.223  1.5033 -1.0014 -1.3726
 4660SOL    HW225443   0.966   4.097   9.138 -0.8048  2.1122  0.5652
 4661SOL     OW25444   0.069   3.689  12.599 -0.5715  0.4008 -0.3664
 4661SOL    HW125445   4.710   3.734  12.605 -0.1693  1.1802 -0.5860
 4661SOL    HW225446   0.107   3.735  12.673  0.6164  2.2468 -2.1257
 4662SOL     OW25447   1.491   0.550   3.132 -0.1712 -0.2818 -0.1483
 4662SOL    HW125448   1.495   0.480   3.197  0.7640  0.1638  0.2719
 4662SOL    HW225449   1.573   0.595   3.152 -0.1271 -0.5870  0.3541
 4663SOL     OW25450   0.132   0.959   8.070 -0.2702 -0.7252  0.1054
 4663SOL    HW125451   0.194   0.887   8.072 -0.8595 -1.3053 -2.1138
 4663SOL    HW225452   0.138   0.980   8.163 -0.3828  0.0255 -0.0506
 4664SOL     OW25453   2.986   0.977  13.916 -0.1406  0.1410 -0.5131
 4664SOL    HW125454   2.919   0.994  13.982  0.8088 -0.6948  0.6563
 4664SOL    HW225455   2.945   0.975  13.830  0.0825 -1.7969 -0.5712
 4665SOL     OW25456   0.300   4.405  11.889 -0.1300 -0.4879 -0.4912
 4665SOL    HW125457   0.341   4.322  11.913 -0.7435 -0.9459 -1.0092
 4665SOL    HW225458   0.209   4.382  11.906 -0.1716 -0.8187 -1.1545
 4666SOL     OW25459   0.190   2.623   3.716 -0.4198 -0.1715 -0.3912
 4666SOL    HW125460   0.262   2.566   3.692 -0.2183  0.1147 -0.4650
 4666SOL    HW225461   0.224   2.712   3.723 -0.3863 -0.1857 -0.3780
 4667SOL     OW25462   2.956   1.355   4.208 -0.0813  0.1024  0.0950
 4667SOL    HW125463   2.897   1.387   4.276  1.2717 -3.5142  2.9922
 4667SOL    HW225464   2.989   1.289   4.269  0.3577  1.5959  1.4709
 4668SOL     OW25465   1.690   4.119   1.188  0.0121 -0.0432  0.1224
 4668SOL    HW125466   1.670   4.204   1.150  1.4811 -0.2893 -1.2184
 4668SOL    HW225467   1.717   4.142   1.277 -1.0329  0.4252  0.3113
 4669SOL     OW25468   3.812   3.267  11.644 -0.2186 -0.7452 -0.2160
 4669SOL    HW125469   3.844   3.308  11.564  0.2743 -0.0243  0.3464
 4669SOL    HW225470   3.784   3.345  11.692 -0.7592 -1.0088 -0.0998
 4670SOL     OW25471   2.681   3.354   2.777 -0.2261  0.4133 -0.4743
 4670SOL    HW125472   2.652   3.370   2.687 -1.3153 -0.0977 -0.2173
 4670SOL    HW225473   2.774   3.374   2.762  0.0263 -0.5630 -0.1609
 4671SOL     OW25474   0.899   1.831   7.025  0.0207  0.1241  0.0397
 4671SOL    HW125475   0.855   1.747   7.036 -0.1873  0.2021 -0.1904
 4671SOL    HW225476   0.956   1.810   7.100 -0.1897  0.4910  0.3039
 4672SOL     OW25477   0.046   0.596  11.168 -0.0976 -0.3321  0.0461
 4672SOL    HW125478   4.720   0.663  11.212  2.5971  0.9684  1.2630
 4672SOL    HW225479   0.015   0.519  11.216  1.1649  0.7225  2.5097
 4673SOL     OW25480   3.531   3.816   4.843 -0.2386 -0.3640  0.1319
 4673SOL    HW125481   3.497   3.767   4.918  1.0218  0.2317  1.0928
 4673SOL    HW225482   3.491   3.774   4.768 -1.1250  1.3641 -0.3679
 4674SOL     OW25483   2.373   4.363  13.002 -0.3143 -0.0966 -0.0489
 4674SOL    HW125484   2.410   4.359  12.914 -0.9246 -0.2426 -0.3000
 4674SOL    HW225485   2.427   4.300  13.050  2.0719  2.2651  0.3385
 4675SOL     OW25486   4.193   1.718   9.344  0.0357  0.4865 -0.0249
 4675SOL    HW125487   4.118   1.690   9.292  1.2858 -0.4224 -1.3398
 4675SOL    HW225488   4.179   1.811   9.326  0.3333  0.6237  0.4434
 4676SOL     OW25489   1.820   2.618   1.822  0.4304  0.1778 -0.4541
 4676SOL    HW125490   1.753   2.550   1.817  2.6163 -2.1433  1.9667
 4676SOL    HW225491   1.890   2.571   1.866  0.8815 -1.4724 -2.9078
 4677SOL     OW25492   4.629   2.741   3.184  0.1998 -1.1466  0.4427
 4677SOL    HW125493   4.577   2.793   3.246  2.2619  1.1591  0.2503
 4677SOL    HW225494   4.594   2.780   3.104  0.4099 -0.6493  0.5897
 4678SOL     OW25495   0.955   3.559   6.260 -0.2106  0.1156  0.7701
 4678SOL    HW125496   0.902   3.507   6.321 -1.2094  1.1248  0.7651
 4678SOL    HW225497   0.893   3.567   6.188 -0.0365 -0.5345  0.5537
 4679SOL     OW25498   0.528   1.183   3.162  0.2917  0.0745 -0.3306
 4679SOL    HW125499   0.586   1.226   3.100 -0.9707  0.7226 -1.0515
 4679SOL    HW225500   0.580   1.159   3.239 -1.2568 -1.5595  0.2065
 4680SOL     OW25501   0.056   2.285   3.420 -0.0725 -0.2073 -0.4067
 4680SOL    HW125502   0.032   2.374   3.445 -2.6668 -1.2137  0.6980
 4680SOL    HW225503   0.022   2.282   3.330 -1.6748 -2.9928  0.2897
 4681SOL     OW25504   0.871   3.279  16.140 -0.0550  0.3798 -0.3187
 4681SOL    HW125505   0.901   3.325  16.061  1.2188 -0.0991 -0.1100
 4681SOL    HW225506   0.903   3.191  16.119 -0.7598  0.3129 -1.1163
 4682SOL     OW25507   1.458   1.314  11.855 -0.2887  0.4988 -0.6493
 4682SOL    HW125508   1.523   1.384  11.861 -1.1427  1.3126 -1.0466
 4682SOL    HW225509   1.380   1.362  11.882 -1.0494 -0.9674 -0.2625
 4683SOL     OW25510   4.320   1.741   8.725 -0.2058 -0.4261  0.0993
 4683SOL    HW125511   4.346   1.758   8.634  0.9930 -1.3231  0.2626
 4683SOL    HW225512   4.328   1.828   8.764  0.3230 -0.0819 -0.7821
 4684SOL     OW25513   0.643   2.926  15.123  0.1565 -0.7107 -0.0254
 4684SOL    HW125514   0.659   2.838  15.089 -1.0307 -1.1140  0.4521
 4684SOL    HW225515   0.600   2.978  15.057 -0.8936 -0.8079  0.5872
 4685SOL     OW25516   3.946   4.149   3.912 -0.1613 -0.2589  0.0008
 4685SOL    HW125517   4.007   4.214   3.879 -0.4261 -0.6415 -1.2315
 4685SOL    HW225518   3.994   4.068   3.928  3.2808  2.0796  1.7061
 4686SOL     OW25519   0.783   1.646  13.611 -0.1814  0.4162 -0.4720
 4686SOL    HW125520   0.718   1.596  13.660 -0.1200  0.6813 -0.1146
 4686SOL    HW225521   0.761   1.600  13.530 -0.9011  0.6357 -0.4001
 4687SOL     OW25522   1.126   1.317   9.132  0.1098  0.6087 -0.2386
 4687SOL    HW125523   1.083   1.368   9.063  1.3565 -1.8584 -2.8411
 4687SOL    HW225524   1.216   1.337   9.104  0.7744  0.2918  1.6791
 4688SOL     OW25525   0.639   0.970  15.624 -0.1678  0.0136 -0.3443
 4688SOL    HW125526   0.652   0.968  15.719  0.7634  2.0601 -0.4249
 4688SOL    HW225527   0.544   0.975  15.636 -0.0803 -0.4534  0.5520
 4689SOL     OW25528   0.019   0.318   2.830  0.0803  0.1716 -0.3361
 4689SOL    HW125529   0.110   0.343   2.814 -0.2565 -0.1975 -2.9217
 4689SOL    HW225530   0.035   0.240   2.776 -0.3651 -0.4388  0.4208
 4690SOL     OW25531   2.987   1.936   5.249  0.0348 -0.2660  0.0021
 4690SOL    HW125532   2.929   1.910   5.320  0.6727 -0.1789  0.5477
 4690SOL    HW225533   3.023   1.851   5.222  0.7762 -0.1030  0.4992
 4691SOL     OW25534   2.176   2.092   8.269 -0.4178  0.1667  0.3020
 4691SOL    HW125535   2.120   2.154   8.317  0.2102  0.9307  0.0641
 4691SOL    HW225536   2.262   2.131   8.284 -1.1859  2.1362 -0.3525
 4692SOL     OW25537   1.651   3.816  15.936 -0.5520  0.3359 -0.2079
 4692SOL    HW125538   1.611   3.893  15.897 -0.5913  0.5911  0.3440
 4692SOL    HW225539   1.587   3.746  15.919 -0.6136 -0.1010  1.8093
 4693SOL     OW25540   0.455   2.679   8.476 -0.2724 -0.1267 -0.3880
 4693SOL    HW125541   0.549   2.658   8.481 -0.3922 -0.6823 -0.5440
 4693SOL    HW225542   0.430   2.665   8.567  1.2221 -1.1362 -0.1275
 4694SOL     OW25543   4.241   1.921   5.111 -0.3500  0.5771  0.1334
 4694SOL    HW125544   4.258   1.836   5.152 -2.1809  0.2853  0.2857
 4694SOL    HW225545   4.333   1.949   5.113 -0.0517 -0.3314 -0.9075
 4695SOL     OW25546   1.537   1.411   9.371 -0.2108 -0.0118 -0.3057
 4695SOL    HW125547   1.513   1.497   9.335 -0.8471 -0.1210 -0.1338
 4695SOL    HW225548   1.572   1.357   9.300 -1.3244 -3.0043  1.4461
 4696SOL     OW25549   0.829   2.679   5.769 -0.6012 -0.0864  0.3891
 4696SOL    HW125550   0.899   2.628   5.809 -0.7996 -0.8171 -0.2110
 4696SOL    HW225551   0.883   2.740   5.718 -1.3107  0.2287  0.0184
 4697SOL     OW25552   2.514   1.513   7.145 -0.2325  0.2246 -0.1421
 4697SOL    HW125553   2.566   1.543   7.220  1.3936  0.5658 -1.4222
 4697SOL    HW225554   2.455   1.587   7.128  0.9860  1.3518  0.5031
 4698SOL     OW25555   3.720   1.800   1.839 -0.2669  0.1938 -0.2132
 4698SOL    HW125556   3.781   1.829   1.906 -1.4654 -0.6082  1.2240
 4698SOL    HW225557   3.694   1.724   1.891  0.4990  0.2815  0.3036
 4699SOL     OW25558   1.348   1.432   3.342  0.1394  0.5746  0.7260
 4699SOL    HW125559   1.438   1.399   3.338  0.6892  2.5668 -2.9420
 4699SOL    HW225560   1.298   1.365   3.389  2.0031  0.8223  3.0436
 4700SOL     OW25561   4.343   2.883  16.489  0.3515 -0.4717  0.0741
 4700SOL    HW125562   4.298   2.962  16.517 -2.1578 -1.2118 -1.7577
 4700SOL    HW225563   4.362   2.826  16.564 -2.4594 -0.8016  0.5604
 4701SOL     OW25564   0.280   0.075  11.015  0.8628 -0.6070 -0.1695
 4701SOL    HW125565   0.257   0.027  11.094  0.5750  2.8025  1.8102
 4701SOL    HW225566   0.299   0.000  10.957 -0.4314  0.2594 -1.7066
 4702SOL     OW25567   3.748   1.139   1.297  0.2016  0.4589 -0.0919
 4702SOL    HW125568   3.694   1.173   1.368  0.4887  1.1235 -0.1848
 4702SOL    HW225569   3.834   1.153   1.338 -1.1566  2.3606  2.0759
 4703SOL     OW25570   4.560   4.061   5.888  0.2948  0.1025  0.3582
 4703SOL    HW125571   4.473   4.075   5.926  0.1211 -0.2301  0.0780
 4703SOL    HW225572   4.568   3.966   5.895  0.9119  0.1651  0.4613
 4704SOL     OW25573   2.648   0.310   2.086 -0.2724  0.1257 -0.1623
 4704SOL    HW125574   2.597   0.321   2.167 -0.5242 -0.8235 -0.1940
 4704SOL    HW225575   2.614   0.227   2.053  1.4641 -1.4279  1.9358
 4705SOL     OW25576   1.666   2.193   6.241  0.3574  0.0725 -0.4309
 4705SOL    HW125577   1.741   2.244   6.272  0.0082  0.8042 -0.7989
 4705SOL    HW225578   1.670   2.215   6.148  2.4737 -2.9306 -1.0507
 4706SOL     OW25579   1.665   4.491   0.338 -0.6049  0.0973  0.2756
 4706SOL    HW125580   1.674   4.546   0.415  1.9098 -0.2108  0.2186
 4706SOL    HW225581   1.700   4.409   0.372 -0.7327  0.4748  1.2993
 4707SOL     OW25582   2.335   1.909   5.318 -0.1898 -0.1202  0.0113
 4707SOL    HW125583   2.373   1.896   5.405  0.5584  1.0945 -0.1283
 4707SOL    HW225584   2.311   2.001   5.330 -3.9334 -1.0955  0.0460
 4708SOL     OW25585   3.773   1.043  11.354  0.0944 -0.1818  0.5280
 4708SOL    HW125586   3.837   1.105  11.319  0.7171 -1.5803 -0.8105
 4708SOL    HW225587   3.772   1.067  11.446  2.9023  0.5794  0.3522
 4709SOL     OW25588   2.558   2.855  12.399  0.6001 -0.2565  0.1274
 4709SOL    HW125589   2.536   2.776  12.449  0.4805 -1.2389 -1.4656
 4709SOL    HW225590   2.516   2.931  12.440 -0.4983 -0.6820 -0.1899
 4710SOL     OW25591   3.387   4.241   3.843 -0.2672  0.1747 -0.0684
 4710SOL    HW125592   3.429   4.326   3.832  0.0081 -0.0917 -1.0700
 4710SOL    HW225593   3.393   4.206   3.755 -1.2399 -0.0940 -0.0324
 4711SOL     OW25594   3.245   0.134   7.049 -0.6209  0.0283 -0.2622
 4711SOL    HW125595   3.254   0.212   6.996  2.7601 -0.3098 -0.1654
 4711SOL    HW225596   3.333   0.138   7.088 -0.4840 -1.3606 -0.4272
 4712SOL     OW25597   4.505   3.189   2.708 -0.4388  0.1014  0.2934
 4712SOL    HW125598   4.515   3.245   2.784 -0.2221  2.6135 -1.5739
 4712SOL    HW225599   4.580   3.211   2.652 -0.5553  0.9081  0.4548
 4713SOL     OW25600   2.908   3.984   1.962 -0.1284  0.0097 -0.0166
 4713SOL    HW125601   2.887   3.919   1.895 -0.5358 -1.7379  1.8249
 4713SOL    HW225602   2.926   3.924   2.035 -0.2362 -1.1377 -0.9396
 4714SOL     OW25603   1.809   4.296  13.975  0.3419  0.0612  0.4780
 4714SOL    HW125604   1.768   4.364  14.028  0.9974  0.8401 -0.0119
 4714SOL    HW225605   1.732   4.247  13.947  1.5741 -2.1782  0.9622
 4715SOL     OW25606   2.473   0.651   2.730  0.1033 -0.2250  0.4566
 4715SOL    HW125607   2.473   0.617   2.641  0.5136 -1.1874  0.8173
 4715SOL    HW225608   2.489   0.744   2.714 -1.9622  0.4405  2.3623
 4716SOL     OW25609   4.005   2.799  16.406  0.0751  0.0426 -0.1566
 4716SOL    HW125610   4.033   2.882  16.446 -0.5052 -0.0378  0.4142
 4716SOL    HW225611   4.065   2.742  16.454 -1.5077 -0.5509  1.0879
 4717SOL     OW25612   1.917   1.884   3.565 -0.4053  0.3803 -0.0647
 4717SOL    HW125613   1.982   1.912   3.629 -0.1895 -0.1338 -0.0609
 4717SOL    HW225614   1.886   1.966   3.527  2.5417  0.3139 -2.5630
 4718SOL     OW25615   0.503   0.114   5.189 -0.8082  0.1489 -0.6547
 4718SOL    HW125616   0.581   0.060   5.185  0.3498  1.7129  1.1310
 4718SOL    HW225617   0.475   0.117   5.097 -2.4565  0.2095 -0.1623
 4719SOL     OW25618   3.635   0.238   9.408 -0.2860  0.0159 -0.0158
 4719SOL    HW125619   3.709   0.268   9.355 -0.2973 -2.0006 -1.1353
 4719SOL    HW225620   3.685   0.228   9.489  0.4622 -0.3696 -0.5240
 4720SOL     OW25621   0.042   2.762   6.247  0.5831 -0.0832  0.0689
 4720SOL    HW125622   4.713   2.808   6.183 -0.7090  0.5307  1.6177
 4720SOL    HW225623   0.026   2.813   6.326  0.5339  0.1719 -0.1025
 4721SOL     OW25624   1.152   0.030   8.011  0.2729  0.1254  0.5592
 4721SOL    HW125625   1.105   0.070   8.085 -0.1203 -0.6674  0.7313
 4721SOL    HW225626   1.084   4.700   7.976  0.2700 -0.0070  0.7742
 4722SOL     OW25627   1.195   0.293   9.654 -0.4634 -0.4777  0.0503
 4722SOL    HW125628   1.113   0.244   9.646 -0.1846 -0.6748 -1.5850
 4722SOL    HW225629   1.168   0.379   9.686  0.1318 -1.2653  2.7239
 4723SOL     OW25630   0.909   0.555   8.948  0.1100 -0.4939  0.2314
 4723SOL    HW125631   0.906   0.459   8.951 -1.1443 -0.4988 -1.0694
 4723SOL    HW225632   0.994   0.577   8.910  0.7092 -2.6866  0.3127
 4724SOL     OW25633   2.285   0.944   9.835 -0.6110  0.0550 -0.0113
 4724SOL    HW125634   2.291   0.981   9.923  1.0049 -1.8885  0.6803
 4724SOL    HW225635   2.258   0.853   9.844  1.0157 -0.5313 -1.0526
 4725SOL     OW25636   4.146   3.032  11.035  0.2026 -0.5267  0.4047
 4725SOL    HW125637   4.129   3.125  11.016 -2.4677 -1.0893 -0.0211
 4725SOL    HW225638   4.237   3.035  11.063 -0.1185 -1.5609  1.5141
 4726SOL     OW25639   2.825   3.578   5.522  0.5486  0.1150 -0.5026
 4726SOL    HW125640   2.745   3.625   5.500  0.8096  0.1179 -1.4288
 4726SOL    HW225641   2.834   3.593   5.616  0.6551  0.5468 -0.5821
 4727SOL     OW25642   3.409   4.363   2.212  0.6345 -0.1119  0.7222
 4727SOL    HW125643   3.334   4.421   2.221  0.0368 -0.7627 -0.0215
 4727SOL    HW225644   3.361   4.280   2.212  3.4075 -1.7424  0.5788
 4728SOL     OW25645   2.982   0.653   6.536  0.4812 -0.3705 -0.1581
 4728SOL    HW125646   3.032   0.730   6.564 -0.2184 -0.5973  1.6752
 4728SOL    HW225647   2.982   0.596   6.613 -0.0226 -0.9993 -0.6318
 4729SOL     OW25648   3.753   2.307  13.692  0.5017 -0.5611  0.3530
 4729SOL    HW125649   3.783   2.226  13.734  0.5695  0.1763  1.7151
 4729SOL    HW225650   3.673   2.281  13.647  0.8907 -1.9119  0.4233
 4730SOL     OW25651   1.674   0.439   8.143  0.7747  0.0748 -0.1705
 4730SOL    HW125652   1.715   0.430   8.058  1.8237  1.4794  0.1911
 4730SOL    HW225653   1.621   0.360   8.153  4.1642 -1.8708  2.3796
 4731SOL     OW25654   2.142   3.580   5.029 -0.1733 -0.2530 -0.0057
 4731SOL    HW125655   2.102   3.667   5.041 -3.4667 -1.3357 -3.1126
 4731SOL    HW225656   2.055   3.540   5.019 -0.2643 -0.0774  0.0780
 4732SOL     OW25657   3.160   4.435   6.662 -0.2764 -0.5471 -0.1394
 4732SOL    HW125658   3.220   4.409   6.592 -0.9265 -0.3895 -0.7504
 4732SOL    HW225659   3.200   4.519   6.685 -3.5203  0.8691  0.2230
 4733SOL     OW25660   0.633   0.362   5.056 -0.1949  0.3095  0.2784
 4733SOL    HW125661   0.601   0.284   5.012 -0.6227  0.3386  0.5449
 4733SOL    HW225662   0.726   0.339   5.052 -0.8025 -1.7232 -2.2060
 4734SOL     OW25663   2.660   3.283  16.273  0.5663  0.1163 -0.4381
 4734SOL    HW125664   2.687   3.199  16.308  0.9269  0.2809 -0.3266
 4734SOL    HW225665   2.689   3.340  16.344  1.0648  0.6285 -1.0607
 4735SOL     OW25666   4.386   0.035   2.300  0.3747 -0.8166 -0.1214
 4735SOL    HW125667   4.404   0.018   2.392  1.8084  0.2590 -0.1945
 4735SOL    HW225668   4.291   0.025   2.303  0.3830 -0.7416  0.4016
 4736SOL     OW25669   3.052   0.145   0.904  0.0377 -0.7897  0.0709
 4736SOL    HW125670   3.144   0.163   0.920 -0.2166  0.5854 -0.0430
 4736SOL    HW225671   3.022   0.233   0.882 -0.5545 -0.8302  0.7217
 4737SOL     OW25672   2.874   1.642   1.932 -0.3713 -0.3406 -0.1234
 4737SOL    HW125673   2.821   1.614   1.857 -0.5706  0.4970 -0.2934
 4737SOL    HW225674   2.910   1.565   1.977  0.5968  1.9347  3.0085
 4738SOL     OW25675   3.088   0.401   9.487  0.5822 -0.7007  0.2635
 4738SOL    HW125676   3.147   0.463   9.445 -1.0851  0.4478 -0.3756
 4738SOL    HW225677   3.105   0.408   9.581 -0.3427  0.8000  0.3232
 4739SOL     OW25678   2.573   2.874   7.201  0.5898 -0.0127 -0.0185
 4739SOL    HW125679   2.513   2.807   7.169  1.3382 -1.9022  2.5546
 4739SOL    HW225680   2.541   2.948   7.148 -1.1554 -0.7012  0.0914
 4740SOL     OW25681   0.533   0.728  13.733  0.0081 -0.0871  0.3829
 4740SOL    HW125682   0.448   0.771  13.735  0.0323 -0.0355  0.2888
 4740SOL    HW225683   0.565   0.744  13.644 -0.2758  2.0884  0.6752
 4741SOL     OW25684   0.345   3.917   6.582 -0.2872  0.1048 -0.0922
 4741SOL    HW125685   0.420   3.939   6.526  0.3769 -0.3486  0.6105
 4741SOL    HW225686   0.312   4.006   6.594 -1.3630 -0.3616  0.3491
 4742SOL     OW25687   0.881   4.082   7.788  0.6305 -0.4703 -0.1311
 4742SOL    HW125688   0.830   4.012   7.746 -1.1218  0.5861  0.2425
 4742SOL    HW225689   0.930   4.108   7.710 -0.2548 -0.8846 -0.8271
 4743SOL     OW25690   4.599   0.362   6.598 -0.1014 -0.6161  0.4645
 4743SOL    HW125691   4.555   0.405   6.525 -1.5935 -3.7854 -0.4968
 4743SOL    HW225692   4.667   0.313   6.551  2.8546 -0.0245  4.0483
 4744SOL     OW25693   4.660   2.875  11.891 -0.3211  0.1666 -0.0162
 4744SOL    HW125694   4.570   2.902  11.910 -0.1706  0.7837 -0.1872
 4744SOL    HW225695   4.692   2.963  11.873 -2.7431  1.0110 -0.2223
 4745SOL     OW25696   3.859   2.660   8.274 -0.3409  0.1583  0.0616
 4745SOL    HW125697   3.803   2.731   8.305 -0.8543  0.0243 -0.5579
 4745SOL    HW225698   3.930   2.677   8.336  0.1449 -1.6801 -0.0091
 4746SOL     OW25699   3.783   1.375  10.111  0.2320 -0.0283  0.6375
 4746SOL    HW125700   3.851   1.340  10.054  2.8967  0.0907  3.7004
 4746SOL    HW225701   3.808   1.467  10.122 -3.1165  0.7078  2.2344
 4747SOL     OW25702   0.669   0.925   2.955 -0.0103 -0.0281 -0.1630
 4747SOL    HW125703   0.647   0.932   3.048 -0.0825 -0.0757 -0.1765
 4747SOL    HW225704   0.750   0.973   2.942 -0.9538  1.6011  0.0155
 4748SOL     OW25705   1.049   1.814  16.731 -0.4532 -0.7419  0.6236
 4748SOL    HW125706   0.956   1.833  16.716  0.1882  0.9237 -1.0841
 4748SOL    HW225707   1.040   1.822  16.826 -1.2353  2.7922  0.2458
 4749SOL     OW25708   2.963   2.654   2.239 -0.4292  0.4787 -0.4101
 4749SOL    HW125709   2.887   2.688   2.192 -1.4359 -1.0719  0.1249
 4749SOL    HW225710   2.970   2.717   2.310 -0.4375 -1.0297  0.9175
 4750SOL     OW25711   1.303   1.532   1.226 -0.2170  0.4638  0.8026
 4750SOL    HW125712   1.360   1.471   1.273  0.6832 -0.1799 -1.1346
 4750SOL    HW225713   1.368   1.585   1.180  0.1131  1.9215  2.9344
 4751SOL     OW25714   0.313   3.373   0.797  0.5363  0.5298  0.3998
 4751SOL    HW125715   0.301   3.296   0.853  0.1812 -1.4153 -2.3347
 4751SOL    HW225716   0.245   3.430   0.832  1.2385  2.2503 -1.0620
 4752SOL     OW25717   0.576   4.511   8.506 -0.1263  0.2723 -0.1315
 4752SOL    HW125718   0.502   4.456   8.479  1.6905 -1.7920 -0.8708
 4752SOL    HW225719   0.537   4.554   8.582  1.7704 -1.0924  1.6221
 4753SOL     OW25720   4.541   0.517   6.378  0.2421 -0.0165 -0.3823
 4753SOL    HW125721   4.448   0.511   6.358 -0.0185 -1.9648  1.3544
 4753SOL    HW225722   4.579   0.519   6.290 -0.5393  1.7708 -0.6821
 4754SOL     OW25723   4.170   0.516   6.126  0.0291  0.2103 -0.1222
 4754SOL    HW125724   4.138   0.494   6.038 -1.9310  0.4485  0.5371
 4754SOL    HW225725   4.097   0.480   6.176  0.6597 -0.0643  0.5956
 4755SOL     OW25726   3.577   4.081   7.310 -0.1561  0.0804  0.2807
 4755SOL    HW125727   3.594   4.174   7.321 -1.7283  0.3513  0.4591
 4755SOL    HW225728   3.554   4.088   7.217  1.0852 -1.0700 -0.1055
 4756SOL     OW25729   2.753   2.841   0.567 -0.3859  0.4979 -0.2939
 4756SOL    HW125730   2.717   2.792   0.640 -0.9249  1.8617  0.3694
 4756SOL    HW225731   2.673   2.873   0.525 -0.7854 -1.4185 -0.9505
 4757SOL     OW25732   1.171   4.373   8.782  0.0831  0.3298  0.4131
 4757SOL    HW125733   1.177   4.296   8.725  0.0364  1.1039 -0.6380
 4757SOL    HW225734   1.077   4.380   8.800 -0.2877 -0.0752 -1.3094
 4758SOL     OW25735   2.760   0.619   8.412  0.0073 -0.0111  0.1472
 4758SOL    HW125736   2.696   0.623   8.483 -0.1591 -1.5321  0.0782
 4758SOL    HW225737   2.757   0.523   8.406 -1.9001 -0.1468  3.0370
 4759SOL     OW25738   0.924   1.132   5.512  0.2129 -0.8008  0.3843
 4759SOL    HW125739   0.846   1.077   5.523 -0.3284 -0.2438 -0.6606
 4759SOL    HW225740   0.954   1.123   5.602  0.1562  0.0881  0.4945
 4760SOL     OW25741   4.368   2.577   0.744  1.0490  0.4661  0.1898
 4760SOL    HW125742   4.401   2.488   0.748  2.0735  0.8766  0.7555
 4760SOL    HW225743   4.284   2.554   0.704  1.4634  2.2192 -1.7075
 4761SOL     OW25744   1.735   0.321   9.406 -0.1727 -0.2459 -0.3238
 4761SOL    HW125745   1.641   0.332   9.390 -0.5165 -0.8993  1.1396
 4761SOL    HW225746   1.740   0.230   9.437 -0.3467 -0.4419 -0.8766
 4762SOL     OW25747   3.725   3.732   1.602  0.5543  0.2519 -0.8271
 4762SOL    HW125748   3.664   3.700   1.669  1.6077 -0.4723 -0.2210
 4762SOL    HW225749   3.785   3.793   1.645 -0.9154  1.4242 -0.4167
 4763SOL     OW25750   1.529   3.550  11.618 -0.2940  0.3449 -0.1631
 4763SOL    HW125751   1.472   3.568  11.543 -1.7071 -1.7792  0.4020
 4763SOL    HW225752   1.546   3.637  11.653 -1.7922  0.4570  0.2867
 4764SOL     OW25753   0.671   1.441  13.720 -0.5188 -0.9731  0.3622
 4764SOL    HW125754   0.752   1.408  13.757  0.6525 -0.4308 -1.7151
 4764SOL    HW225755   0.609   1.430  13.792 -1.1403  1.0259  0.1444
 4765SOL     OW25756   2.877   4.504   9.680 -0.1718 -0.0466  0.0607
 4765SOL    HW125757   2.813   4.544   9.738  0.2723  1.7236 -0.6793
 4765SOL    HW225758   2.881   4.560   9.602  2.4344  0.5642  0.6416
 4766SOL     OW25759   1.047   2.407   2.745  0.8336  0.2028  0.3945
 4766SOL    HW125760   1.022   2.316   2.728 -1.0494  0.7904  0.0098
 4766SOL    HW225761   1.092   2.435   2.665  0.3298  0.7474  0.2974
 4767SOL     OW25762   0.080   2.816   0.566  0.6052  0.1802  0.1591
 4767SOL    HW125763   0.102   2.726   0.542 -0.9925 -0.3167  0.6135
 4767SOL    HW225764   0.041   2.802   0.652 -2.8056  0.5233 -1.3431
 4768SOL     OW25765   3.125   1.624  16.914  0.3409 -0.0082 -0.5017
 4768SOL    HW125766   3.169   1.708  16.930  1.2187 -0.6629  0.4814
 4768SOL    HW225767   3.201   1.566  16.918  0.0833 -0.3769 -1.0417
 4769SOL     OW25768   1.584   3.941  13.092  0.0562 -0.5001  0.5357
 4769SOL    HW125769   1.541   4.023  13.113  1.6004  0.4185  0.0970
 4769SOL    HW225770   1.583   3.932  12.997 -3.6022  1.3229  0.4095
 4770SOL     OW25771   3.450   2.464   7.123 -0.5167 -0.1438 -0.2652
 4770SOL    HW125772   3.387   2.527   7.089 -0.6175  0.5735  1.2445
 4770SOL    HW225773   3.532   2.511   7.106  0.1732 -0.6621  1.6875
 4771SOL     OW25774   2.652   0.885  16.312  0.1600 -0.4473  0.4680
 4771SOL    HW125775   2.746   0.866  16.308  0.2939  0.5107 -0.9465
 4771SOL    HW225776   2.633   0.882  16.218 -0.1377 -0.5323  0.5316
 4772SOL     OW25777   3.136   2.146  14.014 -0.1851 -0.0845  0.2045
 4772SOL    HW125778   3.150   2.209  14.085  0.3110 -1.8925  1.7249
 4772SOL    HW225779   3.050   2.167  13.979 -0.5605 -0.7510  0.7214
 4773SOL     OW25780   2.523   3.718   5.801 -0.3291  0.3285  0.1902
 4773SOL    HW125781   2.555   3.629   5.817  0.0014  0.4379  0.1313
 4773SOL    HW225782   2.470   3.732   5.879 -0.5218 -2.0028  0.4752
 4774SOL     OW25783   1.685   3.097   8.487 -0.0653 -0.1664 -0.3891
 4774SOL    HW125784   1.656   3.101   8.396  0.0160  0.4280 -0.3886
 4774SOL    HW225785   1.719   3.008   8.485 -0.1440 -0.1698 -1.3844
 4775SOL     OW25786   4.562   3.815   6.435  0.1890 -0.3845  0.0126
 4775SOL    HW125787   4.647   3.855   6.420 -0.7978  1.0623 -1.8652
 4775SOL    HW225788   4.515   3.884   6.482 -0.1992 -0.5655 -0.1039
 4776SOL     OW25789   4.128   0.256   4.062 -0.1455  0.1371 -0.2642
 4776SOL    HW125790   4.075   0.287   4.136  1.4585 -0.6472  1.2197
 4776SOL    HW225791   4.214   0.253   4.104  1.2669 -0.6928 -3.2612
 4777SOL     OW25792   2.952   4.705  14.682  0.3073 -0.3936  0.0855
 4777SOL    HW125793   2.918   0.053  14.633  0.3623  1.1234  2.3413
 4777SOL    HW225794   3.021   0.023  14.731 -1.9191  0.7498  2.1565
 4778SOL     OW25795   2.397   0.815   4.405  0.2924  0.0131 -0.0648
 4778SOL    HW125796   2.329   0.843   4.343 -1.8766 -3.0186  1.0090
 4778SOL    HW225797   2.416   0.897   4.450  0.4172  0.6369 -1.2283
 4779SOL     OW25798   2.801   1.927  13.541 -0.4345  0.3088  0.5123
 4779SOL    HW125799   2.861   1.909  13.469 -2.1040  1.5099 -1.1698
 4779SOL    HW225800   2.861   1.979  13.595 -0.7717  1.5065 -0.2857
 4780SOL     OW25801   3.798   2.470   0.057  0.1051 -0.0464 -0.0180
 4780SOL    HW125802   3.891   2.476   0.038  0.8262 -1.1509  3.1318
 4780SOL    HW225803   3.780   2.562   0.077  1.4518 -0.2358  2.0356
 4781SOL     OW25804   2.786   4.638   7.125  0.5429 -0.6676 -0.6997
 4781SOL    HW125805   2.825   4.583   7.193  0.8019  0.5641  0.1685
 4781SOL    HW225806   2.694   4.651   7.150  1.7758  2.6322  2.1400
 4782SOL     OW25807   0.824   2.030  16.948  0.1970  0.3720  1.0233
 4782SOL    HW125808   0.895   2.085  16.980  0.3683 -1.5578  4.0232
 4782SOL    HW225809   0.768   2.093  16.904  2.8579  2.4317  0.6081
 4783SOL     OW25810   3.944   2.926   0.368 -0.3109  0.6626 -0.2263
 4783SOL    HW125811   3.926   2.854   0.308  1.4311 -0.3185  0.4308
 4783SOL    HW225812   3.923   2.885   0.452  0.2099 -1.0482 -0.9398
 4784SOL     OW25813   0.796   2.119   6.056 -0.5060  0.0626  0.4482
 4784SOL    HW125814   0.756   2.196   6.015 -0.5826 -1.2114 -1.8768
 4784SOL    HW225815   0.888   2.137   6.039 -0.6960  0.6196  0.0120
 4785SOL     OW25816   2.108   1.908   1.134  0.5234  0.3300 -0.3078
 4785SOL    HW125817   2.055   1.844   1.181  2.4617 -2.5282 -2.0233
 4785SOL    HW225818   2.078   1.888   1.045  0.7443 -0.6120 -0.1723
 4786SOL     OW25819   2.602   1.677   8.009  0.6232  0.1331 -0.5288
 4786SOL    HW125820   2.647   1.594   8.022  0.1926 -0.2040 -1.1691
 4786SOL    HW225821   2.574   1.698   8.098  0.5741  1.5674 -0.8917
 4787SOL     OW25822   3.452   2.791  17.243  0.3997  0.4373 -0.2297
 4787SOL    HW125823   3.427   2.769  17.333  0.6782 -0.5410 -0.3871
 4787SOL    HW225824   3.537   2.836  17.246  0.6704 -0.1392  0.7858
 4788SOL     OW25825   3.309   3.156  16.384  0.3695 -0.5684  0.0521
 4788SOL    HW125826   3.382   3.095  16.372  0.5106 -0.2536 -0.6813
 4788SOL    HW225827   3.309   3.193  16.296  0.8249  2.8603  1.4866
 4789SOL     OW25828   2.609   3.843   1.349  0.1950  0.5034 -0.0238
 4789SOL    HW125829   2.624   3.766   1.405 -0.0049  2.2588  2.4215
 4789SOL    HW225830   2.689   3.891   1.370  0.5354 -0.5901  1.2169
 4790SOL     OW25831   0.427   1.948   6.844  0.1264  0.5537 -0.5681
 4790SOL    HW125832   0.481   1.911   6.773  0.4138  0.4524 -0.2956
 4790SOL    HW225833   0.354   1.887   6.849  0.7378  0.1064  2.9670
 4791SOL     OW25834   1.858   0.931   3.440 -0.5162  0.3329  0.8665
 4791SOL    HW125835   1.885   1.022   3.452  3.1642 -0.4941 -0.9557
 4791SOL    HW225836   1.920   0.883   3.495 -1.3056 -1.9220 -0.2083
 4792SOL     OW25837   2.265   1.035   4.923  0.4360  0.0542  0.6082
 4792SOL    HW125838   2.254   1.124   4.890  1.6721 -0.6323 -1.6484
 4792SOL    HW225839   2.181   1.004   4.958  0.3964 -0.5200  0.0027
 4793SOL     OW25840   4.108   1.223   3.613  0.2592  0.3183  0.7013
 4793SOL    HW125841   4.084   1.316   3.608  1.0622  0.3203 -2.8574
 4793SOL    HW225842   4.055   1.175   3.550  0.0637 -1.1370  1.9847
 4794SOL     OW25843   0.894   4.601   4.268  0.0441  0.0634 -0.3089
 4794SOL    HW125844   0.956   4.597   4.341  0.1760  0.1918 -0.4119
 4794SOL    HW225845   0.813   4.567   4.307  0.2042  1.4710  1.2656
 4795SOL     OW25846   2.143   0.601   9.146  0.0365  0.0438 -0.2919
 4795SOL    HW125847   2.074   0.569   9.205 -0.3142 -0.5233 -1.0117
 4795SOL    HW225848   2.190   0.519   9.128  1.0908  0.4187  0.7436
 4796SOL     OW25849   2.562   2.216   4.941  0.1240  0.0693  0.3580
 4796SOL    HW125850   2.605   2.208   4.856 -0.7806 -0.5543 -0.0350
 4796SOL    HW225851   2.471   2.231   4.916  0.6686  2.3353 -0.2580
 4797SOL     OW25852   4.556   0.413   4.020  0.0498  0.1588  0.0952
 4797SOL    HW125853   4.508   0.361   3.956 -1.2961  0.5859  0.7378
 4797SOL    HW225854   4.646   0.386   4.005 -0.0879 -0.3263  0.1671
 4798SOL     OW25855   2.079   2.833  10.648 -0.3478  0.3475 -0.4062
 4798SOL    HW125856   2.159   2.804  10.691  0.5807  0.7896 -1.8447
 4798SOL    HW225857   2.016   2.838  10.721  0.7852 -0.0250  0.5925
 4799SOL     OW25858   2.783   1.513   9.163  0.2113  0.3708 -0.0248
 4799SOL    HW125859   2.868   1.517   9.118  0.2815 -0.8677 -0.0272
 4799SOL    HW225860   2.761   1.421   9.146  1.6994  0.1977 -1.0697
 4800SOL     OW25861   0.680   4.026   1.084 -0.3466 -0.1471  0.3075
 4800SOL    HW125862   0.611   4.092   1.089  0.7448  0.9418  0.8117
 4800SOL    HW225863   0.633   3.954   1.127 -0.5025 -0.3070 -0.1327
 4801SOL     OW25864   2.436   1.007   7.649  0.1207 -0.3247 -0.0495
 4801SOL    HW125865   2.362   0.952   7.625  0.0728 -0.1485 -0.3090
 4801SOL    HW225866   2.508   0.944   7.637  1.9870  1.9029 -0.6668
 4802SOL     OW25867   3.950   0.313   2.555  0.1559 -0.2681 -0.1106
 4802SOL    HW125868   3.855   0.310   2.541  0.4793  1.2788 -2.5320
 4802SOL    HW225869   3.941   0.353   2.641 -1.9855  0.6067 -0.7424
 4803SOL     OW25870   4.125   2.743   9.704  0.0905  0.1237  0.2289
 4803SOL    HW125871   4.082   2.683   9.765  1.0547  1.1095  1.8933
 4803SOL    HW225872   4.197   2.770   9.761 -0.7659 -2.0379  2.3170
 4804SOL     OW25873   0.121   2.796   5.482  0.1851  0.6584 -0.5916
 4804SOL    HW125874   0.183   2.854   5.438  2.1500 -0.7691  0.3196
 4804SOL    HW225875   0.105   2.719   5.427 -0.9290 -0.1530  0.8578
 4805SOL     OW25876   0.879   3.302  16.409  0.2235  0.1752  0.9574
 4805SOL    HW125877   0.852   3.309  16.318  1.8080  0.7410  0.5349
 4805SOL    HW225878   0.971   3.286  16.389  0.0393 -1.1893  1.1968
 4806SOL     OW25879   0.988   2.910   5.661 -0.4733 -0.4093 -0.1256
 4806SOL    HW125880   0.951   2.969   5.726 -1.5047 -1.5079  0.2829
 4806SOL    HW225881   1.080   2.933   5.673 -0.2227 -1.3758 -0.1624
 4807SOL     OW25882   0.903   3.673   4.046 -0.6480  0.4582 -0.8420
 4807SOL    HW125883   0.882   3.589   4.087  1.9363  0.7408  1.0577
 4807SOL    HW225884   0.969   3.655   3.979  0.5185  0.6313  0.2525
 4808SOL     OW25885   4.000   2.747   8.845  0.1246 -0.1829  0.5247
 4808SOL    HW125886   4.072   2.809   8.855 -1.5769  1.5803  1.8633
 4808SOL    HW225887   3.922   2.803   8.842 -2.0442 -3.2387  0.0558
 4809SOL     OW25888   0.681   4.712   8.352 -0.0850  0.5993 -0.2656
 4809SOL    HW125889   0.590   0.013   8.335  0.1702  0.5311 -1.7431
 4809SOL    HW225890   0.668   4.635   8.408  2.3924  0.1248 -0.3575
 4810SOL     OW25891   3.900   1.125   6.539  0.2149  0.4384  0.2498
 4810SOL    HW125892   3.944   1.081   6.466 -0.6258  0.5164 -0.3030
 4810SOL    HW225893   3.980   1.155   6.583 -0.6943  0.2860  2.0043
 4811SOL     OW25894   2.380   3.121   0.919  0.1989  0.2466  0.5817
 4811SOL    HW125895   2.464   3.160   0.896 -1.1988  2.0354 -1.5428
 4811SOL    HW225896   2.380   3.032   0.884  3.2977  0.1723  0.7329
 4812SOL     OW25897   0.355   1.367   4.352 -0.0346 -0.1882  0.9817
 4812SOL    HW125898   0.304   1.320   4.418 -1.9355  0.5332  0.0402
 4812SOL    HW225899   0.372   1.292   4.295  0.0198 -0.4699  1.3683
 4813SOL     OW25900   0.388   0.282   5.746 -0.2470 -0.4569 -0.2986
 4813SOL    HW125901   0.377   0.195   5.784  0.4123  0.0923  1.1364
 4813SOL    HW225902   0.400   0.337   5.823 -1.4856  1.3107 -1.3577
 4814SOL     OW25903   1.076   0.378  16.252 -0.2761  0.3440  0.0839
 4814SOL    HW125904   0.990   0.391  16.212 -0.4356 -1.7000 -0.2633
 4814SOL    HW225905   1.061   0.397  16.345 -1.1878 -1.9211  0.4161
 4815SOL     OW25906   1.617   4.425  13.784 -1.0010 -0.5262 -0.4284
 4815SOL    HW125907   1.545   4.421  13.722 -0.7002 -0.7912 -0.7612
 4815SOL    HW225908   1.596   4.350  13.839  1.0054 -0.6105  0.2494
 4816SOL     OW25909   0.969   2.258  13.756 -0.0052  0.0907  0.0676
 4816SOL    HW125910   0.898   2.317  13.782 -0.5430 -1.3405  1.8666
 4816SOL    HW225911   0.924   2.239  13.674  0.3788  0.2713 -0.1844
 4817SOL     OW25912   1.514   1.831   2.579 -0.2829  0.0142  0.1094
 4817SOL    HW125913   1.483   1.810   2.668  0.5403  0.3547  0.4739
 4817SOL    HW225914   1.438   1.835   2.522 -0.2686 -2.0736 -0.0847
 4818SOL     OW25915   1.586   4.148   4.020 -0.6002  0.2722 -0.1180
 4818SOL    HW125916   1.568   4.209   4.091  0.0932  0.6452 -0.2570
 4818SOL    HW225917   1.577   4.213   3.950  0.0720  0.0228 -0.4415
 4819SOL     OW25918   0.170   3.146   7.312 -0.1655  0.1288 -0.3181
 4819SOL    HW125919   0.210   3.229   7.339  1.3822 -0.6351 -0.2626
 4819SOL    HW225920   0.150   3.163   7.220  1.3649  0.4302 -0.5993
 4820SOL     OW25921   1.076   3.653   7.973 -0.2864 -0.2227  0.2099
 4820SOL    HW125922   1.069   3.717   7.902  1.1449 -2.2897 -1.7810
 4820SOL    HW225923   1.003   3.597   7.948  0.8792 -2.6331  2.1644
 4821SOL     OW25924   0.293   4.350   5.196 -0.1022  0.1340 -0.5436
 4821SOL    HW125925   0.316   4.440   5.222  2.5325 -0.4427 -0.8591
 4821SOL    HW225926   0.276   4.313   5.282 -0.0962  1.5955  0.1003
 4822SOL     OW25927   3.382   0.424  15.778 -0.2416  0.8436  0.3663
 4822SOL    HW125928   3.311   0.472  15.735 -1.3645  0.0391  1.2882
 4822SOL    HW225929   3.460   0.439  15.725  0.6255  1.0514  1.6885
 4823SOL     OW25930   0.544   3.567   2.001  0.3675 -0.0112 -0.3294
 4823SOL    HW125931   0.543   3.485   1.952 -2.4986 -0.2198  0.0962
 4823SOL    HW225932   0.495   3.630   1.949 -0.1379 -1.6259 -1.7952
 4824SOL     OW25933   1.653   2.096  16.513 -0.0625  0.0035 -0.1209
 4824SOL    HW125934   1.708   2.109  16.590  0.3602 -1.4662 -0.1703
 4824SOL    HW225935   1.568   2.105  16.554 -0.9483 -0.3207 -1.8716
 4825SOL     OW25936   3.523   2.024   6.627  0.3083 -0.3091 -0.1308
 4825SOL    HW125937   3.600   1.994   6.675  0.3175 -0.0811 -0.0026
 4825SOL    HW225938   3.500   1.947   6.576 -3.3134  0.2429  0.6833
 4826SOL     OW25939   1.554   4.131   1.667 -0.2390  0.1314  0.1079
 4826SOL    HW125940   1.516   4.169   1.746 -0.3821  1.4141 -0.5896
 4826SOL    HW225941   1.579   4.208   1.616  1.3404 -0.8073 -0.5471
 4827SOL     OW25942   2.185   4.202   4.837  0.7936 -0.4272 -0.0048
 4827SOL    HW125943   2.252   4.266   4.860 -0.0130  0.4416 -0.0637
 4827SOL    HW225944   2.230   4.120   4.855  4.0774  0.9516 -2.0140
 4828SOL     OW25945   1.060   1.763   3.999 -0.6351 -0.2095  0.2325
 4828SOL    HW125946   1.134   1.814   3.967 -0.6838  0.4897  1.2261
 4828SOL    HW225947   0.997   1.819   4.044 -0.1099 -0.5358  1.3654
 4829SOL     OW25948   1.382   4.347   5.566  0.4655  0.0638 -0.4363
 4829SOL    HW125949   1.426   4.271   5.603  0.0328 -0.1357 -0.3330
 4829SOL    HW225950   1.297   4.306   5.554  1.8889 -2.5566 -1.5929
 4830SOL     OW25951   0.199   1.367   7.945 -0.0674  0.1848  0.4817
 4830SOL    HW125952   0.239   1.445   7.983 -1.0422  1.4377 -1.0512
 4830SOL    HW225953   0.284   1.327   7.925  0.3774  0.6509  1.4597
 4831SOL     OW25954   3.660   1.154  10.666 -0.1842  0.0908 -0.8964
 4831SOL    HW125955   3.674   1.248  10.670 -1.0789  0.0933  2.1285
 4831SOL    HW225956   3.565   1.149  10.676 -0.3111  1.6639 -1.3966
 4832SOL     OW25957   2.665   0.304  13.715  0.0559  0.7117  0.9603
 4832SOL    HW125958   2.697   0.321  13.803 -0.2645  0.7510  1.0697
 4832SOL    HW225959   2.660   0.392  13.678  1.8823 -0.2313 -1.5510
 4833SOL     OW25960   1.058   1.846  13.625 -0.0463  0.2540 -0.2795
 4833SOL    HW125961   1.111   1.891  13.559  2.1146  1.0594  1.9965
 4833SOL    HW225962   1.122   1.777  13.640 -1.6353 -0.8751  1.1927
 4834SOL     OW25963   4.294   0.107   8.977 -0.0415 -0.2320 -0.0789
 4834SOL    HW125964   4.372   0.132   9.027 -1.3953  1.3210  1.2739
 4834SOL    HW225965   4.270   0.039   9.040  1.4579  1.7235  2.5774
 4835SOL     OW25966   0.245   1.969   7.273  0.3411 -0.3387  0.1751
 4835SOL    HW125967   0.171   2.017   7.237  0.4754  1.1952  1.9714
 4835SOL    HW225968   0.215   1.878   7.273 -0.3589 -0.1037  0.3176
 4836SOL     OW25969   4.092   3.616   1.159  0.0366 -0.0920 -0.4262
 4836SOL    HW125970   4.172   3.630   1.209  0.1726 -1.0177 -0.4032
 4836SOL    HW225971   4.066   3.708   1.147 -1.2257 -0.4574 -0.5475
 4837SOL     OW25972   2.420   0.617  15.149  0.2080 -0.1968 -0.4139
 4837SOL    HW125973   2.353   0.645  15.086 -0.3525 -0.7614 -0.0696
 4837SOL    HW225974   2.481   0.691  15.144 -2.0485  1.6489 -1.1847
 4838SOL     OW25975   4.063   4.306   6.342  0.3593  0.7873  0.4985
 4838SOL    HW125976   3.997   4.265   6.285  0.1891  2.6328 -0.6168
 4838SOL    HW225977   4.006   4.346   6.407 -1.4241  0.4210 -0.8620
 4839SOL     OW25978   1.300   3.504   3.476  0.1869 -0.2613 -0.4562
 4839SOL    HW125979   1.267   3.572   3.417  0.4669 -1.3826 -1.9214
 4839SOL    HW225980   1.244   3.512   3.552  0.5972 -1.8739  0.0245
 4840SOL     OW25981   3.081   1.834   6.190  0.2130  0.0375  0.6337
 4840SOL    HW125982   3.121   1.778   6.257  2.1231  1.4728  0.6824
 4840SOL    HW225983   3.027   1.768   6.146 -0.4941  0.1163  1.3695
 4841SOL     OW25984   0.511   1.833   4.223 -0.7987 -0.4511  0.1823
 4841SOL    HW125985   0.456   1.818   4.146 -1.4594 -0.5911  0.6816
 4841SOL    HW225986   0.571   1.759   4.214 -0.6475 -0.1118 -1.5614
 4842SOL     OW25987   1.964   2.336  17.143 -0.6470  0.2552  0.3149
 4842SOL    HW125988   1.985   2.250  17.179 -0.1965 -0.5689 -1.9074
 4842SOL    HW225989   1.912   2.384  17.208 -3.9747 -0.6541 -1.7081
 4843SOL     OW25990   2.187   0.652   1.407  0.1295  0.0354  0.3663
 4843SOL    HW125991   2.225   0.588   1.467 -0.5060 -1.2822 -0.6304
 4843SOL    HW225992   2.138   0.715   1.460  0.9326 -2.0046  3.5500
 4844SOL     OW25993   3.800   2.272   1.369 -0.3615 -0.1589  0.2448
 4844SOL    HW125994   3.795   2.342   1.304 -3.3518 -1.9296 -1.4066
 4844SOL    HW225995   3.718   2.288   1.416 -0.4465 -0.5210  0.2187
 4845SOL     OW25996   1.994   1.452   7.429  0.5049  0.0833 -0.0455
 4845SOL    HW125997   2.065   1.484   7.374  0.4379 -0.6623 -0.5630
 4845SOL    HW225998   2.009   1.502   7.509  0.2531  0.2935 -0.1329
 4846SOL     OW25999   3.199   2.661   4.390  0.1865  0.1561  0.0547
 4846SOL    HW126000   3.204   2.670   4.485 -0.4747 -2.2630  0.3154
 4846SOL    HW226001   3.148   2.582   4.375 -2.9403  1.9240  1.4101
 4847SOL     OW26002   3.237   3.532   9.417 -0.4417 -0.1286  0.5244
 4847SOL    HW126003   3.155   3.487   9.397  0.8015 -0.9276 -2.9164
 4847SOL    HW226004   3.246   3.487   9.501 -0.2912  0.9050  1.0546
 4848SOL     OW26005   0.975   3.685   7.709 -0.0488  0.4067 -0.0645
 4848SOL    HW126006   1.013   3.750   7.649 -1.2310  0.2482 -0.9857
 4848SOL    HW226007   0.990   3.598   7.672  0.7756 -1.0176  3.6639
 4849SOL     OW26008   0.455   2.701   3.967  0.2703 -0.0445  0.3671
 4849SOL    HW126009   0.519   2.650   3.918 -2.1288 -5.3819  2.8175
 4849SOL    HW226010   0.393   2.740   3.905  0.5068 -0.6377 -0.2448
 4850SOL     OW26011   3.100   4.248   6.262  0.1344  0.3100 -0.1295
 4850SOL    HW126012   3.020   4.227   6.214 -1.6740  0.6488  2.7180
 4850SOL    HW226013   3.065   4.310   6.326 -0.6198  1.4672 -1.6624
 4851SOL     OW26014   3.086   1.681   5.644  0.3710 -0.2300 -0.2523
 4851SOL    HW126015   3.117   1.594   5.671  0.3422 -0.2017 -0.1260
 4851SOL    HW226016   3.146   1.730   5.700  0.9941  0.4590 -1.5125
 4852SOL     OW26017   0.993   1.682   9.773  0.2596 -0.2448 -0.3177
 4852SOL    HW126018   1.067   1.629   9.803  0.2608  0.3904  0.8102
 4852SOL    HW226019   0.952   1.628   9.706 -0.4863 -0.9280  0.6835
 4853SOL     OW26020   1.331   2.720   1.369  0.1201  0.1943  0.1790
 4853SOL    HW126021   1.260   2.666   1.332  0.1680  0.6271 -0.5567
 4853SOL    HW226022   1.372   2.750   1.288  1.9029 -0.6832  0.7692
 4854SOL     OW26023   0.667   1.100   9.080  0.4529  0.1573  0.1715
 4854SOL    HW126024   0.635   1.098   9.170 -3.0208  0.6275 -1.0350
 4854SOL    HW226025   0.601   1.046   9.036  0.3357 -0.3306  0.9377
 4855SOL     OW26026   3.589   1.177   3.889 -0.3244  0.4207  0.7679
 4855SOL    HW126027   3.613   1.115   3.820 -0.7399  1.4010 -0.2681
 4855SOL    HW226028   3.499   1.147   3.897  0.0717 -1.3720 -1.5227
 4856SOL     OW26029   0.843   4.438   4.738  0.5218  0.1453 -0.1909
 4856SOL    HW126030   0.814   4.525   4.767 -0.4834 -0.0651 -0.5774
 4856SOL    HW226031   0.770   4.401   4.688  1.2934 -2.7009  0.8033
 4857SOL     OW26032   1.649   3.728   7.110  0.3739  0.0256 -0.3234
 4857SOL    HW126033   1.677   3.765   7.194 -0.1586 -1.7169  0.6033
 4857SOL    HW226034   1.711   3.768   7.048 -1.6104 -0.4943 -2.6638
 4858SOL     OW26035   1.127   0.252   6.480  0.3720  0.1183  0.6578
 4858SOL    HW126036   1.120   0.314   6.552  2.2259 -1.0730  1.8691
 4858SOL    HW226037   1.203   0.280   6.430 -1.2274  0.7713 -1.3865
 4859SOL     OW26038   0.550   3.670  17.526  0.4719 -0.5773 -0.4455
 4859SOL    HW126039   0.487   3.602  17.502  0.2990 -0.9958  1.2377
 4859SOL    HW226040   0.530   3.676  17.619 -0.6478  0.6800 -0.7603
 4860SOL     OW26041   3.749   4.167  17.136  0.4722 -0.3131  0.1163
 4860SOL    HW126042   3.670   4.204  17.096  1.1354 -1.9359 -2.7503
 4860SOL    HW226043   3.720   4.076  17.121  0.4858 -0.3634  0.3839
 4861SOL     OW26044   0.230   4.202   6.666  0.5438  0.4394 -0.4553
 4861SOL    HW126045   0.197   4.193   6.755  1.8861  1.0205  0.0901
 4861SOL    HW226046   0.275   4.286   6.665 -1.1870  1.3545 -0.5212
 4862SOL     OW26047   3.944   2.029   6.112  0.1413 -0.2223  0.4700
 4862SOL    HW126048   4.035   2.021   6.143 -0.3377 -0.7900  1.6978
 4862SOL    HW226049   3.962   2.099   6.049 -0.3077 -1.4370 -1.0135
 4863SOL     OW26050   0.876   1.075   7.128 -0.0401  0.0710  0.2989
 4863SOL    HW126051   0.881   1.110   7.217  0.1724  2.9343 -0.8351
 4863SOL    HW226052   0.793   1.028   7.135 -1.0771  1.5106 -2.3671
 4864SOL     OW26053   4.147   0.772   0.093 -0.5745 -0.5873  0.2468
 4864SOL    HW126054   4.187   0.813   0.169  1.7137  0.0081 -1.2900
 4864SOL    HW226055   4.192   0.688   0.100  1.5728  0.6235  0.9760
 4865SOL     OW26056   4.547   0.196  11.442  0.2266  0.5869  0.7943
 4865SOL    HW126057   4.474   0.137  11.459 -0.2482  0.3617 -2.0141
 4865SOL    HW226058   4.604   0.161  11.511  0.4996  1.0861  0.8176
 4866SOL     OW26059   0.635   1.299   6.675 -0.3048 -0.3910 -0.3910
 4866SOL    HW126060   0.648   1.254   6.758 -1.2620 -4.1195 -2.2927
 4866SOL    HW226061   0.582   1.375   6.700 -1.8653 -1.4798 -0.3986
 4867SOL     OW26062   1.296   0.946   9.147  0.2626  0.5149  0.0326
 4867SOL    HW126063   1.289   1.023   9.091 -2.3520 -1.0874 -1.8391
 4867SOL    HW226064   1.355   0.977   9.216  0.4472  0.5448 -0.1405
 4868SOL     OW26065   2.358   3.167   8.909 -0.3900  0.4756 -0.1420
 4868SOL    HW126066   2.416   3.168   8.985 -1.3251  0.0392  0.5672
 4868SOL    HW226067   2.309   3.086   8.921  0.0547 -0.1988 -2.7509
 4869SOL     OW26068   1.507   4.267   2.992  0.2043 -0.3683  0.2303
 4869SOL    HW126069   1.492   4.308   3.077 -1.4133 -1.5227  0.4997
 4869SOL    HW226070   1.536   4.341   2.938 -0.4356 -1.3129 -1.4052
 4870SOL     OW26071   3.057   4.207   7.106  0.1133 -0.2407 -0.3291
 4870SOL    HW126072   2.984   4.151   7.134  0.5494 -0.7167 -0.1530
 4870SOL    HW226073   3.057   4.194   7.011 -1.3635  2.2381 -0.6613
 4871SOL     OW26074   2.863   1.905   3.844 -0.6798 -0.0737  0.0342
 4871SOL    HW126075   2.847   1.993   3.880  0.6261  0.3024 -0.3090
 4871SOL    HW226076   2.790   1.857   3.883 -0.8595  0.7809  0.7798
 4872SOL     OW26077   4.667   1.725   2.520 -0.1599  0.5372 -0.1096
 4872SOL    HW126078   0.009   1.668   2.484 -0.3111  0.1828  0.1767
 4872SOL    HW226079   4.702   1.762   2.601 -2.1429  0.7133  0.6618
 4873SOL     OW26080   0.113   2.314   1.299  0.6219 -0.4669  0.1444
 4873SOL    HW126081   0.089   2.406   1.311  0.9152 -0.4989  0.9927
 4873SOL    HW226082   0.035   2.269   1.265 -0.1694 -0.2815  1.6886
 4874SOL     OW26083   2.297   3.006   1.332  0.2883 -0.0818  0.3800
 4874SOL    HW126084   2.371   2.966   1.286 -0.1318  0.5963 -0.8912
 4874SOL    HW226085   2.320   2.982   1.421 -0.9790 -2.4253  0.0705
 4875SOL     OW26086   2.116   1.901   9.572 -0.5829  0.4104  0.9098
 4875SOL    HW126087   2.158   1.818   9.554 -0.7742  0.7546 -1.1233
 4875SOL    HW226088   2.174   1.967   9.533  2.6575 -2.0039  1.6582
 4876SOL     OW26089   4.205   1.753  16.748 -0.1086  0.0925  0.1304
 4876SOL    HW126090   4.247   1.769  16.664  0.4058 -2.3133 -0.0691
 4876SOL    HW226091   4.160   1.671  16.728 -0.8346  0.3976  0.4913
 4877SOL     OW26092   2.697   4.578   1.410  0.2736  0.4394 -0.1793
 4877SOL    HW126093   2.783   4.581   1.451  0.5327 -0.4238 -0.6752
 4877SOL    HW226094   2.635   4.593   1.482 -0.3466  2.6620 -1.1503
 4878SOL     OW26095   1.149   2.099   3.112 -0.1735  0.5575 -0.1887
 4878SOL    HW126096   1.116   2.140   3.032  1.2895  0.1082 -1.0158
 4878SOL    HW226097   1.062   2.068   3.138  0.2687  0.5714  1.2932
 4879SOL     OW26098   0.295   1.706   9.346  0.0136  0.0221  0.4410
 4879SOL    HW126099   0.282   1.796   9.376  0.0796  0.4753 -0.8959
 4879SOL    HW226100   0.366   1.715   9.282 -0.8365 -1.5070 -0.7300
 4880SOL     OW26101   2.063   3.604   7.615 -0.2865 -0.1340  0.4670
 4880SOL    HW126102   2.101   3.643   7.693  0.3181  0.9334 -0.3691
 4880SOL    HW226103   2.128   3.540   7.588  0.7583  2.0700 -2.2163
 4881SOL     OW26104   4.057   4.559   2.074 -0.1864  0.0146 -0.8872
 4881SOL    HW126105   4.144   4.517   2.076 -1.0856 -1.7533  0.7105
 4881SOL    HW226106   4.060   4.588   1.983 -2.6870 -0.4818 -1.0981
 4882SOL     OW26107   0.915   0.105   3.122  0.3094  0.0831 -0.8308
 4882SOL    HW126108   0.983   0.076   3.060 -0.0634 -0.6966 -0.8746
 4882SOL    HW226109   0.848   0.036   3.121 -0.2829  0.6442  1.2967
 4883SOL     OW26110   3.347   2.246  11.330  0.0736 -0.5479 -0.0918
 4883SOL    HW126111   3.410   2.184  11.368 -1.4456 -0.9630  1.7450
 4883SOL    HW226112   3.369   2.228  11.239 -1.1057  2.3934 -0.9413
 4884SOL     OW26113   0.223   3.682   6.659  0.3672 -0.4603 -0.1673
 4884SOL    HW126114   0.273   3.602   6.642 -1.6214 -1.7640  0.0533
 4884SOL    HW226115   0.268   3.753   6.614  1.1420 -1.7481 -1.4128
 4885SOL     OW26116   2.026   3.002   8.091 -0.7073 -0.3562  0.7926
 4885SOL    HW126117   2.097   2.941   8.115  0.7809  1.3747  0.7816
 4885SOL    HW226118   1.954   2.940   8.099  0.6985 -2.1431 -0.3634
 4886SOL     OW26119   2.511   4.066   7.178 -0.0799 -0.2987 -0.9283
 4886SOL    HW126120   2.427   4.023   7.161  0.2642 -1.7239  1.0559
 4886SOL    HW226121   2.499   4.134   7.112  0.6987 -0.2297 -0.9956
 4887SOL     OW26122   2.782   3.735   3.112  0.9552  0.1984 -0.4409
 4887SOL    HW126123   2.826   3.650   3.119  0.5334 -0.0206 -0.4158
 4887SOL    HW226124   2.817   3.770   3.194  0.0645 -0.8197  0.3841
 4888SOL     OW26125   1.202   0.910   0.398  0.4088 -0.6947  0.1273
 4888SOL    HW126126   1.208   0.829   0.450  1.4826 -0.9359 -0.3665
 4888SOL    HW226127   1.290   0.947   0.407  0.2443 -0.6608  1.7093
 4889SOL     OW26128   0.006   0.466  15.578 -0.5194  0.0066  0.5252
 4889SOL    HW126129   4.665   0.531  15.600  1.0042  1.0509  2.0356
 4889SOL    HW226130   0.086   0.516  15.567 -0.8069  0.0345 -1.3296
 4890SOL     OW26131   1.681   1.797   0.677 -0.6896  0.7805 -0.1459
 4890SOL    HW126132   1.689   1.892   0.680  0.1285  0.7864 -2.9688
 4890SOL    HW226133   1.592   1.806   0.642 -1.2354  1.6251  1.4327
 4891SOL     OW26134   0.059   0.079   7.867  0.4794  0.3528  0.0142
 4891SOL    HW126135   0.058   0.151   7.930  1.5228 -0.8524  1.4318
 4891SOL    HW226136   0.018   0.013   7.923  1.6022  0.7376  1.3137
 4892SOL     OW26137   2.607   2.294   7.574 -0.0723  0.2384  0.7486
 4892SOL    HW126138   2.667   2.367   7.584 -0.3733  0.4131  1.2493
 4892SOL    HW226139   2.655   2.228   7.624  0.0399 -0.8195 -0.7220
 4893SOL     OW26140   2.721   1.550   1.709 -0.1032  0.1937  0.2648
 4893SOL    HW126141   2.749   1.594   1.629 -3.3965  0.8627 -0.5277
 4893SOL    HW226142   2.736   1.460   1.681 -0.0935  0.8009 -1.7191
 4894SOL     OW26143   0.164   1.541   0.087 -0.2532  0.6087 -0.3522
 4894SOL    HW126144   0.153   1.534   0.182  1.6683 -0.5531 -0.2129
 4894SOL    HW226145   0.175   1.450   0.062  0.3668 -0.1395  2.5457
 4895SOL     OW26146   0.882   3.926   4.886  0.6408  0.9036 -0.7097
 4895SOL    HW126147   0.925   3.883   4.812 -2.3309 -0.7278 -1.5167
 4895SOL    HW226148   0.954   3.969   4.932  0.2690 -0.5808  1.2662
 4896SOL     OW26149   1.822   4.091   8.440 -0.5684  0.4113  0.8120
 4896SOL    HW126150   1.855   4.070   8.353  0.4494 -0.3056  1.3732
 4896SOL    HW226151   1.903   4.084   8.490 -1.0888  0.7651  1.6909
 4897SOL     OW26152   4.405   2.710   0.159  0.1994 -0.2268 -0.5198
 4897SOL    HW126153   4.440   2.649   0.224  0.1724  0.4138  0.0983
 4897SOL    HW226154   4.341   2.766   0.202  1.9509  0.6721  0.8928
 4898SOL     OW26155   2.661   3.998  13.648  0.1592  0.8792  0.0814
 4898SOL    HW126156   2.612   3.920  13.676 -1.8174  1.9529 -0.4110
 4898SOL    HW226157   2.733   3.984  13.711 -0.8715 -1.4738  0.7637
 4899SOL     OW26158   3.347   0.656   3.692 -0.3013  0.0084 -0.4789
 4899SOL    HW126159   3.342   0.563   3.668 -0.7524 -0.0804 -0.0402
 4899SOL    HW226160   3.400   0.667   3.771 -1.7146 -1.3615  0.6533
 4900SOL     OW26161   2.585   1.824   7.002  0.3495  0.3079 -0.4584
 4900SOL    HW126162   2.611   1.765   7.072  2.4051  2.2220  0.3677
 4900SOL    HW226163   2.657   1.836   6.941 -0.6551 -0.0182 -1.7264
 4901SOL     OW26164   2.695   0.969  11.643  0.1379  0.0292  0.3043
 4901SOL    HW126165   2.762   0.915  11.685  0.7387 -1.0266 -2.0234
 4901SOL    HW226166   2.748   1.029  11.590 -1.6690 -0.7626 -2.4162
 4902SOL     OW26167   4.135   4.587   5.717 -0.1321 -0.2040 -0.1286
 4902SOL    HW126168   4.181   4.609   5.636  0.5625 -0.5131  0.1824
 4902SOL    HW226169   4.044   4.592   5.688  0.2083 -1.2554 -1.4072
 4903SOL     OW26170   2.498   2.497   5.172  0.1709  0.2264  0.4894
 4903SOL    HW126171   2.507   2.580   5.125 -0.4697 -0.6520 -1.1827
 4903SOL    HW226172   2.581   2.455   5.150 -0.0353 -0.4747  1.0532
 4904SOL     OW26173   1.704   3.925   8.702 -0.0953 -0.5971 -0.2686
 4904SOL    HW126174   1.658   3.988   8.757  1.4596  1.4337 -1.3060
 4904SOL    HW226175   1.794   3.924   8.734 -0.5484 -3.0579  0.9842
 4905SOL     OW26176   0.446   0.838   6.551 -0.3400  0.1050  0.0594
 4905SOL    HW126177   0.371   0.778   6.558  0.5490 -1.0572 -0.3728
 4905SOL    HW226178   0.517   0.815   6.610  0.6123 -0.2601 -1.2310
 4906SOL     OW26179   1.662   2.208   8.770 -0.2222 -0.3550  0.0869
 4906SOL    HW126180   1.654   2.302   8.782 -1.2010 -0.3014 -0.9737
 4906SOL    HW226181   1.677   2.194   8.864 -2.8324 -0.9961  0.4144
 4907SOL     OW26182   4.697   3.529   1.753 -0.2642 -0.6784  0.1646
 4907SOL    HW126183   4.694   3.494   1.664 -0.2389  1.7468 -0.7918
 4907SOL    HW226184   0.060   3.527   1.787 -0.2464  2.2737  0.2435
 4908SOL     OW26185   2.523   2.398   3.245  0.2628 -0.1967  0.1126
 4908SOL    HW126186   2.436   2.423   3.214 -0.1824  0.3008  1.7581
 4908SOL    HW226187   2.531   2.443   3.330  0.7414 -0.5075  0.2329
 4909SOL     OW26188   2.138   4.682   4.875  0.0675  0.0392 -0.0897
 4909SOL    HW126189   2.121   4.599   4.829  0.4172 -0.5828  0.8971
 4909SOL    HW226190   2.056   0.002   4.893  0.7872  1.5885 -0.7750
 4910SOL     OW26191   0.509   0.569   7.361 -0.1170  0.2436 -0.2148
 4910SOL    HW126192   0.545   0.517   7.432  0.5350  2.3303  0.9942
 4910SOL    HW226193   0.421   0.532   7.362  0.4532 -1.0391  1.7095
 4911SOL     OW26194   0.069   0.846   4.917 -0.4500 -0.4883  0.7905
 4911SOL    HW126195   0.116   0.781   4.865 -0.5822  0.5964 -0.6879
 4911SOL    HW226196   4.718   0.861   4.862 -1.3035 -2.3421  1.4620
 4912SOL     OW26197   2.464   0.335   6.106  0.0428 -0.2760 -0.1775
 4912SOL    HW126198   2.425   0.365   6.188  1.6023  2.3001 -0.3940
 4912SOL    HW226199   2.556   0.358   6.118 -0.2333  1.4528 -1.4553
 4913SOL     OW26200   2.714   1.022   6.371  0.2808  0.4261  0.3944
 4913SOL    HW126201   2.729   0.928   6.359 -0.5343  0.3124  0.2761
 4913SOL    HW226202   2.721   1.060   6.284  3.8156 -0.3902  0.3341
 4914SOL     OW26203   4.515   0.348   8.097  0.2259  0.0956  0.3918
 4914SOL    HW126204   4.462   0.383   8.025 -0.6259 -0.6905  0.6280
 4914SOL    HW226205   4.487   0.405   8.168 -0.5305 -0.1357  0.2860
 4915SOL     OW26206   1.158   2.365   7.106 -0.4398  0.3835  0.2996
 4915SOL    HW126207   1.077   2.374   7.055 -0.1969  1.8683  0.1768
 4915SOL    HW226208   1.138   2.412   7.187 -0.7119  2.2021 -0.8110
 4916SOL     OW26209   3.380   3.086   3.116 -0.4466 -0.3005 -0.2615
 4916SOL    HW126210   3.422   3.005   3.146 -0.8658 -0.4451 -0.0735
 4916SOL    HW226211   3.409   3.100   3.025 -0.1623 -0.4718 -0.1986
 4917SOL     OW26212   1.439   3.618   9.547  0.2320  0.8948 -0.1873
 4917SOL    HW126213   1.500   3.659   9.485  0.2751  0.9038 -0.1387
 4917SOL    HW226214   1.349   3.637   9.521 -0.8231 -1.9758  1.4484
 4918SOL     OW26215   3.138   0.576   5.216  0.2265  0.1497  0.2381
 4918SOL    HW126216   3.204   0.556   5.150  0.7569 -2.0055  1.4231
 4918SOL    HW226217   3.164   0.508   5.278  0.5386  0.8710  0.9084
 4919SOL     OW26218   0.714   0.293   7.492 -0.0714  0.2290  0.0402
 4919SOL    HW126219   0.684   0.376   7.529  0.6738 -0.6875  2.6526
 4919SOL    HW226220   0.758   0.254   7.567  0.0860 -1.7245 -1.0806
 4920SOL     OW26221   0.055   0.685   0.176  0.2216 -0.0478 -0.3320
 4920SOL    HW126222   0.117   0.623   0.215 -1.8946 -1.5515  0.6575
 4920SOL    HW226223   0.121   0.734   0.126 -0.9253  1.8906  0.0816
 4921SOL     OW26224   1.184   4.145   8.308  0.1355  0.1550  0.6246
 4921SOL    HW126225   1.224   4.068   8.349 -1.7039 -0.3475  1.5027
 4921SOL    HW226226   1.171   4.112   8.218 -0.4814  0.1750  0.7050
 4922SOL     OW26227   2.704   3.758  13.840 -0.6849 -0.1023 -0.6369
 4922SOL    HW126228   2.762   3.834  13.842 -0.8723 -0.0102  1.2006
 4922SOL    HW226229   2.769   3.689  13.851 -1.7292 -1.0708 -0.5898
 4923SOL     OW26230   2.871   2.435   0.531 -0.5651 -0.2772 -0.1863
 4923SOL    HW126231   2.776   2.425   0.540 -0.6753 -0.7629 -1.8029
 4923SOL    HW226232   2.879   2.524   0.495 -1.6998 -0.2702 -0.4304
 4924SOL     OW26233   2.628   2.153   3.262 -0.0018  0.0983  0.3420
 4924SOL    HW126234   2.592   2.241   3.256 -0.0153 -0.0038 -0.9449
 4924SOL    HW226235   2.549   2.100   3.269  0.2001 -0.1381  0.8810
 4925SOL     OW26236   1.609   2.945   0.778  0.7119 -0.1687 -0.6489
 4925SOL    HW126237   1.665   3.015   0.810 -0.5617  0.4627  0.1550
 4925SOL    HW226238   1.661   2.871   0.809  0.3574  0.2527  0.9095
 4926SOL     OW26239   0.337   1.907  11.497  0.7245  0.4249  0.2570
 4926SOL    HW126240   0.268   1.861  11.545  2.0271 -0.4103  1.3362
 4926SOL    HW226241   0.279   1.970  11.454  0.2886 -1.1046 -1.4233
 4927SOL     OW26242   0.581   0.440   3.523 -0.2301 -0.2661 -0.2092
 4927SOL    HW126243   0.592   0.507   3.456 -1.4061 -0.8454 -0.9901
 4927SOL    HW226244   0.652   0.382   3.497 -1.3426 -2.1783  0.9909
 4928SOL     OW26245   2.077   1.033   3.773  0.2114  0.2553 -0.3583
 4928SOL    HW126246   2.027   0.952   3.768  1.4650 -0.4972 -0.6901
 4928SOL    HW226247   2.147   0.988   3.727 -1.2796 -1.2640 -1.1278
 4929SOL     OW26248   1.923   3.902   7.644  0.2429  0.0937  0.4551
 4929SOL    HW126249   1.995   3.859   7.691 -0.0152 -0.4343  0.3672
 4929SOL    HW226250   1.896   3.970   7.705 -0.2251  0.1706  0.1596
 4930SOL     OW26251   3.946   3.763  13.583  0.0894 -0.1702  0.0155
 4930SOL    HW126252   3.974   3.672  13.597  3.4289  0.6171 -1.3494
 4930SOL    HW226253   4.020   3.798  13.532 -1.6163  1.3647 -1.4110
 4931SOL     OW26254   1.105   0.766   8.572  0.4651  0.2523 -0.1777
 4931SOL    HW126255   1.062   0.681   8.585  1.0011 -0.0124 -0.1444
 4931SOL    HW226256   1.109   0.800   8.661  0.2773 -0.6148  0.1664
 4932SOL     OW26257   3.038   4.001   4.274  0.5132  0.5533  0.8271
 4932SOL    HW126258   3.023   4.039   4.187  1.2204  0.3913  0.6372
 4932SOL    HW226259   3.112   3.944   4.257 -0.5125  0.0763 -2.0613
 4933SOL     OW26260   1.990   4.262  15.475 -0.5111 -0.5682 -0.5858
 4933SOL    HW126261   2.058   4.307  15.524 -0.1763 -0.1130 -1.4768
 4933SOL    HW226262   1.982   4.309  15.391 -0.8122  2.0465  0.9101
 4934SOL     OW26263   0.032   2.555  14.171  0.5170 -0.2228  0.1989
 4934SOL    HW126264   0.051   2.648  14.179  1.8189 -0.4251 -0.5590
 4934SOL    HW226265   0.044   2.547  14.076  0.3869  0.2502  0.1419
 4935SOL     OW26266   1.005   0.703  12.647 -0.0305  0.4198 -0.2361
 4935SOL    HW126267   1.031   0.642  12.578  0.7562 -0.4148  0.7903
 4935SOL    HW226268   0.999   0.652  12.728  0.9742 -0.4486 -0.7107
 4936SOL     OW26269   3.076   0.073   7.355  0.0898  0.2491  0.1197
 4936SOL    HW126270   3.152   0.128   7.336 -0.3391  1.7266  2.6631
 4936SOL    HW226271   3.100   4.709   7.334 -0.3254  0.6430 -2.0693
 4937SOL     OW26272   0.195   4.595   2.022  0.5358  0.4727  0.1169
 4937SOL    HW126273   0.108   4.633   2.005  0.5431  1.3010  1.8588
 4937SOL    HW226274   0.243   4.656   2.078  1.1222 -0.2224  0.3669
 4938SOL     OW26275   2.132   3.316  11.517 -0.1359 -0.0549  0.0194
 4938SOL    HW126276   2.209   3.270  11.485 -1.0830  0.3693 -2.8591
 4938SOL    HW226277   2.062   3.287  11.458 -0.5363 -0.0911  0.5052
 4939SOL     OW26278   4.261   0.910   1.459 -0.5807 -0.4181 -0.1185
 4939SOL    HW126279   4.354   0.933   1.457 -0.2462 -1.4457  2.5120
 4939SOL    HW226280   4.257   0.866   1.374  0.9992  1.2817 -1.0677
 4940SOL     OW26281   1.774   4.379   9.781 -0.3991 -0.4945  0.5194
 4940SOL    HW126282   1.848   4.323   9.807 -0.2894 -0.4360  0.3347
 4940SOL    HW226283   1.806   4.467   9.803 -0.6044 -0.3085  0.0805
 4941SOL     OW26284   4.204   3.185   5.713 -0.4342  0.5006  0.3044
 4941SOL    HW126285   4.244   3.228   5.637  0.1267  1.2499  1.0307
 4941SOL    HW226286   4.133   3.244   5.737 -1.6917 -0.1922 -1.6914
 4942SOL     OW26287   0.235   3.995   5.159 -0.0126 -0.0909  0.3614
 4942SOL    HW126288   0.148   3.992   5.200 -0.3267  0.3955 -0.2734
 4942SOL    HW226289   0.220   4.082   5.123 -1.9572 -0.6885 -0.2940
 4943SOL     OW26290   1.217   4.376   6.339 -0.5894 -0.0576  0.5400
 4943SOL    HW126291   1.174   4.334   6.413 -1.3462 -2.5847 -1.3618
 4943SOL    HW226292   1.279   4.306   6.317  0.9847  0.8435  2.0642
 4944SOL     OW26293   2.130   1.583  13.499  0.3368  0.0713  0.1213
 4944SOL    HW126294   2.051   1.630  13.472  1.3990  0.6303 -2.0257
 4944SOL    HW226295   2.190   1.657  13.508 -0.7528  1.0319 -0.5626
 4945SOL     OW26296   3.917   1.667   7.170 -0.6622 -0.1969  0.6977
 4945SOL    HW126297   3.892   1.685   7.260 -2.2930 -2.9902  0.8210
 4945SOL    HW226298   3.868   1.587   7.153 -0.5717 -0.3277  1.0651
 4946SOL     OW26299   0.973   0.512   4.200  0.3282  0.2254  0.1577
 4946SOL    HW126300   0.906   0.444   4.194  0.3337  0.1699  0.7260
 4946SOL    HW226301   1.006   0.504   4.111  0.7445 -0.8847  0.4147
 4947SOL     OW26302   0.470   0.334   2.490 -0.2581 -0.6852 -0.1843
 4947SOL    HW126303   0.557   0.345   2.453  0.0509  1.2010  1.1478
 4947SOL    HW226304   0.493   0.380   2.570 -0.3364  0.1405 -0.6360
 4948SOL     OW26305   4.084   4.359   3.749  0.3952 -0.3363 -0.3051
 4948SOL    HW126306   4.081   4.363   3.654 -3.3021 -2.5018 -0.2895
 4948SOL    HW226307   4.131   4.438   3.775  0.5112 -0.2707 -0.7214
 4949SOL     OW26308   0.546   2.730   2.887 -0.4184  0.4695  0.6144
 4949SOL    HW126309   0.551   2.749   2.980  0.4264  0.6426  0.5325
 4949SOL    HW226310   0.605   2.656   2.872 -1.3943 -0.6301  2.1966
 4950SOL     OW26311   3.811   3.902  14.976  0.5186 -0.4853 -0.3974
 4950SOL    HW126312   3.744   3.966  14.951  1.4767  0.8295  0.3819
 4950SOL    HW226313   3.747   3.834  14.996  0.6602 -0.8504 -1.2094
 4951SOL     OW26314   4.353   4.050   8.353 -0.2041  0.2543  0.4599
 4951SOL    HW126315   4.405   4.082   8.279 -1.3816  0.2288 -0.3681
 4951SOL    HW226316   4.300   4.127   8.376 -0.5715  0.1262  0.0319
 4952SOL     OW26317   2.037   1.581  15.926  0.1281 -0.0772  0.3502
 4952SOL    HW126318   2.067   1.496  15.959 -0.3310 -0.4792 -0.2724
 4952SOL    HW226319   1.994   1.547  15.848 -0.6487  0.7267  0.4369
 4953SOL     OW26320   0.503   2.174   2.621 -0.0673  0.2868 -0.2279
 4953SOL    HW126321   0.451   2.125   2.557  1.2014  0.3110 -1.2574
 4953SOL    HW226322   0.432   2.210   2.674 -0.5120 -0.3956 -0.3455
 4954SOL     OW26323   3.105   0.782  10.434 -0.6198  0.2629 -0.3668
 4954SOL    HW126324   3.152   0.805  10.354 -1.1081  0.0448 -0.7177
 4954SOL    HW226325   3.175   0.777  10.499 -1.3449 -2.9978  0.2058
 4955SOL     OW26326   3.207   0.818  13.920 -0.6013 -0.7879 -0.3676
 4955SOL    HW126327   3.122   0.861  13.929 -1.0015 -1.1256 -2.5272
 4955SOL    HW226328   3.257   0.878  13.864 -0.4858  2.3100  3.0230
 4956SOL     OW26329   3.392   1.899   5.182 -0.5656  0.3057 -0.5422
 4956SOL    HW126330   3.368   1.817   5.227  1.1676  0.7547  1.2093
 4956SOL    HW226331   3.488   1.888   5.179 -0.3813  1.6913  0.1053
 4957SOL     OW26332   3.314   1.648  14.953 -0.0647  0.3198  0.2097
 4957SOL    HW126333   3.359   1.694  15.024 -0.9847  1.4736  0.0583
 4957SOL    HW226334   3.377   1.581  14.927 -1.0538 -1.1716  1.7181
 4958SOL     OW26335   2.841   0.901  13.674  0.4308  0.0906  0.1200
 4958SOL    HW126336   2.911   0.953  13.634  0.7112 -0.0147  0.4663
 4958SOL    HW226337   2.809   0.865  13.592  1.1685  2.6177 -1.2943
 4959SOL     OW26338   0.369   2.930   5.371  0.0496  0.3733  0.0317
 4959SOL    HW126339   0.382   3.013   5.324 -2.1474  1.2709  1.0174
 4959SOL    HW226340   0.402   2.957   5.457  1.2275 -1.9697  0.2960
 4960SOL     OW26341   1.912   2.148   6.980 -0.1038 -0.3843  0.7613
 4960SOL    HW126342   1.857   2.224   6.966 -1.4884 -1.3178  1.2124
 4960SOL    HW226343   1.975   2.182   7.044 -0.2506 -0.7874  1.1199
 4961SOL     OW26344   3.016   3.388   9.328 -0.3534  0.2412  0.0975
 4961SOL    HW126345   3.016   3.352   9.239  0.4895 -1.9195  0.9798
 4961SOL    HW226346   2.938   3.444   9.333 -0.1101  0.5684  0.1766
 4962SOL     OW26347   4.315   1.078  15.401  0.0754 -0.3613 -0.2167
 4962SOL    HW126348   4.324   0.983  15.408  1.2613 -0.3113 -1.1356
 4962SOL    HW226349   4.392   1.102  15.350  0.6587  0.1419  0.8831
 4963SOL     OW26350   1.568   4.124   5.618 -0.4979  0.3033 -0.1418
 4963SOL    HW126351   1.648   4.071   5.625 -0.6620  0.2644  1.3220
 4963SOL    HW226352   1.593   4.192   5.680 -0.8428  1.6570 -1.4638
 4964SOL     OW26353   0.079   4.388  15.835  0.2865  0.3847  0.0776
 4964SOL    HW126354   0.121   4.345  15.909  1.2483 -1.3891 -1.4989
 4964SOL    HW226355   0.039   4.312  15.793 -0.6741  0.3531  1.0588
 4965SOL     OW26356   4.609   0.542   4.244  0.0964  0.1247  0.6653
 4965SOL    HW126357   4.596   0.500   4.159  0.8932  0.0589  0.5770
 4965SOL    HW226358   4.612   0.465   4.301  0.7037  0.9406  1.7288
 4966SOL     OW26359   0.464   0.941   6.301  0.6239 -0.1075 -0.1329
 4966SOL    HW126360   0.470   0.903   6.389 -0.1483 -2.7430 -1.2118
 4966SOL    HW226361   0.523   1.013   6.324 -0.0003  0.4431 -0.2594
 4967SOL     OW26362   2.289   2.747   2.341 -0.5855 -0.7347  0.0399
 4967SOL    HW126363   2.296   2.834   2.380 -0.1102 -1.1073  0.7620
 4967SOL    HW226364   2.366   2.711   2.384 -0.1208 -1.5869 -1.5083
 4968SOL     OW26365   4.631   4.615   2.334  0.4958  0.2141 -0.0510
 4968SOL    HW126366   4.550   4.666   2.324 -0.0127 -0.4852  0.4383
 4968SOL    HW226367   4.685   4.694   2.327  1.7871 -0.8762 -2.1214
 4969SOL     OW26368   0.313   1.033   7.460 -0.5809  0.2601 -0.5566
 4969SOL    HW126369   0.223   1.064   7.465 -1.3359 -2.0460  0.0698
 4969SOL    HW226370   0.315   0.970   7.533 -1.0702  0.1773 -0.6152
 4970SOL     OW26371   0.311   0.810  13.101 -0.3048  0.0156 -0.0412
 4970SOL    HW126372   0.375   0.751  13.062  1.8679  2.7402 -0.6081
 4970SOL    HW226373   0.229   0.765  13.083  0.1608 -0.7058 -0.3645
 4971SOL     OW26374   3.683   0.921   0.371  0.5074  0.0979 -0.3095
 4971SOL    HW126375   3.653   1.001   0.327  0.0645 -0.2489 -0.6416
 4971SOL    HW226376   3.725   0.868   0.304  1.3382 -0.0017  0.2872
 4972SOL     OW26377   0.701   3.956  17.048  0.1068  0.4146  0.2366
 4972SOL    HW126378   0.707   3.904  16.968  2.1421  2.5929 -0.9827
 4972SOL    HW226379   0.669   3.893  17.113  0.8439 -0.6456 -0.4220
 4973SOL     OW26380   0.511   2.980   8.578 -0.1761 -0.2104  0.0858
 4973SOL    HW126381   0.468   2.900   8.548 -3.7884  2.0466 -0.7279
 4973SOL    HW226382   0.444   3.014   8.637  0.2292 -0.0521  0.4621
 4974SOL     OW26383   3.177   0.349   2.079  0.4458  0.1836  0.2989
 4974SOL    HW126384   3.098   0.403   2.086  0.2459 -0.1660  0.7139
 4974SOL    HW226385   3.240   0.389   2.138  0.4658  1.5073 -0.6187
 4975SOL     OW26386   0.322   4.492   7.764  0.1140  0.2952 -0.3133
 4975SOL    HW126387   0.377   4.442   7.825 -0.7100 -1.5015 -1.0615
 4975SOL    HW226388   0.336   4.580   7.800  0.2325 -0.1142  0.6292
 4976SOL     OW26389   2.078   3.127   2.488  0.5912 -0.1702  0.7347
 4976SOL    HW126390   2.108   3.104   2.576  1.7876 -0.7727  0.1637
 4976SOL    HW226391   2.003   3.072   2.464  0.4492  0.3000  0.0811
 4977SOL     OW26392   3.914   0.294   3.340 -0.3526  0.8385 -0.1289
 4977SOL    HW126393   3.883   0.232   3.406  0.9885  0.2685 -0.0319
 4977SOL    HW226394   3.989   0.339   3.376  0.5379  0.6481 -1.7267
 4978SOL     OW26395   4.594   0.106   1.614  0.0743 -0.2495 -0.0987
 4978SOL    HW126396   4.607   0.201   1.604  2.0774 -0.3352  1.8487
 4978SOL    HW226397   4.540   0.116   1.692  0.0723 -2.6756  0.1841
 4979SOL     OW26398   2.748   1.170   7.314  0.1941 -0.0170 -0.0754
 4979SOL    HW126399   2.786   1.200   7.231 -1.0351 -0.6081 -0.8354
 4979SOL    HW226400   2.808   1.217   7.373  0.4722  1.6672 -1.6883
 4980SOL     OW26401   0.037   4.532   4.531  0.1026  0.2854 -0.2933
 4980SOL    HW126402   0.110   4.572   4.484  0.7675 -0.6805 -0.0910
 4980SOL    HW226403   4.705   4.607   4.542 -1.8417 -0.9740 -2.0711
 4981SOL     OW26404   1.168   0.574   8.829 -0.0674 -0.5127 -0.8156
 4981SOL    HW126405   1.193   0.553   8.919  1.0275 -2.0727 -1.4979
 4981SOL    HW226406   1.252   0.585   8.786  0.1962  1.4404  0.1911
 4982SOL     OW26407   2.625   1.642   6.002 -0.0661 -0.1392 -0.6774
 4982SOL    HW126408   2.554   1.634   6.066 -0.3174 -2.1642 -1.1995
 4982SOL    HW226409   2.647   1.733   6.020  1.4396 -1.0223  2.0625
 4983SOL     OW26410   3.567   3.433   7.942 -0.2807  0.0093 -0.0783
 4983SOL    HW126411   3.592   3.521   7.972  0.8952 -0.9954  1.8495
 4983SOL    HW226412   3.647   3.401   7.899  0.6126  1.0640  0.7973
 4984SOL     OW26413   2.430   4.597   6.441 -0.2319 -0.7416 -0.1416
 4984SOL    HW126414   2.474   4.678   6.419  2.4664 -2.5157 -1.3223
 4984SOL    HW226415   2.339   4.593   6.412 -0.3109 -1.4323  0.1824
 4985SOL     OW26416   3.351   2.704   2.901  0.3267  0.5599  0.0934
 4985SOL    HW126417   3.285   2.773   2.899 -1.6186 -1.2299  1.9139
 4985SOL    HW226418   3.312   2.640   2.841  1.0245  0.2430 -0.0209
 4986SOL     OW26419   1.664   2.709   7.186  0.0043  0.2723 -0.4236
 4986SOL    HW126420   1.666   2.616   7.206 -1.1558  0.8406  2.3100
 4986SOL    HW226421   1.687   2.745   7.272  0.4202 -0.8798 -0.0533
 4987SOL     OW26422   1.958   1.964   5.752 -0.2259 -0.1318  0.3628
 4987SOL    HW126423   1.895   1.938   5.820  0.0109 -1.0131  0.2510
 4987SOL    HW226424   1.965   2.053   5.784 -0.1276 -0.5156  1.4009
 4988SOL     OW26425   0.988   0.146   2.551 -0.3364  0.2446 -0.5206
 4988SOL    HW126426   0.908   0.097   2.533  0.2411 -1.1816  0.7848
 4988SOL    HW226427   1.035   0.077   2.597  0.5394  0.7490 -0.6471
 4989SOL     OW26428   0.578   2.551   1.854 -0.0059 -0.0058 -0.3550
 4989SOL    HW126429   0.578   2.469   1.804 -1.5852  0.0154 -0.3750
 4989SOL    HW226430   0.532   2.527   1.934  2.2718 -2.7779  0.1410
 4990SOL     OW26431   0.045   1.959   2.361  0.1894  0.0600 -0.3834
 4990SOL    HW126432   0.021   1.883   2.413  1.1566 -1.0214 -1.5209
 4990SOL    HW226433   4.686   1.996   2.336 -0.9755 -0.3664  2.9269
 4991SOL     OW26434   4.186   0.342   8.895  0.2250  0.2905  0.0475
 4991SOL    HW126435   4.181   0.391   8.977 -0.4375  1.5172 -0.7234
 4991SOL    HW226436   4.205   0.253   8.925 -1.3660  0.6372  2.0633
 4992SOL     OW26437   4.207   0.826  15.103  0.3566  0.3194 -0.3092
 4992SOL    HW126438   4.133   0.815  15.162  1.6423  1.4631  1.5044
 4992SOL    HW226439   4.277   0.819  15.168 -0.3070 -0.0808  0.3508
 4993SOL     OW26440   3.925   0.043   5.219 -0.0003  0.4714 -0.0021
 4993SOL    HW126441   3.959   4.680   5.209  0.6573  0.3971  3.1499
 4993SOL    HW226442   3.997   0.084   5.266 -0.1769 -0.6732  1.2388
 4994SOL     OW26443   3.132   0.179   9.713  0.0739 -0.1645 -0.0540
 4994SOL    HW126444   3.140   0.112   9.646 -2.4574  0.0569 -0.5621
 4994SOL    HW226445   3.207   0.159   9.769 -0.3489  1.2164  0.9989
 4995SOL     OW26446   1.403   3.705   6.297  0.2900 -0.3604  0.4295
 4995SOL    HW126447   1.344   3.775   6.324 -0.9313 -2.0481  2.1303
 4995SOL    HW226448   1.479   3.759   6.274  0.4436 -0.9837 -0.5231
 4996SOL     OW26449   4.009   2.571   5.145 -0.8683  0.5766  0.3339
 4996SOL    HW126450   4.070   2.631   5.102 -0.3857  0.0453  0.2662
 4996SOL    HW226451   3.933   2.623   5.171  0.7364  2.2264  1.6955
 4997SOL     OW26452   4.508   1.388  17.027 -0.1756 -0.4085  0.1101
 4997SOL    HW126453   4.522   1.445  16.951 -0.8012  0.0780  0.3599
 4997SOL    HW226454   4.502   1.300  16.990  2.0491 -1.4047  2.1177
 4998SOL     OW26455   0.281   4.058   5.774  0.5626 -1.0195 -0.2561
 4998SOL    HW126456   0.222   4.047   5.848  0.5997  0.7971  0.0364
 4998SOL    HW226457   0.247   4.140   5.739  0.4442 -1.1414 -0.4259
 4999SOL     OW26458   4.389   3.776  15.487 -0.3977  0.4978 -0.1117
 4999SOL    HW126459   4.329   3.710  15.453 -1.7504  2.2992 -1.2267
 4999SOL    HW226460   4.449   3.790  15.414  1.0126 -1.2322  0.7197
 5000SOL     OW26461   1.496   1.986   1.243  0.0320 -0.1777 -0.2525
 5000SOL    HW126462   1.408   1.963   1.213 -0.7668  0.3122  1.6777
 5000SOL    HW226463   1.505   2.068   1.195  0.5227  0.1780  0.4289
 5001SOL     OW26464   3.318   4.726  13.012  0.3586  0.1853  0.0967
 5001SOL    HW126465   3.405   4.717  13.051  0.5694 -1.4414 -0.7284
 5001SOL    HW226466   3.333   0.080  12.963  0.6605 -0.4725 -0.8814
 5002SOL     OW26467   3.344   2.051   7.625  0.0329  0.0046 -0.1853
 5002SOL    HW126468   3.324   2.144   7.626 -2.5800 -0.5601 -0.1195
 5002SOL    HW226469   3.265   2.021   7.670  0.0159 -0.7169 -0.7015
 5003SOL     OW26470   1.539   0.244   8.282  0.7352 -0.2752 -0.7584
 5003SOL    HW126471   1.484   0.189   8.225 -1.6459 -0.6729  1.8822
 5003SOL    HW226472   1.480   0.278   8.349 -0.0628 -2.2231 -0.4638
 5004SOL     OW26473   4.489   3.856   4.484 -0.0887  0.2363 -0.5583
 5004SOL    HW126474   4.522   3.791   4.423 -2.0679 -1.9457  0.6872
 5004SOL    HW226475   4.568   3.902   4.511 -0.7939  0.4760  1.0741
 5005SOL     OW26476   3.552   2.485  17.572  0.1050 -0.1361 -0.2037
 5005SOL    HW126477   3.583   2.410  17.520 -0.1306  0.4355 -1.1756
 5005SOL    HW226478   3.611   2.483  17.647 -2.0675 -1.4551  1.4501
 5006SOL     OW26479   2.437   1.889  16.459 -0.8616  0.0702 -0.7299
 5006SOL    HW126480   2.384   1.860  16.533  1.8844  1.3608  1.7120
 5006SOL    HW226481   2.515   1.919  16.505 -1.7675 -1.0711  1.5574
 5007SOL     OW26482   1.883   1.321  15.896 -0.2060  0.2182  0.1122
 5007SOL    HW126483   1.870   1.365  15.811 -1.0466  0.3091  0.2868
 5007SOL    HW226484   1.913   1.231  15.884 -0.3874  0.3653 -1.5505
 5008SOL     OW26485   3.839   0.204   0.752  0.0702 -0.0390 -0.5639
 5008SOL    HW126486   3.763   0.254   0.782  0.8338  0.1619  1.0141
 5008SOL    HW226487   3.907   0.235   0.811 -0.1573  1.0820 -0.8912
 5009SOL     OW26488   1.327   3.614  11.465  0.6159 -0.1025  0.3407
 5009SOL    HW126489   1.243   3.600  11.510  0.2880 -1.3891 -0.6973
 5009SOL    HW226490   1.320   3.708  11.448 -0.0157 -0.2190 -0.0608
 5010SOL     OW26491   4.232   0.095   1.653  0.0360  0.1746 -0.0273
 5010SOL    HW126492   4.183   0.141   1.585 -0.8056 -0.4549  0.1430
 5010SOL    HW226493   4.310   0.065   1.607  0.9866  0.1834  1.5700
 5011SOL     OW26494   0.283   0.436   7.412  0.4143  0.7810 -0.0571
 5011SOL    HW126495   0.296   0.455   7.505  1.8276  0.8134 -0.2484
 5011SOL    HW226496   0.293   0.341   7.408 -0.5550  0.5764  2.6183
 5012SOL     OW26497   3.963   1.313  10.564  0.2708  0.1618 -0.0015
 5012SOL    HW126498   3.967   1.393  10.617  0.8699  1.7282 -2.4047
 5012SOL    HW226499   3.993   1.246  10.625  0.9550  1.4963  1.1055
 5013SOL     OW26500   1.398   0.363   6.373 -1.0408  0.0152  0.0866
 5013SOL    HW126501   1.379   0.450   6.338 -1.1333  0.0349  0.1852
 5013SOL    HW226502   1.430   0.401   6.455 -1.3358  1.0389 -0.2775
 5014SOL     OW26503   3.405   0.119   5.383  0.3328  0.1740  0.2233
 5014SOL    HW126504   3.487   0.113   5.335 -1.3873  0.7712 -2.8266
 5014SOL    HW226505   3.394   0.032   5.420  0.1708  0.4599  0.8431
 5015SOL     OW26506   0.629   3.843   0.825 -0.1557 -0.2016 -0.7832
 5015SOL    HW126507   0.642   3.918   0.884  0.0964 -0.8958  0.0349
 5015SOL    HW226508   0.537   3.857   0.802 -0.1162 -0.8824 -1.3426
 5016SOL     OW26509   1.707   1.592  14.842  0.1055  0.3447 -0.1228
 5016SOL    HW126510   1.691   1.668  14.897 -1.9373 -1.1420  1.3286
 5016SOL    HW226511   1.681   1.631  14.759  0.0560 -0.6923 -0.6001
 5017SOL     OW26512   3.776   1.872   2.108 -0.0040 -0.6334  0.5049
 5017SOL    HW126513   3.824   1.941   2.153  0.3373 -0.2608 -0.4148
 5017SOL    HW226514   3.684   1.881   2.132 -0.1677 -0.0423 -0.3382
 5018SOL     OW26515   3.845   2.985   8.862 -0.0790 -0.2646 -0.0500
 5018SOL    HW126516   3.760   3.024   8.838 -0.3948 -1.3098 -0.6387
 5018SOL    HW226517   3.898   3.050   8.817  2.0153 -2.9188 -1.4424
 5019SOL     OW26518   2.131   1.948   5.088 -0.0955  0.4689 -0.1948
 5019SOL    HW126519   2.181   1.940   5.170 -2.6381 -0.3974  1.2534
 5019SOL    HW226520   2.060   1.890   5.114  0.2173  0.5405  0.8554
 5020SOL     OW26521   0.288   3.513   8.630  0.0594 -0.0865 -0.1865
 5020SOL    HW126522   0.234   3.591   8.618  0.5323  0.6885  2.8647
 5020SOL    HW226523   0.375   3.552   8.623  0.8107 -1.8370 -0.5817
 5021SOL     OW26524   2.887   4.261   4.163  0.1927  0.1521  0.1590
 5021SOL    HW126525   2.943   4.233   4.235  1.1239  0.4828 -0.4344
 5021SOL    HW226526   2.837   4.333   4.202  0.1492  0.6314 -0.7985
 5022SOL     OW26527   1.574   4.062   6.075 -0.5130 -0.0894 -0.0228
 5022SOL    HW126528   1.631   4.138   6.070 -1.7839  0.8465 -0.3678
 5022SOL    HW226529   1.524   4.067   5.994  0.5742  1.9029 -0.5519
 5023SOL     OW26530   2.558   4.405   6.557 -0.3842 -0.0438 -0.9135
 5023SOL    HW126531   2.488   4.419   6.621  1.5885 -0.4200  1.3248
 5023SOL    HW226532   2.525   4.457   6.484  0.7662 -0.5230 -1.7667
 5024SOL     OW26533   1.019   3.068  16.035 -0.5435 -0.4106 -0.4923
 5024SOL    HW126534   1.016   3.021  15.952  3.1326  0.8473 -1.3349
 5024SOL    HW226535   1.031   3.004  16.106 -1.2634  0.2625  0.2385
 5025SOL     OW26536   1.744   3.608  12.938 -0.2068 -0.2714  0.3063
 5025SOL    HW126537   1.717   3.609  13.029 -1.1529 -1.5300  0.0513
 5025SOL    HW226538   1.729   3.516  12.913 -1.0990  0.0722 -0.4189
 5026SOL     OW26539   2.260   3.665   8.364  0.4040  0.6561  0.1434
 5026SOL    HW126540   2.277   3.636   8.453 -2.0339 -0.9392  0.0754
 5026SOL    HW226541   2.345   3.644   8.324  0.3986  2.4137 -0.8172
 5027SOL     OW26542   0.768   4.686   6.726 -0.1558  0.1898  1.0218
 5027SOL    HW126543   0.698   4.715   6.668 -0.5277 -0.5527  1.0999
 5027SOL    HW226544   0.799   0.036   6.775 -0.2390  1.5754 -1.1153
 5028SOL     OW26545   3.914   2.563  14.775  0.4950 -0.2180 -0.2297
 5028SOL    HW126546   3.842   2.611  14.817 -0.6633 -0.7962 -1.5627
 5028SOL    HW226547   3.871   2.479  14.758  2.8799 -0.8730 -2.9645
 5029SOL     OW26548   4.265   3.559   5.429  0.1941 -0.5033 -0.3720
 5029SOL    HW126549   4.334   3.559   5.364  0.2461  0.5065 -0.3189
 5029SOL    HW226550   4.187   3.548   5.375 -1.0672  0.2123  1.3121
 5030SOL     OW26551   2.097   1.033  10.833  0.0935 -0.1992 -0.2730
 5030SOL    HW126552   2.032   1.101  10.814 -1.3804 -1.7138 -0.5502
 5030SOL    HW226553   2.142   1.023  10.749  0.3485  3.0967 -0.5262
 5031SOL     OW26554   3.060   0.085  13.639  0.8421 -0.2229  0.0647
 5031SOL    HW126555   2.966   0.068  13.631  1.0742 -2.1279  1.5237
 5031SOL    HW226556   3.096   0.092  13.550 -0.4855 -0.3554 -0.4823
 5032SOL     OW26557   3.382   1.275   3.291  0.6684  0.0169 -0.1028
 5032SOL    HW126558   3.325   1.229   3.353  1.6239  0.1375  0.8749
 5032SOL    HW226559   3.332   1.287   3.211 -1.2564 -2.4515  0.7141
 5033SOL     OW26560   3.618   3.567   5.894  0.1345  0.1893  0.1754
 5033SOL    HW126561   3.584   3.510   5.826 -0.8048  0.6442  0.2674
 5033SOL    HW226562   3.542   3.587   5.948 -0.5036  0.8496 -0.9657
 5034SOL     OW26563   4.392   4.512  17.065 -0.5478  0.5113  0.0041
 5034SOL    HW126564   4.451   4.545  17.132  1.1444  0.3876 -1.4384
 5034SOL    HW226565   4.332   4.459  17.118  0.8214 -0.8716  0.1713
 5035SOL     OW26566   3.344   2.650   9.941  0.9514  0.8801 -0.2613
 5035SOL    HW126567   3.417   2.598   9.907  0.1157  0.5370 -1.5522
 5035SOL    HW226568   3.352   2.735   9.898  0.6840  0.6985 -0.6721
 5036SOL     OW26569   0.121   1.237  11.744  0.1594  0.3329  0.5507
 5036SOL    HW126570   0.179   1.166  11.770  0.3090  0.3416  0.2380
 5036SOL    HW226571   0.075   1.250  11.828  0.2169 -1.8089  0.8967
 5037SOL     OW26572   1.981   2.177   8.935 -0.0078  0.1923 -0.0731
 5037SOL    HW126573   1.954   2.190   9.026  0.0655 -0.1691  0.0013
 5037SOL    HW226574   2.062   2.126   8.940 -0.3049 -0.7477 -4.8058
 5038SOL     OW26575   3.043   1.807   6.642  0.8893  0.2939  1.2620
 5038SOL    HW126576   2.990   1.823   6.565  0.9749 -0.6399  1.0101
 5038SOL    HW226577   2.979   1.755   6.690  0.7598 -0.8807 -0.1970
 5039SOL     OW26578   2.365   4.184   3.239  0.9550  0.4075  0.1444
 5039SOL    HW126579   2.380   4.160   3.147  0.6069 -0.6897  0.3787
 5039SOL    HW226580   2.292   4.246   3.229  0.5331  0.2885  2.4646
 5040SOL     OW26581   3.624   0.423   7.707  0.6072  0.0820  0.1421
 5040SOL    HW126582   3.573   0.504   7.706  0.6363  0.1689  3.5732
 5040SOL    HW226583   3.706   0.454   7.745 -0.7516  1.7094  1.8136
 5041SOL     OW26584   4.563   0.895   5.304  0.1447 -0.1329 -0.1892
 5041SOL    HW126585   4.595   0.889   5.215 -0.1519 -0.0463 -0.3013
 5041SOL    HW226586   4.641   0.926   5.350 -0.2186  1.0970 -0.3944
 5042SOL     OW26587   3.231   3.847   2.126  0.0979 -0.3223 -0.3347
 5042SOL    HW126588   3.249   3.815   2.215  0.6355  0.4002 -0.1869
 5042SOL    HW226589   3.153   3.795   2.106  0.8756 -1.0000 -1.6115
 5043SOL     OW26590   0.649   2.190   3.935  0.2409  0.8470 -0.2519
 5043SOL    HW126591   0.695   2.272   3.949  1.1844  0.1600  0.6183
 5043SOL    HW226592   0.653   2.152   4.023 -0.5065  0.8308 -0.2244
 5044SOL     OW26593   3.278   0.983   7.876 -0.4750 -0.3916  0.1833
 5044SOL    HW126594   3.340   0.912   7.891 -0.7082 -0.5575  0.3660
 5044SOL    HW226595   3.246   0.941   7.796 -2.2451  0.2500  0.5597
 5045SOL     OW26596   0.744   2.253   2.489  0.7127 -0.2015  0.1550
 5045SOL    HW126597   0.715   2.344   2.476  0.0864 -0.1187  2.2059
 5045SOL    HW226598   0.670   2.226   2.543 -0.6124  0.4559 -1.3223
 5046SOL     OW26599   3.057   0.471   6.034  0.1495 -0.0553 -0.2204
 5046SOL    HW126600   3.062   0.565   6.013  0.6279  0.0905  0.5829
 5046SOL    HW226601   3.130   0.453   6.092  1.3874 -1.1788 -2.1343
 5047SOL     OW26602   4.086   3.696   9.209 -0.2888 -0.0236 -0.1300
 5047SOL    HW126603   4.022   3.706   9.280 -1.7996 -3.4800 -1.0141
 5047SOL    HW226604   4.107   3.784   9.178 -1.6719  0.3410 -0.0200
 5048SOL     OW26605   2.158   2.059  15.923 -0.1704  0.3800  0.4027
 5048SOL    HW126606   2.138   2.035  16.013 -2.4910  0.7707 -0.0106
 5048SOL    HW226607   2.123   2.148  15.915  1.1970  0.6470 -2.7249
 5049SOL     OW26608   2.854   3.089   0.606 -0.5949  0.3131  0.0885
 5049SOL    HW126609   2.843   2.995   0.592 -0.7726  0.0890  1.8150
 5049SOL    HW226610   2.820   3.101   0.695  0.2012 -3.0835  0.8340
 5050SOL     OW26611   0.859   2.411   7.021 -0.4222  0.7401  1.1989
 5050SOL    HW126612   0.851   2.316   7.031 -1.2456  0.7436  0.6089
 5050SOL    HW226613   0.773   2.444   7.049 -0.3227  1.6859  0.3683
 5051SOL     OW26614   4.503   1.682  12.208 -0.5035 -0.1014 -0.2788
 5051SOL    HW126615   4.569   1.651  12.271 -0.0300 -0.2262 -0.8337
 5051SOL    HW226616   4.432   1.618  12.209  0.5229 -1.2439  0.5119
 5052SOL     OW26617   2.598   0.290   8.883  0.3533  0.1628 -0.1235
 5052SOL    HW126618   2.671   0.316   8.827  0.0253 -0.3146 -0.7559
 5052SOL    HW226619   2.543   0.368   8.879  0.9658  0.7018  1.5305
 5053SOL     OW26620   3.447   0.219   7.672  0.4416  0.1583 -0.0263
 5053SOL    HW126621   3.487   0.173   7.746  1.3256 -2.6921 -2.2576
 5053SOL    HW226622   3.500   0.299   7.671  0.6216  0.0490  1.3729
 5054SOL     OW26623   1.217   2.550   1.957 -0.2496  0.0532  0.6218
 5054SOL    HW126624   1.152   2.527   1.890  1.1869  0.3607 -0.8958
 5054SOL    HW226625   1.297   2.547   1.904 -0.1176  1.2960  0.7651
 5055SOL     OW26626   2.323   1.894   4.471  0.6182  0.0998  0.1297
 5055SOL    HW126627   2.251   1.832   4.484 -0.4297  1.5915  1.4088
 5055SOL    HW226628   2.358   1.848   4.394  1.4660 -1.5123  1.4712
 5056SOL     OW26629   4.252   4.019  11.859  0.4604 -0.1768 -0.2501
 5056SOL    HW126630   4.328   4.054  11.906  1.0163  1.1740 -2.1242
 5056SOL    HW226631   4.275   3.927  11.844  0.8193 -0.3866  1.5768
 5057SOL     OW26632   1.095   2.141   4.757  0.1038  0.2698 -0.0479
 5057SOL    HW126633   1.089   2.046   4.762 -1.3438  0.3148 -0.9262
 5057SOL    HW226634   1.110   2.158   4.851  1.0191  0.6266 -0.2586
 5058SOL     OW26635   2.654   3.317   7.912 -0.1650  0.8164  0.1023
 5058SOL    HW126636   2.610   3.330   7.828 -0.6063  1.1903  0.3890
 5058SOL    HW226637   2.595   3.257   7.959  0.4610  0.8498  0.9195
 5059SOL     OW26638   1.669   0.210   1.916 -0.1650 -0.0331  0.0435
 5059SOL    HW126639   1.597   0.164   1.873  1.1446 -0.1965 -1.9374
 5059SOL    HW226640   1.736   0.142   1.923 -1.5761 -1.6677 -2.2293
 5060SOL     OW26641   0.931   4.372   3.050  0.0853  0.0616 -0.4272
 5060SOL    HW126642   0.908   4.313   3.122 -1.8274  0.3681 -0.7831
 5060SOL    HW226643   1.021   4.394   3.074  0.0287  0.0285 -0.1804
 5061SOL     OW26644   3.389   1.795  13.666 -0.8616  0.4389  0.4587
 5061SOL    HW126645   3.325   1.861  13.693 -0.3656  0.9570  0.3672
 5061SOL    HW226646   3.351   1.718  13.709  0.6907  0.3669  1.7530
 5062SOL     OW26647   3.669   4.038   6.822  0.1078  0.0224 -0.3123
 5062SOL    HW126648   3.749   4.089   6.810  0.2101 -0.2059 -0.6038
 5062SOL    HW226649   3.628   4.034   6.736 -0.3799  0.9124 -0.1117
 5063SOL     OW26650   1.377   4.448   9.584 -0.4475 -0.1000  0.6791
 5063SOL    HW126651   1.370   4.490   9.498 -1.5606  1.4272  1.5109
 5063SOL    HW226652   1.360   4.359   9.554 -1.1302  0.4984 -0.7163
 5064SOL     OW26653   4.273   3.752   1.305 -0.1763  0.0115  0.0061
 5064SOL    HW126654   4.313   3.719   1.385  0.4915 -0.7568 -0.6373
 5064SOL    HW226655   4.284   3.846   1.319  0.8696  0.0475 -1.0839
 5065SOL     OW26656   1.723   3.802  17.507 -0.4684  0.1454 -0.4611
 5065SOL    HW126657   1.761   3.757  17.583  1.8199 -0.6877 -2.1075
 5065SOL    HW226658   1.765   3.888  17.509  0.3565 -0.2574 -0.9225
 5066SOL     OW26659   1.197   0.257   7.855  0.2929  0.2754  0.1254
 5066SOL    HW126660   1.184   0.298   7.940  0.3126  1.0259 -0.2384
 5066SOL    HW226661   1.195   0.163   7.875  0.8507  0.4134  0.8327
 5067SOL     OW26662   0.937   3.811   8.810  0.0506 -0.1928 -0.2398
 5067SOL    HW126663   0.893   3.896   8.817 -0.7852 -0.6195 -0.2971
 5067SOL    HW226664   0.867   3.750   8.787 -0.0407  0.1853 -0.9588
 5068SOL     OW26665   0.809   0.763   2.144  0.5486 -0.5083 -0.0270
 5068SOL    HW126666   0.832   0.847   2.183 -1.0011  0.0740 -0.3914
 5068SOL    HW226667   0.888   0.759   2.090  0.4843 -0.0889 -0.1489
 5069SOL     OW26668   0.692   4.559   8.962 -0.4496 -0.3040  0.3290
 5069SOL    HW126669   0.634   4.631   8.938  0.7304  0.7809  0.7103
 5069SOL    HW226670   0.749   4.601   9.027 -0.8497  0.9766 -0.1497
 5070SOL     OW26671   2.109   0.201   0.923 -0.1607 -0.2043 -0.4547
 5070SOL    HW126672   2.018   0.227   0.938  0.2257  0.6571  0.3146
 5070SOL    HW226673   2.109   0.125   0.864  0.4124 -0.5387 -0.0219
 5071SOL     OW26674   1.964   1.044  17.425 -0.1806 -0.3843 -0.1259
 5071SOL    HW126675   1.907   1.068  17.351 -0.4732 -2.5160 -0.5946
 5071SOL    HW226676   1.942   1.116  17.484 -0.5192 -0.0599 -0.6491
 5072SOL     OW26677   2.478   3.755  17.372  0.5536  0.0627 -0.7843
 5072SOL    HW126678   2.507   3.697  17.301  1.0895 -1.2283  0.5038
 5072SOL    HW226679   2.553   3.815  17.367 -0.7466  1.7232 -0.1632
 5073SOL     OW26680   1.741   2.101   5.543 -0.1307 -0.5157  0.3652
 5073SOL    HW126681   1.772   2.171   5.600 -0.5997  0.6981 -0.8841
 5073SOL    HW226682   1.825   2.067   5.510 -0.4593 -1.3106  0.3455
 5074SOL     OW26683   0.562   0.728   7.126  0.1352  0.4544  0.2283
 5074SOL    HW126684   0.544   0.670   7.200 -1.0638 -0.4683 -0.7816
 5074SOL    HW226685   0.474   0.731   7.089 -0.5732 -0.5996  1.8345
 5075SOL     OW26686   4.191   4.167  16.604 -0.2284  0.2843 -0.2116
 5075SOL    HW126687   4.162   4.196  16.690  2.4736  1.4617  0.3297
 5075SOL    HW226688   4.182   4.249  16.557 -0.6647  0.6015  0.4281
 5076SOL     OW26689   4.410   0.992  15.640 -0.0761  0.5051  0.0243
 5076SOL    HW126690   4.365   1.050  15.578 -2.6293  0.3118  1.7035
 5076SOL    HW226691   4.338   0.976  15.700  0.8079  0.3468  1.0308
 5077SOL     OW26692   0.997   0.814   9.731  0.1860 -0.0104 -0.0758
 5077SOL    HW126693   1.057   0.837   9.802  0.9817 -0.4980 -0.5912
 5077SOL    HW226694   1.031   0.734   9.692  0.2265  0.3764 -0.8289
 5078SOL     OW26695   4.011   3.152   0.666 -0.3183  0.3255  0.2772
 5078SOL    HW126696   3.996   3.122   0.755 -2.9281 -0.6442 -0.4920
 5078SOL    HW226697   3.936   3.123   0.615 -0.7957 -0.4362  1.4517
 5079SOL     OW26698   4.284   4.359   9.221 -0.3594 -0.0857 -0.1357
 5079SOL    HW126699   4.200   4.333   9.260 -0.8177  0.7950 -0.5216
 5079SOL    HW226700   4.298   4.444   9.262  3.0956 -0.2099 -1.1061
 5080SOL     OW26701   0.056   1.299  16.804  0.4046  0.0850 -0.0454
 5080SOL    HW126702   4.719   1.371  16.792  1.5420  0.9492 -0.7842
 5080SOL    HW226703   4.722   1.224  16.812  0.6980 -0.1640 -0.2061
 5081SOL     OW26704   2.601   2.297   6.887  0.3007 -0.7658 -0.1262
 5081SOL    HW126705   2.664   2.265   6.952 -1.6381 -0.4543  1.8784
 5081SOL    HW226706   2.527   2.331   6.936 -0.2811 -0.9381 -0.8836
 5082SOL     OW26707   3.177   3.012   3.951 -0.6947  0.1380 -0.0007
 5082SOL    HW126708   3.224   2.953   4.010 -0.9645 -0.4626 -0.3821
 5082SOL    HW226709   3.213   3.098   3.974 -1.0260  0.1389  0.5169
 5083SOL     OW26710   2.183   1.280   4.830 -0.3965 -0.2054 -0.7260
 5083SOL    HW126711   2.145   1.306   4.914 -1.6972 -2.3633 -0.6365
 5083SOL    HW226712   2.188   1.365   4.786 -0.2323 -0.8159 -1.8999
 5084SOL     OW26713   0.726   2.144   3.254 -0.2812  0.3454  0.0146
 5084SOL    HW126714   0.662   2.073   3.254  0.2511 -0.1187 -2.0103
 5084SOL    HW226715   0.688   2.212   3.199 -0.9351  1.4694  1.8658
 5085SOL     OW26716   1.926   4.063   5.170 -0.2093 -0.2236 -0.0971
 5085SOL    HW126717   1.917   4.149   5.130 -0.9374 -0.1339  0.2615
 5085SOL    HW226718   2.009   4.081   5.214 -0.3420  0.9034 -0.3020
 5086SOL     OW26719   0.460   1.770   8.774 -0.3901 -0.2546 -0.1229
 5086SOL    HW126720   0.455   1.825   8.696 -3.5745 -1.1484 -0.5604
 5086SOL    HW226721   0.369   1.741   8.779 -0.9025  1.6336  1.1429
 5087SOL     OW26722   3.196   3.773   7.655 -0.4629  0.2358  0.6150
 5087SOL    HW126723   3.115   3.820   7.633  0.5086  1.3210 -0.5956
 5087SOL    HW226724   3.237   3.825   7.724  2.2596 -0.3512 -0.5918
 5088SOL     OW26725   1.292   2.673   6.576  0.2589  0.3694  0.5705
 5088SOL    HW126726   1.252   2.587   6.584 -1.6222  1.3080  1.2349
 5088SOL    HW226727   1.217   2.731   6.585 -0.7498 -0.6271 -1.3157
 5089SOL     OW26728   1.797   3.996   5.640 -0.2422  0.2725  0.3213
 5089SOL    HW126729   1.823   3.996   5.732  1.2169 -0.9388 -0.0985
 5089SOL    HW226730   1.879   4.003   5.593 -0.4539  0.0437 -0.0824
 5090SOL     OW26731   0.557   1.965   1.926  0.7333 -0.3014 -0.0086
 5090SOL    HW126732   0.619   1.895   1.905 -1.4183 -1.9079 -0.9264
 5090SOL    HW226733   0.594   1.990   2.011  1.3848  0.7003 -0.5890
 5091SOL     OW26734   1.720   3.534   4.591  0.3946  0.4162 -0.5458
 5091SOL    HW126735   1.625   3.523   4.585  0.2444  2.3087 -1.4101
 5091SOL    HW226736   1.759   3.470   4.531 -2.3243 -0.3066 -1.5502
 5092SOL     OW26737   4.688   3.023   5.702 -0.3258 -0.4406  0.0733
 5092SOL    HW126738   0.022   3.093   5.728  0.1727 -0.6368 -0.5431
 5092SOL    HW226739   4.645   3.059   5.624 -0.5377  0.6589  0.7019
 5093SOL     OW26740   3.670   0.692   0.847  0.0530 -0.2548  0.4066
 5093SOL    HW126741   3.660   0.759   0.780  0.9284 -0.9269 -0.4069
 5093SOL    HW226742   3.586   0.646   0.837  0.6642 -0.6745 -2.8039
 5094SOL     OW26743   1.030   2.273   6.153  0.2062 -0.3949  0.8708
 5094SOL    HW126744   1.025   2.237   6.242 -1.9015  2.9388  2.0734
 5094SOL    HW226745   1.115   2.247   6.118  0.9671  2.6273  0.4999
 5095SOL     OW26746   1.138   0.014  15.992  0.6299 -0.1835  0.5839
 5095SOL    HW126747   1.087   0.077  15.941  0.6557  0.5017  1.3863
 5095SOL    HW226748   1.102   0.032  16.079 -1.0045 -2.8050  0.4393
 5096SOL     OW26749   2.872   1.222   6.787 -0.0091  0.3072  0.0257
 5096SOL    HW126750   2.958   1.264   6.799 -0.1341  0.2774  0.9879
 5096SOL    HW226751   2.892   1.129   6.794  3.9112  1.0871 -0.6559
 5097SOL     OW26752   2.599   0.449   9.657  0.2157  0.2532  0.3831
 5097SOL    HW126753   2.545   0.421   9.731  0.8407 -1.8732  0.0166
 5097SOL    HW226754   2.541   0.431   9.583  1.7527 -0.6410 -0.5947
 5098SOL     OW26755   3.037   0.179   8.524 -0.3806 -0.0150  0.5479
 5098SOL    HW126756   3.021   0.121   8.599 -0.9529  1.0681  1.2577
 5098SOL    HW226757   3.065   0.257   8.570 -0.1374  0.4896 -0.4460
 5099SOL     OW26758   4.668   2.673  16.902 -0.0911 -0.2952 -0.0299
 5099SOL    HW126759   0.001   2.707  16.970  0.2568  2.6765 -1.8335
 5099SOL    HW226760   4.606   2.641  16.967 -1.0785 -0.0808 -0.8762
 5100SOL     OW26761   2.248   3.906   3.104  0.2215 -0.3075 -0.5040
 5100SOL    HW126762   2.197   3.842   3.053  0.1511 -1.5317  1.1182
 5100SOL    HW226763   2.333   3.888   3.065  1.6944  3.7691  0.8306
 5101SOL     OW26764   3.534   3.856   7.437  0.6695  0.1599 -0.0376
 5101SOL    HW126765   3.563   3.937   7.394  1.3249  0.3888  0.8335
 5101SOL    HW226766   3.467   3.825   7.375  0.9099 -1.3035  0.4357
 5102SOL     OW26767   2.060   2.533   4.634  0.1412  0.6805  0.4552
 5102SOL    HW126768   2.005   2.598   4.679 -2.9466 -1.2371 -0.5447
 5102SOL    HW226769   2.121   2.596   4.595 -0.2357  0.5595 -0.3412
 5103SOL     OW26770   1.017   1.115   9.616 -0.4621  0.4468  0.2521
 5103SOL    HW126771   0.991   1.166   9.539 -0.3421 -0.5394 -0.4413
 5103SOL    HW226772   0.990   1.025   9.598 -0.6024  0.7754 -1.2014
 5104SOL     OW26773   0.251   3.013   4.666  0.1929 -0.1816  0.2283
 5104SOL    HW126774   0.161   3.012   4.700 -0.3059 -0.3421 -1.1016
 5104SOL    HW226775   0.260   2.928   4.623 -1.3602 -0.1889 -0.1076
 5105SOL     OW26776   3.643   4.238   7.038  0.3883 -0.2662 -0.0268
 5105SOL    HW126777   3.668   4.310   6.980 -2.5013  0.0079 -0.8954
 5105SOL    HW226778   3.618   4.166   6.981 -1.7123 -0.1869  0.8147
 5106SOL     OW26779   2.556   1.240  10.543  0.2716  0.3144 -0.0369
 5106SOL    HW126780   2.555   1.214  10.451 -0.8220 -1.5335  0.4981
 5106SOL    HW226781   2.467   1.277  10.546  0.2811  0.3797 -0.4990
 5107SOL     OW26782   0.299   1.491   5.422 -0.5573  0.1146  0.0529
 5107SOL    HW126783   0.256   1.411   5.392 -1.1350 -0.3691  2.1413
 5107SOL    HW226784   0.384   1.455   5.447 -0.2645  2.7582  2.9289
 5108SOL     OW26785   2.690   3.968   0.598  0.2856 -0.1536  0.0163
 5108SOL    HW126786   2.731   3.916   0.529  0.2082 -1.0291  0.6358
 5108SOL    HW226787   2.671   3.904   0.667 -1.0052 -0.1880 -0.3578
 5109SOL     OW26788   1.343   3.525  16.591  0.6648  0.4224 -1.3873
 5109SOL    HW126789   1.417   3.580  16.614  0.3666 -0.6955  2.3045
 5109SOL    HW226790   1.279   3.532  16.662  2.0524 -0.3446 -0.0862
 5110SOL     OW26791   1.637   4.241  17.094 -0.1112  0.3470  0.1313
 5110SOL    HW126792   1.668   4.331  17.105 -0.7464  0.5566  0.2089
 5110SOL    HW226793   1.664   4.193  17.172 -0.4443  0.6235  0.4181
 5111SOL     OW26794   0.955   1.606  11.687 -0.1276 -0.2979  0.3018
 5111SOL    HW126795   1.032   1.562  11.652 -2.5219 -2.8453 -1.7179
 5111SOL    HW226796   0.931   1.547  11.758 -0.6984 -1.7304 -1.0882
 5112SOL     OW26797   0.168   1.820   7.853  0.3863 -0.0611 -0.5699
 5112SOL    HW126798   0.213   1.902   7.874 -0.3164 -0.4057  2.1609
 5112SOL    HW226799   0.170   1.830   7.757  3.5646  0.8188 -0.4339
 5113SOL     OW26800   4.517   0.322   3.198 -0.2826  0.4721 -0.8584
 5113SOL    HW126801   4.480   0.387   3.138 -3.8254 -0.1638  0.6157
 5113SOL    HW226802   4.458   0.249   3.180 -0.3009  0.5487 -1.1123
 5114SOL     OW26803   0.893   3.000   7.961 -0.3215  0.1229 -0.2312
 5114SOL    HW126804   0.815   3.007   7.906 -0.0477  1.5432 -0.4297
 5114SOL    HW226805   0.871   3.078   8.012  2.5689  0.2381  0.8565
 5115SOL     OW26806   2.989   0.825  13.159 -0.0199  0.6652 -0.0699
 5115SOL    HW126807   3.025   0.894  13.103 -0.1887  0.2477 -0.6846
 5115SOL    HW226808   2.917   0.789  13.108  0.5123  0.1449 -0.4459
 5116SOL     OW26809   0.151   4.049   8.562  0.2569  0.3290 -0.3340
 5116SOL    HW126810   0.108   4.085   8.639  1.6357  0.7344  0.2552
 5116SOL    HW226811   0.080   4.048   8.498 -1.9880  0.9582  2.2026
 5117SOL     OW26812   1.425   1.363   6.828 -0.0060 -0.4132  0.0218
 5117SOL    HW126813   1.486   1.288   6.829 -1.1816 -1.3601  1.6281
 5117SOL    HW226814   1.343   1.318   6.848 -0.1219  1.2764  3.2650
 5118SOL     OW26815   1.869   2.515   9.206  0.1098  0.0445  0.1800
 5118SOL    HW126816   1.884   2.422   9.193  2.5032  0.1924  1.7825
 5118SOL    HW226817   1.951   2.538   9.162 -2.0508 -0.9167 -4.3597
 5119SOL     OW26818   1.245   3.992   5.308 -0.0114 -0.2084 -0.0384
 5119SOL    HW126819   1.172   4.016   5.366 -1.1688 -1.7997 -0.8266
 5119SOL    HW226820   1.278   3.914   5.354  1.2625  1.9507  2.6771
 5120SOL     OW26821   4.531   0.184   7.720 -0.2574  0.6276  0.7571
 5120SOL    HW126822   4.466   0.209   7.786 -0.9024 -0.4093  0.5243
 5120SOL    HW226823   4.546   0.091   7.738  1.5662  1.2380  2.2508
 5121SOL     OW26824   4.583   4.483   6.352 -0.0313  0.1458  0.2044
 5121SOL    HW126825   4.575   4.578   6.352  0.8828  0.2222 -0.0487
 5121SOL    HW226826   4.601   4.460   6.260  2.2471  1.3942  0.3243
 5122SOL     OW26827   2.394   0.913   4.023  0.8110  0.1192 -0.1553
 5122SOL    HW126828   2.333   0.842   4.042 -0.6469  0.9076 -1.8851
 5122SOL    HW226829   2.475   0.886   4.067  1.4506  1.2225 -0.6365
 5123SOL     OW26830   4.392   3.405   8.874  0.0217 -0.2995  0.2511
 5123SOL    HW126831   4.371   3.483   8.823 -0.4723 -1.2695 -1.0402
 5123SOL    HW226832   4.487   3.405   8.865 -0.1222  0.3603 -1.3057
 5124SOL     OW26833   3.324   1.734  13.952  0.4900 -0.1187 -0.1003
 5124SOL    HW126834   3.246   1.724  14.006  1.3308 -1.0806  0.9277
 5124SOL    HW226835   3.345   1.644  13.928 -1.2614 -0.2710 -1.0414
 5125SOL     OW26836   2.636   1.703   9.036 -0.1081  0.1516 -0.3366
 5125SOL    HW126837   2.702   1.646   9.075 -1.1206 -1.4179 -0.9146
 5125SOL    HW226838   2.650   1.709   8.941  0.0692 -0.0199 -0.3202
 5126SOL     OW26839   0.604   1.666   5.669  0.4652  0.2933  0.2717
 5126SOL    HW126840   0.576   1.590   5.619 -0.4423  0.5080  0.4607
 5126SOL    HW226841   0.586   1.644   5.760  0.3014  1.2852  0.4888
 5127SOL     OW26842   1.480   2.265   9.094  0.0582 -0.4927  0.0020
 5127SOL    HW126843   1.505   2.176   9.069  0.7572  0.0088 -1.0864
 5127SOL    HW226844   1.411   2.265   9.028  0.3634 -1.5718 -0.3305
 5128SOL     OW26845   2.772   4.516  12.732 -0.3248 -0.0432 -0.4805
 5128SOL    HW126846   2.684   4.497  12.763 -0.3507  1.5705  0.4113
 5128SOL    HW226847   2.771   4.470  12.648 -1.1401 -1.2702  0.2053
 5129SOL     OW26848   4.062   3.962  16.265 -0.0272  0.3438  0.4364
 5129SOL    HW126849   4.142   3.944  16.217  0.0742  1.6183  0.1241
 5129SOL    HW226850   4.079   3.907  16.341 -0.8494 -1.0990 -0.4206
 5130SOL     OW26851   4.715   1.481   7.539  0.2221 -0.0688 -0.1050
 5130SOL    HW126852   4.691   1.462   7.630  1.5664  0.1500  0.2989
 5130SOL    HW226853   0.069   1.428   7.529 -0.2209 -0.8455  0.4605
 5131SOL     OW26854   1.021   0.490  10.906  0.1915  0.3818  0.0701
 5131SOL    HW126855   0.959   0.528  10.968 -0.2425 -0.9246  0.4384
 5131SOL    HW226856   0.962   0.458  10.837 -1.1763  1.2374  0.8413
 5132SOL     OW26857   0.901   1.260   6.123 -0.1329  0.3394  0.6821
 5132SOL    HW126858   0.823   1.221   6.083 -0.4747  1.6860  0.0270
 5132SOL    HW226859   0.965   1.210   6.072 -0.4403  0.7290 -0.0951
 5133SOL     OW26860   1.984   3.706   2.157 -0.1930 -0.0189 -0.2427
 5133SOL    HW126861   2.040   3.654   2.214  1.3280  1.6459 -0.2342
 5133SOL    HW226862   2.030   3.720   2.074 -3.3716 -1.7738 -2.3176
 5134SOL     OW26863   2.444   4.258   8.782 -0.3584 -0.0186 -0.4419
 5134SOL    HW126864   2.418   4.166   8.788  0.9708 -0.4626 -1.4033
 5134SOL    HW226865   2.380   4.296   8.722 -1.1893 -0.3080  0.2601
 5135SOL     OW26866   2.716   0.796   8.764  0.0051  0.4994  0.0905
 5135SOL    HW126867   2.674   0.770   8.846 -0.6758  0.5886 -0.2322
 5135SOL    HW226868   2.644   0.839   8.718 -0.0556  0.9341  0.5904
 5136SOL     OW26869   0.611   4.450   2.907 -0.3772 -0.1887 -0.1298
 5136SOL    HW126870   0.581   4.519   2.966  0.0292  0.4912 -0.7238
 5136SOL    HW226871   0.699   4.443   2.942 -0.5125  1.4957  0.5251
 5137SOL     OW26872   2.914   0.664   4.360  0.4835 -0.3598  0.2569
 5137SOL    HW126873   2.982   0.660   4.427 -0.3265  0.8654  1.1520
 5137SOL    HW226874   2.845   0.606   4.393 -0.1490 -0.6732 -1.6187
 5138SOL     OW26875   2.104   2.760   4.367  0.4160  0.6532  0.3433
 5138SOL    HW126876   2.163   2.754   4.292 -0.7775  0.2490 -0.5569
 5138SOL    HW226877   2.167   2.763   4.439  0.0483  1.3245  0.6382
 5139SOL     OW26878   3.028   4.588  10.751  0.0651 -0.1915 -0.0085
 5139SOL    HW126879   3.086   4.520  10.784  0.2780  0.3178  0.6785
 5139SOL    HW226880   3.040   4.658  10.816  0.9690 -0.5081  0.1591
 5140SOL     OW26881   1.232   0.414  16.623 -0.4335  0.1195 -0.4724
 5140SOL    HW126882   1.147   0.389  16.586 -0.4011 -1.4005  0.5266
 5140SOL    HW226883   1.258   0.489  16.569  0.4141  1.0646  1.2324
 5141SOL     OW26884   2.188   3.057   6.301 -0.1873 -0.0580  0.0346
 5141SOL    HW126885   2.176   3.085   6.210  0.7039 -2.2386 -0.7311
 5141SOL    HW226886   2.279   3.079   6.320  0.0702  0.5696 -1.8681
 5142SOL     OW26887   1.321   2.005   2.379 -0.1115  0.0578 -0.8910
 5142SOL    HW126888   1.380   2.078   2.397 -2.7896  2.0332 -0.1343
 5142SOL    HW226889   1.244   2.043   2.336  0.0011  0.1449 -1.0123
 5143SOL     OW26890   0.604   3.970   6.476 -0.3372 -0.2358  0.0603
 5143SOL    HW126891   0.630   3.878   6.473 -1.6322 -0.6786  2.6089
 5143SOL    HW226892   0.693   4.004   6.490  0.4311 -1.5992 -1.4226
 5144SOL     OW26893   3.495   3.392  16.269  0.2699 -0.4625 -0.0220
 5144SOL    HW126894   3.425   3.336  16.234  1.1955 -0.8457 -1.2557
 5144SOL    HW226895   3.451   3.442  16.337  1.0819 -0.6993  0.6732
 5145SOL     OW26896   1.427   3.461  13.271 -0.0399 -0.0320  0.1267
 5145SOL    HW126897   1.508   3.435  13.314 -0.3773  0.3545  0.9952
 5145SOL    HW226898   1.447   3.547  13.235 -0.0094  0.0184  0.2640
 5146SOL     OW26899   0.346   3.838  17.391 -0.0975 -0.2374  0.0286
 5146SOL    HW126900   0.345   3.882  17.306 -0.8221 -0.7019 -0.2064
 5146SOL    HW226901   0.426   3.871  17.431  0.5203  1.9851 -3.0678
 5147SOL     OW26902   3.124   1.166   2.121 -0.0898 -0.1033 -0.0689
 5147SOL    HW126903   3.086   1.229   2.060  0.9717 -1.2487 -1.9340
 5147SOL    HW226904   3.209   1.198   2.151 -1.6429 -0.6799  4.8748
 5148SOL     OW26905   3.524   2.474  10.117 -0.0092  0.0134  0.5544
 5148SOL    HW126906   3.555   2.469  10.207 -1.9476  0.6095  1.2633
 5148SOL    HW226907   3.441   2.425  10.117 -0.8853  1.4906 -0.1894
 5149SOL     OW26908   4.242   2.044  17.670 -0.0286 -0.2658  0.5554
 5149SOL    HW126909   4.235   2.128   0.011 -2.0916 -0.1101 -0.0046
 5149SOL    HW226910   4.170   1.994   0.006 -0.2001 -0.6265 -0.1804
 5150SOL     OW26911   3.451   3.570   4.122  1.1949 -0.2118 -0.0133
 5150SOL    HW126912   3.392   3.505   4.160  0.5087  1.4984  1.8355
 5150SOL    HW226913   3.441   3.568   4.027 -1.0944 -1.3730  0.2517
 5151SOL     OW26914   3.246   2.643   5.124 -0.2727  0.5556 -0.4983
 5151SOL    HW126915   3.163   2.620   5.083  0.4305 -1.3265 -0.8478
 5151SOL    HW226916   3.282   2.694   5.052 -0.4803 -0.3929 -1.2650
 5152SOL     OW26917   0.294   2.782   0.840  0.6014 -0.0287 -0.7564
 5152SOL    HW126918   0.309   2.850   0.775  0.0014  1.8889  1.1036
 5152SOL    HW226919   0.370   2.723   0.844 -0.2341 -0.9311  2.5275
 5153SOL     OW26920   1.498   2.117  11.146  0.3953  0.1504 -0.3023
 5153SOL    HW126921   1.413   2.158  11.165  1.8645  2.8846  0.3891
 5153SOL    HW226922   1.482   2.037  11.196 -0.4438  0.7220  0.3633
 5154SOL     OW26923   1.127   4.688   3.005 -0.6575  0.1526  0.0170
 5154SOL    HW126924   1.140   4.593   3.005 -0.8843  0.1169  1.6555
 5154SOL    HW226925   1.208   4.709   3.053 -0.0578  0.4087 -1.1151
 5155SOL     OW26926   3.850   4.579   4.888 -0.2514 -0.4347  0.0712
 5155SOL    HW126927   3.894   4.644   4.833  0.8844 -1.1976  0.0629
 5155SOL    HW226928   3.851   4.625   4.971 -2.1171  0.5338 -0.4514
 5156SOL     OW26929   4.575   1.901   5.860  0.0782  0.1697  0.1893
 5156SOL    HW126930   4.659   1.872   5.895  1.0403  3.3557  0.4913
 5156SOL    HW226931   4.596   1.979   5.809  1.4948 -0.5806 -0.3641
 5157SOL     OW26932   4.321   4.076  12.531  0.9771  0.6757  0.3530
 5157SOL    HW126933   4.308   4.082  12.626 -1.4593 -1.4390  0.1682
 5157SOL    HW226934   4.250   4.017  12.504  2.2961  0.0476 -1.7281
 5158SOL     OW26935   2.021   0.972  11.352  0.5877  0.1940 -0.3208
 5158SOL    HW126936   2.087   0.989  11.285 -1.3964 -0.6447 -2.5041
 5158SOL    HW226937   1.942   0.991  11.302 -0.3758 -0.9137  0.7634
 5159SOL     OW26938   0.157   1.723   6.602 -0.5466 -0.6851  0.6203
 5159SOL    HW126939   0.186   1.646   6.651 -0.1113 -0.2603  1.0305
 5159SOL    HW226940   0.244   1.752   6.573 -0.6785 -1.5814 -0.6729
 5160SOL     OW26941   1.500   0.650   5.449  0.1869 -0.2181 -0.3645
 5160SOL    HW126942   1.529   0.604   5.528 -0.3450 -0.4140 -0.2843
 5160SOL    HW226943   1.414   0.687   5.468  0.1614  0.4838 -1.8467
 5161SOL     OW26944   1.741   1.403   3.315 -0.0934  0.1860  0.0893
 5161SOL    HW126945   1.661   1.361   3.348  0.3226  0.2922  1.2368
 5161SOL    HW226946   1.761   1.474   3.375  3.8706 -1.1330  0.2937
 5162SOL     OW26947   1.119   1.435   0.686 -0.0865  0.0258 -0.9023
 5162SOL    HW126948   1.161   1.356   0.719 -0.1573  0.1209 -0.5785
 5162SOL    HW226949   1.098   1.406   0.597 -1.1765  0.4610 -0.7880
 5163SOL     OW26950   4.680   0.357   1.483  0.2048  0.0923  0.2157
 5163SOL    HW126951   0.015   0.342   1.411  0.6095 -1.2797  0.8534
 5163SOL    HW226952   4.725   0.427   1.530  1.4978 -0.3399 -0.3593
 5164SOL     OW26953   3.781   2.510   6.207 -0.2686 -0.0260  1.0747
 5164SOL    HW126954   3.832   2.486   6.284  1.8543  0.1738 -0.2602
 5164SOL    HW226955   3.693   2.485   6.233  0.0307 -1.6324  0.5392
 5165SOL     OW26956   3.759   1.976   0.637  0.1878 -0.2949  0.0331
 5165SOL    HW126957   3.687   2.039   0.644  1.0817  0.9762 -2.3756
 5165SOL    HW226958   3.732   1.917   0.566  1.1265 -2.5973  1.5878
 5166SOL     OW26959   3.525   2.893   6.816  0.4277 -0.3467  0.7470
 5166SOL    HW126960   3.528   2.883   6.720 -1.2194 -0.4303  0.6977
 5166SOL    HW226961   3.590   2.962   6.829 -0.9139  0.6161  2.2993
 5167SOL     OW26962   3.221   4.181   4.399  0.6380 -0.4600 -0.7727
 5167SOL    HW126963   3.295   4.168   4.340  1.2632  0.8960 -0.2905
 5167SOL    HW226964   3.159   4.111   4.375  0.9063 -0.5952 -1.0654
 5168SOL     OW26965   2.388   3.290  10.079  0.0732  0.1685  0.0377
 5168SOL    HW126966   2.442   3.316  10.154 -1.0811 -0.3536  1.0559
 5168SOL    HW226967   2.364   3.378  10.052  0.2865  0.2428  0.0960
 5169SOL     OW26968   1.257   3.178   7.436  0.1032  0.2197  0.8200
 5169SOL    HW126969   1.274   3.084   7.433 -0.1336  0.1511  1.5552
 5169SOL    HW226970   1.171   3.180   7.479 -0.7942  1.2691 -1.0512
 5170SOL     OW26971   2.873   2.900  12.366 -0.6846 -0.1586  0.1315
 5170SOL    HW126972   2.860   2.908  12.460 -3.3733 -3.0862  0.0234
 5170SOL    HW226973   2.789   2.854  12.361  0.5030 -2.2277 -1.1781
 5171SOL     OW26974   0.639   0.701   6.744 -0.7943 -0.0977  0.2684
 5171SOL    HW126975   0.618   0.610   6.722 -0.3756  0.0092 -0.5708
 5171SOL    HW226976   0.683   0.693   6.829 -2.8232 -1.9264  1.1483
 5172SOL     OW26977   3.357   3.549   1.725  0.3525  0.5457  0.0904
 5172SOL    HW126978   3.432   3.583   1.773 -0.4739 -0.4860  2.1403
 5172SOL    HW226979   3.392   3.539   1.637 -0.0173 -0.3121  0.0372
 5173SOL     OW26980   4.575   3.485   8.108  0.4410 -0.7990  0.5764
 5173SOL    HW126981   4.585   3.409   8.050 -0.0571 -0.2087 -0.2964
 5173SOL    HW226982   4.584   3.557   8.046 -1.9193 -1.1657 -0.2272
 5174SOL     OW26983   0.885   2.542   6.253 -0.3265 -0.2785 -0.1081
 5174SOL    HW126984   0.976   2.537   6.281 -0.2333  2.3582  0.1161
 5174SOL    HW226985   0.840   2.526   6.336 -0.2636 -0.0367 -0.0281
 5175SOL     OW26986   0.981   2.454   9.215  0.3804  0.2922 -0.2277
 5175SOL    HW126987   1.021   2.539   9.235  0.5495  0.8404 -2.9801
 5175SOL    HW226988   0.933   2.437   9.296 -0.3559  2.6550 -0.1824
 5176SOL     OW26989   1.152   3.966   2.414  0.4277  0.1341  0.6922
 5176SOL    HW126990   1.239   4.001   2.434  1.3535 -0.2514 -2.6097
 5176SOL    HW226991   1.116   3.977   2.502 -1.8749 -0.7230 -0.1387
 5177SOL     OW26992   2.237   1.358   6.578  0.4834  0.0350 -0.4357
 5177SOL    HW126993   2.142   1.348   6.576  0.2137  2.5253  0.0881
 5177SOL    HW226994   2.262   1.314   6.497  0.2450  0.2377 -0.6185
 5178SOL     OW26995   4.053   2.812  12.128 -0.5474  0.0883 -0.0692
 5178SOL    HW126996   4.080   2.798  12.037  0.6919 -0.7509  0.4292
 5178SOL    HW226997   4.017   2.900  12.134 -0.8074 -0.0788  0.7962
 5179SOL     OW26998   4.025   4.003   1.346  0.1537 -0.3937 -0.0693
 5179SOL    HW126999   3.993   4.081   1.299  0.7198 -1.1879 -1.7794
 5179SOL    HW227000   4.021   3.944   1.270 -0.8541 -0.8484  0.3382
 5180SOL     OW27001   1.651   3.110   9.008 -0.1869 -0.3271  0.4822
 5180SOL    HW127002   1.629   3.102   8.915 -0.5472  1.7522  0.3770
 5180SOL    HW227003   1.598   3.188   9.025  0.2895  0.1576 -0.2105
 5181SOL     OW27004   3.328   4.612  10.421  0.1892  0.1954  0.2290
 5181SOL    HW127005   3.385   4.544  10.384 -0.7877 -0.2049 -0.5407
 5181SOL    HW227006   3.385   4.664  10.478 -1.2945  0.3896  1.5211
 5182SOL     OW27007   2.358   3.361   7.052 -0.6020  0.5071  0.0121
 5182SOL    HW127008   2.318   3.322   6.973  0.6014 -1.3321  0.3132
 5182SOL    HW227009   2.451   3.359   7.032 -0.4469  1.2101  0.6653
 5183SOL     OW27010   0.410   3.150  14.475 -0.7064  0.1528  0.4608
 5183SOL    HW127011   0.438   3.096  14.549 -2.6145 -0.4407  0.7381
 5183SOL    HW227012   0.493   3.150  14.426 -0.5139 -1.0333  0.7967
 5184SOL     OW27013   4.109   1.065   7.049 -0.2576  0.2558  0.1081
 5184SOL    HW127014   4.199   1.092   7.032 -0.1141  0.8945  1.8487
 5184SOL    HW227015   4.098   1.096   7.139  1.1231  2.1916 -0.3932
 5185SOL     OW27016   1.498   0.736  12.032  0.2357  0.1903 -0.0299
 5185SOL    HW127017   1.497   0.644  12.056 -0.7919  0.4056  0.7683
 5185SOL    HW227018   1.465   0.770  12.115  1.0431 -1.0202  0.7805
 5186SOL     OW27019   4.161   4.663   5.074 -0.6379 -0.3760  0.2256
 5186SOL    HW127020   4.185   4.644   4.983  1.2346 -0.3141  0.7171
 5186SOL    HW227021   4.243   4.628   5.108  0.4428  3.1710  1.3028
 5187SOL     OW27022   0.939   0.826   4.615 -0.0979  0.2865  0.7597
 5187SOL    HW127023   0.994   0.792   4.545 -0.5610 -1.0404  1.0500
 5187SOL    HW227024   1.005   0.882   4.657  2.1255 -1.8538  0.1521
 5188SOL     OW27025   2.312   4.496   2.782 -0.0409 -0.1878  0.2474
 5188SOL    HW127026   2.395   4.495   2.735 -1.2690 -1.2080 -1.9002
 5188SOL    HW227027   2.266   4.570   2.743 -0.8407 -0.2099  1.1408
 5189SOL     OW27028   4.431   3.429   4.417  0.0221 -0.0665  0.1384
 5189SOL    HW127029   4.476   3.487   4.356 -0.6344 -1.7588 -1.9556
 5189SOL    HW227030   4.387   3.493   4.474 -0.2739  1.2852 -1.5952
 5190SOL     OW27031   4.102   0.523   8.049 -0.1051  0.5140 -0.5584
 5190SOL    HW127032   4.080   0.597   8.105  1.5208  0.5978 -0.0425
 5190SOL    HW227033   4.177   0.552   7.997  0.4037 -1.0010 -0.6902
 5191SOL     OW27034   3.449   2.608  13.498  0.0404  0.3083  0.4832
 5191SOL    HW127035   3.357   2.600  13.523  0.6214  2.5326  3.4308
 5191SOL    HW227036   3.488   2.680  13.548 -0.5471  0.8715  0.1347
 5192SOL     OW27037   1.722   3.004  10.309 -0.0183  0.3159  0.1737
 5192SOL    HW127038   1.761   3.082  10.269  0.3859  0.9259  1.7642
 5192SOL    HW227039   1.786   2.976  10.374  0.5027 -1.8670 -1.2880
 5193SOL     OW27040   4.035   4.263   2.559 -0.2144 -0.0769  0.2347
 5193SOL    HW127041   4.036   4.346   2.512 -1.7906 -1.0820 -1.6102
 5193SOL    HW227042   4.055   4.196   2.493 -4.5921 -1.9539  0.8337
 5194SOL     OW27043   4.576   2.927  13.733  0.3237 -0.4558  0.2910
 5194SOL    HW127044   4.501   2.987  13.741  0.6714  0.2303 -1.6272
 5194SOL    HW227045   4.653   2.980  13.754  1.0095 -1.0709 -0.6931
 5195SOL     OW27046   4.354   1.402  17.665  0.4012  0.1759 -0.0148
 5195SOL    HW127047   4.376   1.466  17.598  1.9918 -1.3407 -0.9359
 5195SOL    HW227048   4.341   1.331  17.602 -3.0935  0.8571 -0.0413
 5196SOL     OW27049   4.244   2.176   3.094 -0.7205 -0.0917 -0.4535
 5196SOL    HW127050   4.223   2.095   3.141 -0.9913 -0.3194 -0.9752
 5196SOL    HW227051   4.252   2.152   3.002  0.4612 -0.0074 -0.3832
 5197SOL     OW27052   0.114   2.231   3.786 -0.1907  0.1596  0.7121
 5197SOL    HW127053   0.032   2.184   3.803 -1.5757  3.2155  2.4032
 5197SOL    HW227054   0.153   2.170   3.724 -3.2498  0.0926 -1.1644
 5198SOL     OW27055   2.648   4.719  10.273 -0.1799 -0.4926  0.1584
 5198SOL    HW127056   2.735   0.004  10.234  0.0410  1.9520  1.3303
 5198SOL    HW227057   2.592   4.700  10.198 -0.1225 -0.4157  0.0964
 5199SOL     OW27058   3.966   4.306  13.525 -0.9974  0.3383 -0.1641
 5199SOL    HW127059   4.061   4.292  13.534 -1.1538 -0.8079 -0.2150
 5199SOL    HW227060   3.946   4.315  13.432 -0.3933 -0.9956 -0.4373
 5200SOL     OW27061   4.477   0.697   8.792  0.2149 -0.4862  0.1733
 5200SOL    HW127062   4.393   0.733   8.762  1.5796  0.7438 -2.1325
 5200SOL    HW227063   4.496   0.759   8.862  0.6677 -0.7167  0.2536
 5201SOL     OW27064   3.816   0.063   7.971 -0.4990  0.0310  0.0700
 5201SOL    HW127065   3.846   0.041   8.059 -0.6410  0.6450  0.2755
 5201SOL    HW227066   3.844   0.155   7.967  1.1501 -0.5272 -1.1314
 5202SOL     OW27067   4.459   2.983   2.427  0.0094  0.5886  0.3822
 5202SOL    HW127068   4.468   2.959   2.519  0.9229 -0.9297 -0.1068
 5202SOL    HW227069   4.440   3.077   2.433 -1.1373  0.4629 -1.2729
 5203SOL     OW27070   3.715   0.873   7.103 -0.0282  0.2631 -0.4530
 5203SOL    HW127071   3.747   0.879   7.013 -0.4498  1.1052 -0.5449
 5203SOL    HW227072   3.623   0.887   7.080 -0.4113 -0.9332  0.3530
 5204SOL     OW27073   1.925   1.741   4.372  0.2464 -0.3589  0.1878
 5204SOL    HW127074   1.883   1.693   4.443 -0.8457  2.1202  1.1982
 5204SOL    HW227075   2.010   1.760   4.412  0.8614 -0.2317 -1.1546
 5205SOL     OW27076   4.309   2.078   8.417  0.1399  0.1541 -0.7041
 5205SOL    HW127077   4.263   2.153   8.379  1.4761  2.1808  1.6693
 5205SOL    HW227078   4.382   2.120   8.463 -1.2044  0.9668  0.6408
 5206SOL     OW27079   2.206   2.532  16.117 -0.1231  0.6635  0.3876
 5206SOL    HW127080   2.122   2.578  16.129 -0.9137 -0.4739 -0.8361
 5206SOL    HW227081   2.257   2.613  16.108 -1.2106  1.5575  2.0553
 5207SOL     OW27082   1.004   3.527   1.929 -0.6908 -0.1297  0.1321
 5207SOL    HW127083   0.997   3.532   1.833  1.0243  2.4044  0.1502
 5207SOL    HW227084   1.012   3.432   1.931  2.0879  0.1800  2.3212
 5208SOL     OW27085   0.351   3.695  15.288  0.1187  0.2390  0.6330
 5208SOL    HW127086   0.362   3.744  15.206 -2.1096  2.1307  1.4553
 5208SOL    HW227087   0.276   3.640  15.267  1.0738 -1.3901  1.5528
 5209SOL     OW27088   3.947   4.529   7.877  0.4734 -0.0349 -0.0808
 5209SOL    HW127089   3.892   4.578   7.817  0.3957  2.6577  2.2008
 5209SOL    HW227090   3.971   4.606   7.929 -0.1877  0.6198 -0.7668
 5210SOL     OW27091   0.441   4.305  12.202  0.5143 -0.4701 -0.3192
 5210SOL    HW127092   0.465   4.329  12.113  0.4868 -2.6313 -0.9107
 5210SOL    HW227093   0.410   4.215  12.187  1.1249 -0.6283 -0.6160
 5211SOL     OW27094   1.493   0.587   5.943  0.3439 -0.0436  0.3142
 5211SOL    HW127095   1.481   0.636   6.025 -0.6614  0.6049 -0.2134
 5211SOL    HW227096   1.446   0.646   5.884  3.5135  0.2747 -1.9101
 5212SOL     OW27097   0.560   2.177   4.965 -0.4621  0.4402 -0.8517
 5212SOL    HW127098   0.547   2.083   4.983 -3.5043  0.9398 -0.2816
 5212SOL    HW227099   0.477   2.205   5.004 -0.3487 -2.4234  1.4744
 5213SOL     OW27100   4.216   4.085   5.456 -0.2239 -0.1957  0.6414
 5213SOL    HW127101   4.265   4.137   5.392  0.0876 -2.5019 -0.9957
 5213SOL    HW227102   4.139   4.059   5.406 -1.7471  1.0341  2.3323
 5214SOL     OW27103   0.523   3.480   7.247  0.5282  0.1101  0.1574
 5214SOL    HW127104   0.604   3.452   7.206  0.7588  1.3918 -0.2726
 5214SOL    HW227105   0.542   3.565   7.287  1.7642 -0.0743 -0.0400
 5215SOL     OW27106   3.296   0.355   6.916 -0.4605  0.2220  0.5045
 5215SOL    HW127107   3.357   0.419   6.880  0.8263 -0.7597  0.9193
 5215SOL    HW227108   3.248   0.334   6.836 -0.1718 -0.2094  0.4439
 5216SOL     OW27109   2.828   3.507   0.604  0.3282 -0.2954 -0.2201
 5216SOL    HW127110   2.819   3.476   0.694 -0.1901  0.1914 -0.1025
 5216SOL    HW227111   2.918   3.537   0.609  0.6499 -1.5559  1.6983
 5217SOL     OW27112   4.330   1.200   4.933  0.2327  0.5551  0.0799
 5217SOL    HW127113   4.373   1.198   5.019 -1.6505 -1.0373  0.9932
 5217SOL    HW227114   4.394   1.246   4.878 -1.7677  0.0527 -2.6725
 5218SOL     OW27115   1.257   2.376   1.370  0.1550 -0.2948  0.1141
 5218SOL    HW127116   1.308   2.330   1.303 -0.6884 -0.9743 -0.0649
 5218SOL    HW227117   1.218   2.445   1.316  1.4040  0.6179  0.3728
 5219SOL     OW27118   2.144   4.002   2.799 -0.2982  0.1328 -0.6379
 5219SOL    HW127119   2.089   3.972   2.726 -0.1154 -0.8967 -0.3451
 5219SOL    HW227120   2.105   3.947   2.866  1.2670  0.0638  0.2149
 5220SOL     OW27121   1.016   4.356  10.763  0.1494  0.3355 -0.5126
 5220SOL    HW127122   1.069   4.436  10.770  2.8675 -1.5406  0.3644
 5220SOL    HW227123   0.960   4.382  10.690 -1.2135 -2.4148 -0.4432
 5221SOL     OW27124   3.030   0.074  16.167 -0.3627  0.1598 -0.2983
 5221SOL    HW127125   3.002   0.052  16.256  1.6922 -0.9942  0.0788
 5221SOL    HW227126   3.122   0.046  16.164 -0.2416  0.5351 -0.1855
 5222SOL     OW27127   1.322   0.919   3.084  0.1827 -0.5977 -0.0127
 5222SOL    HW127128   1.410   0.954   3.099  0.0658 -1.4261  2.6399
 5222SOL    HW227129   1.296   0.952   2.998  1.5091  1.0725  0.2051
 5223SOL     OW27130   4.526   2.868  12.394 -0.0431 -0.2292 -0.0299
 5223SOL    HW127131   4.560   2.785  12.362  0.9148  1.2658 -2.9263
 5223SOL    HW227132   4.571   2.924  12.330  2.2993 -1.9365  0.1447
 5224SOL     OW27133   0.256   3.956  11.830  0.1246 -0.7888  0.5149
 5224SOL    HW127134   0.245   3.963  11.735 -1.4621  3.0538  1.0081
 5224SOL    HW227135   0.308   3.876  11.819  1.0791 -0.2387  1.0469
 5225SOL     OW27136   3.170   1.411   8.027  0.2382 -0.1132 -0.2399
 5225SOL    HW127137   3.204   1.337   7.977 -0.4805 -0.7733  0.2564
 5225SOL    HW227138   3.233   1.480   8.004 -0.2730  0.5417  0.3199
 5226SOL     OW27139   0.497   1.933   5.619  0.0418 -0.3441  0.0114
 5226SOL    HW127140   0.531   1.845   5.631  0.8515  0.3798  2.8918
 5226SOL    HW227141   0.514   1.982   5.699 -1.1341  0.2708 -0.1045
 5227SOL     OW27142   2.436   4.086   2.201 -0.3403 -0.1427 -0.1596
 5227SOL    HW127143   2.433   4.146   2.276  0.4736 -0.7128  0.3218
 5227SOL    HW227144   2.358   4.040   2.232 -1.1012  1.4474  0.3436
 5228SOL     OW27145   2.159   3.081   0.195  0.2707  0.1244 -0.0166
 5228SOL    HW127146   2.252   3.092   0.177  0.2774  2.8193  1.6901
 5228SOL    HW227147   2.133   3.171   0.177  1.7883  0.8073  1.2885
 5229SOL     OW27148   2.513   0.378   2.324  0.3685  0.1692  0.7543
 5229SOL    HW127149   2.551   0.323   2.392  0.5587 -0.1793  0.3687
 5229SOL    HW227150   2.462   0.428   2.387 -1.1062 -0.9251  0.4289
 5230SOL     OW27151   2.001   4.315   8.323  0.5518  0.3601  0.8521
 5230SOL    HW127152   2.069   4.257   8.291  0.3513 -0.3857  1.7829
 5230SOL    HW227153   1.918   4.273   8.298  0.2944 -0.0516  2.4118
 5231SOL     OW27154   0.020   2.076  12.074 -0.1745 -0.4457 -0.3517
 5231SOL    HW127155   0.004   1.984  12.052 -1.3085 -0.3931  0.2248
 5231SOL    HW227156   4.688   2.080  12.150  0.9296 -1.8261  0.5800
 5232SOL     OW27157   3.507   4.606   1.297 -0.4132 -0.5250  0.4014
 5232SOL    HW127158   3.442   4.646   1.356  0.1878  0.8998  0.1013
 5232SOL    HW227159   3.511   4.513   1.319 -0.0228 -0.1133  2.1037
 5233SOL     OW27160   4.643   3.164   8.757  0.0947  0.5823  0.0066
 5233SOL    HW127161   4.706   3.234   8.739 -0.1134  0.7023 -0.2674
 5233SOL    HW227162   4.593   3.175   8.676 -1.3966  1.1018  0.9880
 5234SOL     OW27163   1.007   1.528   3.231  0.4955 -0.1734  0.4135
 5234SOL    HW127164   1.065   1.579   3.175  0.0447 -0.6289 -0.4675
 5234SOL    HW227165   1.023   1.579   3.310  0.9217  1.6630 -0.8652
 5235SOL     OW27166   3.774   0.566   9.966  0.1174  0.6130  0.2105
 5235SOL    HW127167   3.731   0.540  10.048 -0.1945 -0.8464 -0.4119
 5235SOL    HW227168   3.787   0.660   9.976 -2.4204  0.8513  1.5125
 5236SOL     OW27169   4.377   3.528   2.624 -0.2648  0.1534  0.8227
 5236SOL    HW127170   4.458   3.522   2.574  0.2816  1.1587  1.5875
 5236SOL    HW227171   4.405   3.500   2.711  0.1853  1.1322  0.9973
 5237SOL     OW27172   1.104   2.321   3.869  0.1910  0.9229  0.3482
 5237SOL    HW127173   1.132   2.266   3.942 -2.0532  1.2845  1.4943
 5237SOL    HW227174   1.189   2.361   3.853 -0.5161  1.6865 -1.5422
 5238SOL     OW27175   2.301   4.634   3.704  0.3117 -0.4350 -0.0083
 5238SOL    HW127176   2.235   4.653   3.771  0.8606 -1.3065  0.7833
 5238SOL    HW227177   2.361   4.709   3.705  1.3386 -1.2217 -3.1784
 5239SOL     OW27178   3.871   4.458   2.847 -0.0231 -0.5166 -0.0618
 5239SOL    HW127179   3.966   4.459   2.843  0.0025 -1.4702  0.3784
 5239SOL    HW227180   3.869   4.402   2.924  1.5637 -2.2078 -1.2268
 5240SOL     OW27181   4.014   0.609   8.733 -0.0042 -0.0477  0.4009
 5240SOL    HW127182   3.977   0.526   8.703  0.9004  0.0549 -0.9906
 5240SOL    HW227183   4.105   0.603   8.702  0.1841 -1.9649  1.2977
 5241SOL     OW27184   4.151   3.753   9.882 -0.1317 -0.0125  0.0172
 5241SOL    HW127185   4.216   3.747   9.812  2.4467  2.1093  2.2679
 5241SOL    HW227186   4.134   3.846   9.871  3.1230  0.4677 -0.9552
 5242SOL     OW27187   0.057   4.516   3.272  0.2643 -0.2338 -0.4202
 5242SOL    HW127188   0.015   4.437   3.239 -0.1110 -1.1195  2.2047
 5242SOL    HW227189   0.006   4.520   3.353 -0.9264 -0.5895 -1.1519
 5243SOL     OW27190   1.891   2.575   1.532  0.3309  0.2510  0.0063
 5243SOL    HW127191   1.842   2.632   1.473  0.5196  3.0623  2.5477
 5243SOL    HW227192   1.828   2.574   1.604  1.1386 -1.9508  0.6655
 5244SOL     OW27193   0.052   0.745  13.051 -0.3554  0.6108  0.4855
 5244SOL    HW127194   4.683   0.751  13.051 -0.4652 -0.8794  4.0968
 5244SOL    HW227195   0.083   0.735  12.961 -2.1326  2.3177 -0.3085
 5245SOL     OW27196   3.393   1.711   0.520 -0.3106 -0.1082  0.2160
 5245SOL    HW127197   3.312   1.760   0.500  0.5727  1.4058  0.3329
 5245SOL    HW227198   3.358   1.622   0.526 -0.3353 -0.2248 -1.7042
 5246SOL     OW27199   4.177   2.505   4.221  0.1071  0.0439 -0.0464
 5246SOL    HW127200   4.086   2.491   4.194 -0.8408  2.1338  2.0471
 5246SOL    HW227201   4.214   2.522   4.134 -0.6343  0.6661 -0.2361
 5247SOL     OW27202   4.387   1.976   9.922 -0.1699  0.3494 -0.3563
 5247SOL    HW127203   4.404   1.906   9.859 -1.1626 -0.4196  0.2415
 5247SOL    HW227204   4.438   1.953   9.999  0.5160  0.4145 -0.7849
 5248SOL     OW27205   2.696   0.938   1.624  0.1142 -0.5129  0.0523
 5248SOL    HW127206   2.624   0.960   1.564 -0.8989 -0.8142  1.1610
 5248SOL    HW227207   2.661   0.962   1.709  0.1009 -1.2499  0.2553
 5249SOL     OW27208   2.315   3.516   8.886 -0.7855  0.4231 -0.5300
 5249SOL    HW127209   2.252   3.569   8.935 -0.4013 -0.4865  0.9197
 5249SOL    HW227210   2.371   3.494   8.960 -0.4154  1.0296 -0.6282
 5250SOL     OW27211   1.307   1.402  10.030 -0.2724  0.6988  0.0244
 5250SOL    HW127212   1.290   1.334   9.964  2.4788 -0.4076  0.4515
 5250SOL    HW227213   1.389   1.430   9.989 -0.1475  0.8075  0.3536
 5251SOL     OW27214   0.357   3.770   4.349 -0.2711 -0.1368 -0.2819
 5251SOL    HW127215   0.374   3.759   4.442 -1.4290  2.2241  0.2227
 5251SOL    HW227216   0.334   3.863   4.343 -0.2379 -0.0432  1.2638
 5252SOL     OW27217   3.554   0.311   2.818  0.1411 -0.4817  0.2090
 5252SOL    HW127218   3.616   0.246   2.850  0.8313  0.5417  0.9435
 5252SOL    HW227219   3.545   0.370   2.892  1.7816 -0.5256  0.4324
 5253SOL     OW27220   4.141   3.082   2.890  0.1816 -0.1290 -0.0355
 5253SOL    HW127221   4.085   3.154   2.917  1.3374 -0.0136  2.1169
 5253SOL    HW227222   4.127   3.097   2.797 -1.4406 -1.8779 -0.0895
 5254SOL     OW27223   3.177   3.863   4.701  0.4828 -0.5052 -0.2406
 5254SOL    HW127224   3.168   3.958   4.707 -0.6908 -0.6527  0.2620
 5254SOL    HW227225   3.085   3.840   4.716  0.1821  1.6108  1.1440
 5255SOL     OW27226   1.176   2.667   9.260 -0.5341  0.6299  0.0774
 5255SOL    HW127227   1.219   2.751   9.242 -1.2154  0.8696 -0.4235
 5255SOL    HW227228   1.213   2.650   9.347  0.0359  0.6759 -0.1526
 5256SOL     OW27229   3.420   2.820   4.525 -0.0624 -0.5449 -0.3431
 5256SOL    HW127230   3.333   2.779   4.529 -1.7325  3.0907  0.2708
 5256SOL    HW227231   3.394   2.911   4.511 -0.9168 -0.7793 -0.2690
 5257SOL     OW27232   4.531   1.849   4.880  0.0017  0.3432  0.6272
 5257SOL    HW127233   4.440   1.824   4.865  0.4783 -2.2356  1.9908
 5257SOL    HW227234   4.526   1.933   4.925 -1.2858  0.2517  0.6432
 5258SOL     OW27235   3.701   4.197  12.531 -0.0873  0.2609  0.2423
 5258SOL    HW127236   3.719   4.291  12.529  0.0023  0.2891  2.3122
 5258SOL    HW227237   3.695   4.182  12.436 -0.7813 -0.5882  0.4189
 5259SOL     OW27238   1.087   4.185   8.568  0.3419  0.0745  0.3737
 5259SOL    HW127239   1.138   4.190   8.488  1.0220 -0.0009  0.8034
 5259SOL    HW227240   1.047   4.098   8.572  0.2906  0.1094  0.6438
 5260SOL     OW27241   0.709   2.665  15.002  0.1316  0.1987 -0.0128
 5260SOL    HW127242   0.635   2.634  15.054  0.6956 -0.4653  0.3929
 5260SOL    HW227243   0.783   2.624  15.047 -0.0223  0.1991  0.2400
 5261SOL     OW27244   3.184   0.840   7.643  0.4470  0.1282  0.5183
 5261SOL    HW127245   3.122   0.834   7.570  2.2680 -1.1784 -0.9330
 5261SOL    HW227246   3.184   0.746   7.662  3.6575 -0.1882 -0.9624
 5262SOL     OW27247   4.301   1.485  14.007 -0.6589 -0.2478  0.2829
 5262SOL    HW127248   4.279   1.436  14.086 -0.6845  0.0547  0.4638
 5262SOL    HW227249   4.227   1.546  14.006  0.9081  1.6855  1.3388
 5263SOL     OW27250   3.533   1.777   8.604  0.4158  0.6969 -0.1425
 5263SOL    HW127251   3.562   1.701   8.654  0.7137  0.1892 -1.0834
 5263SOL    HW227252   3.511   1.727   8.526 -0.4190  2.5590 -1.1166
 5264SOL     OW27253   2.718   0.874   9.132 -0.6665  0.3286  0.0557
 5264SOL    HW127254   2.689   0.796   9.085  0.0261  0.3945 -0.4736
 5264SOL    HW227255   2.638   0.883   9.184 -1.2757 -1.5953 -0.5346
 5265SOL     OW27256   1.520   3.431  12.370 -0.1997 -0.6122 -0.5944
 5265SOL    HW127257   1.543   3.513  12.326  2.3579 -1.8839 -1.6427
 5265SOL    HW227258   1.506   3.368  12.298  1.4592 -1.1345 -0.4492
 5266SOL     OW27259   1.455   2.280  14.761 -0.1195  0.5447 -0.4924
 5266SOL    HW127260   1.495   2.316  14.840 -0.0153  1.1108 -0.8038
 5266SOL    HW227261   1.363   2.290  14.785 -0.0124 -1.4696  0.7990
 5267SOL     OW27262   3.805   3.495  13.805 -0.1042  0.0432  0.4630
 5267SOL    HW127263   3.825   3.579  13.764  0.5934 -0.5481 -0.4082
 5267SOL    HW227264   3.758   3.519  13.885 -2.4170 -0.6999 -0.6529
 5268SOL     OW27265   3.850   0.804   7.950 -0.6151 -0.1369  0.0648
 5268SOL    HW127266   3.774   0.773   7.999 -1.3344  0.4692 -0.6618
 5268SOL    HW227267   3.858   0.719   7.905  1.0080  0.4305 -0.6995
 5269SOL     OW27268   4.725   3.502   2.757 -0.3233  0.2168 -0.1562
 5269SOL    HW127269   0.046   3.418   2.764 -1.3229 -0.3628 -0.4295
 5269SOL    HW227270   4.678   3.500   2.674 -0.2122 -1.6591 -0.1795
 5270SOL     OW27271   3.582   4.245   9.008  0.3031 -0.2533 -0.5075
 5270SOL    HW127272   3.561   4.159   9.047 -1.8228 -0.1558 -1.4423
 5270SOL    HW227273   3.589   4.307   9.080 -0.7042 -1.1545  0.3653
 5271SOL     OW27274   1.184   2.872   2.723  0.3646 -0.0269  0.4696
 5271SOL    HW127275   1.178   2.892   2.816 -1.1095  0.2724  0.3168
 5271SOL    HW227276   1.093   2.890   2.700  0.4101  0.2025  0.4643
 5272SOL     OW27277   1.817   1.851  14.555  0.1393 -0.3843  0.4319
 5272SOL    HW127278   1.766   1.919  14.511 -0.1564  0.3391  1.8924
 5272SOL    HW227279   1.744   1.814  14.605  1.1128 -2.0970  0.5732
 5273SOL     OW27280   2.946   0.698   8.236 -0.1479  0.3443 -0.0545
 5273SOL    HW127281   3.029   0.675   8.277  0.2739  2.0744  0.0521
 5273SOL    HW227282   2.878   0.674   8.300  2.1435  0.9534  2.6137
 5274SOL     OW27283   0.380   4.358   2.775  0.3150 -0.0398 -0.2193
 5274SOL    HW127284   0.375   4.429   2.710 -1.3887 -0.1503 -0.2326
 5274SOL    HW227285   0.444   4.403   2.829  0.6450 -0.6076 -0.1412
 5275SOL     OW27286   0.479   2.235   4.636 -0.1766  0.5234 -0.0267
 5275SOL    HW127287   0.510   2.250   4.546  1.0173  0.6425  0.3977
 5275SOL    HW227288   0.555   2.184   4.664 -1.0637 -2.2281 -2.7181
 5276SOL     OW27289   0.128   1.868   4.177  0.3635  0.6427  0.2715
 5276SOL    HW127290   0.117   1.777   4.206  0.1537  0.6078  0.0838
 5276SOL    HW227291   0.199   1.865   4.113  2.6382 -0.0259  2.8026
 5277SOL     OW27292   3.364   1.781   2.310 -0.1058  0.3644 -0.4255
 5277SOL    HW127293   3.416   1.851   2.272  0.0121 -0.1036 -1.1200
 5277SOL    HW227294   3.280   1.778   2.263  0.7083  1.4278 -1.9375
 5278SOL     OW27295   2.194   0.400   9.933 -0.1509 -0.5123 -0.5600
 5278SOL    HW127296   2.184   0.315   9.976 -1.5138 -0.4256 -0.7103
 5278SOL    HW227297   2.117   0.406   9.877 -2.1860  0.6098  2.3555
 5279SOL     OW27298   4.708   4.133   5.306 -0.1085  0.3206  0.8013
 5279SOL    HW127299   4.699   4.206   5.367 -1.9760 -0.4308  1.4506
 5279SOL    HW227300   4.679   4.052   5.347  0.2393 -0.5040 -0.5774
 5280SOL     OW27301   2.018   0.453   6.406  0.5610 -0.1640  0.0704
 5280SOL    HW127302   1.966   0.518   6.453 -0.3556 -1.3949  0.7732
 5280SOL    HW227303   1.945   0.417   6.355  2.1572 -1.4323 -1.3254
 5281SOL     OW27304   0.354   4.446   8.342  0.3349 -0.1720 -0.0037
 5281SOL    HW127305   0.312   4.360   8.340  0.5844 -0.3482  1.8768
 5281SOL    HW227306   0.293   4.489   8.282  0.9359  1.3103  0.4386
 5282SOL     OW27307   2.124   2.325   6.419 -0.0083  0.5887  0.1789
 5282SOL    HW127308   2.135   2.261   6.349  0.3219  2.0745 -1.1498
 5282SOL    HW227309   2.169   2.288   6.495 -1.9974  1.3752  1.7153
 5283SOL     OW27310   0.846   4.565  17.586 -0.1385 -0.0159 -0.3011
 5283SOL    HW127311   0.824   4.582  17.678 -1.1232  0.4878 -0.6211
 5283SOL    HW227312   0.799   4.635  17.541 -1.5906 -0.7200  0.1284
 5284SOL     OW27313   1.360   1.831   6.928 -0.5251  0.6372  0.7672
 5284SOL    HW127314   1.367   1.764   6.860  0.4628  1.7807 -0.2583
 5284SOL    HW227315   1.287   1.883   6.895 -0.1817  1.6310  1.5828
 5285SOL     OW27316   2.982   3.453   5.108 -0.2265 -0.0412 -0.0259
 5285SOL    HW127317   2.999   3.545   5.091  1.9594 -0.6113 -0.8385
 5285SOL    HW227318   2.906   3.450   5.166  1.1751  1.0995  1.8579
 5286SOL     OW27319   0.546   0.461   6.824 -0.4368 -0.4723 -0.0392
 5286SOL    HW127320   0.489   0.428   6.754 -0.4620  0.7294 -0.5819
 5286SOL    HW227321   0.495   0.437   6.901  0.3798 -1.2031  0.2717
 5287SOL     OW27322   4.419   0.735   0.390 -0.0576 -0.4187 -0.3789
 5287SOL    HW127323   4.504   0.779   0.397 -0.2300 -0.2684  0.7457
 5287SOL    HW227324   4.369   0.813   0.366 -1.9612 -0.7155  2.7133
 5288SOL     OW27325   2.176   4.145   0.603 -0.0391  0.1173  0.4275
 5288SOL    HW127326   2.120   4.214   0.568 -0.2686 -0.8141 -1.0631
 5288SOL    HW227327   2.192   4.183   0.689 -5.6715 -0.8539  1.9058
 5289SOL     OW27328   2.272   4.265   5.541  0.4697  0.5332 -0.3053
 5289SOL    HW127329   2.190   4.308   5.516 -0.1188 -0.2056  0.3194
 5289SOL    HW227330   2.339   4.291   5.479  0.3294  0.1082 -0.6340
 5290SOL     OW27331   3.795   1.372   6.462 -0.1091 -0.3435  0.2941
 5290SOL    HW127332   3.825   1.353   6.373 -2.2335 -0.6449 -0.3599
 5290SOL    HW227333   3.812   1.281   6.489  0.8946 -0.4140 -0.5639
 5291SOL     OW27334   3.677   2.035   8.167  0.5537 -0.0120  0.0343
 5291SOL    HW127335   3.611   1.999   8.226 -1.1807  2.1290 -0.5864
 5291SOL    HW227336   3.722   1.957   8.135  1.1912 -0.2552  1.5217
 5292SOL     OW27337   2.708   1.998   9.635 -0.5506 -0.3676 -0.4053
 5292SOL    HW127338   2.680   1.987   9.726  0.7814  2.8352  0.3710
 5292SOL    HW227339   2.783   2.056   9.633 -0.6692 -0.2970 -2.4121
 5293SOL     OW27340   4.092   2.782   7.709 -0.1723  0.4486 -0.0317
 5293SOL    HW127341   4.011   2.772   7.758 -0.3149 -0.8851 -0.5345
 5293SOL    HW227342   4.157   2.745   7.768 -0.2856 -1.5874 -1.1682
 5294SOL     OW27343   3.722   2.032   1.209 -0.3300 -0.3880  0.0694
 5294SOL    HW127344   3.781   2.095   1.250  0.4490  0.1190 -1.7983
 5294SOL    HW227345   3.655   2.090   1.172  2.4621  1.8570 -1.4934
 5295SOL     OW27346   1.525   4.541   2.942 -0.2738  0.6323  0.2705
 5295SOL    HW127347   1.499   4.631   2.962 -0.8959  0.6976 -0.8322
 5295SOL    HW227348   1.617   4.557   2.921 -0.5780  1.0912 -0.6784
 5296SOL     OW27349   2.858   4.213   4.476  0.7088  0.5854  0.3921
 5296SOL    HW127350   2.901   4.150   4.533 -1.4892 -1.7421 -0.5309
 5296SOL    HW227351   2.822   4.268   4.544  1.5183  2.3387 -0.5856
 5297SOL     OW27352   2.959   1.656   8.660 -0.7033  0.1631  0.0852
 5297SOL    HW127353   2.958   1.709   8.581 -0.1368 -0.1911 -0.1532
 5297SOL    HW227354   3.045   1.616   8.653 -0.7262  0.0956  0.1819
 5298SOL     OW27355   4.061   3.554   1.694 -0.0443  0.8482 -0.0241
 5298SOL    HW127356   4.046   3.558   1.599  1.4218 -0.4439 -0.3187
 5298SOL    HW227357   4.155   3.570   1.695  0.2055 -0.6364  1.0974
 5299SOL     OW27358   2.086   2.438   0.389  0.6836  0.3317  0.6731
 5299SOL    HW127359   2.133   2.355   0.388 -2.2102 -1.3032  1.3778
 5299SOL    HW227360   2.002   2.415   0.347  1.2974 -0.4272 -0.1373
 5300SOL     OW27361   4.318   1.279   0.618 -0.0044 -0.2594 -0.2850
 5300SOL    HW127362   4.254   1.211   0.638 -2.7970  2.0722 -1.2898
 5300SOL    HW227363   4.314   1.314   0.707 -1.7825  4.1287 -2.0453
 5301SOL     OW27364   2.221   2.268  12.154  0.1224  0.2407  0.2334
 5301SOL    HW127365   2.289   2.241  12.215  1.7286 -1.9638 -2.4929
 5301SOL    HW227366   2.147   2.208  12.166 -0.4415  1.3151  2.1834
 5302SOL     OW27367   0.667   3.063   5.143  0.2387 -0.0911 -0.0488
 5302SOL    HW127368   0.596   3.087   5.201 -0.3180 -1.2241 -0.2502
 5302SOL    HW227369   0.671   2.967   5.146  0.9865 -0.0165  1.1925
 5303SOL     OW27370   2.894   0.138   7.019  0.1178 -0.0852 -0.3138
 5303SOL    HW127371   2.966   0.133   7.082  1.3091  1.4579 -1.5516
 5303SOL    HW227372   2.832   0.076   7.057 -0.1572  1.5089  1.8726
 5304SOL     OW27373   4.293   1.588  13.698 -0.0455  0.1955  0.2640
 5304SOL    HW127374   4.228   1.582  13.769  0.1141  1.0331  0.4822
 5304SOL    HW227375   4.351   1.524  13.739  1.5642  1.0132 -0.7303
 5305SOL     OW27376   2.915   2.069   6.031 -0.2355  0.2306  0.7601
 5305SOL    HW127377   2.937   2.132   5.962 -1.9490 -0.0717 -0.0664
 5305SOL    HW227378   3.002   2.035   6.050 -0.8769 -2.0412 -0.2904
 5306SOL     OW27379   0.697   3.149  12.317  0.4330 -0.4056  0.3264
 5306SOL    HW127380   0.630   3.158  12.386 -1.2093  0.4979 -1.3904
 5306SOL    HW227381   0.752   3.081  12.357 -0.5924 -0.7341  1.1981
 5307SOL     OW27382   3.062   4.231   1.298 -0.3461 -0.2381  0.1580
 5307SOL    HW127383   3.089   4.306   1.351  2.5606 -0.7340 -0.6454
 5307SOL    HW227384   3.066   4.269   1.210 -0.7574  0.3669  0.3984
 5308SOL     OW27385   0.955   0.138   6.839  0.3727  0.4483 -0.2860
 5308SOL    HW127386   0.989   0.049   6.838  2.2544  1.1334  1.4380
 5308SOL    HW227387   1.031   0.189   6.868  0.6923 -1.2065  1.8224
 5309SOL     OW27388   3.295   4.070   6.216  0.0262  0.4322 -0.4058
 5309SOL    HW127389   3.234   4.142   6.230  0.7592  1.0402 -0.3491
 5309SOL    HW227390   3.259   4.024   6.140  1.3380 -0.2384 -0.6110
 5310SOL     OW27391   4.022   2.211   8.900 -0.4124 -0.2938  0.0595
 5310SOL    HW127392   4.040   2.184   8.810 -0.6383  2.6525 -0.8680
 5310SOL    HW227393   3.933   2.245   8.895  0.2076  1.2803 -0.4366
 5311SOL     OW27394   0.031   0.901   6.363  0.1572  0.2475  0.3137
 5311SOL    HW127395   0.061   0.814   6.392  0.6143 -0.0889 -1.1525
 5311SOL    HW227396   0.030   0.882   6.269 -0.0723  3.1513 -0.2493
 5312SOL     OW27397   4.645   1.126   7.148 -0.2074  0.3148 -0.3961
 5312SOL    HW127398   4.555   1.135   7.119 -0.8869  1.3785  2.0315
 5312SOL    HW227399   4.632   1.091   7.237  2.4426 -0.2102 -0.1876
 5313SOL     OW27400   4.358   3.625   5.906  0.5261 -0.1501 -0.2593
 5313SOL    HW127401   4.354   3.561   5.836  0.0816 -0.7002  0.2742
 5313SOL    HW227402   4.267   3.648   5.925  0.3175  0.3942 -1.9358
 5314SOL     OW27403   3.072   1.191   4.387 -0.0370 -0.4817  0.1639
 5314SOL    HW127404   3.001   1.156   4.441 -0.6392 -1.0809 -1.0214
 5314SOL    HW227405   3.134   1.217   4.456  0.3557 -1.2185  0.0864
 5315SOL     OW27406   3.363   3.615   6.026 -0.2991 -0.2372  0.0130
 5315SOL    HW127407   3.363   3.629   6.121 -0.3115  2.7037 -0.4327
 5315SOL    HW227408   3.292   3.551   6.014 -1.7741  1.3320  0.3901
 5316SOL     OW27409   0.188   2.912  12.552  0.0312  0.3143 -0.3476
 5316SOL    HW127410   0.100   2.900  12.587  1.7028 -5.5640  1.8047
 5316SOL    HW227411   0.195   3.008  12.551 -3.5602  0.5736  0.3801
 5317SOL     OW27412   4.244   3.276   4.656  0.1604 -0.0542 -0.0419
 5317SOL    HW127413   4.258   3.335   4.730  0.9392 -0.0865 -0.1619
 5317SOL    HW227414   4.312   3.214   4.684  1.7988  1.8826  0.2092
 5318SOL     OW27415   4.248   0.863   2.239 -0.0686 -0.0513  0.4945
 5318SOL    HW127416   4.175   0.921   2.218 -0.4246 -0.4899  0.5178
 5318SOL    HW227417   4.236   0.844   2.332 -0.0960 -0.7827  0.3428
 5319SOL     OW27418   3.753   0.416   9.732 -0.2790 -0.3129  0.1050
 5319SOL    HW127419   3.747   0.468   9.813 -0.8255  1.9126 -1.3723
 5319SOL    HW227420   3.689   0.347   9.751 -1.0895  0.6646  0.9504
 5320SOL     OW27421   3.960   1.877   1.365 -0.1573  0.7083  0.3231
 5320SOL    HW127422   3.926   1.797   1.325 -0.7301  0.6029  1.0115
 5320SOL    HW227423   4.001   1.925   1.294 -1.2083 -0.2445 -0.9214
 5321SOL     OW27424   1.193   1.538   2.223 -0.0048  0.2855 -0.2879
 5321SOL    HW127425   1.267   1.573   2.175 -0.5985  0.7095 -0.8817
 5321SOL    HW227426   1.148   1.477   2.165 -0.6001 -0.2863  0.7633
 5322SOL     OW27427   1.165   3.126   3.157 -0.0219  0.5907  0.2325
 5322SOL    HW127428   1.148   3.083   3.073 -0.1162 -1.1890  1.1450
 5322SOL    HW227429   1.229   3.070   3.201  2.3258  1.7009 -1.8462
 5323SOL     OW27430   3.012   0.389   1.776 -0.0640 -0.4211 -0.2347
 5323SOL    HW127431   2.952   0.412   1.705 -1.1377  2.8739  1.7434
 5323SOL    HW227432   3.094   0.436   1.760  0.3588 -1.3268 -0.7353
 5324SOL     OW27433   0.729   1.742   1.870  0.3241 -0.6860  0.6742
 5324SOL    HW127434   0.789   1.756   1.797  0.3512  0.2332  0.8691
 5324SOL    HW227435   0.702   1.653   1.846  1.0393 -0.9882  1.0019
 5325SOL     OW27436   0.249   0.584  10.739 -0.1064 -0.2486 -0.2974
 5325SOL    HW127437   0.305   0.616  10.810  0.0464  1.7450 -1.2996
 5325SOL    HW227438   0.187   0.544  10.799  0.3609  0.1630  0.4674
 5326SOL     OW27439   2.952   1.152   3.185 -0.5240 -0.5644 -0.2824
 5326SOL    HW127440   2.995   1.106   3.257 -0.0842  0.1138 -0.1104
 5326SOL    HW227441   2.965   1.084   3.119 -0.3092 -0.8194  0.0210
 5327SOL     OW27442   0.052   3.412  12.644 -0.2601 -0.0261  0.4249
 5327SOL    HW127443   4.696   3.383  12.683 -0.4188  0.7726  0.6639
 5327SOL    HW227444   0.055   3.507  12.654  0.1080 -0.2581  2.5478
 5328SOL     OW27445   2.372   3.428   3.098 -0.1029  0.6537 -0.5767
 5328SOL    HW127446   2.285   3.458   3.071  0.4836  0.9473 -2.1105
 5328SOL    HW227447   2.437   3.474   3.045  0.8278  0.0455  0.0313
 5329SOL     OW27448   0.314   4.553   4.911  0.0717 -0.2939 -0.3740
 5329SOL    HW127449   0.279   4.553   5.000 -1.3185 -0.1062 -0.9269
 5329SOL    HW227450   0.232   4.524   4.871 -0.6518  0.6355  0.4195
 5330SOL     OW27451   4.413   2.801   8.698 -1.3165 -0.4213  0.1444
 5330SOL    HW127452   4.478   2.751   8.748  0.0924  1.6088  0.3571
 5330SOL    HW227453   4.463   2.823   8.619  1.1077 -2.4553  1.1115
 5331SOL     OW27454   1.246   0.878  10.310 -0.7538  0.8810  0.0887
 5331SOL    HW127455   1.274   0.949  10.253 -0.9971  1.3565  0.5615
 5331SOL    HW227456   1.177   0.930  10.351  0.8153  0.7339  2.9439
 5332SOL     OW27457   3.805   0.645   1.147 -0.4163  0.6247 -0.3218
 5332SOL    HW127458   3.731   0.705   1.142 -0.1869  0.6732 -3.2932
 5332SOL    HW227459   3.819   0.638   1.241  0.1783 -1.2013 -0.5289
 5333SOL     OW27460   0.113   3.725   4.222 -0.3453 -0.3639 -0.3830
 5333SOL    HW127461   0.198   3.709   4.262  0.4053 -2.2666 -2.7302
 5333SOL    HW227462   0.150   3.792   4.166 -1.9453  0.6860 -0.1706
 5334SOL     OW27463   4.384   2.333   1.536  0.3859 -0.7899  0.4435
 5334SOL    HW127464   4.299   2.323   1.579  0.1454 -2.0791 -0.3183
 5334SOL    HW227465   4.389   2.419   1.494  2.4416 -0.5317  1.1984
 5335SOL     OW27466   1.661   3.028   3.181  0.5653 -0.2826 -0.2192
 5335SOL    HW127467   1.711   2.982   3.113  0.3904 -1.1291  0.2335
 5335SOL    HW227468   1.720   3.031   3.256  0.3380  0.7011 -0.0871
 5336SOL     OW27469   1.660   3.657   4.152 -0.2219 -0.1308 -0.1833
 5336SOL    HW127470   1.606   3.736   4.146  1.1773  0.6325 -2.7199
 5336SOL    HW227471   1.667   3.641   4.058  0.6928 -2.6417  0.2987
 5337SOL     OW27472   1.392   1.575   2.037  0.1161 -0.3598 -0.0615
 5337SOL    HW127473   1.457   1.547   2.101 -0.8309 -3.5525 -0.5285
 5337SOL    HW227474   1.444   1.650   2.009 -0.3948  0.6847  1.7579
 5338SOL     OW27475   3.309   0.690   9.190 -0.1102 -0.1936 -0.2215
 5338SOL    HW127476   3.247   0.746   9.145 -1.3617 -0.2952  1.3838
 5338SOL    HW227477   3.391   0.721   9.151  0.4992  0.8910  1.8971
 5339SOL     OW27478   1.271   3.214   6.260 -0.1808 -0.1444 -0.3306
 5339SOL    HW127479   1.271   3.308   6.277 -0.0572  0.1542 -2.0319
 5339SOL    HW227480   1.180   3.200   6.234 -0.2053 -0.0522 -0.2936
 5340SOL     OW27481   3.410   1.023   0.955 -0.8839 -0.9593 -0.1345
 5340SOL    HW127482   3.328   1.003   1.000  0.3845 -0.2657  2.4591
 5340SOL    HW227483   3.444   1.085   1.019  1.5821 -1.3911 -1.0299
 5341SOL     OW27484   4.695   3.128   5.429 -0.8870 -0.1443  0.0023
 5341SOL    HW127485   4.709   3.067   5.356 -0.2845 -1.7825  1.5098
 5341SOL    HW227486   0.053   3.173   5.426 -0.6162 -0.5820  1.4049
 5342SOL     OW27487   2.665   0.194   0.903  0.1151  0.4764 -0.2857
 5342SOL    HW127488   2.578   0.154   0.902 -0.2346  1.1808  3.4155
 5342SOL    HW227489   2.649   0.281   0.938 -1.6716 -0.0331  0.1619
 5343SOL     OW27490   2.829   0.352   2.291 -0.4323  0.4232  0.2644
 5343SOL    HW127491   2.746   0.397   2.308 -1.0708 -0.6724  0.0343
 5343SOL    HW227492   2.798   0.306   2.213 -0.6902  2.6704 -0.9825
 5344SOL     OW27493   3.387   1.199  10.783  0.4873 -0.1387  0.2011
 5344SOL    HW127494   3.391   1.274  10.723  1.1077 -0.3724 -0.0556
 5344SOL    HW227495   3.409   1.245  10.864  1.5884  1.0732 -0.7725
 5345SOL     OW27496   4.586   2.734   5.663  0.7264 -0.1742  0.0709
 5345SOL    HW127497   4.562   2.687   5.583  2.2204 -0.3237 -0.2938
 5345SOL    HW227498   4.516   2.699   5.717  0.4078 -1.2331 -1.0056
 5346SOL     OW27499   3.390   0.542   5.132  0.1126 -0.1678 -0.3909
 5346SOL    HW127500   3.443   0.466   5.155 -0.5063 -0.6514 -0.5692
 5346SOL    HW227501   3.422   0.584   5.052  0.0388  0.9929  0.1860
 5347SOL     OW27502   2.775   3.285   6.682  0.2134  0.0078 -0.1486
 5347SOL    HW127503   2.832   3.339   6.736  0.3044  1.5509 -1.7871
 5347SOL    HW227504   2.834   3.251   6.615  1.0393 -1.7346  1.4469
 5348SOL     OW27505   1.469   0.783   2.688  0.3570  0.1724 -0.9197
 5348SOL    HW127506   1.458   0.692   2.717 -1.4545  0.8621  0.5463
 5348SOL    HW227507   1.460   0.772   2.593  1.3840  0.1224 -1.0049
 5349SOL     OW27508   2.926   2.744  16.727 -0.6292 -0.0071  0.3663
 5349SOL    HW127509   2.880   2.826  16.744 -1.7121 -0.5702  0.1625
 5349SOL    HW227510   3.015   2.780  16.728 -0.8714  0.6270 -1.5379
 5350SOL     OW27511   0.122   3.072  17.642  0.5218  0.1631  0.2375
 5350SOL    HW127512   0.066   3.086  17.565 -2.3669 -1.7379  2.0056
 5350SOL    HW227513   0.059   3.082   0.009  0.8367 -1.4508  0.7266
 5351SOL     OW27514   0.055   0.033   8.894 -0.0726  0.0115  0.7870
 5351SOL    HW127515   0.048   0.056   8.801 -2.6929  1.1721  1.2646
 5351SOL    HW227516   0.072   4.666   8.883  2.3883  0.5442  0.0859
 5352SOL     OW27517   4.426   1.225   0.998  0.0139 -0.5804  0.3634
 5352SOL    HW127518   4.332   1.224   0.977  0.2418  2.2720 -0.7498
 5352SOL    HW227519   4.423   1.305   1.051 -2.9984  0.2231 -0.9990
 5353SOL     OW27520   3.648   1.313   8.695 -0.5264 -0.0061  0.1141
 5353SOL    HW127521   3.740   1.297   8.716  0.7877  2.1586 -4.0122
 5353SOL    HW227522   3.594   1.308   8.774 -0.0745 -0.1748  0.4141
 5354SOL     OW27523   3.433   2.482   6.181 -0.5303  0.4946  0.5784
 5354SOL    HW127524   3.379   2.430   6.121  0.3281  0.0570  0.1860
 5354SOL    HW227525   3.498   2.413   6.187 -1.6101 -0.7251 -1.5907
 5355SOL     OW27526   2.290   1.728   1.768 -0.0706 -0.2814 -0.1289
 5355SOL    HW127527   2.266   1.787   1.839 -0.9578 -2.0520  1.0448
 5355SOL    HW227528   2.373   1.710   1.813 -0.2050 -0.5789  0.0006
 5356SOL     OW27529   1.348   1.943   3.614 -0.3362  0.0695  0.6092
 5356SOL    HW127530   1.274   1.996   3.644 -1.9140 -0.7862 -1.7819
 5356SOL    HW227531   1.333   1.961   3.521  1.9176 -1.1558  0.0188
 5357SOL     OW27532   2.786   2.014   8.880  0.2687 -0.1621 -0.1456
 5357SOL    HW127533   2.840   1.986   8.953  1.6476  0.9974 -0.7203
 5357SOL    HW227534   2.701   2.008   8.923 -0.0688  2.7575 -0.3845
 5358SOL     OW27535   3.381   1.325   6.036 -0.0233 -0.5918  0.0919
 5358SOL    HW127536   3.456   1.316   6.095 -0.5143 -2.5668  0.4035
 5358SOL    HW227537   3.352   1.235   6.021 -0.9656 -0.2278 -0.2353
 5359SOL     OW27538   3.169   3.496  10.016 -0.1311 -0.2382 -0.0280
 5359SOL    HW127539   3.172   3.516  10.110  3.8302 -0.5312 -0.0984
 5359SOL    HW227540   3.127   3.579   9.993  0.1643 -0.6757 -2.0796
 5360SOL     OW27541   3.345   1.736   9.238  0.6595 -0.4236  0.5821
 5360SOL    HW127542   3.374   1.794   9.167  0.3927  0.6543  1.3462
 5360SOL    HW227543   3.430   1.735   9.283  2.4098 -0.2592 -2.7439
 5361SOL     OW27544   2.343   0.549   8.327  1.1178 -0.3235 -0.3249
 5361SOL    HW127545   2.363   0.602   8.404  0.8919  0.0591 -0.5334
 5361SOL    HW227546   2.251   0.567   8.309  1.5482  1.9257 -0.2889
 5362SOL     OW27547   1.784   1.232   5.673 -0.2679 -0.5213 -0.6484
 5362SOL    HW127548   1.722   1.304   5.686 -0.1660 -0.3819 -0.9264
 5362SOL    HW227549   1.755   1.165   5.735 -1.3832  1.4165  0.9235
 5363SOL     OW27550   4.026   1.076   1.844 -0.1969 -0.6858 -0.0176
 5363SOL    HW127551   4.089   1.031   1.787  1.2355 -0.3285  1.2894
 5363SOL    HW227552   4.042   1.169   1.830  2.5898 -1.4527 -2.0276
 5364SOL     OW27553   4.594   2.639   1.562 -0.7747  0.7361 -0.4225
 5364SOL    HW127554   4.594   2.717   1.617  2.4357  1.1778 -1.0254
 5364SOL    HW227555   4.500   2.624   1.553 -1.2116  2.8444  0.6582
 5365SOL     OW27556   0.847   0.914   6.761  0.3648  0.3587  0.0792
 5365SOL    HW127557   0.809   0.856   6.827  0.6430  0.8565  0.6783
 5365SOL    HW227558   0.843   0.997   6.808 -0.1660  1.5655 -2.0951
 5366SOL     OW27559   0.405   0.430   6.009  0.2263  0.4564  0.0214
 5366SOL    HW127560   0.385   0.337   6.003 -1.1750  0.7515  0.0868
 5366SOL    HW227561   0.458   0.436   6.088  0.7711 -0.2997 -0.2794
 5367SOL     OW27562   0.457   0.580   1.538  0.1776 -0.1283 -0.4999
 5367SOL    HW127563   0.455   0.648   1.471 -1.1280  0.3022 -0.0401
 5367SOL    HW227564   0.365   0.577   1.566 -0.7101  1.9260 -3.1677
 5368SOL     OW27565   3.245   3.847   0.066  0.2154 -0.1167 -0.4111
 5368SOL    HW127566   3.205   3.894   0.140  2.1485 -0.2456  0.7292
 5368SOL    HW227567   3.335   3.836   0.097  0.7160  1.6445 -1.2532
 5369SOL     OW27568   0.854   1.561  17.102 -0.2325  0.4525 -0.5337
 5369SOL    HW127569   0.911   1.636  17.118  1.7866 -0.8057 -1.8765
 5369SOL    HW227570   0.919   1.496  17.077  0.1801  0.6335  0.0820
 5370SOL     OW27571   1.458   2.704   6.070 -0.2595 -0.1295  0.6264
 5370SOL    HW127572   1.520   2.651   6.020  0.6657 -0.0973  1.7623
 5370SOL    HW227573   1.423   2.755   5.996  2.9849 -0.2779 -0.9893
 5371SOL     OW27574   3.838   1.161   1.057  0.0205  0.2599 -0.0640
 5371SOL    HW127575   3.831   1.247   1.015  0.4715  1.2983  2.0097
 5371SOL    HW227576   3.803   1.179   1.144  0.3601  1.0025 -0.0744
 5372SOL     OW27577   2.896   1.649  16.200  0.0807 -0.2450  1.5386
 5372SOL    HW127578   2.803   1.672  16.198  0.1141 -0.1835  0.8017
 5372SOL    HW227579   2.932   1.737  16.214 -0.1715  0.4626 -2.4283
 5373SOL     OW27580   3.017   2.372  11.009  0.6619  0.3892 -0.5462
 5373SOL    HW127581   3.079   2.312  11.049  1.2465  1.1086 -0.3617
 5373SOL    HW227582   2.939   2.319  10.995 -0.5856  2.1107 -0.0425
 5374SOL     OW27583   1.206   4.149   5.684 -0.5461 -0.0098 -0.0556
 5374SOL    HW127584   1.228   4.100   5.763  0.7114  0.4783 -0.1027
 5374SOL    HW227585   1.167   4.084   5.626 -3.3929  1.0382  0.6774
 5375SOL     OW27586   1.321   1.482   3.676  0.0261  0.0018  0.4454
 5375SOL    HW127587   1.357   1.398   3.647 -0.1493  0.3879 -0.8730
 5375SOL    HW227588   1.397   1.536   3.657  1.4906 -2.0017  0.5607
 5376SOL     OW27589   4.416   0.271   3.804 -0.2470 -0.1404 -0.8239
 5376SOL    HW127590   4.372   0.188   3.825  0.4071 -0.3410 -0.2487
 5376SOL    HW227591   4.335   0.322   3.799 -0.4870 -0.6749 -2.5124
 5377SOL     OW27592   1.039   1.467  13.591  0.0216 -0.1893  0.0051
 5377SOL    HW127593   1.005   1.402  13.652  0.5951 -0.0220  0.5052
 5377SOL    HW227594   1.073   1.536  13.648  1.7214  0.7215 -2.1058
 5378SOL     OW27595   1.638   4.505   7.578  0.7296 -0.0871 -0.7589
 5378SOL    HW127596   1.576   4.485   7.508  0.3543 -0.4288 -0.3317
 5378SOL    HW227597   1.588   4.483   7.656  0.3913  3.2088 -0.0348
 5379SOL     OW27598   4.039   2.486  17.635 -0.6573 -0.5242  0.0042
 5379SOL    HW127599   3.988   2.434  17.572  0.0278  2.2582 -2.8678
 5379SOL    HW227600   4.018   2.573  17.600 -0.3811 -0.5906 -0.3295
 5380SOL     OW27601   3.021   2.245   6.259  0.2705  0.2318  0.0240
 5380SOL    HW127602   3.082   2.189   6.307 -0.9200 -0.3429  0.8618
 5380SOL    HW227603   3.019   2.201   6.174 -1.8818 -0.2070  0.2944
 5381SOL     OW27604   4.309   1.413  17.223 -0.1838  0.0316  0.3379
 5381SOL    HW127605   4.360   1.403  17.142 -0.3926  1.2674  0.0594
 5381SOL    HW227606   4.280   1.323  17.238  0.4011  0.1660  2.2612
 5382SOL     OW27607   0.147   4.441   8.077  0.5883  0.4464  0.4722
 5382SOL    HW127608   0.095   4.517   8.050 -0.9597 -1.1719 -1.0531
 5382SOL    HW227609   0.092   4.365   8.095  0.1467  0.0809 -2.4316
 5383SOL     OW27610   3.379   3.241   3.808  0.6172 -0.8883 -0.0454
 5383SOL    HW127611   3.433   3.190   3.868 -0.5678 -1.9798  0.0969
 5383SOL    HW227612   3.435   3.318   3.803  0.0503 -0.2547  3.2493
 5384SOL     OW27613   2.887   0.316   0.779  0.1251 -0.3972 -0.1803
 5384SOL    HW127614   2.930   0.253   0.721  2.2533  0.7545  0.1457
 5384SOL    HW227615   2.805   0.273   0.801 -1.1647  2.2683  0.1440
 5385SOL     OW27616   1.437   0.294   5.368  0.4073  0.4916 -0.3050
 5385SOL    HW127617   1.483   0.218   5.403 -0.2423 -0.4169 -1.4085
 5385SOL    HW227618   1.408   0.333   5.451 -2.2384  4.4940 -3.0748
 5386SOL     OW27619   0.338   3.106   6.052 -0.2621  0.5866 -0.0833
 5386SOL    HW127620   0.379   3.116   5.966  1.0511  0.2377  0.5053
 5386SOL    HW227621   0.344   3.010   6.055  0.6349  0.6055 -1.3262
 5387SOL     OW27622   4.053   2.136  14.723 -0.1547  0.5134  0.1668
 5387SOL    HW127623   3.991   2.152  14.795 -2.2355 -0.5713 -1.3975
 5387SOL    HW227624   4.135   2.127  14.772  0.0285 -2.4363 -0.6723
 5388SOL     OW27625   1.588   1.513   4.917  0.3347  0.6487 -0.3890
 5388SOL    HW127626   1.681   1.493   4.911  0.0841  0.0969 -2.3090
 5388SOL    HW227627   1.549   1.426   4.905 -1.3070  1.3381 -0.0996
 5389SOL     OW27628   4.170   2.907   5.558  0.1044 -0.2269  0.0426
 5389SOL    HW127629   4.193   2.979   5.617  1.1839 -0.0547 -0.5766
 5389SOL    HW227630   4.230   2.837   5.585  0.8812  0.1567 -0.6746
 5390SOL     OW27631   0.187   2.121   4.288 -0.3410 -0.1497 -0.0298
 5390SOL    HW127632   0.157   2.039   4.248  0.5204  0.7890 -2.5954
 5390SOL    HW227633   0.111   2.138   4.343 -0.1209 -1.1597  0.5979
 5391SOL     OW27634   3.755   0.551   5.771  0.0169  0.7160  0.0179
 5391SOL    HW127635   3.709   0.625   5.810 -1.2780  1.0909 -2.2288
 5391SOL    HW227636   3.843   0.588   5.769  0.8282 -1.1510  0.9866
 5392SOL     OW27637   1.645   0.009   7.756  0.2833 -0.3264 -0.3603
 5392SOL    HW127638   1.568   0.052   7.719 -1.5030 -1.5030  2.0210
 5392SOL    HW227639   1.658   4.675   7.683 -0.5115  1.3247 -1.8632
 5393SOL     OW27640   3.484   0.132   1.608  0.1899 -0.0304 -0.4037
 5393SOL    HW127641   3.426   0.056   1.595  0.9347 -0.7508  0.4821
 5393SOL    HW227642   3.429   0.196   1.564  0.3832 -0.0024 -0.6058
 5394SOL     OW27643   2.563   3.649   5.155 -0.0257 -0.0647  0.1217
 5394SOL    HW127644   2.571   3.693   5.071  0.3454 -0.7116 -0.1844
 5394SOL    HW227645   2.620   3.709   5.204 -0.9117  0.3504  0.6331
 5395SOL     OW27646   2.065   2.545   6.573 -0.0118  0.0916  0.1498
 5395SOL    HW127647   2.103   2.475   6.521 -1.3730  0.0368 -0.7924
 5395SOL    HW227648   1.973   2.518   6.572 -0.4506  1.6831 -1.4198
 5396SOL     OW27649   1.999   4.535   5.929  0.0026  0.2013  0.1377
 5396SOL    HW127650   1.915   4.552   5.972  0.3470  2.5451 -0.0935
 5396SOL    HW227651   2.025   4.455   5.974  2.3782  0.8841  0.0135
 5397SOL     OW27652   3.796   1.169  17.368 -0.0797  0.6514  0.1035
 5397SOL    HW127653   3.759   1.221  17.439  0.9892  0.2166  0.9903
 5397SOL    HW227654   3.886   1.187  17.397  0.2294  1.2157 -1.2233
 5398SOL     OW27655   1.322   4.336  17.536  0.0184 -0.3201  0.3500
 5398SOL    HW127656   1.281   4.383  17.609 -0.8873  0.3280 -0.5688
 5398SOL    HW227657   1.345   4.401  17.470 -0.7436  1.3103  1.6760
 5399SOL     OW27658   1.942   1.168  17.091 -0.0105  0.1230  0.2056
 5399SOL    HW127659   1.853   1.192  17.116  0.4767  1.3207  0.7952
 5399SOL    HW227660   1.988   1.250  17.107  2.4301 -0.7853 -1.9078
 5400SOL     OW27661   4.074   1.562  17.475  0.0608  0.0109 -0.1084
 5400SOL    HW127662   4.032   1.574  17.560 -0.4828 -2.6793  0.0050
 5400SOL    HW227663   4.089   1.467  17.483 -0.4870 -0.0673 -0.0091
 5401SOL     OW27664   3.238   2.475  11.387  0.1474 -0.3960  0.7721
 5401SOL    HW127665   3.292   2.398  11.367  0.5244  0.5071 -1.7520
 5401SOL    HW227666   3.163   2.456  11.330  1.9110  1.5234 -2.1732
 5402SOL     OW27667   2.809   0.069   6.619  0.2518  0.2074 -0.3114
 5402SOL    HW127668   2.834   4.705   6.598 -0.2621  0.1585 -0.6962
 5402SOL    HW227669   2.719   0.052   6.646  0.5404  0.5787  0.8855
 5403SOL     OW27670   3.173   4.602   6.259 -0.0479  0.0534 -0.8211
 5403SOL    HW127671   3.211   4.536   6.200  2.4577  1.2755 -0.5548
 5403SOL    HW227672   3.245   4.656   6.289 -1.5756  1.7576 -0.2457
 5404SOL     OW27673   4.343   2.592   1.887 -0.1829 -0.1450 -0.1093
 5404SOL    HW127674   4.266   2.572   1.941  0.8585 -1.9513  0.7161
 5404SOL    HW227675   4.342   2.687   1.879 -0.2724 -0.1974 -0.6733
 5405SOL     OW27676   1.588   1.998   1.812  0.3339 -0.0346 -0.7556
 5405SOL    HW127677   1.649   2.045   1.754 -0.3859  1.3874 -0.3543
 5405SOL    HW227678   1.506   2.036   1.781  1.5903  1.2590 -2.5302
 5406SOL     OW27679   4.086   0.951   4.452 -0.6763 -0.4258  0.2609
 5406SOL    HW127680   4.051   0.916   4.534 -1.6464  0.1982  0.1283
 5406SOL    HW227681   4.167   0.903   4.439 -0.3025  0.6214 -1.3439
 5407SOL     OW27682   3.504   0.383   4.487 -0.2028  0.0346  0.6553
 5407SOL    HW127683   3.498   0.288   4.494  1.4708  0.0188  1.8650
 5407SOL    HW227684   3.585   0.395   4.537  0.1471 -1.1139  0.3543
 5408SOL     OW27685   2.102   3.622   3.236 -0.1824  0.0731 -0.2307
 5408SOL    HW127686   2.036   3.690   3.249 -0.5771 -0.9592  3.1303
 5408SOL    HW227687   2.177   3.657   3.284 -1.2284  0.3829  1.1870
 5409SOL     OW27688   3.819   1.456   0.461  0.0634 -0.4119  0.0696
 5409SOL    HW127689   3.743   1.425   0.508 -1.4643  2.7166 -0.3092
 5409SOL    HW227690   3.791   1.428   0.374 -0.1359 -0.7107  0.2306
 5410SOL     OW27691   2.132   4.343   3.234  0.1303 -0.3632  0.2410
 5410SOL    HW127692   2.161   4.339   3.142  0.5625  0.3620  0.3500
 5410SOL    HW227693   2.081   4.423   3.229 -1.5004 -1.1855  3.9315
 5411SOL     OW27694   4.082   1.590  12.322  0.5028  0.4028  0.6277
 5411SOL    HW127695   4.109   1.563  12.410  0.3380  0.1755  0.6088
 5411SOL    HW227696   4.046   1.508  12.289 -0.7200  0.7475  1.1248
 5412SOL     OW27697   2.176   4.356   1.295  0.0083  0.2109  0.1813
 5412SOL    HW127698   2.097   4.395   1.333 -0.9630 -2.8095  1.2935
 5412SOL    HW227699   2.181   4.273   1.342  0.0394 -0.4963 -1.0590
 5413SOL     OW27700   1.273   0.522   9.081  0.1374 -0.0844 -0.1314
 5413SOL    HW127701   1.251   0.544   9.171  1.7436 -0.2399  0.2936
 5413SOL    HW227702   1.367   0.536   9.072  0.2777 -1.5047 -0.8262
 5414SOL     OW27703   0.831   2.380   0.049  0.0410 -0.1834  0.3240
 5414SOL    HW127704   0.743   2.343   0.049  0.5406 -1.3821 -1.2942
 5414SOL    HW227705   0.892   2.312   0.021 -1.7455 -1.5110 -0.3102
 5415SOL     OW27706   1.486   1.200   2.973  0.0184  0.2496 -0.4893
 5415SOL    HW127707   1.447   1.132   2.917 -0.0415  0.8237 -1.1449
 5415SOL    HW227708   1.572   1.222   2.937  2.6863 -1.7041  4.6992
 5416SOL     OW27709   1.408   2.398  10.224 -0.5675  0.4703  0.1264
 5416SOL    HW127710   1.461   2.477  10.230 -2.1967  1.4514  1.3124
 5416SOL    HW227711   1.390   2.396  10.318 -1.6730 -1.5284 -0.1293
 5417SOL     OW27712   2.915   0.005  12.606  0.3307 -0.3216 -0.3307
 5417SOL    HW127713   2.868   4.654  12.638  1.5628 -0.1615  1.8447
 5417SOL    HW227714   2.871   0.004  12.521 -2.1187  1.5147  0.9449
 5418SOL     OW27715   0.007   2.796   7.177 -0.0088 -0.3703  0.0345
 5418SOL    HW127716   4.660   2.743   7.143  0.9407 -1.1856 -0.7205
 5418SOL    HW227717   4.699   2.812   7.265  0.4480 -0.6090  0.2514
 5419SOL     OW27718   0.473   0.996   1.557  0.6939  0.0055 -0.3129
 5419SOL    HW127719   0.564   1.002   1.529  0.5614 -1.2750 -1.0226
 5419SOL    HW227720   0.434   0.945   1.486  0.6575  0.6956 -0.7970
 5420SOL     OW27721   0.882   3.637   8.566  0.4773  0.5540  0.2136
 5420SOL    HW127722   0.950   3.572   8.580  1.1862  1.6783  2.0238
 5420SOL    HW227723   0.935   3.716   8.563  0.6677  0.4506  0.9141
 5421SOL     OW27724   3.658   3.252   1.213  0.4423 -0.4441  0.1229
 5421SOL    HW127725   3.747   3.275   1.238  0.0184 -1.3465  2.4284
 5421SOL    HW227726   3.609   3.299   1.280 -0.2414  0.9800 -1.3757
 5422SOL     OW27727   0.058   2.089  11.106 -0.0562 -0.6614  0.3547
 5422SOL    HW127728   0.088   2.021  11.045  1.1110  1.3423 -1.2649
 5422SOL    HW227729   0.021   2.030  11.172 -0.0835 -1.5314 -0.4260
 5423SOL     OW27730   2.274   3.778   3.423  0.4579  0.2107 -0.2135
 5423SOL    HW127731   2.356   3.730   3.433  1.4221  1.7811 -0.6034
 5423SOL    HW227732   2.205   3.727   3.467  1.2188  0.9592  1.8342
 5424SOL     OW27733   1.047   2.117   7.238  0.2341  0.1712  0.3026
 5424SOL    HW127734   1.000   2.142   7.158 -1.1237 -0.4476  0.9114
 5424SOL    HW227735   1.135   2.152   7.225  0.2507 -0.1046 -0.3371
 5425SOL     OW27736   3.342   3.669  11.923 -0.3040 -0.6561  0.2465
 5425SOL    HW127737   3.435   3.689  11.937  0.2027 -2.0167 -1.1820
 5425SOL    HW227738   3.314   3.751  11.882  0.0114  0.0412  1.4253
 5426SOL     OW27739   3.153   4.704  16.631  0.1333  0.9941  0.4264
 5426SOL    HW127740   3.161   4.677  16.723  0.8371 -1.1540 -0.2521
 5426SOL    HW227741   3.235   0.028  16.625 -1.3089  3.5566  2.0939
 5427SOL     OW27742   2.221   2.989   7.308 -0.0607 -0.4449  0.0213
 5427SOL    HW127743   2.129   2.988   7.336 -1.2631  0.3448 -3.7823
 5427SOL    HW227744   2.202   3.000   7.215 -0.2373 -1.2595 -0.0385
 5428SOL     OW27745   0.382   3.728  12.687 -0.7411  0.1761  1.2256
 5428SOL    HW127746   0.336   3.787  12.746  0.5769  0.6067  1.8154
 5428SOL    HW227747   0.399   3.656  12.747 -1.5477 -0.2369  0.9641
 5429SOL     OW27748   0.515   2.683  12.259  0.3831 -0.2312  0.0726
 5429SOL    HW127749   0.489   2.595  12.231 -0.1984  0.5324 -1.7506
 5429SOL    HW227750   0.453   2.704  12.329  2.5916  1.9434  1.3609
 5430SOL     OW27751   1.161   3.404   3.175  0.8747 -0.8363 -0.5677
 5430SOL    HW127752   1.244   3.413   3.129  1.1853  1.1704  0.4041
 5430SOL    HW227753   1.135   3.316   3.146 -0.1862 -0.4295 -0.8435
 5431SOL     OW27754   2.052   3.666   3.546 -0.1890  0.2832  0.5930
 5431SOL    HW127755   1.982   3.676   3.480  0.7261  1.1280 -0.2640
 5431SOL    HW227756   2.024   3.585   3.587  1.4894  0.2629  1.6811
 5432SOL     OW27757   1.417   3.119   2.591  0.2581  0.0155  0.4566
 5432SOL    HW127758   1.484   3.169   2.637 -0.5487  2.5126 -1.0363
 5432SOL    HW227759   1.338   3.170   2.611 -0.3458 -1.2249  1.1938
 5433SOL     OW27760   1.082   3.473   4.708 -0.1234 -0.0379  0.8376
 5433SOL    HW127761   0.996   3.498   4.673 -0.1175  0.5828  1.2811
 5433SOL    HW227762   1.138   3.537   4.666 -0.9117  1.7460  2.5276
 5434SOL     OW27763   3.226   2.368   5.805  0.2567  0.0784  0.5026
 5434SOL    HW127764   3.180   2.379   5.722  0.0862 -0.0936  0.5747
 5434SOL    HW227765   3.318   2.373   5.778 -0.3334 -1.5722 -1.7875
 5435SOL     OW27766   0.180   4.028   9.029 -0.1758 -0.0009 -0.2243
 5435SOL    HW127767   0.266   4.052   8.996 -0.6190  0.6966 -0.8698
 5435SOL    HW227768   0.178   3.937   8.999 -0.4238 -0.2901  0.6674
 5436SOL     OW27769   3.995   2.410   3.996 -0.0027  0.6499  0.4127
 5436SOL    HW127770   4.007   2.373   3.909 -1.7718  2.3162 -0.5420
 5436SOL    HW227771   3.969   2.330   4.043 -2.1566  1.0368 -0.0995
 5437SOL     OW27772   2.522   3.395  17.389 -0.0314 -0.1190 -0.2607
 5437SOL    HW127773   2.599   3.405  17.333  1.0190 -0.9005  1.0554
 5437SOL    HW227774   2.453   3.447  17.347  0.3280 -0.2455 -1.0181
 5438SOL     OW27775   1.357   3.820  13.653 -0.4546  0.3577  0.0368
 5438SOL    HW127776   1.267   3.794  13.637 -0.1683 -0.7222  0.1578
 5438SOL    HW227777   1.389   3.816  13.563  1.3566 -3.1498  0.8247
 5439SOL     OW27778   1.427   2.577   4.070 -0.4135 -0.3335 -0.5262
 5439SOL    HW127779   1.346   2.552   4.115  1.5094 -2.0188  1.9946
 5439SOL    HW227780   1.423   2.520   3.994 -0.7105  0.6980 -1.2854
 5440SOL     OW27781   3.497   1.901   7.452  0.0733 -0.8080 -0.5215
 5440SOL    HW127782   3.443   1.948   7.515  1.7887  1.9687 -1.1554
 5440SOL    HW227783   3.577   1.942   7.486 -0.5473 -0.0641  0.0165
 5441SOL     OW27784   1.240   2.893  14.737 -0.6715 -0.4766  0.4416
 5441SOL    HW127785   1.177   2.821  14.733 -0.0516 -0.8956 -1.5582
 5441SOL    HW227786   1.193   2.962  14.689  2.2832  1.1093 -0.1479
 5442SOL     OW27787   1.495   3.291   9.184  0.1393  0.1743 -0.0029
 5442SOL    HW127788   1.506   3.379   9.148 -0.1419 -0.2266 -1.0940
 5442SOL    HW227789   1.545   3.301   9.264 -0.7545 -0.2384  0.6110
 5443SOL     OW27790   3.435   4.319   9.601  0.7127  0.2259 -0.4392
 5443SOL    HW127791   3.514   4.355   9.559 -0.3388  2.4369 -0.4948
 5443SOL    HW227792   3.448   4.231   9.565 -0.5032 -0.2359  0.2746
 5444SOL     OW27793   1.378   3.378   7.990  0.0364 -0.0538  0.4513
 5444SOL    HW127794   1.382   3.291   7.951 -1.5622  0.5994 -1.1637
 5444SOL    HW227795   1.421   3.354   8.072  0.4991 -1.0501 -0.0989
 5445SOL     OW27796   2.904   1.239   6.048 -0.0863  0.0295 -0.2735
 5445SOL    HW127797   2.824   1.208   6.091 -0.4226  0.8747 -0.2833
 5445SOL    HW227798   2.872   1.320   6.008 -0.7692  0.6987  1.6148
 5446SOL     OW27799   4.610   3.739   8.612 -0.1088  0.2522 -0.2705
 5446SOL    HW127800   4.521   3.735   8.575 -0.2901  1.0990  0.0711
 5446SOL    HW227801   4.656   3.717   8.531  0.1366  0.5167 -0.2025
 5447SOL     OW27802   3.049   0.247  14.673 -0.1117  0.7272 -0.2775
 5447SOL    HW127803   3.111   0.233  14.602  2.0569 -2.5062  2.2348
 5447SOL    HW227804   2.989   0.311  14.636  0.1623 -0.6762 -3.1363
 5448SOL     OW27805   2.888   3.350  13.384 -0.0077 -0.3410 -0.1434
 5448SOL    HW127806   2.947   3.338  13.309 -1.0606  0.0545 -1.0209
 5448SOL    HW227807   2.810   3.384  13.340  0.7783  1.7307  0.0404
 5449SOL     OW27808   0.956   1.259   7.934  0.3068 -0.2403 -0.5991
 5449SOL    HW127809   0.978   1.198   8.005 -2.2227 -0.4533 -0.0046
 5449SOL    HW227810   1.015   1.328   7.965  0.8407 -1.0514  0.1923
 5450SOL     OW27811   2.951   0.209   4.658 -0.5945 -0.1750  0.3399
 5450SOL    HW127812   3.019   0.142   4.652  0.1927  0.8054 -1.8492
 5450SOL    HW227813   2.978   0.267   4.587  0.2168 -0.5248  0.3661
 5451SOL     OW27814   2.141   0.293   4.833  0.2237 -0.2942 -1.0179
 5451SOL    HW127815   2.121   0.328   4.919  0.5281  0.7817 -1.3769
 5451SOL    HW227816   2.069   0.232   4.820  1.9457 -2.2737 -1.3345
 5452SOL     OW27817   0.726   0.946   5.501  0.1960  0.3506 -0.0267
 5452SOL    HW127818   0.707   0.869   5.555  3.3806 -0.8361 -0.5680
 5452SOL    HW227819   0.657   0.932   5.436  0.5847  0.0794 -0.3875
 5453SOL     OW27820   3.587   2.001  15.245 -0.1474 -0.1440  0.3579
 5453SOL    HW127821   3.652   2.032  15.309 -0.5716  0.8982  0.2959
 5453SOL    HW227822   3.649   1.949  15.194  1.3828 -1.8309  3.9099
 5454SOL     OW27823   4.288   0.577   9.147 -0.4449  0.3326 -0.5764
 5454SOL    HW127824   4.357   0.622   9.098 -0.9083 -1.3542 -2.8092
 5454SOL    HW227825   4.331   0.493   9.163 -0.5009  0.3387 -0.3961
 5455SOL     OW27826   0.943   4.711   2.815  0.7752  0.6183 -0.2593
 5455SOL    HW127827   1.006   4.707   2.743  0.2778 -2.8356 -0.5103
 5455SOL    HW227828   0.999   4.685   2.888 -0.7955 -0.4165  0.5826
 5456SOL     OW27829   0.399   0.273   8.306  0.6117  0.5045  0.5080
 5456SOL    HW127830   0.488   0.301   8.284  1.6381 -1.8936  1.6697
 5456SOL    HW227831   0.398   0.208   8.375 -1.0664  1.6433  1.5418
 5457SOL     OW27832   0.183   4.099   3.422 -0.1501 -0.1641  0.3267
 5457SOL    HW127833   0.252   4.100   3.355 -0.9559  1.8234 -0.4440
 5457SOL    HW227834   0.105   4.070   3.374  0.6803 -2.0712  0.1298
 5458SOL     OW27835   0.210   2.378   9.393 -0.4600 -0.2278 -0.2852
 5458SOL    HW127836   0.178   2.409   9.309  1.6095  0.7087 -0.7423
 5458SOL    HW227837   0.133   2.333   9.428 -0.2294 -0.4252 -0.0338
 5459SOL     OW27838   3.077   4.627  15.283  0.3020 -0.3021  0.2143
 5459SOL    HW127839   3.139   4.607  15.354 -0.9140 -0.0974  1.3410
 5459SOL    HW227840   3.058   4.538  15.253 -0.5708  0.2910 -0.9395
 5460SOL     OW27841   1.481   4.448   7.793 -0.4219  0.6529 -0.9784
 5460SOL    HW127842   1.407   4.483   7.743  0.5961  3.2756 -0.6353
 5460SOL    HW227843   1.428   4.408   7.862  2.3137 -1.2983 -0.0051
 5461SOL     OW27844   0.322   2.903   3.348  0.2703 -0.2127 -0.7446
 5461SOL    HW127845   0.284   2.820   3.377  2.2139 -0.5639  0.7511
 5461SOL    HW227846   0.305   2.901   3.253 -2.0544  0.6454 -0.3689
 5462SOL     OW27847   1.578   2.604  15.839 -0.1773 -0.2519  0.2986
 5462SOL    HW127848   1.639   2.553  15.787 -1.3794 -1.0988 -0.2751
 5462SOL    HW227849   1.617   2.691  15.828  1.4228 -1.2663 -1.9742
 5463SOL     OW27850   3.707   4.616   7.047 -0.5737 -0.2981 -0.2933
 5463SOL    HW127851   3.721   4.643   7.138  1.4549  2.1057 -1.3186
 5463SOL    HW227852   3.679   4.695   7.001  2.1182  0.4551 -0.6347
 5464SOL     OW27853   2.242   4.562  13.839 -0.7832  0.0968  1.2553
 5464SOL    HW127854   2.233   4.620  13.914 -1.2203 -0.5702  1.7173
 5464SOL    HW227855   2.197   4.482  13.867  0.7554 -0.3871  2.3410
 5465SOL     OW27856   1.873   2.976   2.432 -0.0905 -0.6759  0.1993
 5465SOL    HW127857   1.899   2.888   2.457 -0.4070 -1.6559 -2.8634
 5465SOL    HW227858   1.870   2.966   2.336  1.7695  1.8641 -0.1113
 5466SOL     OW27859   0.027   1.109   4.239 -0.1405  0.1919 -0.1818
 5466SOL    HW127860   0.038   1.014   4.237  0.7495  0.2679  0.6749
 5466SOL    HW227861   0.051   1.136   4.328 -0.4328 -0.6714  0.1601
 5467SOL     OW27862   3.236   2.918   5.364 -0.5211  0.2527 -0.3161
 5467SOL    HW127863   3.163   2.930   5.303  0.8113  1.0799 -1.7891
 5467SOL    HW227864   3.308   2.954   5.311 -0.8482  1.5115  0.0776
 5468SOL     OW27865   2.838   2.353   4.837 -0.2547  0.0031 -0.4152
 5468SOL    HW127866   2.789   2.286   4.789  1.4732 -1.6963  0.2134
 5468SOL    HW227867   2.782   2.430   4.827  1.3538  1.1375 -0.7668
 5469SOL     OW27868   0.692   4.094   7.544 -0.0065 -0.0736  0.0167
 5469SOL    HW127869   0.639   4.041   7.604  0.0613  0.9171  0.9437
 5469SOL    HW227870   0.721   4.031   7.478 -2.0983 -1.9951  0.9355
 5470SOL     OW27871   2.677   3.299   7.256 -0.5125  0.4049  0.6100
 5470SOL    HW127872   2.594   3.252   7.262 -0.2666 -0.1097 -0.0002
 5470SOL    HW227873   2.673   3.357   7.332 -1.2393  1.0667  0.0586
 5471SOL     OW27874   1.055   3.957   8.057 -0.3094 -0.4224 -0.0361
 5471SOL    HW127875   1.121   3.900   8.019 -1.3755 -0.5556 -1.6657
 5471SOL    HW227876   1.038   4.023   7.990 -0.4841 -0.5022 -0.0690
 5472SOL     OW27877   4.555   1.802   6.828  0.3113  0.3467  0.5165
 5472SOL    HW127878   4.573   1.831   6.738 -0.5434  0.5571  0.4096
 5472SOL    HW227879   4.463   1.774   6.823  0.2851  0.5234  0.0219
 5473SOL     OW27880   1.446   2.227  11.527  0.0518  0.1623 -0.3589
 5473SOL    HW127881   1.410   2.162  11.587 -0.8225  0.5874 -0.4301
 5473SOL    HW227882   1.363   2.272  11.514 -0.3368 -0.2974  0.5517
 5474SOL     OW27883   0.425   2.463  16.014  0.6999 -0.0316  0.4501
 5474SOL    HW127884   0.383   2.548  16.029  0.7245  0.0708 -0.0572
 5474SOL    HW227885   0.430   2.427  16.103 -1.4179  0.1585  0.6469
 5475SOL     OW27886   1.843   3.462   3.521  0.6578  0.0545  0.1627
 5475SOL    HW127887   1.875   3.387   3.471 -2.1005 -1.1244  0.1880
 5475SOL    HW227888   1.816   3.419   3.602 -2.9216  0.2757 -0.9549
 5476SOL     OW27889   4.357   2.481   8.223 -0.5817  0.1367 -0.2109
 5476SOL    HW127890   4.436   2.534   8.235 -0.5050 -0.1407  0.5598
 5476SOL    HW227891   4.336   2.521   8.139 -1.0343 -0.2870 -0.2966
 5477SOL     OW27892   4.311   4.107   6.122  0.2254  0.6373  0.1632
 5477SOL    HW127893   4.263   4.058   6.055 -1.0331 -1.2388  2.4368
 5477SOL    HW227894   4.349   4.188   6.086  0.0609 -0.2733 -2.0437
 5478SOL     OW27895   3.330   1.007  10.596  0.1267 -0.0865 -0.0859
 5478SOL    HW127896   3.334   1.038  10.686 -0.8771 -2.5111  0.7847
 5478SOL    HW227897   3.295   0.919  10.608 -1.1904  0.5667  0.9371
 5479SOL     OW27898   3.589   0.343   8.008 -0.6031 -0.1553 -0.2985
 5479SOL    HW127899   3.667   0.354   8.063 -0.1655  1.4116 -1.2469
 5479SOL    HW227900   3.557   0.433   8.008 -0.5059 -0.1150  0.2599
 5480SOL     OW27901   1.985   3.940   2.555 -0.1487 -0.1500 -0.0928
 5480SOL    HW127902   2.040   3.862   2.546  0.4024  0.2453 -0.1274
 5480SOL    HW227903   1.929   3.930   2.478 -1.4321  0.1140  0.8158
 5481SOL     OW27904   3.503   2.882   6.530  0.1026  0.1768 -0.1320
 5481SOL    HW127905   3.567   2.823   6.489 -0.8869 -1.2315  0.3304
 5481SOL    HW227906   3.425   2.880   6.476 -2.2002 -2.7649  3.2611
 5482SOL     OW27907   1.826   1.005   7.029 -0.1776 -0.0854  0.2059
 5482SOL    HW127908   1.790   1.089   7.057 -1.0323 -0.5378  0.4585
 5482SOL    HW227909   1.905   0.995   7.083  0.0726  0.4709 -0.0602
 5483SOL     OW27910   2.836   1.337   7.097 -0.2137 -0.2302  0.2698
 5483SOL    HW127911   2.752   1.367   7.061 -0.1891 -0.7269 -0.2131
 5483SOL    HW227912   2.878   1.401   7.153  0.1746  0.5626 -0.9280
 5484SOL     OW27913   2.015   2.493  15.765 -0.0483  0.4509 -0.8285
 5484SOL    HW127914   2.014   2.457  15.854  0.4376 -1.1647 -1.4769
 5484SOL    HW227915   2.075   2.563  15.792 -1.1202  0.0809  2.5081
 5485SOL     OW27916   1.887   1.143   4.798  0.0646 -0.3612 -0.1781
 5485SOL    HW127917   1.913   1.063   4.751  0.8676  0.5532 -1.2927
 5485SOL    HW227918   1.953   1.154   4.866 -1.8149 -0.7609  1.7052
 5486SOL     OW27919   1.121   2.797  10.196  0.1519 -0.2228 -0.0776
 5486SOL    HW127920   1.148   2.706  10.202  1.6741  0.2578  0.2356
 5486SOL    HW227921   1.069   2.798  10.115  0.4884  3.8423 -0.2408
 5487SOL     OW27922   0.294   0.519   7.682  0.1370  0.1014  0.1276
 5487SOL    HW127923   0.292   0.585   7.751  0.9035 -0.9125  1.1268
 5487SOL    HW227924   0.253   0.447   7.731 -0.4985  1.1912  1.1939
 5488SOL     OW27925   1.882   3.988   8.191  0.5892  0.3448 -0.4842
 5488SOL    HW127926   1.969   3.967   8.225  0.1938  0.3105  0.4931
 5488SOL    HW227927   1.868   3.929   8.116 -2.2537  1.4327 -0.7997
 5489SOL     OW27928   3.030   0.155   3.252  0.5528  0.2176  0.5692
 5489SOL    HW127929   3.013   0.245   3.224  0.7843 -0.2163 -0.9503
 5489SOL    HW227930   3.006   0.169   3.344  0.0577 -2.1980  0.8128
 5490SOL     OW27931   4.409   0.197  10.737  0.2333 -0.1315  0.3324
 5490SOL    HW127932   4.314   0.187  10.727  0.0897  2.4402 -0.8033
 5490SOL    HW227933   4.445   0.111  10.715  0.0713 -0.6718  2.2110
 5491SOL     OW27934   2.086   4.688   0.746  0.3483  0.2243  0.3822
 5491SOL    HW127935   2.118   4.632   0.816  0.0182  0.8124  0.9955
 5491SOL    HW227936   1.996   4.660   0.729  0.0874  0.5289  1.2686
 5492SOL     OW27937   0.544   4.709   2.264  0.6932 -0.2422  0.1636
 5492SOL    HW127938   0.468   0.013   2.213 -0.1633 -0.8679  1.0711
 5492SOL    HW227939   0.576   4.639   2.206 -0.8656 -2.2417  1.7252
 5493SOL     OW27940   0.537   0.108   7.190 -0.1736  0.6325  0.2943
 5493SOL    HW127941   0.500   0.039   7.245  0.6001  0.7666  0.9793
 5493SOL    HW227942   0.626   0.126   7.222  0.0733  0.8116 -0.4977
 5494SOL     OW27943   0.985   4.585   4.003  0.1011  0.3948  0.5020
 5494SOL    HW127944   0.950   4.594   4.092  0.8481 -0.3300  0.8701
 5494SOL    HW227945   0.909   4.549   3.957  1.7577 -1.7778 -0.5235
 5495SOL     OW27946   0.357   4.549   9.575 -0.4270 -0.4314 -0.1370
 5495SOL    HW127947   0.262   4.541   9.584 -0.2766 -2.3864 -0.1165
 5495SOL    HW227948   0.381   4.582   9.662  1.5827 -3.0290  0.3093
 5496SOL     OW27949   3.591   0.462  15.618  0.1219  0.4198  0.6918
 5496SOL    HW127950   3.568   0.555  15.629  0.6425  0.2621  2.9524
 5496SOL    HW227951   3.684   0.465  15.594  0.2003 -0.7494  0.8821
 5497SOL     OW27952   3.954   0.900  10.087 -0.2586 -0.3462 -0.0844
 5497SOL    HW127953   4.023   0.886  10.152  1.0967 -0.1279 -1.4669
 5497SOL    HW227954   3.877   0.867  10.133  0.2410  0.7253  1.5224
 5498SOL     OW27955   3.977   0.847   4.687  0.9187  0.1423 -0.4855
 5498SOL    HW127956   4.035   0.889   4.749  2.5652 -1.1384 -1.1653
 5498SOL    HW227957   3.894   0.886   4.715  1.7253  2.3271 -1.1350
 5499SOL     OW27958   0.752   3.261   5.590  0.2033 -0.2230 -0.0585
 5499SOL    HW127959   0.804   3.340   5.610  0.5883 -1.1058  2.4626
 5499SOL    HW227960   0.790   3.220   5.513 -1.4267 -0.8957 -0.4831
 5500SOL     OW27961   3.505   3.100   4.017 -0.4507 -0.3682  0.2310
 5500SOL    HW127962   3.571   3.168   4.017 -0.1678 -0.6253  1.9219
 5500SOL    HW227963   3.566   3.026   4.008 -0.0724  0.4607 -3.7844
 5501SOL     OW27964   2.880   0.097   1.695  0.1012  0.4753 -0.1195
 5501SOL    HW127965   2.817   0.164   1.720  2.1223  1.8664  1.2455
 5501SOL    HW227966   2.828   0.019   1.714 -0.0847  0.4521 -0.7433
 5502SOL     OW27967   4.594   2.859  11.584  0.3524 -0.8369 -0.4114
 5502SOL    HW127968   4.607   2.767  11.565 -2.2755 -1.4206  0.5643
 5502SOL    HW227969   4.632   2.861  11.672  0.8511  1.8615 -0.6948
 5503SOL     OW27970   2.824   3.904  14.766 -0.2676 -0.0133 -0.4407
 5503SOL    HW127971   2.838   3.813  14.741 -0.2220 -0.6228  1.7750
 5503SOL    HW227972   2.777   3.887  14.848 -1.4332 -2.2729 -1.5485
 5504SOL     OW27973   1.360   0.485   0.909 -0.3488  0.0419 -0.3922
 5504SOL    HW127974   1.418   0.472   0.834  3.3980  1.7493  2.1971
 5504SOL    HW227975   1.420   0.470   0.982  0.6730  0.7422 -1.0970
 5505SOL     OW27976   3.349   1.093   5.794 -0.2504 -0.2644  0.7301
 5505SOL    HW127977   3.304   1.072   5.712 -1.1528 -0.4623  1.2688
 5505SOL    HW227978   3.270   1.093   5.849 -0.5477 -2.0692  0.2819
 5506SOL     OW27979   0.515   3.246   9.622  0.0934  0.0090 -0.1850
 5506SOL    HW127980   0.525   3.152   9.607 -1.5940 -0.1591 -0.2856
 5506SOL    HW227981   0.460   3.270   9.547  1.4581 -0.1179 -1.2340
 5507SOL     OW27982   2.934   3.514   1.249  0.1298  0.1305  0.1446
 5507SOL    HW127983   2.964   3.424   1.239  0.3379  0.0552  1.3619
 5507SOL    HW227984   3.011   3.566   1.228  0.9473 -1.5321 -0.8453
 5508SOL     OW27985   2.436   1.771   5.106 -0.5303 -0.3540  0.0612
 5508SOL    HW127986   2.492   1.745   5.179  0.5828  1.0331 -0.3162
 5508SOL    HW227987   2.371   1.816   5.159  0.9947  0.4011  1.2686
 5509SOL     OW27988   4.429   1.813   2.834 -0.5128 -0.5240 -1.0859
 5509SOL    HW127989   4.450   1.747   2.769  0.0204 -0.1272 -1.3198
 5509SOL    HW227990   4.335   1.817   2.818 -0.7121 -2.1129 -0.3192
 5510SOL     OW27991   3.567   2.947  15.820  0.5696  0.0361  0.1702
 5510SOL    HW127992   3.555   3.019  15.759 -0.1738  0.6666  1.0666
 5510SOL    HW227993   3.553   2.871  15.763 -0.6497  0.3699  0.0192
 5511SOL     OW27994   2.297   2.489   0.846  0.3028 -0.5667  0.3925
 5511SOL    HW127995   2.274   2.502   0.754 -1.2479  1.1794  1.0378
 5511SOL    HW227996   2.225   2.436   0.880  0.2945 -0.2656  0.8515
 5512SOL     OW27997   2.335   1.126   2.517  0.3661 -0.2125 -0.1112
 5512SOL    HW127998   2.269   1.123   2.586 -0.5695 -1.0327 -1.0417
 5512SOL    HW227999   2.335   1.215   2.483 -1.1876  0.7130  2.3070
 5513SOL     OW28000   2.767   0.116   1.293 -0.2881 -0.1846 -0.4495
 5513SOL    HW128001   2.673   0.121   1.311 -0.3515  3.5803 -1.7794
 5513SOL    HW228002   2.787   0.199   1.336  1.5315 -1.1045  0.4804
 5514SOL     OW28003   2.064   3.655   6.958 -0.2147  0.0218  0.0609
 5514SOL    HW128004   2.046   3.570   6.998  0.2771 -0.7217 -1.2868
 5514SOL    HW228005   2.051   3.629   6.867  0.0008  0.4983 -0.1049
 5515SOL     OW28006   0.433   1.210   7.708 -0.0185  0.7200 -0.0658
 5515SOL    HW128007   0.515   1.253   7.685  0.7622  0.0986  1.5588
 5515SOL    HW228008   0.465   1.132   7.754  0.2733  0.6586 -0.3713
 5516SOL     OW28009   3.358   1.347   1.885  0.1911  0.0939 -0.6715
 5516SOL    HW128010   3.413   1.380   1.814 -1.4760  1.2338 -1.4572
 5516SOL    HW228011   3.300   1.299   1.826 -0.2957 -0.1836  0.0347
 5517SOL     OW28012   0.875   0.143  14.481  0.2959  0.0959 -0.7500
 5517SOL    HW128013   0.918   0.165  14.398 -1.5716  0.2126 -1.7139
 5517SOL    HW228014   0.787   0.170  14.452 -0.2462 -0.9904 -0.1202
 5518SOL     OW28015   0.837   0.889  11.754  0.3140  0.0179  0.1902
 5518SOL    HW128016   0.781   0.870  11.679  0.5313 -1.8983  0.5081
 5518SOL    HW228017   0.921   0.857  11.721 -0.7007 -0.1138 -2.2994
 5519SOL     OW28018   0.713   0.135  15.121 -0.0069 -0.8822  0.2981
 5519SOL    HW128019   0.725   0.230  15.116 -0.7965 -0.8405 -0.7736
 5519SOL    HW228020   0.695   0.103  15.033 -1.2157 -0.3695  0.3512
 5520SOL     OW28021   0.298   0.324   2.798  0.0845  0.2140  0.2911
 5520SOL    HW128022   0.295   0.416   2.823 -0.7984  0.2084  0.1877
 5520SOL    HW228023   0.388   0.294   2.811  1.0716  3.0561  0.0806
 5521SOL     OW28024   4.457   0.756   1.704  0.2158 -0.6265  0.6660
 5521SOL    HW128025   4.366   0.725   1.699 -0.6657  1.7900  2.0237
 5521SOL    HW228026   4.434   0.831   1.757  0.9061  0.7870 -1.0335
 5522SOL     OW28027   2.743   2.128   7.741 -0.5494  0.2107  0.2614
 5522SOL    HW128028   2.690   2.160   7.815  0.0610  2.3688 -0.2234
 5522SOL    HW228029   2.829   2.165   7.762 -0.1516 -0.6464  0.1436
 5523SOL     OW28030   4.332   2.175   5.688  0.0509 -0.6785  0.0819
 5523SOL    HW128031   4.286   2.243   5.638  4.2081 -0.3375 -3.3016
 5523SOL    HW228032   4.407   2.148   5.635  0.2616 -0.4623  0.2762
 5524SOL     OW28033   4.719   3.803   5.100 -0.1348  0.3613 -0.2817
 5524SOL    HW128034   0.019   3.715   5.127  0.6237  0.7496  0.2446
 5524SOL    HW228035   0.016   3.809   5.007 -0.1886  0.0847 -0.3131
 5525SOL     OW28036   4.156   0.307   9.199  0.3509 -0.0946 -0.3771
 5525SOL    HW128037   4.241   0.263   9.190 -0.4925 -1.7825 -0.1142
 5525SOL    HW228038   4.183   0.373   9.262 -1.3438  0.4544 -0.2294
 5526SOL     OW28039   3.498   3.275   8.142  0.1019 -0.4082 -0.4017
 5526SOL    HW128040   3.462   3.319   8.064  1.2569  1.4009  0.0775
 5526SOL    HW228041   3.571   3.330   8.173 -0.8263  1.2186 -1.1088
 5527SOL     OW28042   1.402   4.091  17.049 -0.6426  0.8891 -0.0014
 5527SOL    HW128043   1.485   4.104  17.094 -0.4944 -1.5247  0.3896
 5527SOL    HW228044   1.410   4.143  16.969  2.1110  1.6880  0.8070
 5528SOL     OW28045   3.192   2.576   2.092 -0.6487 -0.1947 -0.3095
 5528SOL    HW128046   3.127   2.611   2.152 -1.8884  3.5644 -3.9401
 5528SOL    HW228047   3.271   2.558   2.145  0.5346  1.5318 -1.4784
 5529SOL     OW28048   2.560   2.831   4.664 -0.2213 -0.1821  0.1813
 5529SOL    HW128049   2.493   2.858   4.601  1.0750 -0.1330 -1.1561
 5529SOL    HW228050   2.520   2.860   4.746 -0.7949 -3.1692  0.9693
 5530SOL     OW28051   1.095   3.780   2.040 -0.0761  0.0697  0.0698
 5530SOL    HW128052   1.061   3.714   1.979  0.0767  0.1623 -0.1167
 5530SOL    HW228053   1.039   3.855   2.023 -0.0288 -0.7418 -3.7329
 5531SOL     OW28054   1.014   1.531   4.083  0.0102  0.3014 -0.0761
 5531SOL    HW128055   1.100   1.501   4.054  0.5262  2.1499 -0.4276
 5531SOL    HW228056   1.012   1.619   4.047  0.5813  0.2296 -0.2800
 5532SOL     OW28057   1.504   1.657  12.496  0.5145  0.0259 -0.7223
 5532SOL    HW128058   1.484   1.584  12.554  0.6675  1.9547  1.7761
 5532SOL    HW228059   1.586   1.673  12.543  0.3636 -5.0901  1.2880
 5533SOL     OW28060   2.478   3.402   2.181 -0.4258 -0.0405 -0.2152
 5533SOL    HW128061   2.563   3.406   2.137  0.5114 -0.9638  1.5078
 5533SOL    HW228062   2.425   3.419   2.103 -0.5196 -1.0158 -0.3709
 5534SOL     OW28063   0.596   0.193   4.394  0.2851  0.1960 -0.1554
 5534SOL    HW128064   0.635   0.126   4.450  1.3738  0.0340 -1.1256
 5534SOL    HW228065   0.646   0.271   4.418  1.8452 -0.8640 -0.0139
 5535SOL     OW28066   0.866   4.259   6.849 -0.0106 -0.1046 -0.2521
 5535SOL    HW128067   0.771   4.261   6.863 -0.1932 -0.0396 -1.4407
 5535SOL    HW228068   0.884   4.346   6.814  2.2656 -0.6521 -0.4482
 5536SOL     OW28069   3.803   0.936  14.702  0.1151 -0.1202 -0.0464
 5536SOL    HW128070   3.776   0.869  14.639  1.0588 -0.9278  0.3980
 5536SOL    HW228071   3.824   1.005  14.640  1.4877 -0.2069  0.3153
 5537SOL     OW28072   3.021   3.826   0.820 -0.5351  0.9299 -0.4175
 5537SOL    HW128073   2.984   3.836   0.907 -1.0376 -0.1522 -0.5076
 5537SOL    HW228074   2.999   3.913   0.785  2.1235  1.9143  0.3261
 5538SOL     OW28075   4.530   0.204  13.721 -0.6375  0.2631 -0.0233
 5538SOL    HW128076   4.520   0.254  13.802 -1.6255 -0.0943  0.0728
 5538SOL    HW228077   4.500   0.265  13.653  0.5795  0.3663 -0.4682
 5539SOL     OW28078   1.505   0.215   5.852  0.2978  0.6311  0.3570
 5539SOL    HW128079   1.411   0.222   5.867 -0.0686 -0.5298 -1.4430
 5539SOL    HW228080   1.517   0.121   5.854  1.3200  0.7646  0.3564
 5540SOL     OW28081   4.171   3.853   8.844 -0.3666  0.4511 -0.4908
 5540SOL    HW128082   4.104   3.841   8.777 -0.4168 -1.0335 -0.1846
 5540SOL    HW228083   4.164   3.944   8.871 -0.2790  0.3381 -0.0782
 5541SOL     OW28084   0.340   2.708  12.454 -0.0750 -0.0243 -0.0674
 5541SOL    HW128085   0.276   2.651  12.498 -0.6212 -0.2646 -1.1657
 5541SOL    HW228086   0.307   2.792  12.485 -0.5254  1.1077 -3.6165
 5542SOL     OW28087   1.309   2.922   3.904  0.4363 -0.0796  0.3759
 5542SOL    HW128088   1.364   2.995   3.934 -0.0590  0.1094  0.8226
 5542SOL    HW228089   1.243   2.969   3.853  0.9446  0.5406  0.2818
 5543SOL     OW28090   4.486   2.107  16.343  0.6249 -0.4356 -0.4721
 5543SOL    HW128091   4.454   2.084  16.430  0.3372 -1.5222 -0.8683
 5543SOL    HW228092   4.563   2.050  16.346 -1.5787 -3.3626  0.8752
 5544SOL     OW28093   1.591   0.993  11.589  0.5136  0.9368  0.1965
 5544SOL    HW128094   1.550   0.942  11.659 -1.3161  1.4264 -0.5064
 5544SOL    HW228095   1.684   0.988  11.611  0.5870 -2.0985 -0.8226
 5545SOL     OW28096   4.162   2.624  16.575 -0.4982  0.2824 -0.0793
 5545SOL    HW128097   4.225   2.654  16.639  1.3902  1.3223 -2.4112
 5545SOL    HW228098   4.198   2.538  16.554 -2.3052 -0.3910 -0.4381
 5546SOL     OW28099   1.108   0.198  12.900 -0.0992  0.2321  0.0586
 5546SOL    HW128100   1.030   0.150  12.929  0.5248 -1.3243 -0.8447
 5546SOL    HW228101   1.179   0.168  12.958  0.3240  0.0348 -0.5674
 5547SOL     OW28102   4.192   1.341  13.562 -0.3435 -0.4182  0.1281
 5547SOL    HW128103   4.224   1.280  13.495 -0.7688 -1.1249  0.5627
 5547SOL    HW228104   4.273   1.351  13.611 -0.7121  0.8485  0.4855
 5548SOL     OW28105   0.211   2.390   6.022  0.1328  0.3964 -0.2803
 5548SOL    HW128106   0.131   2.439   6.003  0.4403  0.4994 -1.3033
 5548SOL    HW228107   0.187   2.351   6.106 -1.6918  1.2308 -0.4322
 5549SOL     OW28108   2.747   2.278   4.203 -0.6329 -0.1765 -0.0176
 5549SOL    HW128109   2.765   2.342   4.272  3.9745  1.3424 -2.6464
 5549SOL    HW228110   2.652   2.270   4.212 -0.8898  2.3682 -0.4173
 5550SOL     OW28111   3.881   2.574   9.030 -0.7497  0.5380 -0.4198
 5550SOL    HW128112   3.797   2.616   9.046 -1.1177 -0.7372  1.0279
 5550SOL    HW228113   3.925   2.639   8.976  0.8462  0.2614  0.5169
 5551SOL     OW28114   1.389   1.355   6.442 -0.4462  0.5207 -0.4667
 5551SOL    HW128115   1.401   1.270   6.400 -0.7196  0.7437 -0.9905
 5551SOL    HW228116   1.474   1.376   6.481 -1.3898 -0.3807  2.1151
 5552SOL     OW28117   3.850   0.633   6.064  0.1994 -0.6276 -0.0009
 5552SOL    HW128118   3.817   0.548   6.034 -2.1820  0.0472  0.7098
 5552SOL    HW228119   3.929   0.641   6.012  2.4070 -1.5592  3.2082
 5553SOL     OW28120   1.929   4.148   6.381  0.5154  0.4199 -0.0775
 5553SOL    HW128121   1.872   4.072   6.398  0.4504  0.3981 -0.3982
 5553SOL    HW228122   1.861   4.215   6.387 -1.1196 -1.1506 -1.1110
 5554SOL     OW28123   3.979   1.260   0.570  0.3150 -0.7613  0.1562
 5554SOL    HW128124   4.031   1.234   0.494  3.6316  0.6891  1.9255
 5554SOL    HW228125   3.927   1.333   0.536  0.9698 -1.8559 -3.1724
 5555SOL     OW28126   3.401   1.228   5.513 -0.3108  0.2601 -0.3075
 5555SOL    HW128127   3.314   1.268   5.521  0.3692  2.3844 -3.4150
 5555SOL    HW228128   3.438   1.278   5.441  0.4944  2.3371  1.5289
 5556SOL     OW28129   1.014   4.292   4.956 -0.4794 -0.2207 -0.0031
 5556SOL    HW128130   0.951   4.253   5.017  0.6797 -1.2635  0.5243
 5556SOL    HW228131   0.950   4.333   4.897 -1.3578 -0.5862  0.6859
 5557SOL     OW28132   0.908   0.674   4.853  0.2932  0.0044  0.2930
 5557SOL    HW128133   0.896   0.734   4.779 -0.6635  1.5421  1.6805
 5557SOL    HW228134   1.003   0.666   4.841  0.4572 -0.3588  1.7891
 5558SOL     OW28135   0.261   3.014   0.177 -0.1278 -0.6665  0.1749
 5558SOL    HW128136   0.221   3.073   0.241 -0.1102 -2.1852  1.5772
 5558SOL    HW228137   0.289   2.934   0.222 -1.1429 -1.3812 -0.4498
 5559SOL     OW28138   0.399   3.199   7.673 -0.2132 -0.5623 -0.1799
 5559SOL    HW128139   0.404   3.294   7.679 -1.9969 -0.5075  0.1678
 5559SOL    HW228140   0.382   3.191   7.766  1.9836  1.2934  0.3825
 5560SOL     OW28141   0.668   4.352   0.079 -0.1031  0.0368 -0.5320
 5560SOL    HW128142   0.717   4.270   0.070 -2.2489 -1.3744  0.3847
 5560SOL    HW228143   0.588   4.334   0.029 -1.0444  3.2973 -0.1791
 5561SOL     OW28144   2.598   4.625   8.257  0.2159 -0.1497 -0.3840
 5561SOL    HW128145   2.611   4.716   8.287  1.7457 -0.1111 -1.1814
 5561SOL    HW228146   2.541   4.597   8.329  1.8131 -1.1621  0.4857
 5562SOL     OW28147   4.268   4.039   4.438 -0.6841 -0.6444  0.3858
 5562SOL    HW128148   4.226   3.995   4.365  2.0692 -2.1281 -0.2812
 5562SOL    HW228149   4.337   3.976   4.457 -0.9196 -1.6260 -2.0920
 5563SOL     OW28150   4.642   3.082  17.442  0.2858 -0.1736 -0.6534
 5563SOL    HW128151   4.626   3.063  17.350 -2.9283  1.3162 -0.3790
 5563SOL    HW228152   4.555   3.059  17.475  1.4987 -0.6195  2.2349
 5564SOL     OW28153   1.996   3.339   3.328 -0.8326 -0.4217  0.2038
 5564SOL    HW128154   1.950   3.357   3.246 -1.7289  0.9536  0.9989
 5564SOL    HW228155   2.038   3.425   3.338  0.6995 -0.7226 -3.5250
 5565SOL     OW28156   2.455   3.702   4.643  0.1541  0.2536  0.1885
 5565SOL    HW128157   2.487   3.743   4.563  1.9547  0.8460  1.2286
 5565SOL    HW228158   2.359   3.712   4.643  0.2660  1.2656  1.1889
 5566SOL     OW28159   3.392   4.199   1.125 -0.4091  0.8974 -0.8790
 5566SOL    HW128160   3.347   4.119   1.154 -0.2418  0.5191 -1.6617
 5566SOL    HW228161   3.378   4.195   1.030 -0.8095 -0.6851 -0.7561
 5567SOL     OW28162   4.527   4.214   9.162 -1.1218  0.1120 -0.6521
 5567SOL    HW128163   4.440   4.242   9.190 -0.5644  1.2044  0.0269
 5567SOL    HW228164   4.527   4.209   9.066  0.4747 -0.3319 -0.6219
 5568SOL     OW28165   0.783   2.960   8.521 -0.3507 -0.0049  0.0756
 5568SOL    HW128166   0.698   2.976   8.562 -0.6640  0.6180 -0.8158
 5568SOL    HW228167   0.837   2.960   8.600 -0.5087 -0.7962  0.1780
 5569SOL     OW28168   3.453   3.124  17.260 -0.0614  0.1296 -0.0213
 5569SOL    HW128169   3.532   3.070  17.255 -1.5385 -1.9433 -0.9046
 5569SOL    HW228170   3.478   3.195  17.201  0.1978  0.8752  0.9779
 5570SOL     OW28171   3.991   2.536  16.774 -0.3687 -0.1260 -0.1205
 5570SOL    HW128172   3.953   2.614  16.815 -0.5211 -0.3508  0.1660
 5570SOL    HW228173   4.041   2.581  16.706  0.3087  1.0579  1.1719
 5571SOL     OW28174   0.333   0.989  15.630 -0.1418 -0.0336 -0.4827
 5571SOL    HW128175   0.314   0.923  15.564 -0.2679 -0.7740  0.2958
 5571SOL    HW228176   0.271   0.965  15.698  0.7171 -0.4175  0.1703
 5572SOL     OW28177   2.232   0.307   7.185  0.4604 -0.0749 -0.1444
 5572SOL    HW128178   2.221   0.262   7.269  2.2580  0.0725  0.1787
 5572SOL    HW228179   2.316   0.273   7.154  0.4450 -0.0784 -0.1826
 5573SOL     OW28180   2.699   0.143   6.188 -0.5107 -0.2638 -0.2769
 5573SOL    HW128181   2.787   0.110   6.202 -1.1567 -1.9121 -0.1891
 5573SOL    HW228182   2.704   0.194   6.269 -2.0119 -1.6712  0.7013
 5574SOL     OW28183   3.070   3.507   0.932  0.0193 -0.1308  0.0087
 5574SOL    HW128184   3.122   3.514   1.013 -0.8850 -0.1781  0.5908
 5574SOL    HW228185   3.108   3.586   0.894 -0.2481 -0.0942 -0.1777
 5575SOL     OW28186   1.652   2.023   4.468  0.7146  0.3689  0.5496
 5575SOL    HW128187   1.641   2.019   4.563 -0.0942 -0.9927  0.3960
 5575SOL    HW228188   1.745   2.043   4.462  1.1519 -2.1961 -1.2131
 5576SOL     OW28189   3.655   1.411   4.763 -0.2714  0.1540 -0.1128
 5576SOL    HW128190   3.679   1.503   4.771  0.5550 -0.1091  0.3328
 5576SOL    HW228191   3.730   1.378   4.713 -0.3484  0.2362 -0.2839
 5577SOL     OW28192   0.220   0.379  10.564  0.4538  0.4226 -0.0387
 5577SOL    HW128193   0.261   0.462  10.590 -0.8249  0.8263  0.6702
 5577SOL    HW228194   0.164   0.410  10.493  0.4884  0.3619 -0.0927
 5578SOL     OW28195   0.255   3.781   5.676  0.3821 -0.3421  0.4445
 5578SOL    HW128196   0.167   3.810   5.699  1.6512  0.8944  3.7389
 5578SOL    HW228197   0.299   3.786   5.761  0.1755  3.1641  0.3376
 5579SOL     OW28198   2.557   0.631  17.466 -0.6509 -0.1175 -0.4823
 5579SOL    HW128199   2.590   0.598  17.382 -1.4810 -0.4314 -0.6973
 5579SOL    HW228200   2.519   0.713  17.434  1.5808  0.7709 -0.8071
 5580SOL     OW28201   3.893   2.096   2.230 -0.3313 -0.3298 -0.4157
 5580SOL    HW128202   3.974   2.144   2.213 -1.0703  1.1604  0.2545
 5580SOL    HW228203   3.828   2.166   2.241 -0.6917 -0.4625 -1.6508
 5581SOL     OW28204   3.393   0.678   7.220  0.1424 -0.1228  0.1747
 5581SOL    HW128205   3.467   0.701   7.164  0.7583  1.1612  1.5222
 5581SOL    HW228206   3.355   0.765   7.234 -0.4707 -0.2284 -0.7938
 5582SOL     OW28207   3.811   1.245   7.392 -0.3703 -0.3008 -0.0433
 5582SOL    HW128208   3.877   1.182   7.423  2.2426  2.2682 -0.3115
 5582SOL    HW228209   3.793   1.291   7.474  1.3251 -1.2738  0.8901
 5583SOL     OW28210   3.904   3.749   3.286 -0.6254  0.5656  0.0522
 5583SOL    HW128211   3.975   3.812   3.272 -0.7526  0.8973  0.8857
 5583SOL    HW228212   3.945   3.684   3.343  1.4413  0.7878 -1.1916
 5584SOL     OW28213   0.730   3.289   4.640  0.3860 -0.0109 -0.2031
 5584SOL    HW128214   0.809   3.271   4.691  0.0198  2.2173  1.1637
 5584SOL    HW228215   0.683   3.207   4.658  2.6230 -1.0567  0.8922
 5585SOL     OW28216   4.549   2.758   3.991  0.0622 -0.3132 -0.3524
 5585SOL    HW128217   4.587   2.679   4.029  0.4250 -0.7935 -1.7393
 5585SOL    HW228218   4.581   2.740   3.903 -0.0161 -0.0894 -0.4269
 5586SOL     OW28219   3.340   1.299   6.643 -0.1432  0.1721 -0.2275
 5586SOL    HW128220   3.399   1.270   6.712 -0.1615 -0.2890 -0.4078
 5586SOL    HW228221   3.387   1.374   6.607  0.3339 -0.3955 -0.7781
 5587SOL     OW28222   2.457   4.038   1.507  0.1860  0.1948  0.5083
 5587SOL    HW128223   2.523   3.977   1.475 -0.4217 -0.2039  0.0203
 5587SOL    HW228224   2.517   4.092   1.559 -0.8657  2.0033 -0.1342
 5588SOL     OW28225   2.767   3.067  16.421 -0.1971 -0.4015 -0.3348
 5588SOL    HW128226   2.725   3.049  16.504  0.6889 -0.3133  0.1349
 5588SOL    HW228227   2.857   3.071  16.453  0.0907 -0.4939 -1.1325
 5589SOL     OW28228   2.020   1.102   5.563  0.8719  0.0235 -0.0807
 5589SOL    HW128229   1.962   1.156   5.617 -0.8229 -1.0959 -0.7886
 5589SOL    HW228230   1.974   1.018   5.569  1.9477 -0.5536  0.1001
 5590SOL     OW28231   2.559   2.685   3.928 -0.0041 -0.3344 -0.0067
 5590SOL    HW128232   2.585   2.657   4.015 -0.7761  2.7250  1.2270
 5590SOL    HW228233   2.490   2.749   3.947 -0.1886 -0.9254  1.2777
 5591SOL     OW28234   0.581   3.681   3.224  0.7485 -0.0069  0.3395
 5591SOL    HW128235   0.636   3.604   3.211 -1.1050 -1.2929  0.0269
 5591SOL    HW228236   0.585   3.717   3.135 -1.3031  3.0832  1.4757
 5592SOL     OW28237   4.082   1.040   8.283 -0.5231  0.0952 -0.6848
 5592SOL    HW128238   4.138   1.111   8.314 -0.3668 -0.3110 -0.0274
 5592SOL    HW228239   4.062   1.006   8.370 -0.0109 -1.4334 -1.1723
 5593SOL     OW28240   0.071   3.482   7.353  0.5229 -0.1178  0.2828
 5593SOL    HW128241   0.048   3.523   7.270 -2.0261 -1.2416  0.4377
 5593SOL    HW228242   0.153   3.436   7.337  0.6088 -0.4833  1.7427
 5594SOL     OW28243   0.719   3.911   4.232 -0.5952  0.2357  0.8806
 5594SOL    HW128244   0.764   3.877   4.310 -1.9579 -0.9109  1.1710
 5594SOL    HW228245   0.764   3.995   4.221  0.4713 -0.2124  1.8092
 5595SOL     OW28246   4.202   1.972   6.127  0.3190  0.2549  0.0957
 5595SOL    HW128247   4.196   1.950   6.034  3.0309 -2.0997  0.4750
 5595SOL    HW228248   4.292   1.947   6.149  0.0328 -0.2943  0.6288
 5596SOL     OW28249   1.225   4.485   8.478  0.2473  0.2595 -0.1638
 5596SOL    HW128250   1.290   4.417   8.496 -0.6692 -0.4264  0.6251
 5596SOL    HW228251   1.226   4.489   8.383 -2.6994  0.5749 -0.1839
 5597SOL     OW28252   2.178   2.704   6.787  0.5751  0.4442 -0.3086
 5597SOL    HW128253   2.203   2.639   6.852  0.1651 -0.0030 -0.5963
 5597SOL    HW228254   2.145   2.639   6.725 -1.7851  1.2532  0.0932
 5598SOL     OW28255   3.697   0.328   5.607 -0.1124  0.3352 -0.3905
 5598SOL    HW128256   3.682   0.396   5.673  2.6584  1.6971 -1.1518
 5598SOL    HW228257   3.747   0.369   5.537 -1.5600  0.2379 -1.4683
 5599SOL     OW28258   1.932   4.536  16.811 -0.4768 -0.2334 -0.5755
 5599SOL    HW128259   1.893   4.461  16.767 -0.2176 -1.0747  0.6214
 5599SOL    HW228260   2.024   4.522  16.787  0.9311  2.3404  3.3259
 5600SOL     OW28261   4.075   1.408   7.260 -0.3426  0.1381 -0.1793
 5600SOL    HW128262   4.041   1.433   7.345 -0.7683  0.4274 -0.4327
 5600SOL    HW228263   4.086   1.313   7.256  1.5003  0.3569 -0.1260
 5601SOL     OW28264   3.161   3.344   6.751 -0.0114 -0.5843  0.0893
 5601SOL    HW128265   3.144   3.257   6.787 -1.6936 -0.6523 -0.8587
 5601SOL    HW228266   3.125   3.391   6.826  0.2696  1.9471 -1.3715
 5602SOL     OW28267   2.441   4.556   8.463 -0.0712  0.0846 -0.4976
 5602SOL    HW128268   2.379   4.577   8.533  1.2820 -3.1239  1.6795
 5602SOL    HW228269   2.494   4.485   8.497  1.7247  1.0739 -1.2177
 5603SOL     OW28270   2.760   1.247   9.121 -0.1213  0.0429  0.0158
 5603SOL    HW128271   2.721   1.185   9.183 -2.8130 -0.3130 -2.0646
 5603SOL    HW228272   2.853   1.238   9.142 -0.1597  1.1524  0.6873
 5604SOL     OW28273   1.919   0.506   6.027  0.2512  0.0803 -0.0235
 5604SOL    HW128274   1.900   0.427   6.078  0.3241  0.0477 -0.0463
 5604SOL    HW228275   1.868   0.489   5.948 -0.0035  0.6786  0.0142
 5605SOL     OW28276   4.189   0.470   1.141 -0.2730 -0.6916 -0.2980
 5605SOL    HW128277   4.163   0.392   1.093 -3.0868 -0.3084  0.5908
 5605SOL    HW228278   4.257   0.426   1.192  0.8495 -0.3930 -1.5478
 5606SOL     OW28279   2.799   2.266   7.104  0.3832  0.7942  0.5503
 5606SOL    HW128280   2.850   2.194   7.070 -0.6916 -0.1858  1.0144
 5606SOL    HW228281   2.867   2.292   7.166 -2.2772  0.2597  3.7201
 5607SOL     OW28282   2.211   1.677  11.081  0.0272  0.3592 -0.1429
 5607SOL    HW128283   2.123   1.649  11.057 -0.1245  0.0397  0.7713
 5607SOL    HW228284   2.256   1.601  11.045 -2.2015 -1.9675  1.9301
 5608SOL     OW28285   4.071   2.181   7.430  0.1592  0.2219  0.7807
 5608SOL    HW128286   3.975   2.187   7.428  0.0806 -1.3820 -1.0187
 5608SOL    HW228287   4.076   2.139   7.344 -1.0287  2.2385 -0.2699
 5609SOL     OW28288   3.881   4.098   9.237  0.3969  0.3229  0.1923
 5609SOL    HW128289   3.876   4.193   9.226  0.6353  0.1655 -1.3068
 5609SOL    HW228290   3.932   4.096   9.318  1.4881  2.5524 -0.4262
 5610SOL     OW28291   3.919   1.636  10.185 -0.3236 -0.2304  0.0542
 5610SOL    HW128292   4.007   1.605  10.207 -0.3209 -1.0077 -1.0334
 5610SOL    HW228293   3.888   1.647  10.275  1.5322  0.7745  0.5543
 5611SOL     OW28294   2.346   4.280   5.170  0.0184 -0.0863  0.3078
 5611SOL    HW128295   2.317   4.367   5.144 -0.7103 -0.2701  0.5096
 5611SOL    HW228296   2.413   4.295   5.236 -0.5012  2.3366  0.2775
 5612SOL     OW28297   0.194   0.236  11.323  0.1939  0.1910  0.4340
 5612SOL    HW128298   0.169   0.152  11.361 -0.0390 -0.3139 -0.8336
 5612SOL    HW228299   0.273   0.255  11.374  1.8263 -0.2926 -1.9104
 5613SOL     OW28300   2.664   1.752   2.490  0.2906 -0.4345 -0.6394
 5613SOL    HW128301   2.752   1.789   2.497  0.1396 -0.4507  1.2443
 5613SOL    HW228302   2.625   1.785   2.408  1.1483  1.1945 -0.3912
 5614SOL     OW28303   1.330   4.579   7.172 -0.1327 -0.2566 -0.5283
 5614SOL    HW128304   1.291   4.536   7.096 -1.0391  0.4236 -0.4352
 5614SOL    HW228305   1.276   4.657   7.181  0.0399 -0.4243  1.8275
 5615SOL     OW28306   3.213   2.150   9.109  0.0886 -0.4734 -0.4398
 5615SOL    HW128307   3.288   2.093   9.126 -0.0005 -0.4097  0.1822
 5615SOL    HW228308   3.224   2.170   9.016 -0.7661  1.2425 -0.1579
 5616SOL     OW28309   2.359   2.898   7.612 -0.5340 -0.2590 -0.0174
 5616SOL    HW128310   2.292   2.915   7.545  0.7667  1.9234 -0.7838
 5616SOL    HW228311   2.440   2.879   7.565 -1.1419 -1.2616 -0.6628
 5617SOL     OW28312   3.946   1.076  12.551 -0.3202 -0.1583 -0.8453
 5617SOL    HW128313   3.859   1.067  12.512 -0.0632 -1.0550 -1.2180
 5617SOL    HW228314   3.966   0.984  12.534 -1.8673 -0.4245 -1.1590
 5618SOL     OW28315   1.926   4.627   2.315 -0.1199 -0.0781 -0.0086
 5618SOL    HW128316   1.924   4.721   2.330 -2.3317  0.3167 -2.5863
 5618SOL    HW228317   1.871   4.632   2.236  0.3214 -1.4215 -0.4113
 5619SOL     OW28318   1.743   3.779   8.470  0.7902  0.6542  0.2312
 5619SOL    HW128319   1.730   3.832   8.549  0.4440 -1.5450  1.6727
 5619SOL    HW228320   1.821   3.726   8.486  1.1776  0.6603 -1.6521
 5620SOL     OW28321   0.332   3.710   4.623 -0.0326 -0.0289  0.0098
 5620SOL    HW128322   0.409   3.655   4.641  1.1035  0.6961 -2.5815
 5620SOL    HW228323   0.263   3.648   4.644  1.5391 -1.4224  1.0952
 5621SOL     OW28324   1.534   1.197  16.059 -0.1852  0.6046 -0.3263
 5621SOL    HW128325   1.583   1.177  15.979 -0.9433 -3.0656  0.1324
 5621SOL    HW228326   1.452   1.149  16.047 -1.1163  1.9445  0.6737
 5622SOL     OW28327   1.338   0.635   7.008  0.0223  0.0863 -0.1017
 5622SOL    HW128328   1.379   0.721   7.001 -0.2788  0.2723  0.3839
 5622SOL    HW228329   1.244   0.651   6.996  0.4005  1.5383 -1.1646
 5623SOL     OW28330   4.186   1.761   2.758 -0.5864 -0.0458  0.2976
 5623SOL    HW128331   4.153   1.675   2.783  0.9023 -0.0313  2.2748
 5623SOL    HW228332   4.126   1.802   2.696  0.1592  0.4312 -0.1018
 5624SOL     OW28333   3.239   4.439   9.032  0.1913  0.1169  0.1258
 5624SOL    HW128334   3.232   4.348   9.005  1.1292  0.8516 -2.6729
 5624SOL    HW228335   3.182   4.482   8.968  1.2097  0.2641 -0.6874
 5625SOL     OW28336   4.449   1.674   9.434 -0.2109  0.1649 -0.0434
 5625SOL    HW128337   4.475   1.749   9.488  2.0683 -0.3897 -0.3418
 5625SOL    HW228338   4.366   1.690   9.390 -0.0106 -1.1980 -0.9074
 5626SOL     OW28339   0.786   2.083   3.707  0.1610  0.0657  0.6752
 5626SOL    HW128340   0.757   2.113   3.793  0.0571 -1.3784  1.1462
 5626SOL    HW228341   0.761   1.991   3.701  2.3993 -0.3804 -1.9232
 5627SOL     OW28342   0.978   0.279  15.026  0.4475 -0.0066 -0.3999
 5627SOL    HW128343   0.927   0.267  14.946  0.1558  1.2334 -0.4028
 5627SOL    HW228344   1.017   0.363  15.003 -1.3191  1.1671  0.8676
 5628SOL     OW28345   1.881   3.950   3.441  0.1484  0.2417 -0.4201
 5628SOL    HW128346   1.902   4.005   3.516 -1.7026  2.7850 -1.7850
 5628SOL    HW228347   1.947   3.990   3.385 -0.0852 -0.0725 -0.9233
 5629SOL     OW28348   0.237   0.158   7.399  0.2571 -0.0558  0.0591
 5629SOL    HW128349   0.165   0.175   7.460  0.0567  1.9349 -0.7323
 5629SOL    HW228350   0.191   0.131   7.320 -1.3291  0.8157  0.6656
 5630SOL     OW28351   0.856   4.367   6.319 -0.5914 -0.5976  0.0946
 5630SOL    HW128352   0.770   4.405   6.340 -1.3271 -1.6674 -0.9879
 5630SOL    HW228353   0.907   4.447   6.310  1.2983 -1.7902  0.2724
 5631SOL     OW28354   2.207   3.057   3.124  0.5567  0.1513 -0.1767
 5631SOL    HW128355   2.261   3.074   3.201  0.0032  1.7499 -0.1454
 5631SOL    HW228356   2.263   3.102   3.060 -0.5330 -0.5038 -1.5969
 5632SOL     OW28357   1.769   3.173  16.757 -0.2121 -0.5372  0.1397
 5632SOL    HW128358   1.682   3.207  16.777  0.2790  1.4966 -1.2381
 5632SOL    HW228359   1.815   3.224  16.824 -1.3849 -0.8193  1.1526
 5633SOL     OW28360   1.120   4.387   5.216  0.1632 -0.5985 -0.4796
 5633SOL    HW128361   1.109   4.336   5.135 -0.0928 -1.3031 -0.0003
 5633SOL    HW228362   1.215   4.385   5.220  0.1558  0.4503  0.1614
 5634SOL     OW28363   0.931   0.484   8.338  0.2397  0.4432  0.0742
 5634SOL    HW128364   0.892   0.396   8.340 -2.0762  1.4465 -1.0667
 5634SOL    HW228365   0.984   0.473   8.417  0.3122 -0.3309 -0.0857
 5635SOL     OW28366   2.571   4.218   3.512 -0.3886 -0.1042  0.6649
 5635SOL    HW128367   2.544   4.304   3.543  1.1961  0.5319  0.2449
 5635SOL    HW228368   2.491   4.180   3.476  1.0866 -2.6277  0.0553
 5636SOL     OW28369   2.148   4.579  14.282  0.3873  0.0727  0.2383
 5636SOL    HW128370   2.127   4.621  14.198  1.8117 -1.6550 -0.9867
 5636SOL    HW228371   2.204   4.509  14.248  0.9208 -0.7007  2.7380
 5637SOL     OW28372   2.975   2.833   6.467 -0.2994  0.4457 -0.6371
 5637SOL    HW128373   2.991   2.755   6.520 -1.8682  0.1581 -0.5714
 5637SOL    HW228374   2.940   2.894   6.532  0.3012  1.3495 -1.1620
 5638SOL     OW28375   0.719   3.981   6.801  0.7424 -0.4945  0.1724
 5638SOL    HW128376   0.736   4.013   6.712 -0.3038  1.1080  0.5514
 5638SOL    HW228377   0.624   3.968   6.805  0.0886  3.4788 -2.6674
 5639SOL     OW28378   2.598   4.615  15.243  0.1720 -0.3026  0.2521
 5639SOL    HW128379   2.543   4.546  15.279  0.1061 -0.8738 -0.9718
 5639SOL    HW228380   2.663   4.578  15.185  0.1396 -1.1873  0.7862
 5640SOL     OW28381   2.488   2.562  15.809  0.0190  0.2136  0.5146
 5640SOL    HW128382   2.475   2.496  15.740  1.7404 -0.9724  1.3156
 5640SOL    HW228383   2.466   2.505  15.883  1.7898 -1.4483 -0.2232
 5641SOL     OW28384   3.765   1.428   7.211 -0.2308 -0.5805  0.2698
 5641SOL    HW128385   3.687   1.464   7.252 -0.5882  1.9876 -2.6866
 5641SOL    HW228386   3.783   1.350   7.263 -0.0392 -1.9268 -1.8241
 5642SOL     OW28387   3.522   1.562   6.853 -0.5635  0.4136  0.2289
 5642SOL    HW128388   3.523   1.523   6.766 -0.0329  0.2616  0.3002
 5642SOL    HW228389   3.599   1.521   6.892 -2.0583 -0.3377  2.4076
 5643SOL     OW28390   3.328   0.756   6.264  0.1154 -0.2594 -0.0672
 5643SOL    HW128391   3.371   0.740   6.181 -0.7411  2.2916 -1.0160
 5643SOL    HW228392   3.243   0.715   6.249  0.3817 -0.9302  0.2760
 5644SOL     OW28393   0.274   2.244  16.714  0.0139 -0.0888  0.1204
 5644SOL    HW128394   0.333   2.263  16.642 -0.1897 -1.9914 -0.5418
 5644SOL    HW228395   0.327   2.183  16.766  0.7434  0.7785  0.4028
 5645SOL     OW28396   3.871   2.178   0.986  0.2313 -0.1230  0.7733
 5645SOL    HW128397   3.778   2.201   0.997 -0.5486 -2.0667 -1.7589
 5645SOL    HW228398   3.903   2.250   0.932 -0.9500 -0.3490 -0.2377
 5646SOL     OW28399   1.361   4.342   6.612 -0.2959 -0.1278  0.3639
 5646SOL    HW128400   1.436   4.284   6.598  1.0639  1.9197 -0.9556
 5646SOL    HW228401   1.295   4.279   6.639 -1.7628  1.6757  0.9951
 5647SOL     OW28402   3.492   2.456   4.153 -0.9863  0.5191 -0.4291
 5647SOL    HW128403   3.486   2.481   4.246 -2.2803 -1.3210 -0.0222
 5647SOL    HW228404   3.485   2.541   4.110  0.5087  0.2487 -1.1770
 5648SOL     OW28405   1.400   2.874   3.495 -0.1339 -0.7296 -0.1198
 5648SOL    HW128406   1.491   2.895   3.512 -0.2389  0.7421 -1.3085
 5648SOL    HW228407   1.379   2.824   3.574 -1.9306  0.9508  0.4723
 5649SOL     OW28408   0.918   2.771  11.731 -0.3201 -0.8462 -0.4678
 5649SOL    HW128409   0.828   2.774  11.764 -0.2671 -2.9577 -0.1433
 5649SOL    HW228410   0.942   2.689  11.774 -0.1503  0.1198  1.2977
 5650SOL     OW28411   1.744   3.567   7.996  0.1933 -0.6236 -0.3525
 5650SOL    HW128412   1.821   3.513   7.980  0.5574 -0.2831  0.2417
 5650SOL    HW228413   1.751   3.584   8.090  0.3342 -0.3128 -0.4202
 5651SOL     OW28414   2.203   3.360   9.434 -0.3188  0.5871  0.5113
 5651SOL    HW128415   2.204   3.338   9.340  1.6976  1.9994  0.2105
 5651SOL    HW228416   2.286   3.407   9.439  0.3413 -0.2219 -2.7790
 5652SOL     OW28417   3.025   2.368   8.894  0.3083  0.2778 -0.3030
 5652SOL    HW128418   2.980   2.311   8.956  1.2058 -0.3031 -0.1830
 5652SOL    HW228419   2.977   2.447   8.918  1.2318  1.5983 -2.7718
 5653SOL     OW28420   3.545   1.209   6.812 -0.1002 -0.3126 -0.0508
 5653SOL    HW128421   3.599   1.146   6.765 -0.9641  0.0078 -1.4765
 5653SOL    HW228422   3.569   1.190   6.902 -1.3403  0.0089  0.3522
 5654SOL     OW28423   1.633   3.698   3.045  0.5275  0.6383  0.1680
 5654SOL    HW128424   1.685   3.777   3.030 -0.2074  0.5264 -3.0126
 5654SOL    HW228425   1.602   3.689   2.954 -0.6267 -1.2102  0.7562
 5655SOL     OW28426   2.030   2.214   5.023  0.4704  0.3973  0.5285
 5655SOL    HW128427   2.036   2.274   5.097  0.8434  1.2257 -0.1773
 5655SOL    HW228428   2.070   2.137   5.063 -0.5322  0.4361  1.6137
 5656SOL     OW28429   2.009   4.109   6.877 -0.0091 -0.0133 -0.5569
 5656SOL    HW128430   1.993   4.022   6.913 -1.5254 -0.0635 -1.3679
 5656SOL    HW228431   1.926   4.155   6.879  1.0985  1.9469 -0.0566
 5657SOL     OW28432   4.213   1.331   4.649 -0.0271 -0.0167 -0.1948
 5657SOL    HW128433   4.221   1.401   4.583  1.9836  0.1000  0.1742
 5657SOL    HW228434   4.284   1.276   4.616  0.0890 -0.1051  0.2047
 5658SOL     OW28435   3.308   2.842   3.749  0.1092  0.1096 -0.5595
 5658SOL    HW128436   3.230   2.787   3.756 -0.1690  0.3280 -1.9645
 5658SOL    HW228437   3.271   2.929   3.767 -1.0050 -0.4377 -0.1597
 5659SOL     OW28438   1.629   0.528   5.679  0.4666  0.6303  0.1078
 5659SOL    HW128439   1.699   0.470   5.708 -0.2906  0.0415  0.7621
 5659SOL    HW228440   1.573   0.515   5.756  0.3569 -1.6345 -0.3402
 5660SOL     OW28441   4.322   2.791  12.102  0.2110  0.5431  0.0987
 5660SOL    HW128442   4.355   2.704  12.127  0.6919  0.4048 -1.0327
 5660SOL    HW228443   4.233   2.786  12.136  0.2605 -0.1187  0.1286
 5661SOL     OW28444   3.293   1.333   8.847  0.4764 -0.2728 -0.1714
 5661SOL    HW128445   3.251   1.417   8.866 -0.5158 -0.3545 -2.0740
 5661SOL    HW228446   3.357   1.329   8.918 -1.6020  0.8612  1.7789
 5662SOL     OW28447   2.781   3.197   3.740 -0.1610  0.5732 -0.8174
 5662SOL    HW128448   2.762   3.167   3.651 -0.0882 -0.6617 -0.4211
 5662SOL    HW228449   2.812   3.119   3.786 -1.0162  0.4146 -0.5156
 5663SOL     OW28450   0.585   4.256  14.291  0.3836 -0.4836  0.2081
 5663SOL    HW128451   0.578   4.162  14.275 -2.7968 -0.4131  1.2606
 5663SOL    HW228452   0.504   4.298  14.262  1.4907  2.0227  0.6769
 5664SOL     OW28453   4.446   2.692   6.282  0.1518 -0.1915  0.3432
 5664SOL    HW128454   4.365   2.646   6.258 -0.1072 -1.0280  2.7989
 5664SOL    HW228455   4.458   2.755   6.211  0.9747  1.1290  1.6653
 5665SOL     OW28456   1.352   1.178   9.373  0.6889  0.0403 -0.4655
 5665SOL    HW128457   1.413   1.251   9.381  1.4104 -0.6681  0.5418
 5665SOL    HW228458   1.270   1.218   9.346  0.9913  1.2047  0.3954
 5666SOL     OW28459   2.167   0.860   7.558 -0.0966 -0.2937 -0.3888
 5666SOL    HW128460   2.136   0.824   7.475  0.0851  0.1937 -0.6668
 5666SOL    HW228461   2.116   0.940   7.571  0.9143  0.1038  1.0705
 5667SOL     OW28462   1.851   0.692   7.098  0.0774  0.4725  0.6351
 5667SOL    HW128463   1.786   0.643   7.047 -0.9324  1.4558  0.9673
 5667SOL    HW228464   1.847   0.773   7.048  0.6035 -0.3537 -0.7601
 5668SOL     OW28465   0.983   1.136   4.419  0.1038  1.0646 -0.4573
 5668SOL    HW128466   1.036   1.198   4.369 -1.3034  2.3000 -0.4168
 5668SOL    HW228467   1.049   1.083   4.465 -0.3002 -0.3324 -1.5000
 5669SOL     OW28468   1.994   0.767  17.349  0.2791  0.0873 -0.1239
 5669SOL    HW128469   2.018   0.806  17.265 -1.6747 -0.0704 -0.7554
 5669SOL    HW228470   1.979   0.841  17.407 -2.3319  0.4422 -1.2469
 5670SOL     OW28471   0.312   0.116   3.939 -0.9653  0.0556  0.4951
 5670SOL    HW128472   0.397   0.146   3.972 -0.2665 -0.4680 -0.8116
 5670SOL    HW228473   0.261   0.192   3.968 -1.2868  0.3238 -0.7941
 5671SOL     OW28474   4.142   1.242   6.598 -0.3596 -0.0643  0.0474
 5671SOL    HW128475   4.163   1.288   6.680 -1.3808  0.6795 -0.1057
 5671SOL    HW228476   4.206   1.173   6.613  0.2252  1.4850  4.7553
 5672SOL     OW28477   3.778   1.367   4.054 -0.4154 -0.5984  0.1831
 5672SOL    HW128478   3.783   1.431   4.125 -0.1036 -0.4486  0.0225
 5672SOL    HW228479   3.853   1.322   4.092 -0.2122  0.2024  0.7375
 5673SOL     OW28480   4.190   2.798   4.667 -0.2116 -0.4614  0.3827
 5673SOL    HW128481   4.161   2.715   4.630 -2.2986  0.1916  0.5303
 5673SOL    HW228482   4.156   2.851   4.595 -0.8653 -1.1724  0.1760
 5674SOL     OW28483   0.220   4.543   7.515 -0.6797 -0.2661  0.0873
 5674SOL    HW128484   0.170   4.463   7.534  0.9786 -1.1556  0.7416
 5674SOL    HW228485   0.272   4.554   7.595 -0.7782  2.4572 -0.2446
 5675SOL     OW28486   2.215   3.274   3.530  0.2834  0.1658 -0.3670
 5675SOL    HW128487   2.278   3.333   3.489  2.5805 -1.7556  0.4556
 5675SOL    HW228488   2.149   3.281   3.461  1.1414  0.6213 -1.1379
 5676SOL     OW28489   1.642   3.772   3.502 -0.0901  0.0427 -0.2484
 5676SOL    HW128490   1.735   3.788   3.490  0.0864  0.8459  2.2466
 5676SOL    HW228491   1.624   3.688   3.459 -1.2942  0.4902 -0.6230
 5677SOL     OW28492   4.211   3.448  12.655 -0.3665 -0.3420 -1.2256
 5677SOL    HW128493   4.249   3.363  12.676  2.6899  1.4958  0.5497
 5677SOL    HW228494   4.166   3.416  12.576 -0.2007 -0.1932 -1.3781
 5678SOL     OW28495   1.975   4.445  14.700 -0.1978  0.5153 -0.0234
 5678SOL    HW128496   2.034   4.420  14.771 -1.1747 -1.3580  0.1246
 5678SOL    HW228497   1.914   4.371  14.704  0.2926  0.0056 -2.0923
 5679SOL     OW28498   0.705   2.441   4.911  0.3932 -0.0863 -0.3533
 5679SOL    HW128499   0.663   2.356   4.922 -0.2713  0.1447 -1.1078
 5679SOL    HW228500   0.631   2.501   4.912  0.2499 -0.2820  0.5090
 5680SOL     OW28501   0.519   0.600   5.423 -0.6227  0.3178 -0.2211
 5680SOL    HW128502   0.600   0.608   5.372 -0.7946  1.9342 -0.2251
 5680SOL    HW228503   0.516   0.508   5.449 -0.5688 -0.1976 -2.0097
 5681SOL     OW28504   4.287   2.595  15.799  0.0366 -0.4474  0.4066
 5681SOL    HW128505   4.274   2.671  15.742  1.0676 -0.5837 -0.0267
 5681SOL    HW228506   4.200   2.556  15.795 -0.1431  0.1124 -1.2241
 5682SOL     OW28507   3.113   4.030   5.886  0.3161 -0.1079 -0.3252
 5682SOL    HW128508   3.155   3.998   5.806  0.5816  0.3473 -0.3733
 5682SOL    HW228509   3.129   4.124   5.871  1.2086 -0.4082 -1.2378
 5683SOL     OW28510   3.219   3.377   9.642 -0.0987  0.0751  0.3497
 5683SOL    HW128511   3.265   3.407   9.720  2.1813 -0.0755 -0.9515
 5683SOL    HW228512   3.273   3.302   9.618  1.1719  0.9134  0.6225
 5684SOL     OW28513   1.445   2.132   4.951 -0.0618 -0.4706  0.6711
 5684SOL    HW128514   1.420   2.150   4.861 -0.1958  0.1272  0.8297
 5684SOL    HW228515   1.469   2.218   4.984 -1.1274 -0.8405  2.4368
 5685SOL     OW28516   1.028   4.203  16.875 -0.4733 -0.0355 -0.2242
 5685SOL    HW128517   1.057   4.294  16.878  0.2746 -0.3175  0.9080
 5685SOL    HW228518   0.947   4.208  16.824 -0.7425  1.1235  0.3075
 5686SOL     OW28519   2.822   3.528   7.110 -0.5355  0.3895  0.0020
 5686SOL    HW128520   2.785   3.605   7.153 -0.7395  0.0319  0.4724
 5686SOL    HW228521   2.817   3.458   7.176  0.1902  0.9249  0.6139
 5687SOL     OW28522   1.037   3.830  16.196  0.4971 -0.1333 -0.3266
 5687SOL    HW128523   1.096   3.816  16.271  0.9148  0.9900 -0.4377
 5687SOL    HW228524   1.015   3.742  16.166  0.0555 -0.2816  0.4464
 5688SOL     OW28525   0.859   4.118   4.172  0.0158 -0.5078 -0.1032
 5688SOL    HW128526   0.841   4.152   4.085 -4.0450 -2.3195  0.0371
 5688SOL    HW228527   0.939   4.067   4.158  0.2846 -0.1608  0.1529
 5689SOL     OW28528   0.736   2.602   8.549  0.5361  0.2000  0.0325
 5689SOL    HW128529   0.806   2.626   8.487  0.5723  2.0890  0.7949
 5689SOL    HW228530   0.774   2.629   8.633 -0.8999 -1.9455  1.3600
 5690SOL     OW28531   3.868   1.733   0.268 -0.1542 -0.1356 -0.3757
 5690SOL    HW128532   3.810   1.659   0.287 -1.4493  1.1982  0.8546
 5690SOL    HW228533   3.926   1.695   0.202  3.2356 -0.0290  2.5806
 5691SOL     OW28534   2.165   3.542   9.144 -0.5548  0.0257 -0.8542
 5691SOL    HW128535   2.235   3.483   9.171 -1.0176  0.0308  0.3576
 5691SOL    HW228536   2.129   3.566   9.230 -0.2156 -1.9678 -0.1663
 5692SOL     OW28537   4.204   4.673   0.936  0.2315 -0.0107 -0.0485
 5692SOL    HW128538   4.132   4.662   0.873 -0.3898  1.3626  0.4199
 5692SOL    HW228539   4.246   4.588   0.921  0.7595  0.1657  0.4328
 5693SOL     OW28540   3.545   4.268   8.733  0.2702  0.0424  0.1387
 5693SOL    HW128541   3.567   4.269   8.826 -0.8040 -0.0907  0.3982
 5693SOL    HW228542   3.499   4.351   8.726 -0.8205 -0.6468 -1.1176
 5694SOL     OW28543   0.292   0.869   5.693  0.0617 -0.2690  0.1006
 5694SOL    HW128544   0.379   0.891   5.727 -0.1576  0.4806  0.1755
 5694SOL    HW228545   0.266   0.810   5.763  0.5621  0.0792  0.5742
 5695SOL     OW28546   4.552   3.181   4.404  0.2066 -0.3938  0.4774
 5695SOL    HW128547   4.565   3.138   4.488  0.2946 -1.2466  0.0248
 5695SOL    HW228548   4.489   3.249   4.429  1.9011  0.7064  1.7388
 5696SOL     OW28549   4.403   1.912   9.602 -0.1730  0.7379 -0.0149
 5696SOL    HW128550   4.476   1.974   9.603 -1.6478  2.4439 -0.2391
 5696SOL    HW228551   4.346   1.965   9.547 -0.7612 -1.4527 -1.5075
 5697SOL     OW28552   3.380   2.416  13.978  0.0464  0.2009  0.2178
 5697SOL    HW128553   3.365   2.381  14.066  0.4720 -1.8104 -0.5144
 5697SOL    HW228554   3.447   2.358  13.943  0.6246 -1.4621  4.1213
 5698SOL     OW28555   0.855   3.195   8.144 -0.7682 -0.2073 -0.5000
 5698SOL    HW128556   0.803   3.116   8.152  0.0802 -0.7680 -0.4734
 5698SOL    HW228557   0.836   3.234   8.230  1.5132 -0.5546  0.1669
 5699SOL     OW28558   4.338   1.048  15.011  0.0092  0.1231  0.0556
 5699SOL    HW128559   4.310   0.959  15.033 -0.6819  0.3566  0.1420
 5699SOL    HW228560   4.398   1.029  14.940 -0.0331  0.7462 -0.1498
 5700SOL     OW28561   3.196   3.626   4.394 -0.2681  0.4192  0.1697
 5700SOL    HW128562   3.221   3.555   4.335  0.3917 -1.2868  2.5085
 5700SOL    HW228563   3.220   3.586   4.478 -0.6437  1.0100  0.5578
 5701SOL     OW28564   2.394   4.626   1.325 -0.3828  0.3300 -0.3221
 5701SOL    HW128565   2.382   4.534   1.300  2.3030  0.6691 -2.8334
 5701SOL    HW228566   2.310   4.659   1.294 -1.3219 -0.6697  1.1452
 5702SOL     OW28567   2.167   4.261  16.839 -0.3717  0.3193  0.6872
 5702SOL    HW128568   2.239   4.205  16.869  1.2225  0.5417 -2.7034
 5702SOL    HW228569   2.126   4.286  16.921  1.1713  0.4654  1.4026
 5703SOL     OW28570   1.217   1.458   5.515  0.0437 -0.3351 -0.1075
 5703SOL    HW128571   1.229   1.497   5.429 -1.6395 -2.9223 -1.4882
 5703SOL    HW228572   1.280   1.507   5.568  1.0757 -1.3104 -0.4406
 5704SOL     OW28573   1.340   4.118  15.654  0.1367  0.0834 -0.0076
 5704SOL    HW128574   1.278   4.104  15.583 -1.1624 -1.0503  1.3427
 5704SOL    HW228575   1.307   4.204  15.678  1.1473  0.5645 -0.3486
 5705SOL     OW28576   4.686   1.636   5.633  0.5493 -0.0301  0.8088
 5705SOL    HW128577   4.591   1.639   5.635  0.4490 -2.4825  0.4149
 5705SOL    HW228578   4.717   1.726   5.629  3.9094 -1.2405 -0.7305
 5706SOL     OW28579   0.917   3.204   2.753 -0.2442 -0.2709  0.7690
 5706SOL    HW128580   0.875   3.162   2.677 -0.1448  0.2361  0.4332
 5706SOL    HW228581   0.853   3.179   2.820 -1.4096 -2.5873 -1.2114
 5707SOL     OW28582   4.385   1.724   2.534  0.4367 -0.1542  0.0431
 5707SOL    HW128583   4.481   1.729   2.531  0.3311  3.6662  3.7364
 5707SOL    HW228584   4.382   1.671   2.614 -0.8709  0.9137  0.6993
 5708SOL     OW28585   3.265   0.272   4.903  0.3725  0.4244 -0.1593
 5708SOL    HW128586   3.295   0.182   4.887  2.1614  0.6635  1.7526
 5708SOL    HW228587   3.291   0.301   4.990 -0.1009 -1.8174  0.7345
 5709SOL     OW28588   4.238   3.448   7.701  0.3792 -0.1754  0.5901
 5709SOL    HW128589   4.143   3.456   7.693  0.4467  0.2117  0.2097
 5709SOL    HW228590   4.257   3.388   7.629 -0.2105 -1.5818  1.5921
 5710SOL     OW28591   2.114   3.116  11.737  0.0347  0.2365  0.1325
 5710SOL    HW128592   2.088   3.176  11.807 -0.2938  2.1532 -1.6431
 5710SOL    HW228593   2.107   3.174  11.662 -1.4662 -1.4100 -1.0352
 5711SOL     OW28594   1.740   0.578   3.654  0.0647 -0.3824  0.2308
 5711SOL    HW128595   1.775   0.562   3.567  0.4341 -1.7091  0.6308
 5711SOL    HW228596   1.750   0.491   3.691  0.4248  0.2558  1.6647
 5712SOL     OW28597   0.158   0.587   2.447 -0.0882 -0.4209  0.4739
 5712SOL    HW128598   0.127   0.609   2.535 -0.9488  2.5554 -0.5445
 5712SOL    HW228599   0.071   0.600   2.408 -1.5128 -4.0906  2.4890
 5713SOL     OW28600   4.332   4.685   5.515  0.6738 -0.0923 -0.5496
 5713SOL    HW128601   4.317   0.046   5.478 -0.0307 -0.2725 -0.7058
 5713SOL    HW228602   4.427   4.686   5.522  0.5801 -0.8005  0.7721
 5714SOL     OW28603   2.415   1.322   3.051  0.1585 -0.0163 -0.3559
 5714SOL    HW128604   2.476   1.293   3.118 -0.2503 -0.1902 -0.0597
 5714SOL    HW228605   2.483   1.360   2.996 -0.5327  2.0464  0.2049
 5715SOL     OW28606   2.719   1.394   4.404 -0.5921 -0.2516 -0.1768
 5715SOL    HW128607   2.765   1.341   4.469 -0.8493  0.3328  0.4823
 5715SOL    HW228608   2.639   1.342   4.395 -1.5900  1.3111 -0.5729
 5716SOL     OW28609   1.511   3.739   4.676  0.1557 -0.5845 -0.8407
 5716SOL    HW128610   1.585   3.746   4.616  1.0738  1.6903  0.5386
 5716SOL    HW228611   1.506   3.825   4.718 -0.0657 -1.2451  0.4800
 5717SOL     OW28612   4.035   2.617   3.111 -0.0447 -0.3308 -0.7532
 5717SOL    HW128613   3.977   2.551   3.150 -0.3766 -0.3974 -1.3653
 5717SOL    HW228614   4.025   2.592   3.020  1.4624 -0.1760 -0.9597
 5718SOL     OW28615   2.332   2.122  15.736  0.0040 -0.3189 -1.3175
 5718SOL    HW128616   2.274   2.090  15.805 -0.3256  0.5685 -1.1846
 5718SOL    HW228617   2.294   2.067  15.667 -0.0982 -1.0906 -0.6452
 5719SOL     OW28618   1.325   4.349   8.022 -0.7137  0.1503 -0.3700
 5719SOL    HW128619   1.353   4.259   8.005 -0.1510  0.6364 -2.0209
 5719SOL    HW228620   1.255   4.347   8.087  1.1513 -0.6840  1.6330
 5720SOL     OW28621   3.233   3.929   5.118 -0.1245 -0.1513  0.2627
 5720SOL    HW128622   3.266   3.923   5.208  1.2287  1.3818 -0.1500
 5720SOL    HW228623   3.292   3.996   5.084  0.7746 -0.1569  1.7872
 5721SOL     OW28624   1.576   1.680   3.829  0.6509  0.5834  0.2117
 5721SOL    HW128625   1.571   1.626   3.750 -1.1103 -0.6660  1.1712
 5721SOL    HW228626   1.668   1.706   3.826  0.8124 -0.0063  0.0875
 5722SOL     OW28627   4.150   0.483   9.446 -0.0397 -0.0336 -0.2785
 5722SOL    HW128628   4.182   0.549   9.385 -2.9298  1.4724 -0.1681
 5722SOL    HW228629   4.222   0.495   9.508  0.1568  0.3046 -0.5736
 5723SOL     OW28630   2.024   0.251   9.587  0.2591  0.5232  0.0315
 5723SOL    HW128631   2.050   0.160   9.591  1.7392  0.9246 -0.4696
 5723SOL    HW228632   2.005   0.265   9.680 -1.3011 -2.5375  0.1497
 5724SOL     OW28633   2.671   4.309   3.002  0.2163  0.3197 -0.7395
 5724SOL    HW128634   2.584   4.323   2.965  0.3866 -0.1577 -1.3165
 5724SOL    HW228635   2.695   4.400   3.022  1.3303 -0.3682  1.1070
 5725SOL     OW28636   3.396   1.199   8.003 -0.1080  0.5787  0.3271
 5725SOL    HW128637   3.490   1.188   7.997  0.1433  2.1099  1.5073
 5725SOL    HW228638   3.364   1.130   7.944  0.5766 -0.4531  1.1641
 5726SOL     OW28639   4.550   2.296   5.241 -0.1253  0.2566 -0.4282
 5726SOL    HW128640   4.617   2.244   5.196  3.7977  2.9613  2.3005
 5726SOL    HW228641   4.598   2.336   5.313 -0.8092  3.1925 -1.5893
 5727SOL     OW28642   4.314   2.587   3.756 -0.7043  1.0244 -0.0501
 5727SOL    HW128643   4.343   2.676   3.735 -1.6483  1.5220  0.7429
 5727SOL    HW228644   4.313   2.547   3.670  2.8086 -1.7587  1.2398
 5728SOL     OW28645   1.717   3.280  17.361 -0.0241  0.4691 -0.0635
 5728SOL    HW128646   1.669   3.261  17.280 -0.7744  3.0273 -0.2057
 5728SOL    HW228647   1.642   3.299  17.418 -1.1156  0.0123 -1.3349
 5729SOL     OW28648   2.066   3.519  14.083 -0.2754 -0.0545  0.2654
 5729SOL    HW128649   2.076   3.481  13.996  0.1921 -0.4608  0.4967
 5729SOL    HW228650   2.093   3.438  14.126  1.2911  1.5668  2.3471
 5730SOL     OW28651   0.734   3.185  14.354  0.1742 -0.3699 -1.0023
 5730SOL    HW128652   0.696   3.166  14.268  0.8845 -1.6003 -1.0448
 5730SOL    HW228653   0.764   3.097  14.380 -2.5552 -1.5849 -1.9434
 5731SOL     OW28654   0.155   3.840  12.815  0.8603 -0.0437  0.8434
 5731SOL    HW128655   0.210   3.885  12.880  1.3754 -0.9995  1.0715
 5731SOL    HW228656   0.086   3.817  12.878  0.2366 -0.0072  0.1697
 5732SOL     OW28657   1.239   2.709   4.735  0.3127 -0.1414  0.5284
 5732SOL    HW128658   1.180   2.712   4.660  0.5773  1.7826  0.3902
 5732SOL    HW228659   1.187   2.736   4.811  0.5953 -1.2545  1.1181
 5733SOL     OW28660   3.546   2.133   0.781  0.0303 -0.1998 -0.2651
 5733SOL    HW128661   3.617   2.196   0.784 -0.4949  0.4886 -1.7775
 5733SOL    HW228662   3.560   2.066   0.847 -0.3017  0.6040  0.6132
 5734SOL     OW28663   2.683   0.335   3.041 -0.9283 -0.2599  0.1526
 5734SOL    HW128664   2.688   0.369   2.952  0.1817  0.9682  0.6716
 5734SOL    HW228665   2.709   0.245   3.023  3.8217  1.2260 -0.5229
 5735SOL     OW28666   3.549   0.251   9.697 -0.3021  0.2196  0.2506
 5735SOL    HW128667   3.514   0.224   9.613 -1.0085 -0.3779  0.7322
 5735SOL    HW228668   3.499   0.203   9.764  1.0038 -1.6379 -0.1159
 5736SOL     OW28669   3.405   2.492  10.469 -0.3370  0.4122  0.0201
 5736SOL    HW128670   3.469   2.482  10.540 -1.0254 -3.0280  0.1483
 5736SOL    HW228671   3.329   2.520  10.521 -0.2198  0.5390  0.1232
 5737SOL     OW28672   1.453   4.545   9.343  0.1488 -0.2739  0.2923
 5737SOL    HW128673   1.402   4.567   9.264 -0.8723  0.4266  1.1506
 5737SOL    HW228674   1.538   4.588   9.329 -0.3016  1.4455  2.8640
 5738SOL     OW28675   4.660   0.720   7.519  0.5349  0.1298  0.3807
 5738SOL    HW128676   4.610   0.641   7.539  1.6908 -0.6430  0.2377
 5738SOL    HW228677   4.723   0.720   7.591  0.9506  3.5401  0.0386
 5739SOL     OW28678   2.736   2.570   0.101  0.3550 -0.3015 -0.1313
 5739SOL    HW128679   2.655   2.550   0.148 -0.7837 -0.3521 -2.1313
 5739SOL    HW228680   2.783   2.633   0.157 -0.8681  0.0254  0.5332
 5740SOL     OW28681   1.009   1.306   1.734 -0.4754  0.4532  0.5584
 5740SOL    HW128682   1.031   1.218   1.764 -0.2292  0.2072 -0.3451
 5740SOL    HW228683   0.948   1.289   1.662  2.6179  0.4851 -2.0765
 5741SOL     OW28684   1.433   2.772   9.007  0.6073 -1.1176 -0.6381
 5741SOL    HW128685   1.430   2.844   9.070  1.4466 -0.9858 -0.7443
 5741SOL    HW228686   1.506   2.725   9.046 -0.0206 -0.8481  0.8403
 5742SOL     OW28687   3.391   4.487   4.368  0.0304  0.7036 -0.3946
 5742SOL    HW128688   3.455   4.426   4.405 -0.0359  0.4090 -0.7728
 5742SOL    HW228689   3.410   4.465   4.277 -0.6042  0.9733 -0.5914
 5743SOL     OW28690   4.446   1.950  16.891  0.3118 -0.7656  0.1502
 5743SOL    HW128691   4.458   2.013  16.963 -1.0222 -0.4493  0.0964
 5743SOL    HW228692   4.465   1.870  16.939  2.6069 -1.1181 -1.3750
 5744SOL     OW28693   4.565   1.428   9.341 -0.2700  0.0933  0.5074
 5744SOL    HW128694   4.656   1.443   9.317 -0.4684 -0.5114 -0.5728
 5744SOL    HW228695   4.541   1.516   9.372 -0.7561 -0.2457  1.0812
 5745SOL     OW28696   4.721   0.160   8.144  0.5086 -0.4413  0.6837
 5745SOL    HW128697   4.674   0.082   8.113  1.4889 -1.4641  1.7771
 5745SOL    HW228698   4.643   0.216   8.151  0.1243 -0.9032  0.1220
 5746SOL     OW28699   1.171   1.884   7.498  0.2137 -0.5506  0.2378
 5746SOL    HW128700   1.101   1.946   7.518  0.0849 -0.8326  0.6535
 5746SOL    HW228701   1.187   1.840   7.581 -0.5101 -1.7343 -0.2573
 5747SOL     OW28702   0.475   4.070   7.716  0.2825  0.0025 -0.0125
 5747SOL    HW128703   0.429   4.130   7.658  0.8725  2.0208  1.6287
 5747SOL    HW228704   0.522   4.140   7.761 -0.2309  1.5751 -1.8978
 5748SOL     OW28705   1.576   2.397  17.535 -0.3816 -0.2403  0.3764
 5748SOL    HW128706   1.485   2.370  17.527 -0.7798  1.3587 -0.5015
 5748SOL    HW228707   1.591   2.470  17.475  1.9579  0.2785  1.5740
 5749SOL     OW28708   2.995   3.855  10.190 -0.4997 -0.0823  0.9601
 5749SOL    HW128709   2.999   3.802  10.111  3.2566  1.5341  0.0811
 5749SOL    HW228710   2.945   3.934  10.167  2.2474  1.2565 -0.3832
 5750SOL     OW28711   3.147   1.624   1.472  0.2014  0.0096  0.1073
 5750SOL    HW128712   3.126   1.700   1.527 -2.4973 -2.1712  2.1037
 5750SOL    HW228713   3.060   1.591   1.450 -0.5782  0.0116  3.2270
 5751SOL     OW28714   0.723   2.682   7.413 -0.0286  0.1659  0.1892
 5751SOL    HW128715   0.748   2.651   7.326  1.0231 -1.9393  1.2428
 5751SOL    HW228716   0.672   2.761   7.399 -1.9879 -0.7908  1.9846
 5752SOL     OW28717   2.865   2.802   7.204 -0.1226  0.1755 -0.2973
 5752SOL    HW128718   2.835   2.737   7.142 -2.4744  0.2730  0.7551
 5752SOL    HW228719   2.788   2.857   7.214 -1.1561 -1.5342  1.1729
 5753SOL     OW28720   3.340   0.427   8.824 -0.3265 -0.2344  0.2674
 5753SOL    HW128721   3.336   0.517   8.857 -0.7563  0.1121 -0.7205
 5753SOL    HW228722   3.419   0.388   8.861  0.0427 -0.2595 -0.5399
 5754SOL     OW28723   2.978   3.989   2.296 -0.4831  0.1918 -0.3049
 5754SOL    HW128724   2.992   4.081   2.320  1.5451 -0.1855 -0.0875
 5754SOL    HW228725   3.068   3.959   2.301 -0.2231  0.9311 -0.5018
 5755SOL     OW28726   1.577   2.775   9.511  0.0319  0.3997  0.1409
 5755SOL    HW128727   1.565   2.867   9.486  0.9693  1.2296  2.7774
 5755SOL    HW228728   1.509   2.731   9.459  0.9950 -0.2174 -0.5804
 5756SOL     OW28729   1.718   1.244   9.892 -0.3075 -0.4907  0.0730
 5756SOL    HW128730   1.758   1.236   9.805  2.7035 -1.5893  1.5568
 5756SOL    HW228731   1.792   1.291   9.930 -2.1489  1.4423  1.2365
 5757SOL     OW28732   1.665   0.783   3.148  0.0976 -0.1530  0.3191
 5757SOL    HW128733   1.618   0.853   3.193  0.6797  0.1081  0.5206
 5757SOL    HW228734   1.653   0.801   3.055  2.2139  1.0052  0.2748
 5758SOL     OW28735   4.583   0.926   8.525  0.3175 -0.2021 -0.6101
 5758SOL    HW128736   4.549   0.946   8.612 -0.1354 -4.8638  0.2546
 5758SOL    HW228737   4.677   0.944   8.530 -0.1151  1.2422  2.4440
 5759SOL     OW28738   0.784   3.235   2.087  0.2560 -0.5683  0.0047
 5759SOL    HW128739   0.739   3.233   2.003  0.1770  3.9048 -0.0620
 5759SOL    HW228740   0.873   3.247   2.052  0.8973 -1.4125  1.3359
 5760SOL     OW28741   0.471   4.623  17.597  0.0759 -0.5255 -0.4126
 5760SOL    HW128742   0.541   4.666  17.548  0.8099  2.4258  3.2072
 5760SOL    HW228743   0.419   4.573  17.534 -0.5294 -0.3937 -0.0132
 5761SOL     OW28744   0.242   1.346   0.871 -0.3913 -0.8523 -0.3209
 5761SOL    HW128745   0.298   1.363   0.947  0.2908 -1.4081 -0.6932
 5761SOL    HW228746   0.188   1.271   0.896  0.6544 -1.0273  1.4205
 5762SOL     OW28747   3.438   4.321   7.960 -0.4555 -0.4531  0.0619
 5762SOL    HW128748   3.418   4.413   7.977  0.5743 -0.2682  0.2429
 5762SOL    HW228749   3.442   4.313   7.864  2.2376  0.6608  0.0894
 5763SOL     OW28750   4.483   4.285  14.720  0.5219  0.2404  0.3490
 5763SOL    HW128751   4.538   4.348  14.766  0.7064  0.6086 -0.3860
 5763SOL    HW228752   4.486   4.300  14.626 -0.9573 -0.6382  0.1597
 5764SOL     OW28753   0.454   3.477  16.610  0.2577  0.1191  0.1622
 5764SOL    HW128754   0.484   3.404  16.556  1.6633  0.4022  0.5697
 5764SOL    HW228755   0.387   3.524  16.560 -2.1713 -0.2858  2.9893
 5765SOL     OW28756   3.886   2.099   3.226  0.3493 -0.0376  0.3538
 5765SOL    HW128757   3.815   2.037   3.206 -1.0998  2.0265 -0.8986
 5765SOL    HW228758   3.908   2.128   3.138  0.0034 -2.3238 -0.5079
 5766SOL     OW28759   0.490   2.055   7.290 -0.3575 -0.0607  0.0276
 5766SOL    HW128760   0.525   1.999   7.221  0.5015  0.9767 -0.3829
 5766SOL    HW228761   0.402   2.020   7.302  0.2024 -1.2268  0.7166
 5767SOL     OW28762   1.838   2.244   1.358  0.0638 -0.1429 -0.3676
 5767SOL    HW128763   1.861   2.269   1.269  0.4952  2.6898  0.5593
 5767SOL    HW228764   1.751   2.280   1.378  0.5588  0.9377 -0.1814
 5768SOL     OW28765   3.515   4.071   5.596 -0.1024  0.2822  0.1078
 5768SOL    HW128766   3.421   4.054   5.608 -0.0450  1.3503  1.9739
 5768SOL    HW228767   3.545   3.986   5.562  1.4110  0.9811 -0.2777
 5769SOL     OW28768   2.788   0.339   8.669  0.2774 -0.1008  0.5621
 5769SOL    HW128769   2.882   0.357   8.673  0.3604 -0.0948 -1.5931
 5769SOL    HW228770   2.779   0.342   8.574 -2.5452 -1.0910  0.7931
 5770SOL     OW28771   4.185   0.698  12.228  0.1653 -0.4121 -0.4562
 5770SOL    HW128772   4.172   0.604  12.227 -2.4106 -0.0885  3.7668
 5770SOL    HW228773   4.219   0.722  12.141 -0.4088  0.1368 -0.5381
 5771SOL     OW28774   3.645   1.869   1.588  0.5669  0.4439  0.3637
 5771SOL    HW128775   3.666   1.848   1.679 -0.7942 -0.5524  0.4421
 5771SOL    HW228776   3.733   1.892   1.559 -0.2856  0.5156 -2.1577
 5772SOL     OW28777   3.652   3.318   9.095 -0.4303 -0.1299 -0.2787
 5772SOL    HW128778   3.638   3.404   9.054  0.3604  0.6938  1.1898
 5772SOL    HW228779   3.676   3.339   9.185 -1.9530 -0.7837  0.2858
 5773SOL     OW28780   4.263   3.828   8.111  0.4159 -0.0217 -0.2968
 5773SOL    HW128781   4.189   3.877   8.074 -0.6681 -1.4192  0.0260
 5773SOL    HW228782   4.239   3.820   8.203  2.4465  0.7765  0.3037
 5774SOL     OW28783   3.655   2.301   8.086  0.2050  0.0752  0.4286
 5774SOL    HW128784   3.654   2.208   8.109 -1.8365 -0.1107 -0.3802
 5774SOL    HW228785   3.629   2.337   8.170  0.9702  0.4210  0.5215
 5775SOL     OW28786   4.580   0.731   1.026 -0.2925 -0.1964  0.8037
 5775SOL    HW128787   4.628   0.649   1.016  0.9776  0.6023  0.2890
 5775SOL    HW228788   4.506   0.700   1.078 -2.0638  1.1193 -0.9556
 5776SOL     OW28789   0.304   2.369   4.188 -0.0247  0.2508  0.3367
 5776SOL    HW128790   0.258   2.382   4.105 -1.0378  1.7768  1.1231
 5776SOL    HW228791   0.262   2.288   4.217  0.5970  0.0412  0.6585
 5777SOL     OW28792   4.302   0.040   3.901 -0.5903 -0.3792 -0.5121
 5777SOL    HW128793   4.330   4.688   3.949  0.9194  0.3755 -0.1904
 5777SOL    HW228794   4.216   0.013   3.869 -0.8859  0.3986 -0.3886
 5778SOL     OW28795   4.275   2.973  12.814  0.0404 -0.3471 -0.2012
 5778SOL    HW128796   4.244   2.901  12.758 -1.0844 -0.7131  0.9166
 5778SOL    HW228797   4.355   2.929  12.843 -0.2580 -0.0953  0.9693
 5779SOL     OW28798   0.594   1.704  10.163 -0.2061  0.2794  0.5109
 5779SOL    HW128799   0.615   1.637  10.228  0.2338  1.9080  2.0804
 5779SOL    HW228800   0.542   1.664  10.094 -0.5299 -0.6707  1.3004
 5780SOL     OW28801   2.155   3.630   6.026 -0.4351 -0.5967 -0.2738
 5780SOL    HW128802   2.158   3.607   5.933  0.6828 -0.2681 -0.3094
 5780SOL    HW228803   2.247   3.643   6.049 -0.4126 -1.9706  0.4167
 5781SOL     OW28804   1.301   2.106   7.127  0.0990  0.3286  0.1047
 5781SOL    HW128805   1.370   2.063   7.077  1.8092  1.2217  1.6699
 5781SOL    HW228806   1.263   2.170   7.067  0.4738  0.3353 -0.1206
 5782SOL     OW28807   3.439   2.707   1.995  0.5245  0.0506  0.5688
 5782SOL    HW128808   3.451   2.798   2.021  0.9640 -0.6821  2.8983
 5782SOL    HW228809   3.343   2.704   1.990  0.5287 -0.0941  0.5723
 5783SOL     OW28810   0.568   0.082   6.170  0.2497 -0.0101  0.1997
 5783SOL    HW128811   0.553   0.075   6.265  0.9832  1.6163  0.4320
 5783SOL    HW228812   0.494   0.030   6.140 -0.1783  0.4461  0.4582
 5784SOL     OW28813   1.718   1.423   0.210  0.6737  0.0845  0.0391
 5784SOL    HW128814   1.760   1.469   0.138  1.8048 -0.2782  0.4701
 5784SOL    HW228815   1.690   1.341   0.172 -0.0614 -0.2595  1.2957
 5785SOL     OW28816   3.698   2.637   5.566  0.2706 -0.2141 -0.0239
 5785SOL    HW128817   3.622   2.661   5.512 -1.4024  0.1572  2.4873
 5785SOL    HW228818   3.756   2.713   5.558  0.2720 -0.2915 -0.7445
 5786SOL     OW28819   1.368   2.709   2.127  0.2238 -0.2504 -0.3854
 5786SOL    HW128820   1.300   2.652   2.094  0.0974 -0.0606 -0.4522
 5786SOL    HW228821   1.387   2.765   2.052 -0.0160  1.3466  0.7307
 5787SOL     OW28822   3.121   4.138   9.319  0.6374  0.0008 -1.0116
 5787SOL    HW128823   3.179   4.214   9.308  0.3239  0.3771 -0.0678
 5787SOL    HW228824   3.058   4.145   9.247 -0.9972  2.3957  0.6385
 5788SOL     OW28825   3.409   0.339   8.570  0.1608  0.0047 -0.3937
 5788SOL    HW128826   3.405   0.371   8.660 -1.4279  0.3368 -0.5804
 5788SOL    HW228827   3.384   0.413   8.515  0.4863  1.0938  0.9178
 5789SOL     OW28828   1.875   3.705   1.829 -0.2558 -0.0871 -0.4698
 5789SOL    HW128829   1.931   3.782   1.817  0.9156 -0.6315  1.5219
 5789SOL    HW228830   1.787   3.744   1.823 -0.3181 -0.3058 -1.0078
 5790SOL     OW28831   2.278   2.686   4.584 -0.0674 -0.4671  0.0089
 5790SOL    HW128832   2.312   2.740   4.655  0.3542 -1.1983  0.3738
 5790SOL    HW228833   2.310   2.597   4.604 -0.5070 -0.3488  1.2152
 5791SOL     OW28834   0.270   0.150   2.127  0.0131 -0.5818 -0.0039
 5791SOL    HW128835   0.308   0.178   2.044 -1.4372 -1.3848 -0.9480
 5791SOL    HW228836   0.288   0.233   2.170 -2.5674 -2.0530  3.9257
 5792SOL     OW28837   2.457   3.054   7.923  0.1481 -0.0205 -0.3988
 5792SOL    HW128838   2.391   3.029   7.988 -0.6286 -0.0286 -1.1980
 5792SOL    HW228839   2.531   2.998   7.948  0.7441  0.5492 -0.8983
 5793SOL     OW28840   2.805   1.717   7.515  0.9044 -0.0447 -0.1304
 5793SOL    HW128841   2.759   1.747   7.594  0.2901  2.3315 -1.3705
 5793SOL    HW228842   2.858   1.645   7.548 -0.4323 -0.4707  1.1076
 5794SOL     OW28843   0.182   3.059  10.634 -1.4295  0.5758 -0.8343
 5794SOL    HW128844   0.155   3.008  10.710  1.5419 -1.0565 -0.9193
 5794SOL    HW228845   0.224   2.988  10.586 -1.4843 -0.0448  0.0398
 5795SOL     OW28846   1.493   3.775   8.842  0.2971 -0.0604 -0.1897
 5795SOL    HW128847   1.540   3.793   8.760  1.4227  0.9415  0.6767
 5795SOL    HW228848   1.447   3.859   8.851 -0.4064 -0.3299 -1.3466
 5796SOL     OW28849   3.195   0.749   1.086 -0.1463  0.1529 -0.2475
 5796SOL    HW128850   3.187   0.678   1.149  1.7602  1.4196  1.4284
 5796SOL    HW228851   3.289   0.765   1.091  0.2487 -3.1997  3.0116
 5797SOL     OW28852   3.297   0.835   3.498 -0.1467  0.2215 -0.4123
 5797SOL    HW128853   3.328   0.899   3.562  1.7598  0.7762 -1.8951
 5797SOL    HW228854   3.310   0.760   3.556  0.1651  2.1877  2.0359
 5798SOL     OW28855   0.903   0.378   4.834  0.3793 -0.1977  0.2187
 5798SOL    HW128856   0.944   0.371   4.748 -0.2582 -0.0048 -0.0967
 5798SOL    HW228857   0.870   0.468   4.841  2.7357  0.7493 -0.7249
 5799SOL     OW28858   1.676   2.585   5.642 -0.0460 -0.1983 -0.1131
 5799SOL    HW128859   1.730   2.658   5.611  1.2306 -0.3252  1.7621
 5799SOL    HW228860   1.598   2.607   5.591 -1.2276  1.2983  2.3371
 5800SOL     OW28861   4.619   0.805   4.146 -0.2690 -0.6705  0.7629
 5800SOL    HW128862   4.597   0.721   4.188  2.0907 -2.2159 -1.0954
 5800SOL    HW228863   4.534   0.848   4.149 -0.3257 -0.6282 -1.7788
 5801SOL     OW28864   4.306   3.341  12.313  0.7593  0.4418  0.5326
 5801SOL    HW128865   4.395   3.327  12.344  1.6176 -0.6409 -2.4037
 5801SOL    HW228866   4.313   3.302  12.226 -0.3824 -1.9155  1.4897
 5802SOL     OW28867   0.194   3.037   8.287  0.4540 -0.2435 -0.1747
 5802SOL    HW128868   0.281   3.067   8.315  0.0344 -0.3083  1.1807
 5802SOL    HW228869   0.162   3.116   8.244  0.5859 -0.7648 -1.2160
 5803SOL     OW28870   1.664   0.239   2.800  0.4849  0.3265 -0.4078
 5803SOL    HW128871   1.677   0.331   2.777 -2.6227  0.2019 -2.6613
 5803SOL    HW228872   1.569   0.235   2.806  0.6620 -1.7174  0.8992
 5804SOL     OW28873   4.547   3.336   0.087 -0.4023 -0.5612 -0.8405
 5804SOL    HW128874   4.600   3.266   0.125  2.6282  1.1855 -1.8133
 5804SOL    HW228875   4.581   3.339  17.703 -0.5177 -0.5350 -0.8834
 5805SOL     OW28876   4.430   0.615   5.222 -0.7730 -0.6618  0.4902
 5805SOL    HW128877   4.523   0.597   5.236 -0.0554  0.2769 -3.2580
 5805SOL    HW228878   4.445   0.684   5.158  1.1755 -0.8477  0.7192
 5806SOL     OW28879   4.653   2.269   9.091 -0.0372 -0.1686 -0.3684
 5806SOL    HW128880   4.613   2.288   9.176 -0.7136  0.3273 -0.7981
 5806SOL    HW228881   4.719   2.208   9.122  1.2631  0.6570 -1.4873
 5807SOL     OW28882   2.839   3.006  16.761 -0.0166  0.0261  0.0920
 5807SOL    HW128883   2.755   3.004  16.715 -0.3277 -2.4110  0.7432
 5807SOL    HW228884   2.873   3.091  16.734 -0.7322  0.4958  0.6810
 5808SOL     OW28885   4.638   0.640   1.549  0.1620 -0.4835 -0.0924
 5808SOL    HW128886   4.585   0.704   1.597 -0.1642 -1.6916  1.1652
 5808SOL    HW228887   4.566   0.591   1.508 -0.8062 -0.6866  1.8460
 5809SOL     OW28888   0.644   0.404   8.977 -0.2662 -0.3820  0.0827
 5809SOL    HW128889   0.683   0.464   8.914 -0.6457 -0.3272 -0.1009
 5809SOL    HW228890   0.637   0.462   9.053 -0.1654 -0.3791  0.0894
 5810SOL     OW28891   3.818   1.285   0.240 -0.0711  0.1601  0.1850
 5810SOL    HW128892   3.751   1.221   0.215  0.2870 -0.2544  0.2886
 5810SOL    HW228893   3.849   1.308   0.153  1.2685 -0.9576  0.3556
 5811SOL     OW28894   2.076   0.061  14.902  0.9028 -0.0208  0.4031
 5811SOL    HW128895   2.154   0.008  14.886  0.4997 -0.8098  1.0323
 5811SOL    HW228896   2.016   0.017  14.842  1.9818 -0.5117 -0.3244
 5812SOL     OW28897   4.065   3.159   1.086 -0.1713 -0.1713 -0.3245
 5812SOL    HW128898   4.141   3.192   1.134  0.7749 -0.4171 -1.6421
 5812SOL    HW228899   4.089   3.067   1.094 -1.6740 -0.4957  0.4301
 5813SOL     OW28900   1.735   1.487   4.542  0.0678  0.3794 -0.4368
 5813SOL    HW128901   1.702   1.512   4.455  0.5848  3.1997  0.1769
 5813SOL    HW228902   1.692   1.556   4.594  0.7398  0.2245  0.3167
 5814SOL     OW28903   2.448   1.881   2.741  0.1151 -0.1105 -0.3978
 5814SOL    HW128904   2.487   1.921   2.818  0.6822  1.2381 -1.3793
 5814SOL    HW228905   2.428   1.954   2.682  1.9714  1.3791  0.8244
 5815SOL     OW28906   2.468   3.780   6.986  0.2640 -0.2004 -0.6909
 5815SOL    HW128907   2.393   3.822   7.027  0.6435 -0.7603  0.5846
 5815SOL    HW228908   2.433   3.736   6.909  1.6817  1.2786 -2.1838
 5816SOL     OW28909   1.395   4.430   5.256  0.2605  0.1350 -0.1701
 5816SOL    HW128910   1.469   4.490   5.253 -0.4511  0.9372 -1.5312
 5816SOL    HW228911   1.434   4.354   5.299  3.5282  1.8788 -0.0581
 5817SOL     OW28912   0.388   1.296   7.177 -0.4310 -0.0185 -0.2683
 5817SOL    HW128913   0.296   1.318   7.162  0.7572  4.5534 -0.7647
 5817SOL    HW228914   0.395   1.327   7.267 -0.0298 -1.7529  0.2954
 5818SOL     OW28915   0.842   1.408  11.853 -0.3665  0.2014 -0.2966
 5818SOL    HW128916   0.807   1.375  11.770  1.1323  0.5804 -1.0860
 5818SOL    HW228917   0.856   1.321  11.890  1.6303  1.6722  2.4163
 5819SOL     OW28918   0.495   4.701   8.029  0.4007  0.5138  0.5508
 5819SOL    HW128919   0.436   0.025   7.972 -0.1721 -1.9193 -0.9782
 5819SOL    HW228920   0.479   0.007   8.118  0.4147  0.7325  0.4760
 5820SOL     OW28921   2.242   1.713   0.793 -0.6274 -0.4646 -0.0295
 5820SOL    HW128922   2.285   1.734   0.711 -0.7976 -0.9250 -0.2368
 5820SOL    HW228923   2.244   1.617   0.801  1.9607 -0.5133 -1.4365
 5821SOL     OW28924   2.524   1.887  13.542  0.3108 -0.0442  1.0627
 5821SOL    HW128925   2.502   1.980  13.544  0.4394 -0.0053  0.7287
 5821SOL    HW228926   2.619   1.899  13.542  0.4346 -0.9440 -3.1056
 5822SOL     OW28927   4.263   1.466   4.901  0.3589 -0.3019 -0.1314
 5822SOL    HW128928   4.241   1.430   4.816  1.6737 -4.2280  1.2014
 5822SOL    HW228929   4.296   1.391   4.950  0.6717 -0.5472 -0.7271
 5823SOL     OW28930   3.063   0.915   3.290 -0.6071 -0.1067  0.4470
 5823SOL    HW128931   3.063   0.840   3.230  0.0296  1.3132 -1.2999
 5823SOL    HW228932   3.096   0.871   3.369  0.8956  2.4557  1.2345
 5824SOL     OW28933   4.328   4.515   2.089 -0.3103  0.0150 -0.2942
 5824SOL    HW128934   4.408   4.554   2.125  0.2862  0.0124 -1.5835
 5824SOL    HW228935   4.323   4.433   2.137 -2.3063 -1.2436 -2.6512
 5825SOL     OW28936   3.399   1.046   6.169  0.1971 -0.3708 -0.5268
 5825SOL    HW128937   3.329   1.095   6.212 -1.3905 -0.5173 -2.9132
 5825SOL    HW228938   3.411   0.973   6.230 -0.3395  0.5539  0.6940
 5826SOL     OW28939   0.290   2.884   0.410 -0.3767  0.0719  0.5244
 5826SOL    HW128940   0.211   2.845   0.449 -0.8418  0.6424  0.1673
 5826SOL    HW228941   0.363   2.834   0.446 -1.2013 -2.3082 -1.1197
 5827SOL     OW28942   3.707   2.032   6.240 -0.7030 -0.5693  0.5062
 5827SOL    HW128943   3.744   2.013   6.326  1.1792 -0.6705 -0.3254
 5827SOL    HW228944   3.792   2.031   6.197 -0.0120 -2.5225  1.9510
 5828SOL     OW28945   2.592   3.250  10.940  0.3135  0.2317  0.2596
 5828SOL    HW128946   2.518   3.280  10.886 -0.0743  0.6688  1.0462
 5828SOL    HW228947   2.642   3.331  10.942  2.2623 -1.0088  1.0364
 5829SOL     OW28948   2.014   1.811  11.570  0.2478  0.3302  0.3231
 5829SOL    HW128949   1.941   1.873  11.576  0.7834  1.0273 -0.3973
 5829SOL    HW228950   1.977   1.747  11.509  1.1978 -1.3036  1.4804
 5830SOL     OW28951   0.067   1.598  17.520  0.0205 -0.2948  0.2182
 5830SOL    HW128952   4.714   1.651  17.513 -0.4172 -0.8268  1.1897
 5830SOL    HW228953   0.073   1.568  17.611 -1.2300 -2.6017 -0.4436
 5831SOL     OW28954   3.456   4.630   4.625  0.4465  0.2167 -0.5065
 5831SOL    HW128955   3.419   4.561   4.682 -0.1117  0.5876 -0.4273
 5831SOL    HW228956   3.427   4.593   4.542 -0.6036  1.5772 -0.7449
 5832SOL     OW28957   1.243   4.128   2.808 -0.0747 -0.7374  0.5165
 5832SOL    HW128958   1.202   4.210   2.838  1.7098  0.3389  0.0353
 5832SOL    HW228959   1.169   4.068   2.819 -1.9974  1.3628 -0.6201
 5833SOL     OW28960   1.899   3.075   4.222 -0.0902  0.0417 -0.4450
 5833SOL    HW128961   1.906   3.155   4.275  1.9675 -0.6697  0.3396
 5833SOL    HW228962   1.857   3.017   4.286  0.6018 -1.0005 -0.9295
 5834SOL     OW28963   1.672   1.200   6.314  0.5254  0.3676 -0.8101
 5834SOL    HW128964   1.671   1.251   6.233  1.7428  1.1256 -0.3566
 5834SOL    HW228965   1.672   1.270   6.379  0.6703  0.0952 -0.5170
 5835SOL     OW28966   3.283   3.465   0.604 -0.0320 -0.7640  0.2954
 5835SOL    HW128967   3.324   3.499   0.684 -0.9445  0.9115  0.0565
 5835SOL    HW228968   3.205   3.521   0.600  0.6673  0.0140 -2.6167
 5836SOL     OW28969   1.667   4.250   4.927  0.3454  0.0398  0.1880
 5836SOL    HW128970   1.705   4.274   4.843  1.3608 -1.1413  0.3025
 5836SOL    HW228971   1.581   4.290   4.916  0.6806  0.0308 -2.3832
 5837SOL     OW28972   1.424   0.686  10.040 -0.6845  0.0639 -0.2423
 5837SOL    HW128973   1.456   0.776  10.037 -0.0126 -0.2433 -2.4181
 5837SOL    HW228974   1.445   0.650   9.954  0.5983  0.8453 -0.2651
 5838SOL     OW28975   1.418   3.011   4.202  0.5129 -0.7927 -0.0812
 5838SOL    HW128976   1.473   3.031   4.277 -0.0142 -0.2878  0.1671
 5838SOL    HW228977   1.470   2.935   4.175  0.6996 -1.5920  2.6121
 5839SOL     OW28978   2.378   3.219  10.497 -0.7539  0.2832 -1.0253
 5839SOL    HW128979   2.454   3.164  10.512 -0.4669  0.4226 -1.9845
 5839SOL    HW228980   2.425   3.290  10.454 -3.2239  2.5872  0.0516
 5840SOL     OW28981   2.930   2.982   0.154 -0.3232 -0.1273 -0.2703
 5840SOL    HW128982   2.920   3.065   0.105  0.9465  0.8620  1.1638
 5840SOL    HW228983   2.999   2.940   0.104 -0.1745 -1.6005  1.1810
 5841SOL     OW28984   0.957   0.521   5.878 -0.3503  0.1609 -0.2520
 5841SOL    HW128985   0.986   0.550   5.791 -0.6036 -3.9860 -1.7082
 5841SOL    HW228986   0.881   0.465   5.865  0.1212 -0.0466 -2.2465
 5842SOL     OW28987   0.939   1.957   3.250 -0.6545 -1.1361 -0.6032
 5842SOL    HW128988   0.867   2.019   3.249  0.3503  0.0062 -1.2054
 5842SOL    HW228989   0.926   1.904   3.329 -3.3908 -0.6053 -0.7169
 5843SOL     OW28990   2.211   3.306   8.360 -0.0602 -0.1778  0.1710
 5843SOL    HW128991   2.133   3.302   8.305  0.1328 -0.1922 -0.1045
 5843SOL    HW228992   2.173   3.354   8.433 -0.3625  1.4693 -1.0572
 5844SOL     OW28993   1.334   1.313   4.162  0.0910  0.0762 -0.1538
 5844SOL    HW128994   1.373   1.270   4.086 -0.4369 -1.0761  0.2259
 5844SOL    HW228995   1.314   1.399   4.125 -3.6120  0.2105  2.0829
 5845SOL     OW28996   1.811   0.047   3.504 -0.5417  0.3067  0.6715
 5845SOL    HW128997   1.838   0.125   3.454  1.3054 -2.0679 -2.0227
 5845SOL    HW228998   1.728   0.020   3.464 -0.4963  1.6243 -0.3104
 5846SOL     OW28999   4.263   0.731  11.970  0.3871 -0.0718 -0.0707
 5846SOL    HW129000   4.219   0.813  11.946 -3.4389 -1.2730  2.8236
 5846SOL    HW229001   4.344   0.728  11.919  0.4344 -1.7845  0.1140
 5847SOL     OW29002   2.359   0.222   1.013 -0.7698 -0.2474 -0.4695
 5847SOL    HW129003   2.326   0.292   1.068 -2.3574 -2.0532  0.8837
 5847SOL    HW229004   2.285   0.201   0.956  0.2380  0.3921 -2.0239
 5848SOL     OW29005   0.571   3.793   4.033  0.2020 -0.2116  0.1480
 5848SOL    HW129006   0.638   3.837   4.086  0.3949  0.1033 -0.3485
 5848SOL    HW229007   0.565   3.719   4.092 -0.3410 -0.1065  0.2226
 5849SOL     OW29008   0.650   2.873   7.766  0.3179 -0.2112 -0.2904
 5849SOL    HW129009   0.621   2.958   7.732  1.5662  0.7514  1.0792
 5849SOL    HW229010   0.640   2.893   7.859  2.2627 -1.4675  0.1945
 5850SOL     OW29011   3.409   0.526   0.888 -0.4902 -0.3788  0.8886
 5850SOL    HW129012   3.394   0.567   0.974  0.1214 -1.2688  1.4192
 5850SOL    HW229013   3.329   0.541   0.838 -0.1442 -0.8254  0.2051
 5851SOL     OW29014   1.322   2.301   6.788 -0.1418  0.1338 -0.6063
 5851SOL    HW129015   1.406   2.256   6.794 -0.5482 -0.4469  0.7681
 5851SOL    HW229016   1.261   2.227   6.797 -1.0923  0.7685 -1.8241
 5852SOL     OW29017   1.310   4.592  14.880  0.9053  0.2258  0.1215
 5852SOL    HW129018   1.239   4.643  14.841  0.1214 -1.1672 -0.2431
 5852SOL    HW229019   1.313   4.521  14.817  0.8039 -0.9388  1.4318
 5853SOL     OW29020   0.155   1.004   5.168  0.2637  0.0734  0.3306
 5853SOL    HW129021   0.080   0.952   5.138  1.5119 -0.5372 -1.6887
 5853SOL    HW229022   0.232   0.960   5.132 -0.7703  1.3393 -3.3491
 5854SOL     OW29023   2.861   4.424   9.329 -0.1725 -0.1635  0.1077
 5854SOL    HW129024   2.886   4.512   9.358  2.6314 -1.2743  1.0713
 5854SOL    HW229025   2.872   4.428   9.234  1.0703  0.7471  0.2897
 5855SOL     OW29026   1.168   3.280   2.659  0.3341 -0.0252  0.4916
 5855SOL    HW129027   1.089   3.239   2.693  0.1133  0.3204  0.4048
 5855SOL    HW229028   1.125   3.350   2.609  2.8788 -0.2836 -2.0588
 5856SOL     OW29029   1.979   3.025  12.940 -0.2338  0.1324 -0.5740
 5856SOL    HW129030   2.042   2.996  12.875  0.0436 -0.5700  0.0063
 5856SOL    HW229031   1.981   2.947  12.996  0.5165  0.1374 -0.5950
 5857SOL     OW29032   4.531   1.650  14.008  0.2991 -0.7538 -0.1913
 5857SOL    HW129033   4.451   1.599  14.012  0.8228 -1.4858  0.6605
 5857SOL    HW229034   4.520   1.702  13.928 -0.8099 -0.4676  0.1444
 5858SOL     OW29035   3.976   1.979   2.953  0.0522 -0.1425 -0.6541
 5858SOL    HW129036   4.054   2.011   2.909  1.2795 -1.3395  0.6369
 5858SOL    HW229037   3.924   1.966   2.874  0.2472  1.3599 -1.0353
 5859SOL     OW29038   4.589   3.587  11.884  0.2822  0.1207  0.4471
 5859SOL    HW129039   4.637   3.608  11.964  0.4563 -2.6729  1.0730
 5859SOL    HW229040   4.502   3.607  11.919 -0.4876 -0.9757 -0.8148
 5860SOL     OW29041   0.646   1.098   6.912 -0.2276 -0.1493 -0.1214
 5860SOL    HW129042   0.640   1.045   6.992  0.4298 -1.6536 -1.0693
 5860SOL    HW229043   0.554   1.120   6.898 -0.3858 -0.4392  0.4468
 5861SOL     OW29044   3.258   3.112   6.475 -0.0453  0.2263  0.2135
 5861SOL    HW129045   3.269   3.026   6.436  1.9649  0.8581 -0.6080
 5861SOL    HW229046   3.313   3.171   6.422 -0.5584 -2.1449 -2.9279
 5862SOL     OW29047   2.233   0.679   5.387 -0.0992 -0.1183  0.2352
 5862SOL    HW129048   2.277   0.762   5.409 -1.0015  0.4891 -0.2457
 5862SOL    HW229049   2.313   0.631   5.365 -0.3557 -1.6676  2.6946
 5863SOL     OW29050   1.168   0.166   4.244 -0.0467 -0.0592 -0.1061
 5863SOL    HW129051   1.220   0.086   4.247  0.0196 -0.0712 -1.6897
 5863SOL    HW229052   1.111   0.151   4.319  0.3896  0.4657  0.3450
 5864SOL     OW29053   2.853   0.092   2.360 -0.2214  0.0788  0.4373
 5864SOL    HW129054   2.905   0.080   2.440 -0.3194 -0.9102  0.3579
 5864SOL    HW229055   2.869   0.185   2.348  0.3432 -0.1276 -0.4162
 5865SOL     OW29056   2.743   1.638   5.478  0.0197  0.1633  0.3231
 5865SOL    HW129057   2.724   1.567   5.417  1.0477  0.1691  0.0065
 5865SOL    HW229058   2.732   1.589   5.560  1.2506 -0.5255  0.0823
 5866SOL     OW29059   0.318   3.181  17.375 -0.5100 -0.2116  0.0872
 5866SOL    HW129060   0.406   3.154  17.401 -0.7218 -0.6357  0.3713
 5866SOL    HW229061   0.302   3.255  17.433  2.3106 -0.4639  1.1909
 5867SOL     OW29062   3.115   3.518   7.306  0.5035  0.6911 -0.0886
 5867SOL    HW129063   3.082   3.431   7.283 -0.3844  0.8186  0.7052
 5867SOL    HW229064   3.043   3.554   7.358  0.2484  0.3882 -0.2301
 5868SOL     OW29065   2.090   0.125   6.252  0.2118  0.3416 -0.5265
 5868SOL    HW129066   1.995   0.116   6.253  0.2147  0.3636  0.0117
 5868SOL    HW229067   2.107   0.205   6.203  1.6292 -1.1068 -2.4176
 5869SOL     OW29068   3.580   4.119   2.947  0.0310  0.1490  0.3043
 5869SOL    HW129069   3.588   4.201   2.898  2.5202 -0.8155 -0.8898
 5869SOL    HW229070   3.506   4.092   2.892  1.1636 -2.1660 -0.0748
 5870SOL     OW29071   0.606   2.746   8.206 -0.4068 -0.5969  0.0875
 5870SOL    HW129072   0.569   2.704   8.284 -1.5767 -0.9204 -0.6360
 5870SOL    HW229073   0.532   2.737   8.145  0.0473  1.4037 -0.7643
 5871SOL     OW29074   0.116   2.482  17.266  0.0484 -0.2061  0.3913
 5871SOL    HW129075   0.080   2.541  17.332  1.9155  0.3954  0.8581
 5871SOL    HW229076   0.116   2.399  17.314  2.0257 -1.3656 -1.5652
 5872SOL     OW29077   4.370   1.505   6.656  0.0574  0.2144 -0.0452
 5872SOL    HW129078   4.449   1.484   6.606 -0.9812  0.8644 -1.9767
 5872SOL    HW229079   4.351   1.433   6.716  1.8965  1.1145  1.6218
 5873SOL     OW29080   3.737   2.193   8.470 -0.2649 -0.2519  0.1372
 5873SOL    HW129081   3.722   2.256   8.399 -2.3844  1.1226  1.8001
 5873SOL    HW229082   3.672   2.127   8.446  1.4278 -0.9355 -2.5590
 5874SOL     OW29083   3.134   1.851  10.573  0.3555 -0.0751  0.0973
 5874SOL    HW129084   3.150   1.858  10.667  0.1552  0.7584  0.0752
 5874SOL    HW229085   3.128   1.943  10.546  0.1885  0.7062  2.7959
 5875SOL     OW29086   4.002   2.064   7.171  0.1090 -0.2217  0.1748
 5875SOL    HW129087   3.977   2.154   7.154  0.7040  0.1966  1.4776
 5875SOL    HW229088   3.944   2.008   7.119  1.4048 -0.3247 -1.1642
 5876SOL     OW29089   4.518   3.372  12.676 -0.7994 -0.2315 -0.5460
 5876SOL    HW129090   4.565   3.360  12.593 -1.7487  0.0028 -1.1233
 5876SOL    HW229091   4.443   3.314  12.662 -1.8188  0.6858  1.0933
 5877SOL     OW29092   2.192   0.449   4.237  0.5289 -0.3550 -0.2618
 5877SOL    HW129093   2.110   0.407   4.264 -0.1635  1.7414  0.9529
 5877SOL    HW229094   2.245   0.425   4.312  1.3588 -0.6792 -0.9605
 5878SOL     OW29095   2.117   4.335  14.923 -0.2308 -0.2961 -0.1063
 5878SOL    HW129096   2.084   4.329  15.012 -0.2014 -0.0010 -0.0752
 5878SOL    HW229097   2.165   4.418  14.921 -1.4521  0.4362  1.9818
 5879SOL     OW29098   3.292   1.600   1.966 -0.0116  0.4816 -0.0379
 5879SOL    HW129099   3.295   1.505   1.953 -1.4721  0.4916 -0.4551
 5879SOL    HW229100   3.384   1.625   1.957 -0.3743  2.3282  1.3075
 5880SOL     OW29101   2.020   2.686  13.841 -0.2484 -0.3798 -0.5947
 5880SOL    HW129102   1.975   2.650  13.765  1.2635 -2.0337 -0.7280
 5880SOL    HW229103   1.968   2.766  13.851 -1.0051 -0.9465  0.0177
 5881SOL     OW29104   0.321   2.039   5.106  0.0342  0.3009 -0.1051
 5881SOL    HW129105   0.383   2.013   5.174  0.5870 -1.2643 -1.1935
 5881SOL    HW229106   0.277   1.955   5.099 -1.6573  1.3059 -1.6466
 5882SOL     OW29107   0.764   2.417  17.221  0.3519  0.9447  0.4833
 5882SOL    HW129108   0.696   2.350  17.230 -0.0033  1.2842  0.3038
 5882SOL    HW229109   0.791   2.391  17.133 -0.8654 -1.5510  0.8545
 5883SOL     OW29110   0.225   1.655   5.817  0.1308 -0.3595  0.1781
 5883SOL    HW129111   0.137   1.622   5.802 -0.0924  0.5108 -0.4457
 5883SOL    HW229112   0.189   1.743   5.825  0.2630 -0.0572 -2.3360
 5884SOL     OW29113   3.768   2.781   4.188 -0.0011 -0.2792  0.8579
 5884SOL    HW129114   3.799   2.817   4.271  2.6137 -1.3491  0.3626
 5884SOL    HW229115   3.705   2.720   4.229 -0.6559 -0.3958 -0.3281
 5885SOL     OW29116   2.771   3.029   5.059  0.6581  0.1646 -0.0807
 5885SOL    HW129117   2.737   3.064   5.142  2.1513  1.8977 -0.1876
 5885SOL    HW229118   2.723   3.081   4.995  2.0074  0.6327 -0.7087
 5886SOL     OW29119   2.031   4.036   5.544 -0.1533  0.4405  0.2617
 5886SOL    HW129120   2.071   4.119   5.573  3.4444 -0.7750 -1.2443
 5886SOL    HW229121   2.077   4.018   5.462  2.1814  0.6981  1.4867
 5887SOL     OW29122   4.121   2.742   5.882 -0.0854  0.3602 -0.3251
 5887SOL    HW129123   4.152   2.820   5.835 -2.2570  1.7968  0.6124
 5887SOL    HW229124   4.186   2.753   5.950  0.6438  0.6290 -1.0637
 5888SOL     OW29125   2.989   2.402   7.278 -0.4159 -0.2890  0.1627
 5888SOL    HW129126   3.012   2.479   7.226 -0.5625  0.5393  1.3145
 5888SOL    HW229127   3.054   2.344   7.239  0.0539 -0.1106  0.6688
 5889SOL     OW29128   3.326   1.459   4.375 -0.4168 -0.4944 -0.6344
 5889SOL    HW129129   3.399   1.488   4.429 -0.2854 -0.9414 -0.5710
 5889SOL    HW229130   3.308   1.367   4.398 -1.2810 -0.9206 -3.0001
 5890SOL     OW29131   1.155   3.468   5.179 -0.3816 -0.0196  0.4238
 5890SOL    HW129132   1.152   3.480   5.274  1.2257 -1.1932  0.6266
 5890SOL    HW229133   1.060   3.461   5.167 -0.4251  0.4501  0.4860
 5891SOL     OW29134   0.523   1.980   4.439 -0.0411 -0.0076 -0.0525
 5891SOL    HW129135   0.512   2.072   4.417  1.4363  0.1456 -0.1269
 5891SOL    HW229136   0.488   1.944   4.357 -0.8994  1.6967 -0.4344
 5892SOL     OW29137   1.021   4.456   4.530  0.0013  0.0453 -0.3743
 5892SOL    HW129138   0.967   4.451   4.609  0.1658 -1.2496 -0.3586
 5892SOL    HW229139   1.105   4.438   4.571  0.3373 -2.3213 -2.0848
 5893SOL     OW29140   1.801   1.861   5.954  0.0364 -0.2732  0.1065
 5893SOL    HW129141   1.760   1.811   6.025  1.1061 -0.8351  0.3289
 5893SOL    HW229142   1.855   1.916   6.010  0.7216 -0.4678 -0.3648
 5894SOL     OW29143   3.789   3.971   6.395 -0.0052  0.0699 -0.2237
 5894SOL    HW129144   3.743   3.979   6.479  1.6712  1.6020  0.5363
 5894SOL    HW229145   3.878   3.953   6.422 -0.1258 -0.2954 -0.0650
 5895SOL     OW29146   0.098   3.016  16.381  0.1887  0.5694  0.5669
 5895SOL    HW129147   0.111   3.111  16.380  0.0806  0.5855  0.6542
 5895SOL    HW229148   0.116   2.988  16.470  3.6910  0.1141 -0.2770
 5896SOL     OW29149   3.300   0.935   7.219  0.4245 -0.1427 -0.3391
 5896SOL    HW129150   3.362   0.994   7.263  2.6449 -3.4777  1.0246
 5896SOL    HW229151   3.246   0.995   7.169  0.4992 -1.2041 -1.6985
 5897SOL     OW29152   0.392   4.503  11.107 -0.0529  0.5237  0.1145
 5897SOL    HW129153   0.405   4.511  11.013  1.6326  1.4961  0.4240
 5897SOL    HW229154   0.482   4.477  11.130 -0.3257 -2.0702 -1.7751
 5898SOL     OW29155   1.501   2.923   8.338 -0.0414  1.0317  0.0648
 5898SOL    HW129156   1.431   2.877   8.292 -0.0549 -1.4726  2.5935
 5898SOL    HW229157   1.456   2.999   8.374  1.0463  0.8220  1.8569
 5899SOL     OW29158   1.783   1.512  17.597 -0.4398 -0.1667  0.9893
 5899SOL    HW129159   1.751   1.597  17.567  1.5598  0.4599  0.6260
 5899SOL    HW229160   1.853   1.538  17.657  2.1331 -1.8022 -1.2894
 5900SOL     OW29161   3.894   1.071  14.907  0.2264 -0.3275 -0.1786
 5900SOL    HW129162   3.816   1.076  14.963  1.1885  2.5309  0.8885
 5900SOL    HW229163   3.870   1.000  14.848 -1.2904  2.1508 -2.5917
 5901SOL     OW29164   0.378   3.749  14.471  0.4913 -0.0860  0.1658
 5901SOL    HW129165   0.431   3.673  14.449 -0.5157 -1.6682  3.2116
 5901SOL    HW229166   0.442   3.790  14.529 -0.4503 -1.2818  2.0276
 5902SOL     OW29167   1.752   2.270  12.786 -0.2082  0.5516  0.1449
 5902SOL    HW129168   1.781   2.327  12.714 -0.5934 -1.5450 -1.6821
 5902SOL    HW229169   1.836   2.228  12.803  0.5619  0.7316 -3.0823
 5903SOL     OW29170   1.180   3.234   4.446  0.0580 -0.1106 -0.4386
 5903SOL    HW129171   1.085   3.226   4.446 -0.0603  1.2617  2.6096
 5903SOL    HW229172   1.202   3.239   4.353  1.5995  1.7120  0.0291
 5904SOL     OW29173   0.686   2.712   2.242  0.2508  0.3392  0.0296
 5904SOL    HW129174   0.736   2.774   2.190  1.4911  2.2225  3.4909
 5904SOL    HW229175   0.630   2.769   2.296  0.0576 -1.8527  2.1597
 5905SOL     OW29176   1.034   3.200   9.079  0.3327  0.0127 -0.7342
 5905SOL    HW129177   0.953   3.161   9.047  0.3800 -0.3532 -0.4062
 5905SOL    HW229178   1.044   3.269   9.013  0.9867  0.1844 -0.4559
 5906SOL     OW29179   2.480   0.624   6.778  0.1511 -0.6117 -0.5808
 5906SOL    HW129180   2.547   0.639   6.711 -0.7023 -1.0221 -1.5084
 5906SOL    HW229181   2.403   0.672   6.749  1.2733  0.8382 -1.1781
 5907SOL     OW29182   2.866   4.635   3.364  0.3822 -0.1809 -0.0802
 5907SOL    HW129183   2.914   4.686   3.429 -1.0791 -0.7301  1.4133
 5907SOL    HW229184   2.898   4.658   3.276 -0.4496 -0.5616 -0.4851
 5908SOL     OW29185   0.994   3.286   3.682 -0.4004  0.3093 -0.1025
 5908SOL    HW129186   0.904   3.306   3.655 -1.0591  0.1227  1.9521
 5908SOL    HW229187   1.025   3.239   3.604 -1.4792  0.6857 -0.7606
 5909SOL     OW29188   4.364   3.081   0.112 -0.1897  0.0290  0.2293
 5909SOL    HW129189   4.377   3.176   0.109  0.4358 -0.0554  0.2769
 5909SOL    HW229190   4.410   3.054   0.191 -1.0589  1.8450  1.3474
 5910SOL     OW29191   3.121   2.031   4.992  0.3858  0.3903 -0.0942
 5910SOL    HW129192   3.184   2.090   5.033  0.2996  0.1272  0.4208
 5910SOL    HW229193   3.061   2.027   5.067 -1.4010  0.9589 -1.4995
 5911SOL     OW29194   4.584   1.514   7.873  0.1358 -0.3203 -0.2907
 5911SOL    HW129195   4.661   1.458   7.861 -0.9262 -2.3980  2.4974
 5911SOL    HW229196   4.586   1.526   7.968  1.8039  0.1950 -0.3966
 5912SOL     OW29197   4.548   0.829   6.684 -0.3384 -0.1732 -0.1473
 5912SOL    HW129198   4.632   0.868   6.711  0.1934 -0.2948 -1.6175
 5912SOL    HW229199   4.575   0.800   6.597 -0.6796  0.5428 -0.4978
 5913SOL     OW29200   2.186   0.563  17.383 -0.2763  0.5594 -0.2640
 5913SOL    HW129201   2.143   0.648  17.386 -2.3809 -0.5211  0.0602
 5913SOL    HW229202   2.199   0.558  17.288 -1.4245  3.8853 -0.5815
 5914SOL     OW29203   4.267   2.939   7.358  0.4297 -0.3125 -0.0039
 5914SOL    HW129204   4.197   2.910   7.299 -1.2549  1.0109  1.3500
 5914SOL    HW229205   4.216   2.965   7.435 -0.5433 -1.4939 -0.2485
 5915SOL     OW29206   2.002   1.411   6.113  0.8162  0.1160  0.1702
 5915SOL    HW129207   1.990   1.316   6.105  0.5691  0.0087  1.7257
 5915SOL    HW229208   1.962   1.439   6.031 -2.4023  0.1142  1.7327
 5916SOL     OW29209   2.426   0.923   3.376  0.1681 -0.2291 -0.4210
 5916SOL    HW129210   2.342   0.879   3.376 -1.7225  3.4091 -0.3052
 5916SOL    HW229211   2.405   1.012   3.349 -0.1216  0.2244  1.3125
 5917SOL     OW29212   4.198   2.875  13.982 -0.2489 -0.5051  0.5566
 5917SOL    HW129213   4.116   2.892  13.937  1.1988 -0.4892 -2.0684
 5917SOL    HW229214   4.169   2.799  14.032  0.2238 -0.1676  1.3490
 5918SOL     OW29215   0.937   2.710   8.022  0.0514 -0.0334 -0.2631
 5918SOL    HW129216   1.003   2.710   7.952 -1.5430 -0.7513 -1.7693
 5918SOL    HW229217   0.919   2.804   8.016 -0.1719  0.0314  1.5135
 5919SOL     OW29218   2.995   4.616   7.901  0.7400  0.1682  0.8375
 5919SOL    HW129219   3.003   4.663   7.818 -0.5081  1.4711  1.4661
 5919SOL    HW229220   3.033   4.686   7.954 -1.8440  1.4042  1.0334
 5920SOL     OW29221   1.878   2.689   0.891  0.6313  0.2337  0.2538
 5920SOL    HW129222   1.909   2.629   0.823  1.4704  1.5673 -0.5459
 5920SOL    HW229223   1.960   2.729   0.920  0.1295  0.8766  0.7565
 5921SOL     OW29224   1.853   1.456   6.695 -0.6079 -0.6201 -0.5108
 5921SOL    HW129225   1.829   1.539   6.735  2.9072 -0.3025  0.9205
 5921SOL    HW229226   1.939   1.453   6.735 -0.7267  0.7263 -0.1720
 5922SOL     OW29227   4.575   0.589   1.863  0.2895  0.0084  0.1533
 5922SOL    HW129228   4.549   0.648   1.792 -1.8950 -2.7138 -1.3467
 5922SOL    HW229229   4.531   0.624   1.941 -2.7614 -1.5843 -0.8439
 5923SOL     OW29230   0.323   1.432   0.612 -0.1828 -1.0429 -0.2698
 5923SOL    HW129231   0.395   1.471   0.663 -0.3269 -0.4086 -0.5485
 5923SOL    HW229232   0.278   1.387   0.684 -1.0573  0.6768  0.2681
 5924SOL     OW29233   0.054   2.845   7.846 -0.4393 -0.3910 -0.7625
 5924SOL    HW129234   0.008   2.926   7.823  0.0785  0.1424  0.1262
 5924SOL    HW229235   0.073   2.802   7.762  0.8392 -0.1161 -0.6121
 5925SOL     OW29236   2.543   1.220  14.283  0.2094  0.5441 -0.3137
 5925SOL    HW129237   2.636   1.224  14.260 -0.1592  2.4379 -1.4595
 5925SOL    HW229238   2.504   1.264  14.208 -0.7020  0.5030  0.1330
 5926SOL     OW29239   0.776   1.812   6.606  0.0867  0.2870  0.1679
 5926SOL    HW129240   0.680   1.823   6.606 -0.0458 -0.7615  2.7695
 5926SOL    HW229241   0.778   1.732   6.659 -2.4642  0.0722 -0.0260
 5927SOL     OW29242   2.836   0.382  10.255 -0.1669 -0.0483 -0.0683
 5927SOL    HW129243   2.822   0.424  10.170  0.1803  0.3976  0.0920
 5927SOL    HW229244   2.850   0.466  10.300  0.9378 -0.1741 -0.1795
 5928SOL     OW29245   0.646   0.425  17.528 -0.0954  0.2762 -0.2350
 5928SOL    HW129246   0.687   0.346  17.493  1.3314  1.5993 -1.5869
 5928SOL    HW229247   0.714   0.480  17.570  0.5616 -0.8242  0.1409
 5929SOL     OW29248   3.002   4.511   5.599  0.1480  0.1438 -0.6837
 5929SOL    HW129249   2.948   4.588   5.616  0.4154  0.1460  0.1652
 5929SOL    HW229250   3.086   4.548   5.626 -0.7012  2.2012 -0.8545
 5930SOL     OW29251   1.151   1.086   0.700  0.3832 -0.0601 -0.0947
 5930SOL    HW129252   1.205   1.109   0.776  2.4253  0.1248 -1.5786
 5930SOL    HW229253   1.103   1.005   0.720 -0.4792  0.3542 -0.5085
 5931SOL     OW29254   2.360   4.548   5.635 -0.3305 -0.1542 -0.0980
 5931SOL    HW129255   2.272   4.523   5.608 -0.4890  1.9824 -1.4872
 5931SOL    HW229256   2.347   4.601   5.714  1.3255  1.2432 -0.7677
 5932SOL     OW29257   4.663   3.521   5.798 -0.2216 -0.0433 -0.3343
 5932SOL    HW129258   4.670   3.608   5.758  1.8978  0.6631  1.5911
 5932SOL    HW229259   0.020   3.512   5.846 -0.5748 -3.2046 -0.3043
 5933SOL     OW29260   2.237   1.276   3.470  0.0860  0.1045  0.2235
 5933SOL    HW129261   2.317   1.329   3.467 -0.3091  0.5149 -2.5075
 5933SOL    HW229262   2.236   1.253   3.377 -0.2103 -0.5075  0.3813
 5934SOL     OW29263   4.047   2.466  15.844 -0.1926  0.2711 -0.0406
 5934SOL    HW129264   4.040   2.428  15.756  1.6961 -0.4926  0.1456
 5934SOL    HW229265   3.972   2.422  15.883 -2.5682  1.4245 -3.2830
 5935SOL     OW29266   2.970   2.157   4.626 -0.1782  0.1713 -0.2295
 5935SOL    HW129267   2.901   2.206   4.580  0.0216  1.1378  0.4922
 5935SOL    HW229268   2.953   2.168   4.720 -1.3493 -0.6028 -0.3512
 5936SOL     OW29269   4.028   2.056   0.699 -0.1738 -0.5357 -0.5898
 5936SOL    HW129270   3.934   2.065   0.684 -0.9489 -2.4354  2.9757
 5936SOL    HW229271   4.051   2.069   0.607  0.9332 -1.3133 -0.4327
 5937SOL     OW29272   2.699   0.246  10.446  0.3309 -0.1311  0.6220
 5937SOL    HW129273   2.762   0.279  10.381  0.1640 -1.9310 -0.4771
 5937SOL    HW229274   2.619   0.283  10.410  0.7156  0.1003  0.0006
 5938SOL     OW29275   4.006   2.882   1.666 -0.1531  0.0391  0.3126
 5938SOL    HW129276   4.099   2.883   1.687 -0.2512  1.3179  0.6446
 5938SOL    HW229277   3.986   2.974   1.684 -1.6758 -0.2283 -0.0374
 5939SOL     OW29278   4.265   1.480   7.089 -1.0220 -0.5819 -0.0837
 5939SOL    HW129279   4.186   1.453   7.135  2.3007 -3.8962  3.6512
 5939SOL    HW229280   4.324   1.497   7.162  0.8513 -0.2062 -1.6656
 5940SOL     OW29281   1.150   2.492   6.350  0.9175  0.4840 -0.8206
 5940SOL    HW129282   1.170   2.458   6.437 -2.3147  0.0049 -0.2745
 5940SOL    HW229283   1.163   2.587   6.354 -0.7318  0.7020 -0.5611
 5941SOL     OW29284   4.345   3.527   1.696 -0.4182  0.5038  0.1243
 5941SOL    HW129285   4.377   3.597   1.640  0.9779  0.2046  0.5555
 5941SOL    HW229286   4.407   3.532   1.769  1.6218 -0.8229 -1.5103
 5942SOL     OW29287   1.267   0.318  15.631 -0.0933  0.4758  0.5561
 5942SOL    HW129288   1.336   0.347  15.572  0.0066 -1.7390 -0.4064
 5942SOL    HW229289   1.206   0.390  15.616  0.8811  1.3525  0.8323
 5943SOL     OW29290   3.537   0.789   2.678  0.6550  0.5227  0.3778
 5943SOL    HW129291   3.482   0.758   2.606 -0.6794  1.8508  0.8167
 5943SOL    HW229292   3.595   0.846   2.627  2.0468  0.4579  1.9026
 5944SOL     OW29293   0.234   0.885   3.352  0.1155  0.3193 -0.1141
 5944SOL    HW129294   0.256   0.976   3.370  1.4467  0.6704 -3.3791
 5944SOL    HW229295   0.301   0.832   3.397  0.0869 -0.4919 -1.0146
 5945SOL     OW29296   2.681   2.635   3.153  0.4859 -0.0361 -0.1838
 5945SOL    HW129297   2.770   2.641   3.117  0.6690 -1.7539 -0.0099
 5945SOL    HW229298   2.669   2.542   3.169 -1.3132  0.5955  2.0306
 5946SOL     OW29299   2.193   1.406   5.556  0.5767 -0.3492 -0.4295
 5946SOL    HW129300   2.235   1.490   5.574  0.2946 -0.5361  1.0348
 5946SOL    HW229301   2.195   1.373   5.646 -1.3395 -1.8010 -0.9173
 5947SOL     OW29302   0.650   2.914  11.770  0.1619  0.1574 -0.0159
 5947SOL    HW129303   0.731   2.944  11.811 -1.1402  1.6175  1.5227
 5947SOL    HW229304   0.597   2.991  11.750 -1.0878 -0.8811 -0.7028
 5948SOL     OW29305   1.029   3.644   2.815 -0.0195  0.3865 -0.2652
 5948SOL    HW129306   1.082   3.714   2.777  0.0605 -0.6185 -2.0336
 5948SOL    HW229307   1.036   3.582   2.742 -0.6802 -0.0454  0.0332
 5949SOL     OW29308   3.751   2.742   0.042  0.6842 -0.2295 -0.1147
 5949SOL    HW129309   3.752   2.776  17.657  0.8110  0.1304  0.0224
 5949SOL    HW229310   3.701   2.817   0.075  0.5719 -0.4200  0.1468
 5950SOL     OW29311   3.181   0.082   2.933  0.1433 -0.0256  0.6837
 5950SOL    HW129312   3.109   0.058   2.875 -0.0869 -1.6127  1.6225
 5950SOL    HW229313   3.183   0.177   2.920  0.8827 -0.3340 -1.4703
 5951SOL     OW29314   2.534   3.052  11.316  0.1111 -0.3900 -0.0221
 5951SOL    HW129315   2.497   3.090  11.395 -1.3824  0.1925 -1.0129
 5951SOL    HW229316   2.497   2.964  11.325  0.7275 -1.0230 -3.5596
 5952SOL     OW29317   2.082   4.049   3.275  0.0136  0.2908 -0.3781
 5952SOL    HW129318   2.104   4.016   3.188  0.2242  1.5908 -0.8236
 5952SOL    HW229319   2.075   4.143   3.255 -0.7136  0.0956 -1.0406
 5953SOL     OW29320   1.133   1.589   4.383 -0.1740 -0.0777 -0.3579
 5953SOL    HW129321   1.116   1.506   4.338 -1.3842  0.1213 -0.2517
 5953SOL    HW229322   1.189   1.638   4.323  1.4590 -0.6350  0.7018
 5954SOL     OW29323   4.148   4.019   0.123  0.3337 -0.0717 -0.8117
 5954SOL    HW129324   4.180   3.956   0.058 -0.0370  0.3324 -1.3898
 5954SOL    HW229325   4.216   3.998   0.186  0.1035 -0.7839 -0.7958
 5955SOL     OW29326   2.176   3.394  13.845 -0.1646  0.8113 -0.5091
 5955SOL    HW129327   2.237   3.336  13.799 -1.0017 -0.9438  0.6085
 5955SOL    HW229328   2.240   3.427  13.908  2.0585 -0.6990 -1.9679
 5956SOL     OW29329   1.566   0.994  15.349  0.4816  0.2991 -0.1892
 5956SOL    HW129330   1.480   0.982  15.309  0.3571  0.5157  0.0161
 5956SOL    HW229331   1.574   1.087  15.327  0.9913 -0.0869 -1.6829
 5957SOL     OW29332   1.566   0.754   6.662 -0.2669 -0.3230 -0.0696
 5957SOL    HW129333   1.531   0.839   6.635 -1.3251 -0.7954 -0.2114
 5957SOL    HW229334   1.601   0.783   6.746  2.9475 -0.6513 -1.3088
 5958SOL     OW29335   4.382   1.914   7.127  0.2363 -0.0285 -0.0484
 5958SOL    HW129336   4.389   1.985   7.063 -0.2359 -2.0602 -2.3518
 5958SOL    HW229337   4.312   1.862   7.088 -0.1075 -0.7223  1.4767
 5959SOL     OW29338   3.711   2.556   2.796  0.3265 -0.0371  0.3156
 5959SOL    HW129339   3.774   2.496   2.755  0.7258  1.3564 -1.1107
 5959SOL    HW229340   3.655   2.503   2.852  0.6426 -0.8181 -0.1153
 5960SOL     OW29341   0.467   0.404  10.334  0.0877 -0.4022 -0.4726
 5960SOL    HW129342   0.421   0.333  10.378  0.7991 -0.0372  0.8689
 5960SOL    HW229343   0.438   0.382  10.246  0.2568 -0.4609 -0.5138
 5961SOL     OW29344   3.255   4.620   5.665  0.1749  0.0221  0.0749
 5961SOL    HW129345   3.284   4.641   5.576  0.0802  0.2106  0.0908
 5961SOL    HW229346   3.239   4.703   5.709 -0.4971 -0.0293 -0.0714
 5962SOL     OW29347   4.507   1.693   0.510  0.5480  0.2214 -0.0089
 5962SOL    HW129348   4.580   1.737   0.467  0.3390  1.0012  0.4384
 5962SOL    HW229349   4.495   1.610   0.463  1.4281  0.3129 -0.3997
 5963SOL     OW29350   0.732   1.127   8.640 -0.3363 -0.7949 -0.6128
 5963SOL    HW129351   0.752   1.183   8.715 -1.4321 -0.0986 -0.8565
 5963SOL    HW229352   0.750   1.186   8.568  1.9513  1.2059  1.5954
 5964SOL     OW29353   0.049   0.720  11.882  0.3567  0.4405 -0.4484
 5964SOL    HW129354   0.118   0.656  11.898  0.1776  1.0591  2.8010
 5964SOL    HW229355   0.079   0.744  11.794  3.1877 -0.2163  0.3658
 5965SOL     OW29356   2.081   3.332   3.752  0.2242  0.2659 -0.1136
 5965SOL    HW129357   2.165   3.339   3.797 -0.8372  2.4600  1.5339
 5965SOL    HW229358   2.117   3.298   3.670 -1.5133  0.2640 -0.8816
 5966SOL     OW29359   1.489   3.858  10.959 -0.2375  0.4776 -0.2560
 5966SOL    HW129360   1.444   3.836  11.041  0.3798  0.7358  0.1475
 5966SOL    HW229361   1.449   3.795  10.900 -0.8280 -2.7722  3.5724
 5967SOL     OW29362   1.038   3.407   8.304  0.2642  0.5626 -0.5567
 5967SOL    HW129363   0.971   3.475   8.305 -1.6021 -1.2600 -1.9710
 5967SOL    HW229364   1.115   3.448   8.265  1.1691  1.5213  2.2098
 5968SOL     OW29365   4.182   3.246   7.215  0.4891  0.0628  0.6897
 5968SOL    HW129366   4.120   3.179   7.245  1.7594 -1.7245 -0.6812
 5968SOL    HW229367   4.169   3.237   7.120 -1.9034  0.1632  1.0041
 5969SOL     OW29368   0.299   3.096   8.728 -0.3237 -0.2716 -0.1135
 5969SOL    HW129369   0.232   3.153   8.690  1.6046  1.5166 -0.8088
 5969SOL    HW229370   0.243   3.023   8.754 -0.5903  0.6881  2.0736
 5970SOL     OW29371   4.122   1.812   3.924 -0.7876  0.3766  0.0273
 5970SOL    HW129372   4.060   1.825   3.997 -0.6205  2.4280 -0.1955
 5970SOL    HW229373   4.117   1.719   3.904 -1.9577  0.1798  1.1981
 5971SOL     OW29374   1.911   1.938   8.462  0.0312  0.3818  0.3103
 5971SOL    HW129375   1.963   2.017   8.472 -0.5058  0.5325  1.7923
 5971SOL    HW229376   1.964   1.863   8.490 -0.1742  0.2029  0.2246
 5972SOL     OW29377   3.150   3.195   3.237  0.5067 -0.3831  0.3927
 5972SOL    HW129378   3.082   3.174   3.172  0.9869 -1.3939  0.2150
 5972SOL    HW229379   3.225   3.160   3.190 -1.2049 -2.1259 -1.0339
 5973SOL     OW29380   2.654   1.731   3.603 -0.7032 -0.3553  0.4095
 5973SOL    HW129381   2.634   1.645   3.639 -0.8456 -0.3267  0.3961
 5973SOL    HW229382   2.745   1.712   3.629  0.3291  0.9994 -2.2406
 5974SOL     OW29383   1.459   3.765  16.932  0.1971  0.1746 -0.1877
 5974SOL    HW129384   1.498   3.683  16.901  0.2816 -0.2188  0.9529
 5974SOL    HW229385   1.490   3.769  17.023  0.7038  0.0464 -0.3521
 5975SOL     OW29386   1.046   3.011  11.767 -1.0162  0.4445 -0.3384
 5975SOL    HW129387   1.013   2.922  11.754 -1.0137  0.4459 -0.3548
 5975SOL    HW229388   1.011   3.050  11.687  0.3943  0.1921 -1.0896
 5976SOL     OW29389   3.704   2.406   5.011  0.3101  0.2625  0.3161
 5976SOL    HW129390   3.624   2.446   4.976  0.3920 -1.5491 -1.9340
 5976SOL    HW229391   3.775   2.443   4.957  2.3878  0.2295  3.0355
 5977SOL     OW29392   2.454   0.326   8.628  0.5450  0.2882 -0.9014
 5977SOL    HW129393   2.359   0.331   8.639  0.9931 -2.1296  4.0948
 5977SOL    HW229394   2.473   0.284   8.712  1.0611 -1.3049 -1.8297
 5978SOL     OW29395   0.491   4.256   3.751 -0.3236 -0.2652  0.4730
 5978SOL    HW129396   0.488   4.318   3.678 -0.0508 -0.9295 -0.0907
 5978SOL    HW229397   0.489   4.168   3.714 -0.6447 -0.2683  0.4980
 5979SOL     OW29398   0.560   1.065   3.753 -0.1848  0.3861 -0.5949
 5979SOL    HW129399   0.498   0.997   3.725 -1.1992  0.6622  0.9473
 5979SOL    HW229400   0.534   1.071   3.845  1.5710  1.5414 -0.1740
 5980SOL     OW29401   0.689   1.159  17.454  0.5363 -0.3234 -0.9373
 5980SOL    HW129402   0.607   1.203  17.433 -0.2307 -1.2267  0.1423
 5980SOL    HW229403   0.669   1.096  17.524  2.2472  0.1051 -0.0556
 5981SOL     OW29404   2.222   3.408   6.388 -0.1434  0.3212 -0.1811
 5981SOL    HW129405   2.292   3.343   6.401  1.2870  1.9255  0.0716
 5981SOL    HW229406   2.148   3.350   6.408  0.0128 -0.4429 -1.8591
 5982SOL     OW29407   3.463   3.175   5.579  0.4370  1.1276 -0.3856
 5982SOL    HW129408   3.379   3.131   5.579  0.1142  1.7766  4.0357
 5982SOL    HW229409   3.500   3.156   5.493 -1.4030  0.2108 -0.9595
 5983SOL     OW29410   1.065   3.709  11.578  0.3986  0.1476  0.5937
 5983SOL    HW129411   0.977   3.672  11.573  0.4231  0.0001  1.2836
 5983SOL    HW229412   1.060   3.802  11.557 -1.1060  0.3444  1.7838
 5984SOL     OW29413   3.669   1.895   7.729 -0.4298 -0.2706 -0.0052
 5984SOL    HW129414   3.701   1.933   7.647  0.6747  0.9365  0.9675
 5984SOL    HW229415   3.733   1.825   7.741  0.5434  0.4377 -1.0341
 5985SOL     OW29416   3.781   3.570   6.314  0.0127 -0.5133  0.6675
 5985SOL    HW129417   3.874   3.594   6.313  0.0228 -0.5426  0.8408
 5985SOL    HW229418   3.770   3.520   6.395 -1.2014 -0.5810  0.4533
 5986SOL     OW29419   3.339   2.206   9.441 -0.0965  0.1244 -0.1346
 5986SOL    HW129420   3.272   2.151   9.400 -0.8111 -0.1965  1.4542
 5986SOL    HW229421   3.335   2.163   9.527  0.4751  2.9791  1.3400
 5987SOL     OW29422   2.518   4.656   7.545 -0.0329 -0.3699 -0.1646
 5987SOL    HW129423   2.612   4.671   7.560  0.3373 -1.0206 -1.7260
 5987SOL    HW229424   2.484   4.625   7.629  0.4595 -1.2949 -0.2985
 5988SOL     OW29425   0.666   4.379   3.285  0.6625  0.2893 -0.1161
 5988SOL    HW129426   0.604   4.316   3.247  1.9433 -1.0730  0.0646
 5988SOL    HW229427   0.741   4.320   3.289  0.3295 -0.1099  0.2698
 5989SOL     OW29428   2.167   3.918   9.425 -0.0166  0.1718  0.0933
 5989SOL    HW129429   2.087   3.965   9.401  1.2709  2.2703 -0.1487
 5989SOL    HW229430   2.174   3.843   9.366  4.3856 -0.3395  1.2139
 5990SOL     OW29431   2.858   0.481   9.983 -0.6780 -0.5140  0.1184
 5990SOL    HW129432   2.870   0.388   9.962  1.4843 -0.0295 -0.8022
 5990SOL    HW229433   2.840   0.503   9.891  1.0424 -0.0534 -0.1196
 5991SOL     OW29434   1.432   4.058   5.858  0.0399 -0.5787  0.5976
 5991SOL    HW129435   1.451   4.042   5.766 -1.3758 -0.6111  0.3153
 5991SOL    HW229436   1.366   3.992   5.880  0.2626 -0.2096  2.4510
 5992SOL     OW29437   2.302   1.430   1.538 -0.9824  0.0236 -0.1216
 5992SOL    HW129438   2.252   1.440   1.619  0.2819 -2.3123  0.9504
 5992SOL    HW229439   2.312   1.522   1.513 -0.9678 -0.4809 -1.9648
 5993SOL     OW29440   3.786   1.371   7.660  0.1503  0.6857 -0.0833
 5993SOL    HW129441   3.809   1.389   7.752 -0.2260 -0.5831  0.2560
 5993SOL    HW229442   3.853   1.421   7.612  0.1554 -0.8253 -1.6364
 5994SOL     OW29443   3.278   1.422   0.632  0.1649 -0.5110 -0.2187
 5994SOL    HW129444   3.238   1.505   0.657  1.2830 -0.4151  1.2648
 5994SOL    HW229445   3.199   1.388   0.589 -1.3856  1.4303  1.0974
 5995SOL     OW29446   0.777   0.652  13.565  0.2027 -0.4347  0.4467
 5995SOL    HW129447   0.839   0.703  13.617  1.3568 -0.6235 -0.7503
 5995SOL    HW229448   0.732   0.724  13.522  1.3537 -0.7559 -1.2810
 5996SOL     OW29449   0.846   1.613   6.761  0.2752 -0.4294  0.1348
 5996SOL    HW129450   0.862   1.519   6.754 -0.9082 -0.7079  1.3046
 5996SOL    HW229451   0.934   1.645   6.740  0.6681 -1.6846 -0.1327
 5997SOL     OW29452   0.547   4.039   2.669  0.1179  0.2480 -0.8102
 5997SOL    HW129453   0.578   3.950   2.684 -0.7947  0.2795  1.3985
 5997SOL    HW229454   0.453   4.019   2.672  0.1465  0.1432 -0.5950
 5998SOL     OW29455   0.270   3.420  14.468 -0.5892 -0.2937 -0.1408
 5998SOL    HW129456   0.207   3.349  14.454 -0.2113  0.0567 -3.6001
 5998SOL    HW229457   0.354   3.378  14.449 -0.1305 -0.6462  2.5540
 5999SOL     OW29458   3.026   0.974   8.243  0.3466  0.0726 -0.2678
 5999SOL    HW129459   3.004   0.891   8.284  3.0278 -1.8779 -2.7539
 5999SOL    HW229460   3.063   1.025   8.315 -1.2136 -1.1532  1.3908
 6000SOL     OW29461   4.343   4.412   5.466 -0.4400 -0.5916 -0.2493
 6000SOL    HW129462   4.253   4.383   5.453 -0.1828  0.1154 -3.6484
 6000SOL    HW229463   4.339   4.506   5.483 -0.0537 -1.0353  2.1959
 6001SOL     OW29464   4.643   1.722   7.735  0.4308 -0.5869  0.1183
 6001SOL    HW129465   4.603   1.645   7.777  0.7034 -0.8470 -0.0958
 6001SOL    HW229466   4.705   1.752   7.802 -0.9653 -3.5641  2.7857
 6002SOL     OW29467   2.046   2.710  13.352  0.1600  0.2764 -0.6014
 6002SOL    HW129468   2.075   2.644  13.289  0.0798  0.2511 -0.6114
 6002SOL    HW229469   1.993   2.658  13.412 -0.5021  2.4528  0.7041
 6003SOL     OW29470   1.074   1.650   0.080 -0.2321  0.5936 -0.5293
 6003SOL    HW129471   1.053   1.579   0.141  0.7970  0.7844  0.0436
 6003SOL    HW229472   1.050   1.605  17.703 -0.4979 -0.3568  0.0799
 6004SOL     OW29473   3.079   1.871   8.814 -0.8398  0.9942  0.1188
 6004SOL    HW129474   3.045   1.794   8.768 -0.1439  0.1423  1.0415
 6004SOL    HW229475   3.021   1.881   8.890  0.6542 -1.2007  1.5150
 6005SOL     OW29476   0.697   3.646   5.472 -0.1795  0.8861  0.1719
 6005SOL    HW129477   0.618   3.691   5.502 -1.9834 -1.6571 -0.8191
 6005SOL    HW229478   0.728   3.712   5.410  3.1528 -0.6158  0.2692
 6006SOL     OW29479   1.894   2.291  13.698  0.4488 -0.4219  0.1182
 6006SOL    HW129480   1.905   2.203  13.663  2.1935  0.1694 -0.8448
 6006SOL    HW229481   1.934   2.283  13.785 -0.7737 -0.8353  0.6405
 6007SOL     OW29482   1.016   1.121   6.346 -0.2001 -0.1142  0.4848
 6007SOL    HW129483   0.958   1.170   6.288  0.6684 -1.9432 -1.9522
 6007SOL    HW229484   0.983   1.150   6.431  0.2374 -0.5948  0.8151
 6008SOL     OW29485   2.889   2.690  11.653  0.3679  0.1701  0.7449
 6008SOL    HW129486   2.849   2.735  11.579  1.0898  0.3275  0.4478
 6008SOL    HW229487   2.976   2.731  11.653  0.3799  0.1350 -1.8539
 6009SOL     OW29488   0.311   3.582   2.735 -0.1713 -0.1688 -0.4207
 6009SOL    HW129489   0.288   3.595   2.643 -3.3166 -1.8706  0.1213
 6009SOL    HW229490   0.251   3.512   2.759  0.1355  0.0936  1.1583
 6010SOL     OW29491   1.976   3.215  13.801  0.7218  1.4635 -0.3611
 6010SOL    HW129492   1.911   3.242  13.865  0.4898  1.9382 -0.7901
 6010SOL    HW229493   2.035   3.291  13.806 -1.2106  3.0667 -1.6705
 6011SOL     OW29494   2.730   2.378  13.944 -0.3900 -0.0219 -0.0939
 6011SOL    HW129495   2.763   2.288  13.936 -1.4313 -0.5406  1.5385
 6011SOL    HW229496   2.746   2.393  14.037 -1.6330  1.7687 -0.1769
 6012SOL     OW29497   1.547   4.270  11.596 -0.4774 -0.0027 -0.1322
 6012SOL    HW129498   1.626   4.217  11.591  0.4067  1.1117  2.0641
 6012SOL    HW229499   1.482   4.200  11.596 -1.8158  1.2285 -0.4726
 6013SOL     OW29500   1.879   3.136   5.949  0.3227  0.1801  0.0468
 6013SOL    HW129501   1.801   3.096   5.911  0.8114 -0.5741 -0.1560
 6013SOL    HW229502   1.839   3.180   6.024  0.7089 -0.6908  0.7623
 6014SOL     OW29503   2.230   1.428   7.976 -0.6134  0.3917  0.4542
 6014SOL    HW129504   2.147   1.380   7.968 -0.7679  0.3744  2.0174
 6014SOL    HW229505   2.205   1.515   8.006  1.2623  0.7575  0.9260
 6015SOL     OW29506   1.835   3.728   4.908 -0.1560 -0.2698 -0.6953
 6015SOL    HW129507   1.761   3.777   4.943 -1.0723 -0.0664 -2.9740
 6015SOL    HW229508   1.846   3.652   4.966  3.1115 -0.1584 -1.1609
 6016SOL     OW29509   1.064   1.285   2.438  0.1749  0.3478  0.1446
 6016SOL    HW129510   1.134   1.265   2.376 -1.3862 -4.0218 -0.1398
 6016SOL    HW229511   1.105   1.265   2.522 -0.6359  0.3934  0.5551
 6017SOL     OW29512   3.892   1.550   4.230 -0.3427  0.2678 -0.2593
 6017SOL    HW129513   3.811   1.573   4.275 -0.8152 -1.4064 -0.2655
 6017SOL    HW229514   3.943   1.516   4.304 -1.4689 -0.8362 -0.0076
 6018SOL     OW29515   0.637   0.199   1.240  0.0867 -0.0711  0.2271
 6018SOL    HW129516   0.724   0.236   1.247  0.4304 -0.9476  0.5733
 6018SOL    HW229517   0.654   0.123   1.185  1.8795 -0.8593  1.8969
 6019SOL     OW29518   1.022   0.051   4.996  0.3190 -0.1255  0.4555
 6019SOL    HW129519   1.081   4.723   5.048  1.6982  1.7599  0.8609
 6019SOL    HW229520   1.018   0.128   5.053  0.4808  1.7884 -2.0989
 6020SOL     OW29521   2.195   2.181   4.224 -0.2629  0.3620  0.2137
 6020SOL    HW129522   2.171   2.273   4.233  2.2194  0.9246  1.1278
 6020SOL    HW229523   2.282   2.178   4.264 -0.5250  0.9327  0.8215
 6021SOL     OW29524   3.243   0.480   8.374  0.2348  0.6881  0.2058
 6021SOL    HW129525   3.238   0.386   8.354  0.6423  0.1681  2.6060
 6021SOL    HW229526   3.164   0.503   8.422  0.4254  1.0409  0.3499
 6022SOL     OW29527   2.408   2.845   5.384 -0.2243 -0.7637  0.5178
 6022SOL    HW129528   2.498   2.817   5.368 -0.1169  1.2239 -2.2364
 6022SOL    HW229529   2.402   2.895   5.303  1.1619  1.0714  1.5501
 6023SOL     OW29530   1.310   0.433   6.828 -0.0350  0.1944  0.1163
 6023SOL    HW129531   1.305   0.512   6.882 -2.0731  0.4667 -0.4829
 6023SOL    HW229532   1.386   0.389   6.866  0.9425  2.1434  0.4497
 6024SOL     OW29533   1.030   1.965   8.489 -0.3313  0.1355 -0.6009
 6024SOL    HW129534   1.049   2.059   8.488 -1.5129  0.3747 -1.2254
 6024SOL    HW229535   1.100   1.930   8.544 -1.0633  1.7911  1.3626
 6025SOL     OW29536   0.562   3.767  16.671  0.1071 -0.4283 -0.1110
 6025SOL    HW129537   0.544   3.674  16.656  1.9468 -1.3452  3.4160
 6025SOL    HW229538   0.655   3.788  16.663  1.1695 -3.4971  4.1285
 6026SOL     OW29539   1.497   3.613   7.887 -0.4999 -0.2182 -0.2161
 6026SOL    HW129540   1.451   3.535   7.918 -0.2784 -0.0557  0.5087
 6026SOL    HW229541   1.584   3.598   7.923 -0.7070 -2.7238 -0.7146
 6027SOL     OW29542   3.492   0.097   7.227  0.3235 -0.3454  0.2663
 6027SOL    HW129543   3.450   0.014   7.248  0.6076 -1.2314 -2.6223
 6027SOL    HW229544   3.452   0.157   7.290 -0.8176  0.0305 -0.8170
 6028SOL     OW29545   0.966   4.606   6.209 -0.0303 -0.9350 -0.3814
 6028SOL    HW129546   0.943   4.665   6.280  0.8634 -0.4615 -0.4778
 6028SOL    HW229547   1.052   4.645   6.194 -0.7321  0.7713  0.0520
 6029SOL     OW29548   2.102   0.312  11.100 -0.0410  0.1491  0.7072
 6029SOL    HW129549   2.111   0.223  11.135 -1.6396 -1.0947 -2.0264
 6029SOL    HW229550   2.066   0.287  11.015 -0.7378  1.7632  0.5327
 6030SOL     OW29551   1.996   0.327   4.383 -0.9212  0.0609 -0.2719
 6030SOL    HW129552   2.043   0.362   4.458 -2.4130  1.2739  0.1144
 6030SOL    HW229553   1.928   0.277   4.427  0.0039 -0.9086  0.0277
 6031SOL     OW29554   0.553   4.372   5.020 -0.4919 -0.4229 -0.6456
 6031SOL    HW129555   0.617   4.442   5.013  0.7344 -1.5834 -1.1843
 6031SOL    HW229556   0.476   4.410   5.062 -0.3434 -1.5654  0.6436
 6032SOL     OW29557   0.087   0.460   1.824 -0.8582 -0.6244  0.3082
 6032SOL    HW129558   0.095   0.467   1.919  1.2351 -0.3628  0.1048
 6032SOL    HW229559   4.722   0.491   1.826 -1.0910 -1.1633 -1.3879
 6033SOL     OW29560   1.481   4.180  13.101  0.3551 -0.1320 -0.1965
 6033SOL    HW129561   1.539   4.254  13.085  1.6843 -1.4004 -1.3551
 6033SOL    HW229562   1.426   4.218  13.169 -1.0513  0.9148 -1.9463
 6034SOL     OW29563   1.382   1.791   4.570  0.2905  0.0370  0.4525
 6034SOL    HW129564   1.366   1.822   4.659 -1.0425 -0.1054  0.2627
 6034SOL    HW229565   1.312   1.836   4.523 -0.2511 -0.1867  1.0422
 6035SOL     OW29566   4.071   2.525  10.578 -0.5248  0.3343 -0.1895
 6035SOL    HW129567   4.030   2.606  10.608 -0.3668  1.3349 -2.6300
 6035SOL    HW229568   4.158   2.549  10.545  0.4926 -0.8605  1.6140
 6036SOL     OW29569   3.901   1.302   6.218  0.1946 -0.1420  0.1926
 6036SOL    HW129570   3.909   1.348   6.134  1.3027 -0.9673 -0.1507
 6036SOL    HW229571   3.894   1.210   6.194 -1.2019 -0.6910  2.6997
 6037SOL     OW29572   2.578   2.644  14.254 -0.2087  0.3747 -0.2514
 6037SOL    HW129573   2.644   2.638  14.185  1.1961 -2.4661  1.3150
 6037SOL    HW229574   2.507   2.694  14.213 -1.0902 -0.6102  0.0601
 6038SOL     OW29575   3.756   2.459   7.661 -0.3909 -0.0773 -0.4509
 6038SOL    HW129576   3.706   2.449   7.742  1.7522  1.1283  1.0010
 6038SOL    HW229577   3.728   2.546   7.633 -1.5050 -0.6698 -1.1680
 6039SOL     OW29578   2.397   2.195  16.199 -0.1175 -0.4942 -0.5482
 6039SOL    HW129579   2.374   2.106  16.171  0.2508 -0.3847 -1.1999
 6039SOL    HW229580   2.492   2.192  16.210  0.2103 -0.3893 -3.3720
 6040SOL     OW29581   1.043   3.430  15.001 -0.3013 -0.1642  0.0023
 6040SOL    HW129582   0.964   3.377  15.002 -1.3350  1.3794 -0.2708
 6040SOL    HW229583   1.070   3.417  14.910 -0.7376 -0.5883 -0.0617
 6041SOL     OW29584   2.858   1.261   8.084 -0.3381 -0.3451 -0.4127
 6041SOL    HW129585   2.861   1.279   8.178 -0.3998  0.8136 -0.6288
 6041SOL    HW229586   2.930   1.197   8.078  0.4365  0.6470 -1.7160
 6042SOL     OW29587   2.919   1.449   2.696  0.3909  0.3144 -0.9545
 6042SOL    HW129588   2.952   1.467   2.784 -0.5179 -1.4205 -0.2445
 6042SOL    HW229589   2.832   1.485   2.707  0.5696  0.1958  0.8288
 6043SOL     OW29590   1.734   1.015  14.042  0.1480  0.3741 -0.1010
 6043SOL    HW129591   1.790   1.092  14.040 -1.6739  1.6404 -1.6201
 6043SOL    HW229592   1.661   1.057  14.087  0.5053  0.3501  0.4933
 6044SOL     OW29593   0.900   0.335  11.265  0.1738 -0.0425 -0.5692
 6044SOL    HW129594   0.912   0.294  11.351  1.9474  5.2949  1.6709
 6044SOL    HW229595   0.940   0.264  11.215 -0.8582 -0.8431 -0.2631
 6045SOL     OW29596   4.376   1.814   3.887  0.6535 -0.0116  0.0071
 6045SOL    HW129597   4.402   1.740   3.943  2.1323  0.8459  0.4538
 6045SOL    HW229598   4.281   1.815   3.892  0.5600 -4.5022  0.0118
 6046SOL     OW29599   1.240   0.300  15.940  0.2002  0.3192 -0.0768
 6046SOL    HW129600   1.312   0.295  15.877  0.0030  3.1581 -0.4952
 6046SOL    HW229601   1.167   0.268  15.887 -0.5047  2.3514 -0.3072
 6047SOL     OW29602   2.412   4.514   3.292 -0.4453  0.3624 -0.1133
 6047SOL    HW129603   2.390   4.429   3.254 -2.2099  1.1406 -0.8260
 6047SOL    HW229604   2.470   4.554   3.227  0.3424  0.2834  0.5319
 6048SOL     OW29605   2.238   4.232   6.778  0.2951 -0.0256  0.1528
 6048SOL    HW129606   2.182   4.155   6.766  1.4201 -0.7750 -0.2476
 6048SOL    HW229607   2.310   4.190   6.824  0.3479 -1.7332 -1.5134
 6049SOL     OW29608   2.068   4.163   1.906  0.2312  0.1115 -0.0641
 6049SOL    HW129609   2.093   4.231   1.968  1.7209 -1.8279  1.4969
 6049SOL    HW229610   1.978   4.142   1.934  0.9786 -0.9473  1.5748
 6050SOL     OW29611   1.357   4.081   6.947 -0.3909 -0.0899  0.4190
 6050SOL    HW129612   1.279   4.029   6.966  1.4231 -2.4130  1.4889
 6050SOL    HW229613   1.417   4.008   6.931 -0.5546 -0.2417  0.4932
 6051SOL     OW29614   1.906   1.951   7.207 -0.2434  0.1871 -0.0835
 6051SOL    HW129615   1.877   2.005   7.280  0.8485  0.9625 -0.2259
 6051SOL    HW229616   1.932   2.026   7.153 -2.5219 -1.4411 -3.4644
 6052SOL     OW29617   4.664   0.651  10.409  0.1921 -0.3574 -0.3693
 6052SOL    HW129618   4.642   0.563  10.439 -0.1452  0.0531  0.5820
 6052SOL    HW229619   4.695   0.631  10.321  0.3556  0.5883 -0.5361
 6053SOL     OW29620   2.880   4.560   1.844  0.0766 -0.2173  0.2944
 6053SOL    HW129621   2.855   4.500   1.913 -0.4121 -1.3124 -0.8330
 6053SOL    HW229622   2.895   4.642   1.891  2.5891  2.3177 -4.8165
 6054SOL     OW29623   1.513   0.361   2.546 -0.2196 -0.1833  0.0461
 6054SOL    HW129624   1.579   0.311   2.498 -0.8230 -0.9490  0.0022
 6054SOL    HW229625   1.482   0.405   2.467 -0.5817 -0.5307 -0.0093
 6055SOL     OW29626   1.935   1.428   4.057 -0.1970 -0.6984 -0.7358
 6055SOL    HW129627   1.876   1.385   4.118 -1.0199 -0.6383 -1.4875
 6055SOL    HW229628   1.933   1.366   3.984 -0.4320 -0.2582 -1.1115
 6056SOL     OW29629   3.101   2.810   0.012 -0.4108 -0.2538  0.4199
 6056SOL    HW129630   3.105   2.860  17.635  0.1411 -0.6260  0.2227
 6056SOL    HW229631   3.102   2.724  17.677 -1.3362  1.0322 -2.3450
 6057SOL     OW29632   1.326   2.794  16.130  0.0406 -0.1645 -0.2882
 6057SOL    HW129633   1.335   2.777  16.036 -0.2451 -0.2214 -0.3072
 6057SOL    HW229634   1.239   2.835  16.140  0.8021  1.8646 -1.9296
 6058SOL     OW29635   3.337   3.998   3.643  0.4978 -0.1079  0.9719
 6058SOL    HW129636   3.257   3.988   3.592 -0.0454 -1.5864  2.1149
 6058SOL    HW229637   3.359   3.906   3.654 -0.9803 -0.6959 -1.1915
 6059SOL     OW29638   3.939   1.260   9.930  0.1363 -0.2109  0.3659
 6059SOL    HW129639   4.026   1.298   9.934 -0.0527  0.4693 -2.1678
 6059SOL    HW229640   3.912   1.291   9.843 -1.2478  0.0734  0.8816
 6060SOL     OW29641   2.917   0.582  10.429  0.4611 -0.1587 -0.5652
 6060SOL    HW129642   2.973   0.509  10.456  1.6300  0.9921  0.1021
 6060SOL    HW229643   2.986   0.648  10.423  1.0689 -0.4988  2.7317
 6061SOL     OW29644   4.174   1.569  11.131  0.5939 -0.0821 -0.5013
 6061SOL    HW129645   4.188   1.481  11.095 -2.4008 -0.3906 -0.8919
 6061SOL    HW229646   4.195   1.557  11.223  0.2624 -0.5825 -0.4918
 6062SOL     OW29647   1.171   1.655  13.774 -0.0917  0.2530 -0.2017
 6062SOL    HW129648   1.136   1.731  13.821 -0.5913 -0.6756  0.9519
 6062SOL    HW229649   1.218   1.608  13.844 -1.1978 -0.2218  0.2207
 6063SOL     OW29650   0.811   3.509   4.283 -0.1804 -0.2094  0.0010
 6063SOL    HW129651   0.788   3.416   4.272 -0.0620 -0.2553  0.1398
 6063SOL    HW229652   0.736   3.559   4.250  0.3960  0.4340 -0.3111
 6064SOL     OW29653   4.647   1.951  17.114  0.1342 -0.5452 -0.3534
 6064SOL    HW129654   4.694   2.005  17.051  1.0122  0.1421  0.9003
 6064SOL    HW229655   4.716   1.931  17.176 -0.0187  0.0771  0.0197
 6065SOL     OW29656   4.116   4.413   4.162 -0.0693  0.2413 -0.2831
 6065SOL    HW129657   4.048   4.349   4.139 -0.8654  0.4677  1.4247
 6065SOL    HW229658   4.140   4.394   4.252  0.0575 -0.0597 -0.3792
 6066SOL     OW29659   1.864   3.401  12.320 -0.6269  0.0745  0.3245
 6066SOL    HW129660   1.847   3.451  12.240  0.9024  0.9253  0.5163
 6066SOL    HW229661   1.954   3.379  12.297 -0.0697 -1.1511  3.7063
 6067SOL     OW29662   4.595   2.162   6.083  0.2645 -0.2575  0.0124
 6067SOL    HW129663   4.516   2.215   6.077 -0.8854 -1.5125  3.8932
 6067SOL    HW229664   4.598   2.126   5.995  1.2125  0.5907 -0.3063
 6068SOL     OW29665   0.317   0.507   3.569  0.1819 -0.5589  0.4408
 6068SOL    HW129666   0.274   0.478   3.649 -2.1341  0.4604 -0.4427
 6068SOL    HW229667   0.394   0.450   3.559 -0.0816 -0.6838 -0.8593
 6069SOL     OW29668   1.681   4.273   5.207 -0.2025  0.2529 -0.3713
 6069SOL    HW129669   1.655   4.268   5.115 -0.4791  1.1231 -0.3373
 6069SOL    HW229670   1.606   4.238   5.255  1.0749 -0.4127  1.1471
 6070SOL     OW29671   1.397   0.954   3.502 -0.0384 -0.4323  0.3802
 6070SOL    HW129672   1.355   0.878   3.542 -1.8107  2.1491  3.3780
 6070SOL    HW229673   1.487   0.923   3.506  0.1322  0.3033  2.4365
 6071SOL     OW29674   0.690   3.225   6.052 -0.3886  0.0325 -0.6453
 6071SOL    HW129675   0.726   3.302   6.096 -3.4273  0.9361  0.2725
 6071SOL    HW229676   0.658   3.168   6.122  4.7768 -2.4247 -0.2431
 6072SOL     OW29677   2.494   2.725  10.407  0.5129  0.1483  0.4586
 6072SOL    HW129678   2.551   2.651  10.387  0.6464 -0.4993  3.1675
 6072SOL    HW229679   2.409   2.685  10.423 -0.1553  0.4428 -2.5167
 6073SOL     OW29680   4.476   1.548   4.702 -0.0522 -0.6501  0.6638
 6073SOL    HW129681   4.437   1.517   4.783  1.2923  1.9128  2.3053
 6073SOL    HW229682   4.559   1.569   4.745  0.9645 -0.5383 -1.3406
 6074SOL     OW29683   1.392   4.674   7.566  0.4565  0.0811 -0.0846
 6074SOL    HW129684   1.411   4.618   7.490 -2.1848 -0.9368  0.0084
 6074SOL    HW229685   1.302   4.648   7.586 -0.3604  1.0076 -2.4748
 6075SOL     OW29686   4.405   3.726   7.379  0.1829 -0.0324  0.7629
 6075SOL    HW129687   4.384   3.637   7.349  0.6846 -0.1561  0.7785
 6075SOL    HW229688   4.347   3.738   7.455 -0.9254 -1.1820  0.1024
 6076SOL     OW29689   1.427   1.034   7.409 -0.5339 -0.3716  0.2060
 6076SOL    HW129690   1.511   0.997   7.380 -0.6806  0.3960 -1.1702
 6076SOL    HW229691   1.390   0.955   7.448 -2.0354  0.1673 -0.1333
 6077SOL     OW29692   0.148   4.528   6.536  0.6493 -0.1568 -0.5278
 6077SOL    HW129693   0.088   4.485   6.596  0.9231  0.3887  0.1364
 6077SOL    HW229694   0.161   4.467   6.463 -0.7130 -0.4575 -0.5067
 6078SOL     OW29695   2.472   1.298   4.434  0.3945 -0.5362 -0.3995
 6078SOL    HW129696   2.400   1.278   4.375  0.3856 -0.6696 -0.3443
 6078SOL    HW229697   2.468   1.215   4.483  0.0949 -1.1563 -1.4796
 6079SOL     OW29698   0.473   0.911   5.341 -0.7827  0.0880 -0.3876
 6079SOL    HW129699   0.443   0.824   5.367 -0.7770 -0.0123 -0.7214
 6079SOL    HW229700   0.441   0.901   5.251 -2.4667 -1.0650  0.3307
 6080SOL     OW29701   1.062   1.920   9.153  1.0360  0.8806 -0.0789
 6080SOL    HW129702   1.041   2.010   9.131 -1.5315  0.4153  0.5068
 6080SOL    HW229703   1.152   1.936   9.183  0.5747  2.1086  0.6220
 6081SOL     OW29704   3.584   1.450   5.406  0.6396 -0.0682 -0.1518
 6081SOL    HW129705   3.532   1.526   5.381 -0.2341 -0.5756  0.1426
 6081SOL    HW229706   3.669   1.492   5.421  0.6371 -0.5190  1.0913
 6082SOL     OW29707   2.938   2.114   2.121 -0.0889 -0.5730  0.0445
 6082SOL    HW129708   3.008   2.088   2.181 -1.9792 -0.8352  2.1202
 6082SOL    HW229709   2.980   2.192   2.086 -1.2025  0.1463  0.3184
 6083SOL     OW29710   3.050   1.185   9.037  0.3877  0.1555  0.0982
 6083SOL    HW129711   3.008   1.119   9.093  0.1377 -0.8097 -1.2477
 6083SOL    HW229712   3.127   1.218   9.083  0.7784 -0.0035 -0.4423
 6084SOL     OW29713   3.160   1.193   3.852  0.5022 -0.0626  0.4626
 6084SOL    HW129714   3.073   1.215   3.886  0.4251  1.3274 -0.6463
 6084SOL    HW229715   3.210   1.187   3.934  0.2704 -0.6824  0.5591
 6085SOL     OW29716   3.995   3.880   1.094 -0.4344  0.2952 -0.3100
 6085SOL    HW129717   3.996   3.935   1.015 -0.8042 -0.3660 -0.7666
 6085SOL    HW229718   3.902   3.874   1.115  0.0519  1.2601  2.1444
 6086SOL     OW29719   1.018   4.187  13.474  0.3602 -0.3974 -0.1134
 6086SOL    HW129720   0.949   4.143  13.424 -0.5428 -0.4447  1.1631
 6086SOL    HW229721   0.975   4.264  13.512  1.9759  0.7261 -0.5228
 6087SOL     OW29722   2.715   2.716  13.998 -0.6270  0.5355 -0.0267
 6087SOL    HW129723   2.808   2.703  13.984 -0.5303 -0.0466  1.1536
 6087SOL    HW229724   2.709   2.811  13.988 -0.5738  0.1913 -3.3290
 6088SOL     OW29725   2.927   1.144   3.604 -0.6868  0.0589 -0.1165
 6088SOL    HW129726   2.889   1.136   3.692  1.2326 -2.1193  0.5339
 6088SOL    HW229727   2.881   1.073   3.558 -1.7041  0.4636  0.2707
 6089SOL     OW29728   1.176   1.235   4.845  0.6628 -0.2764  0.1118
 6089SOL    HW129729   1.090   1.270   4.823  0.8409 -0.6895 -1.2519
 6089SOL    HW229730   1.178   1.252   4.939 -1.2365 -2.6560  0.6039
 6090SOL     OW29731   2.897   2.473   3.646 -0.2372  0.4855 -0.3369
 6090SOL    HW129732   2.822   2.523   3.676 -0.5176  0.4223 -0.9216
 6090SOL    HW229733   2.882   2.473   3.551 -1.4268  1.0077 -0.1475
 6091SOL     OW29734   3.978   4.296   0.943  0.2135 -0.0517 -0.6989
 6091SOL    HW129735   4.030   4.376   0.932  1.9337 -0.9032  1.2539
 6091SOL    HW229736   4.010   4.264   1.027 -0.3458  1.1772 -0.0121
 6092SOL     OW29737   4.203   3.004   2.314  0.6957 -0.0792 -0.0021
 6092SOL    HW129738   4.255   3.080   2.340  1.8004 -1.1700  0.9931
 6092SOL    HW229739   4.262   2.934   2.340 -1.7070 -2.1035  0.0359
 6093SOL     OW29740   0.066   1.487   1.211 -0.1509 -0.1257  0.5142
 6093SOL    HW129741   0.070   1.548   1.285  0.4422 -0.0343  0.4076
 6093SOL    HW229742   0.010   1.420   1.250 -0.3720  0.8010  1.7991
 6094SOL     OW29743   1.934   1.698   1.217  0.3645  0.3115 -0.5096
 6094SOL    HW129744   1.874   1.770   1.232  0.9447  0.6828  0.0504
 6094SOL    HW229745   1.901   1.658   1.137 -0.8387  1.9447 -0.8213
 6095SOL     OW29746   0.185   2.533  12.635 -0.5197 -0.7242 -0.3643
 6095SOL    HW129747   0.174   2.581  12.717  1.6754 -0.0613 -0.4505
 6095SOL    HW229748   0.239   2.460  12.665 -1.0177 -1.0274 -0.1992
 6096SOL     OW29749   0.519   1.577   3.276  0.2149 -0.0836 -0.1119
 6096SOL    HW129750   0.496   1.589   3.184  0.3351  2.2973  0.1488
 6096SOL    HW229751   0.442   1.541   3.320  0.1802  1.3687  1.0364
 6097SOL     OW29752   3.658   1.135   8.038 -0.3882 -0.1875  0.1462
 6097SOL    HW129753   3.701   1.065   8.088  0.0784 -0.9625 -1.3462
 6097SOL    HW229754   3.696   1.214   8.078 -0.2631 -0.5463  0.7443
 6098SOL     OW29755   1.541   1.611   8.545 -0.5331 -0.2102  0.3058
 6098SOL    HW129756   1.611   1.581   8.487 -1.5069 -3.8067  0.9821
 6098SOL    HW229757   1.497   1.678   8.492  0.1841 -0.0033 -0.0324
 6099SOL     OW29758   0.601   1.341  15.245  0.0414  0.1250  0.1313
 6099SOL    HW129759   0.608   1.409  15.313 -1.2153  1.2151 -0.8344
 6099SOL    HW229760   0.693   1.323  15.230 -0.4982 -1.0122 -1.6833
 6100SOL     OW29761   2.351   0.130   4.799 -0.3186 -0.3501 -0.2231
 6100SOL    HW129762   2.291   0.056   4.806 -1.0515  0.4396  1.6218
 6100SOL    HW229763   2.299   0.210   4.792  2.7040  1.7440  1.1122
 6101SOL     OW29764   4.369   3.913   5.604 -0.6205 -0.3007 -0.1962
 6101SOL    HW129765   4.317   3.967   5.546 -0.0635  0.3458 -0.0865
 6101SOL    HW229766   4.328   3.934   5.688 -0.3530  2.1180 -0.6943
 6102SOL     OW29767   3.677   1.131   0.691 -0.0826 -0.5035 -0.0006
 6102SOL    HW129768   3.625   1.178   0.757  2.3410  0.8184  0.9605
 6102SOL    HW229769   3.666   1.189   0.615 -0.9135 -1.6761 -0.7719
 6103SOL     OW29770   0.106   2.126  17.027 -0.0399 -0.0569  0.1324
 6103SOL    HW129771   0.121   2.194  16.960 -2.0803  0.7950  0.5188
 6103SOL    HW229772   0.194   2.118  17.064 -0.2068  0.1293  0.5748
 6104SOL     OW29773   3.191   2.567  17.598 -0.2171  0.2595  0.0368
 6104SOL    HW129774   3.203   2.490  17.542 -0.4740 -0.1399  0.5225
 6104SOL    HW229775   3.219   2.529  17.682 -2.9862  1.4850  1.4919
 6105SOL     OW29776   2.203   0.005   2.715 -0.3699 -0.5958 -0.2595
 6105SOL    HW129777   2.236   0.048   2.636  0.0113  1.4719  1.0461
 6105SOL    HW229778   2.108   0.013   2.709 -0.5547 -1.4316  1.3905
 6106SOL     OW29779   3.429   3.458   7.192 -0.0121 -0.3082  0.2736
 6106SOL    HW129780   3.491   3.395   7.154  1.2434  0.1321  1.5777
 6106SOL    HW229781   3.412   3.520   7.121  1.2014 -1.4346 -1.0081
 6107SOL     OW29782   0.181   1.373   1.589 -0.4107 -0.6308 -0.0142
 6107SOL    HW129783   0.266   1.336   1.614 -0.3173 -0.5833 -0.2665
 6107SOL    HW229784   0.152   1.410   1.673 -1.0219 -0.3254 -0.3648
 6108SOL     OW29785   4.589   4.597   0.518 -0.2693  0.4957 -0.0977
 6108SOL    HW129786   4.611   4.529   0.454  1.3325  2.5902 -1.7558
 6108SOL    HW229787   4.675   4.610   0.559 -2.0862 -0.1144  3.9084
 6109SOL     OW29788   0.503   0.583   2.323 -0.0640 -0.0694  0.1704
 6109SOL    HW129789   0.540   0.608   2.407  1.2435 -1.3971  0.0038
 6109SOL    HW229790   0.419   0.628   2.322  0.2549  0.5428  1.9075
 6110SOL     OW29791   4.387   2.693  16.747 -0.3264  0.3797  0.2431
 6110SOL    HW129792   4.379   2.769  16.804 -0.9487 -0.9690  1.9751
 6110SOL    HW229793   4.463   2.652  16.788 -2.1019 -1.0880  2.1102
 6111SOL     OW29794   2.844   3.163   8.053  0.1039  0.5164 -0.3145
 6111SOL    HW129795   2.782   3.108   8.100 -0.4557  0.1356 -1.4969
 6111SOL    HW229796   2.790   3.204   7.985  0.4013 -0.8551 -1.3706
 6112SOL     OW29797   4.229   2.360   6.271  0.3950  0.0473 -0.0002
 6112SOL    HW129798   4.261   2.306   6.344  0.4930  1.8780  1.3269
 6112SOL    HW229799   4.153   2.399   6.314  0.8751 -0.4934  1.3345
 6113SOL     OW29800   1.784   4.218   7.582 -0.7109  0.3136 -0.1473
 6113SOL    HW129801   1.821   4.149   7.527  1.0989 -0.1118  1.6374
 6113SOL    HW229802   1.836   4.290   7.546 -1.0122  0.3157 -0.5782
 6114SOL     OW29803   4.465   2.231   8.116  0.7261  0.3151  0.4068
 6114SOL    HW129804   4.540   2.239   8.175  0.3069 -1.1606  1.1128
 6114SOL    HW229805   4.411   2.308   8.133  1.0976  0.6261  0.1835
 6115SOL     OW29806   3.340   3.711  15.537 -0.0473 -0.2093  0.0082
 6115SOL    HW129807   3.268   3.669  15.584  0.1507  0.2858  0.7488
 6115SOL    HW229808   3.396   3.696  15.613 -0.7092 -1.0185  0.3382
 6116SOL     OW29809   0.185   4.621   4.060  0.7492 -0.1167 -0.1310
 6116SOL    HW129810   0.215   4.711   4.049  1.5451 -0.4703 -0.8968
 6116SOL    HW229811   0.270   4.577   4.062  0.7619 -0.0320  1.8378
 6117SOL     OW29812   0.625   3.907   8.131 -0.7198 -0.0314  0.2005
 6117SOL    HW129813   0.590   3.952   8.055 -2.1178 -1.5151 -0.0491
 6117SOL    HW229814   0.614   3.973   8.199 -0.2779  1.3121 -1.0492
 6118SOL     OW29815   2.997   1.403   2.349 -0.1222  0.3346  0.6123
 6118SOL    HW129816   3.074   1.434   2.397  1.1521  0.6995 -1.6573
 6118SOL    HW229817   2.999   1.313   2.383 -1.0569 -0.6198 -1.8751
 6119SOL     OW29818   3.651   3.778   3.807 -0.3124  0.3645 -0.0380
 6119SOL    HW129819   3.639   3.863   3.765 -2.0488  0.7396  1.2307
 6119SOL    HW229820   3.687   3.808   3.891  0.5973  0.1357 -0.3400
 6120SOL     OW29821   2.826   4.028   7.108  0.0814 -0.1385 -0.5547
 6120SOL    HW129822   2.773   3.951   7.127 -3.1188  2.1138 -0.2788
 6120SOL    HW229823   2.762   4.098   7.121 -2.3566 -2.6707  1.1483
 6121SOL     OW29824   4.584   2.886   8.484  0.9951 -0.9525  0.3367
 6121SOL    HW129825   4.675   2.857   8.478  1.9405  1.8304  1.3862
 6121SOL    HW229826   4.593   2.981   8.480  0.2792 -0.8227  1.8161
 6122SOL     OW29827   4.100   3.693   5.910  0.0723 -0.1044  0.3726
 6122SOL    HW129828   4.007   3.705   5.928 -0.2457 -1.1029 -0.5760
 6122SOL    HW229829   4.098   3.675   5.816 -0.7049  0.5459  0.2651
 6123SOL     OW29830   4.354   1.650   7.563 -0.2484 -0.5904  0.3921
 6123SOL    HW129831   4.437   1.698   7.562  0.6176 -2.0575  1.6861
 6123SOL    HW229832   4.351   1.638   7.658 -1.0617 -1.8453  0.1998
 6124SOL     OW29833   2.013   3.465  13.581  0.0146 -0.1657  0.2402
 6124SOL    HW129834   2.050   3.470  13.669  0.5721  0.1196 -0.0105
 6124SOL    HW229835   1.924   3.489  13.606  0.2269  1.2859 -0.3654
 6125SOL     OW29836   3.059   1.698   5.139 -0.2515  0.1092  0.0339
 6125SOL    HW129837   3.103   1.692   5.054  2.8467  2.0040  1.4784
 6125SOL    HW229838   3.105   1.630   5.189 -0.0766  0.2837  0.1114
 6126SOL     OW29839   4.114   1.122   3.249 -0.2044 -0.2787  0.0402
 6126SOL    HW129840   4.194   1.102   3.298  0.6872 -0.0313 -1.3015
 6126SOL    HW229841   4.147   1.157   3.167 -0.4620  0.2153  0.1471
 6127SOL     OW29842   3.974   4.461   6.046 -0.1780 -0.6610  0.0261
 6127SOL    HW129843   3.923   4.450   6.127  0.9168  0.7269  0.9149
 6127SOL    HW229844   4.008   4.372   6.046  1.9145  0.1413  0.4634
 6128SOL     OW29845   1.677   2.258   1.041 -0.7765 -0.1619 -0.2182
 6128SOL    HW129846   1.737   2.332   1.042  0.4714 -1.1866 -0.1399
 6128SOL    HW229847   1.746   2.194   1.024  1.2188  1.6264  1.2934
 6129SOL     OW29848   2.181   1.446   3.871  0.3407  0.8152  0.0977
 6129SOL    HW129849   2.258   1.449   3.927  1.2410 -2.3119 -0.9933
 6129SOL    HW229850   2.119   1.496   3.926 -1.4018  1.1280 -2.1557
 6130SOL     OW29851   0.130   0.444   3.773  0.1879  0.0741  0.6201
 6130SOL    HW129852   0.149   0.392   3.852 -1.1917  1.5409  1.9038
 6130SOL    HW229853   0.077   0.513   3.812  1.4665  0.3134  1.9436
 6131SOL     OW29854   1.489   1.290   8.144 -0.5684 -0.2169  0.1557
 6131SOL    HW129855   1.419   1.274   8.208  0.8900  0.6011  1.9703
 6131SOL    HW229856   1.441   1.292   8.062  1.9854  0.8530 -1.3126
 6132SOL     OW29857   3.235   1.921   4.181  0.3008  0.0485  0.4329
 6132SOL    HW129858   3.227   1.854   4.113 -1.4456 -0.3259  1.0049
 6132SOL    HW229859   3.220   2.005   4.136 -0.9966 -1.1852 -1.4212
 6133SOL     OW29860   2.515   1.355   7.937  0.1713 -0.4352 -0.4237
 6133SOL    HW129861   2.509   1.260   7.929  2.1199 -0.4978 -1.1217
 6133SOL    HW229862   2.424   1.383   7.925  0.4897  0.6105 -0.3854
 6134SOL     OW29863   2.213   0.198   8.714 -1.0317  0.2169  0.1527
 6134SOL    HW129864   2.167   0.172   8.634  0.8588 -0.6954 -0.6422
 6134SOL    HW229865   2.142   0.233   8.767 -0.6541  0.4393  0.5116
 6135SOL     OW29866   0.396   0.990   1.118  0.4072  0.5541 -0.6765
 6135SOL    HW129867   0.324   1.024   1.064 -0.6984 -3.7707 -1.9028
 6135SOL    HW229868   0.449   0.947   1.050 -0.8823 -1.1878 -0.5665
 6136SOL     OW29869   3.971   4.583   8.476  0.1440 -0.4696 -0.1035
 6136SOL    HW129870   3.997   4.491   8.469 -0.9925 -0.9183  1.6175
 6136SOL    HW229871   4.034   4.622   8.536 -1.1112 -0.4433  1.2007
 6137SOL     OW29872   4.489   1.031  11.736  0.3813 -0.6013  0.1153
 6137SOL    HW129873   4.555   1.054  11.671  0.5148 -1.0363  0.0992
 6137SOL    HW229874   4.528   0.959  11.785 -0.2638 -3.1138 -2.9892
 6138SOL     OW29875   2.599   0.904  14.250  0.2920 -0.0941  0.4710
 6138SOL    HW129876   2.639   0.916  14.336  0.1325 -0.6305  0.6180
 6138SOL    HW229877   2.513   0.939  14.276 -0.0748 -1.6367  1.3107
 6139SOL     OW29878   0.174   4.045   1.171  0.5865  0.4636 -0.4178
 6139SOL    HW129879   0.235   4.114   1.197 -1.3454  0.9019  3.0414
 6139SOL    HW229880   0.141   4.085   1.091 -1.7634 -1.5779 -0.4613
 6140SOL     OW29881   1.009   0.390  12.734  0.4066 -0.4251  0.0107
 6140SOL    HW129882   0.984   0.457  12.798 -1.0958  0.6758 -1.7383
 6140SOL    HW229883   1.027   0.319  12.796  1.5539 -0.8297 -0.7765
 6141SOL     OW29884   1.012   0.542  15.284  0.6968  0.5605  0.1873
 6141SOL    HW129885   1.042   0.538  15.193 -2.2031 -1.7268 -0.6813
 6141SOL    HW229886   0.971   0.627  15.298  0.9100  0.2993  2.4104
 6142SOL     OW29887   0.783   2.523   3.536 -0.0558  0.3125 -0.0473
 6142SOL    HW129888   0.855   2.543   3.596  0.6107 -1.6745 -0.2048
 6142SOL    HW229889   0.770   2.435   3.569  0.3576  0.0351 -0.6274
 6143SOL     OW29890   3.305   3.353   2.820  0.1558 -0.0955 -0.2882
 6143SOL    HW129891   3.223   3.341   2.867  0.1744  0.4768 -0.1026
 6143SOL    HW229892   3.297   3.280   2.760  0.9220  1.6406 -2.4881
 6144SOL     OW29893   2.281   2.709   9.097 -0.5795  0.5447  0.2729
 6144SOL    HW129894   2.244   2.707   9.185 -0.5205  1.2792  0.3172
 6144SOL    HW229895   2.372   2.691   9.118 -0.2073  2.1700  0.0115
 6145SOL     OW29896   3.304   0.276   3.919  0.1096  0.4352 -0.0600
 6145SOL    HW129897   3.387   0.228   3.919  0.8021  1.6144  0.4232
 6145SOL    HW229898   3.296   0.308   4.009  1.1460 -1.8074  0.8494
 6146SOL     OW29899   2.286   2.293   4.900  0.2237 -0.6082  0.1556
 6146SOL    HW129900   2.280   2.322   4.809  1.5231 -2.9479 -0.6581
 6146SOL    HW229901   2.201   2.251   4.913  0.8505 -1.0933  2.7945
 6147SOL     OW29902   3.629   4.309   2.771 -0.5840 -0.1444  0.2154
 6147SOL    HW129903   3.709   4.354   2.798 -0.8408  1.5427 -1.8363
 6147SOL    HW229904   3.649   4.282   2.681  0.1928  1.3854 -0.0779
 6148SOL     OW29905   2.298   0.918  15.184  0.6166 -0.8738 -0.6546
 6148SOL    HW129906   2.240   0.869  15.126 -1.0479  0.8223 -0.4466
 6148SOL    HW229907   2.364   0.952  15.123  0.1306 -0.3216 -0.8817
 6149SOL     OW29908   0.836   2.726  11.234  0.6598 -0.3944  0.0828
 6149SOL    HW129909   0.864   2.697  11.321  0.9373  1.6380  0.6627
 6149SOL    HW229910   0.802   2.639  11.215 -1.2972  1.0770 -3.0798
 6150SOL     OW29911   0.292   0.351   7.899 -0.2888 -0.1683 -0.5781
 6150SOL    HW129912   0.363   0.416   7.904  0.7309 -1.2317 -1.2018
 6150SOL    HW229913   0.284   0.326   7.991 -0.6217  0.5381 -0.4115
 6151SOL     OW29914   0.764   3.462   8.846  0.2900  0.2241 -0.3863
 6151SOL    HW129915   0.849   3.430   8.875 -0.5810 -0.9838  0.7977
 6151SOL    HW229916   0.741   3.508   8.927 -0.1500 -0.7448  0.0395
 6152SOL     OW29917   4.385   3.146   7.748 -0.1667  0.4215  0.2024
 6152SOL    HW129918   4.438   3.187   7.679  0.6695  1.1033  1.2612
 6152SOL    HW229919   4.397   3.207   7.821  2.2878  0.0286  0.1148
 6153SOL     OW29920   4.568   4.229   6.456 -0.0756  0.4567 -0.0478
 6153SOL    HW129921   4.475   4.220   6.436  0.4071  2.3599 -3.0856
 6153SOL    HW229922   4.579   4.319   6.424 -0.4173  0.4687 -0.1297
 6154SOL     OW29923   2.890   4.679   9.456 -0.2585 -0.1092 -0.1621
 6154SOL    HW129924   2.884   0.048   9.466  0.9024 -0.0113 -0.3622
 6154SOL    HW229925   2.943   4.680   9.376  0.9578  1.8647  0.6637
 6155SOL     OW29926   2.955   4.072   8.068  0.2601 -0.4776 -0.0640
 6155SOL    HW129927   3.007   4.134   8.118 -0.0446  0.2140 -0.6058
 6155SOL    HW229928   3.013   3.996   8.057  1.6487  0.7726 -1.3702
 6156SOL     OW29929   4.692   1.329   6.602  0.4932 -0.1751 -0.2932
 6156SOL    HW129930   4.675   1.257   6.541  1.8391 -0.1289 -0.7332
 6156SOL    HW229931   4.659   1.409   6.559 -3.0895 -1.4957  0.0043
 6157SOL     OW29932   0.190   1.013   2.889  0.6056 -0.6486  0.4050
 6157SOL    HW129933   0.281   0.993   2.871  0.3279  0.1101 -1.7763
 6157SOL    HW229934   0.171   1.066   2.812 -0.0128 -2.5645 -0.7529
 6158SOL     OW29935   2.218   3.779   9.823 -0.2780  0.7684  0.3121
 6158SOL    HW129936   2.309   3.797   9.847 -0.0892  1.8735 -1.3088
 6158SOL    HW229937   2.177   3.784   9.909 -1.1343  0.8436 -0.1046
 6159SOL     OW29938   1.440   3.824   1.005 -0.2564  0.2211 -0.0165
 6159SOL    HW129939   1.382   3.771   0.950 -0.7473  0.6472  0.0871
 6159SOL    HW229940   1.395   3.908   0.995  0.0640  0.4584  0.5537
 6160SOL     OW29941   2.499   0.474  10.997  0.0754 -0.7196  0.0546
 6160SOL    HW129942   2.427   0.451  11.056 -2.1486  1.1402 -1.9153
 6160SOL    HW229943   2.565   0.503  11.060 -0.6664  0.3866  0.3177
 6161SOL     OW29944   2.250   1.431   0.782 -0.1222 -0.3896 -0.0455
 6161SOL    HW129945   2.239   1.337   0.792 -2.5371 -0.1587 -0.7694
 6161SOL    HW229946   2.345   1.447   0.788 -0.4407  1.8680 -0.8208
 6162SOL     OW29947   2.245   2.731   2.062 -0.3863  0.5973  0.3273
 6162SOL    HW129948   2.265   2.720   2.155 -1.6424 -1.5238  0.3613
 6162SOL    HW229949   2.204   2.817   2.058 -1.1250  0.1304 -1.7464
 6163SOL     OW29950   1.551   1.487   5.204  0.5417  0.6655 -0.2560
 6163SOL    HW129951   1.642   1.477   5.232  0.1122  3.0488  2.0521
 6163SOL    HW229952   1.558   1.513   5.112 -1.2020  1.0958 -0.2714
 6164SOL     OW29953   0.591   0.996   7.164  0.0696  0.6650 -0.1849
 6164SOL    HW129954   0.596   0.902   7.185 -1.4305  0.3664 -1.1861
 6164SOL    HW229955   0.497   0.996   7.183  0.0435 -0.7842 -0.3028
 6165SOL     OW29956   3.753   2.618  12.809  0.5053 -0.7896  0.1173
 6165SOL    HW129957   3.802   2.688  12.853 -0.7312 -0.1082  0.3961
 6165SOL    HW229958   3.672   2.624  12.858 -0.8651 -1.0351 -2.1348
 6166SOL     OW29959   3.810   2.749  16.205  0.1526 -0.0856  0.5547
 6166SOL    HW129960   3.776   2.824  16.155  1.3960 -1.3106 -2.1528
 6166SOL    HW229961   3.891   2.789  16.239  0.6953 -1.3602  0.7422
 6167SOL     OW29962   4.209   3.253   8.219  0.5496  0.4671  0.2820
 6167SOL    HW129963   4.241   3.315   8.284  0.8420  0.8165 -0.1884
 6167SOL    HW229964   4.257   3.171   8.230 -3.9311 -2.1234  0.2134
 6168SOL     OW29965   3.057   2.473  10.215  0.3359  0.0551  0.1764
 6168SOL    HW129966   3.092   2.387  10.238  0.1002  0.4469  2.0139
 6168SOL    HW229967   3.127   2.532  10.243  1.1803 -0.5688 -0.6227
 6169SOL     OW29968   3.982   1.267  16.354 -0.0154 -0.5567 -0.8120
 6169SOL    HW129969   3.989   1.270  16.259 -2.1440 -0.0048 -0.9506
 6169SOL    HW229970   3.963   1.176  16.378 -0.0892 -0.0484  1.0406
 6170SOL     OW29971   0.954   3.772   5.261 -0.0118  0.7395 -0.1529
 6170SOL    HW129972   0.930   3.695   5.210  1.7636 -0.5034  0.9245
 6170SOL    HW229973   1.030   3.800   5.210  0.1493  0.6348  0.0350
 6171SOL     OW29974   2.031   2.578  12.423 -0.4210 -0.3119 -0.6460
 6171SOL    HW129975   2.067   2.646  12.481 -1.1377  1.0128 -1.7714
 6171SOL    HW229976   2.110   2.536  12.389 -1.1844  0.0561 -2.8606
 6172SOL     OW29977   1.887   2.138   3.392 -0.2600 -0.2033 -0.1052
 6172SOL    HW129978   1.894   2.142   3.297  0.9451 -2.4448 -0.1183
 6172SOL    HW229979   1.956   2.197   3.422 -0.1956  0.3633 -1.3512
 6173SOL     OW29980   2.556   1.053   7.049  0.1170  0.2058  0.2531
 6173SOL    HW129981   2.565   1.015   7.137  0.1600  0.2998  0.2899
 6173SOL    HW229982   2.481   1.003   7.018  0.8101  0.4609 -1.8464
 6174SOL     OW29983   0.289   0.584   9.818 -0.0442 -0.5155  0.5834
 6174SOL    HW129984   0.297   0.674   9.785  0.7870 -0.1471  1.7646
 6174SOL    HW229985   0.226   0.552   9.754 -0.0787  1.2930 -0.2903
 6175SOL     OW29986   2.028   1.388  10.427  0.2065  0.0386 -0.1235
 6175SOL    HW129987   1.973   1.352  10.497  0.9968  0.2328  0.5848
 6175SOL    HW229988   1.958   1.435  10.381  0.1578 -0.8067 -0.8963
 6176SOL     OW29989   0.599   2.902   7.405 -0.2990 -0.5620  0.4767
 6176SOL    HW129990   0.601   2.979   7.349  0.0251 -1.0783 -0.2180
 6176SOL    HW229991   0.507   2.900   7.432 -0.3164  1.7072  0.6096
 6177SOL     OW29992   0.017   4.488   7.785  0.7404 -0.1238  0.6668
 6177SOL    HW129993   0.111   4.490   7.802  0.5750 -0.3920  1.5618
 6177SOL    HW229994   0.005   4.407   7.736 -1.2854  0.3612  0.3758
 6178SOL     OW29995   1.669   1.244   4.662 -0.3738  0.2358  0.0444
 6178SOL    HW129996   1.716   1.313   4.615 -0.3116  0.5257  0.5387
 6178SOL    HW229997   1.717   1.226   4.742 -3.0377 -2.9736  0.9221
 6179SOL     OW29998   0.787   3.954   3.083 -0.1291 -0.0363 -0.6144
 6179SOL    HW129999   0.765   4.036   3.126  1.1547 -0.9307  1.7805
 6179SOL    HW230000   0.704   3.931   3.041  0.4768 -2.8226 -0.3119
 6180SOL     OW30001   0.770   1.830  16.769 -0.3024  0.4002  0.2262
 6180SOL    HW130002   0.708   1.858  16.702  0.0989 -0.2868 -0.4291
 6180SOL    HW230003   0.774   1.891  16.843  2.5662  0.8135 -0.2847
 6181SOL     OW30004   2.109   3.047   2.764  0.3351 -0.2847  0.4782
 6181SOL    HW130005   2.058   2.975   2.802 -0.7565  2.1286  3.4893
 6181SOL    HW230006   2.150   3.098   2.834  1.0991  0.1657 -0.2950
 6182SOL     OW30007   3.393   3.044   5.165  0.6460 -0.0220  0.5670
 6182SOL    HW130008   3.386   3.134   5.133  1.5521 -0.6938 -1.5307
 6182SOL    HW230009   3.454   3.020   5.096  0.4376  0.5093  0.1962
 6183SOL     OW30010   2.337   1.395  10.475  0.8492 -0.2364  0.3312
 6183SOL    HW130011   2.245   1.384  10.452  0.9864 -0.3459 -0.1755
 6183SOL    HW230012   2.373   1.445  10.402  0.5386 -0.9500 -0.3094
 6184SOL     OW30013   1.199   4.715   6.132  0.2812 -0.2763  0.2309
 6184SOL    HW130014   1.237   0.003   6.219  0.7867  0.9706 -0.2000
 6184SOL    HW230015   1.271   4.681   6.080 -1.7648 -1.6224 -1.7299
 6185SOL     OW30016   2.035   0.453   5.012  0.5325  0.5981 -0.3450
 6185SOL    HW130017   2.036   0.501   5.095  2.7660 -0.5769  0.2971
 6185SOL    HW230018   2.048   0.522   4.947  0.5047  1.1960  0.2806
 6186SOL     OW30019   4.075   1.130   4.254  0.3459  0.4758  0.9227
 6186SOL    HW130020   4.084   1.073   4.178 -1.9012  2.0609 -0.5432
 6186SOL    HW230021   4.074   1.066   4.324 -0.4945  0.1926  0.6487
 6187SOL     OW30022   3.343   3.344   9.046  0.3322 -0.2351 -0.1901
 6187SOL    HW130023   3.428   3.370   9.080  0.9202  1.6432 -3.1730
 6187SOL    HW230024   3.358   3.267   8.991 -2.3472 -1.5226  0.8760
 6188SOL     OW30025   2.912   4.236   8.447 -0.0928  0.5890  0.2353
 6188SOL    HW130026   2.904   4.309   8.386 -0.6313  0.5091  0.2100
 6188SOL    HW230027   3.005   4.216   8.438 -0.1129  0.0299  1.2263
 6189SOL     OW30028   4.219   1.919   5.640 -0.2221  0.1834 -0.1241
 6189SOL    HW130029   4.220   1.889   5.731  0.9599  0.7950  0.0674
 6189SOL    HW230030   4.237   2.011   5.662  1.9241  0.1748 -1.8254
 6190SOL     OW30031   2.902   3.900  17.075 -0.3943  0.1304 -0.2356
 6190SOL    HW130032   2.912   3.872  17.166  2.4960  0.9003 -0.2992
 6190SOL    HW230033   2.808   3.905  17.057 -0.7548  0.0509  1.6326
 6191SOL     OW30034   1.540   1.572   3.074 -0.3169 -0.5072  0.0518
 6191SOL    HW130035   1.551   1.482   3.102  0.6010 -0.4022  0.0244
 6191SOL    HW230036   1.450   1.583   3.043 -0.3462  1.2773  0.7617
 6192SOL     OW30037   1.224   0.150  11.255 -0.5069  0.8455  0.2893
 6192SOL    HW130038   1.155   0.118  11.198 -1.4286  0.0117  1.8662
 6192SOL    HW230039   1.289   0.168  11.187 -0.7130 -0.5625 -0.2637
 6193SOL     OW30040   3.944   1.357   6.953  0.6484 -0.1231  0.2075
 6193SOL    HW130041   3.940   1.371   7.047  1.0810  0.0835  0.1995
 6193SOL    HW230042   3.878   1.418   6.921 -0.2570 -0.4334  1.5019
 6194SOL     OW30043   1.725   0.434   7.012 -0.4319  0.7601 -0.3077
 6194SOL    HW130044   1.645   0.392   6.980  0.5093 -0.6044 -0.8608
 6194SOL    HW230045   1.768   0.371   7.071 -1.5270 -0.0367 -0.3591
 6195SOL     OW30046   0.840   1.897   0.999 -0.4626  0.2857 -0.6234
 6195SOL    HW130047   0.886   1.840   1.061 -1.9831  0.7377  0.9242
 6195SOL    HW230048   0.767   1.838   0.981 -0.2080  0.0443 -0.8635
 6196SOL     OW30049   3.225   4.524  11.122  0.2230  0.0973 -0.2418
 6196SOL    HW130050   3.240   4.525  11.216 -0.4737  0.5049 -0.1366
 6196SOL    HW230051   3.189   4.436  11.107  1.4832 -0.7600  1.7099
 6197SOL     OW30052   0.314   1.807  10.199 -0.0177 -0.4108 -0.2366
 6197SOL    HW130053   0.316   1.712  10.210  0.0815 -0.4339 -0.4421
 6197SOL    HW230054   0.243   1.818  10.135 -0.1181 -0.1755 -0.0855
 6198SOL     OW30055   4.238   1.949   1.102  0.0585  0.1312  0.2780
 6198SOL    HW130056   4.156   1.948   1.053  1.2083  0.0862 -1.6840
 6198SOL    HW230057   4.242   2.043   1.121 -1.6683  0.1986  0.2580
 6199SOL     OW30058   1.467   1.930   7.851 -0.4706  0.4002 -0.5622
 6199SOL    HW130059   1.552   1.954   7.888 -1.1456 -0.2608  1.4258
 6199SOL    HW230060   1.475   1.949   7.758  2.3477 -2.2537 -0.8380
 6200SOL     OW30061   4.648   0.746  13.808  0.4005  0.2338  0.0685
 6200SOL    HW130062   4.696   0.738  13.726 -0.8170  0.6965 -0.6856
 6200SOL    HW230063   4.721   0.744  13.870 -2.3031  0.3726  3.2730
 6201SOL     OW30064   4.096   1.095   1.179 -0.3283 -0.4303  0.1896
 6201SOL    HW130065   4.067   1.012   1.217 -3.7454 -0.7062 -3.0300
 6201SOL    HW230066   4.086   1.159   1.249 -0.4229 -0.5014  0.2389
 6202SOL     OW30067   1.354   2.788  14.310  0.2041  0.2740  0.6927
 6202SOL    HW130068   1.315   2.726  14.372  0.1069  1.6732  2.0131
 6202SOL    HW230069   1.379   2.748  14.227  2.5953 -2.0577  2.5210
 6203SOL     OW30070   0.499   2.968   2.728 -0.2337  0.2378  0.1114
 6203SOL    HW130071   0.542   2.952   2.644 -2.4952 -1.2100 -0.7858
 6203SOL    HW230072   0.540   2.897   2.778  0.7144  1.4024  0.9716
 6204SOL     OW30073   1.479   2.876   5.616 -0.4721  0.2097 -0.0161
 6204SOL    HW130074   1.460   2.783   5.629  1.7466 -0.1187  0.9054
 6204SOL    HW230075   1.483   2.881   5.521  0.0471  1.2493  0.0621
 6205SOL     OW30076   0.132   0.297   4.020 -0.4350  0.8560 -0.0698
 6205SOL    HW130077   0.059   0.238   4.038 -0.8070  1.2830 -0.1751
 6205SOL    HW230078   0.164   0.309   4.110 -1.5735  0.1189  0.4334
 6206SOL     OW30079   4.423   1.436   4.215 -0.0902 -0.3846 -0.6064
 6206SOL    HW130080   4.471   1.519   4.213 -0.9654  0.0969 -1.5905
 6206SOL    HW230081   4.410   1.424   4.121  0.4422 -0.1037 -0.7176
 6207SOL     OW30082   2.888   3.270   6.169 -0.0041 -0.0095 -0.1154
 6207SOL    HW130083   2.970   3.258   6.217  0.1358 -1.6745 -0.7520
 6207SOL    HW230084   2.918   3.322   6.095  0.4254 -1.6033 -1.0787
 6208SOL     OW30085   3.196   0.777   9.870  0.5796 -0.2391  0.4790
 6208SOL    HW130086   3.255   0.834   9.819 -1.1826 -0.2276 -1.5219
 6208SOL    HW230087   3.116   0.829   9.868  1.2619  0.7199 -1.8475
 6209SOL     OW30088   2.653   0.399   7.502 -0.1147 -0.0715  0.1747
 6209SOL    HW130089   2.637   0.415   7.595  0.9138  2.3917 -0.0566
 6209SOL    HW230090   2.723   0.335   7.494  0.6139  0.6537  0.6749
 6210SOL     OW30091   3.244   1.945  10.802 -0.1259 -0.7323 -0.3737
 6210SOL    HW130092   3.195   1.887  10.861  0.3334 -1.7681 -1.0060
 6210SOL    HW230093   3.324   1.963  10.852  0.6171  0.5411 -2.0436
 6211SOL     OW30094   3.642   1.566   1.931  0.5597 -0.2078 -0.4920
 6211SOL    HW130095   3.696   1.487   1.934 -1.6580 -1.6788  0.0053
 6211SOL    HW230096   3.595   1.546   1.850 -0.2605 -1.5492  0.3192
 6212SOL     OW30097   0.946   1.928   5.409 -0.1335  0.3488  0.1121
 6212SOL    HW130098   0.918   1.858   5.468 -1.3990  0.8067  0.0722
 6212SOL    HW230099   0.866   1.955   5.363  0.2014 -0.7478 -1.1199
 6213SOL     OW30100   1.017   3.013   5.429 -0.1174 -0.3832 -0.1693
 6213SOL    HW130101   0.985   2.983   5.514  0.7989 -2.3405 -0.5264
 6213SOL    HW230102   1.074   2.942   5.401 -0.0439 -2.0607  4.2687
 6214SOL     OW30103   1.793   1.034   5.852  0.1061  0.0817  0.0592
 6214SOL    HW130104   1.703   1.016   5.880  0.1727  2.5964  1.9073
 6214SOL    HW230105   1.833   0.981   5.922  1.3595  2.9678  1.5424
 6215SOL     OW30106   1.226   1.167   6.834  0.0830 -0.0077  0.3546
 6215SOL    HW130107   1.215   1.134   6.745 -0.1530 -2.0512  1.1535
 6215SOL    HW230108   1.184   1.093   6.878  1.7613 -0.5470  1.0357
 6216SOL     OW30109   2.073   2.566   5.963 -0.5791  0.0703  0.5362
 6216SOL    HW130110   2.157   2.523   5.978  0.2743  1.8127  0.7488
 6216SOL    HW230111   2.096   2.659   5.961  0.6605 -0.2228  1.3494
 6217SOL     OW30112   1.161   3.427   7.310 -0.5284  0.1839  0.4332
 6217SOL    HW130113   1.163   3.378   7.228  0.2898  1.1881 -0.1415
 6217SOL    HW230114   1.210   3.370   7.370  0.7568 -0.6884 -1.4373
 6218SOL     OW30115   3.239   1.453   4.803 -0.1573  0.0685  0.5297
 6218SOL    HW130116   3.160   1.415   4.841 -0.7142  1.3255  0.6238
 6218SOL    HW230117   3.281   1.481   4.884 -0.5568  0.3312  0.6428
 6219SOL     OW30118   2.684   2.164   6.110  0.4745 -0.5384 -0.5633
 6219SOL    HW130119   2.748   2.119   6.055  0.2477 -1.2352 -0.2689
 6219SOL    HW230120   2.674   2.250   6.070 -1.9115 -0.8552 -0.6552
 6220SOL     OW30121   1.206   1.311   6.050  0.7834 -0.4746  0.2141
 6220SOL    HW130122   1.201   1.243   6.117 -2.6592 -2.3203 -1.8821
 6220SOL    HW230123   1.280   1.275   6.002  0.1799 -4.0294  2.0010
 6221SOL     OW30124   4.500   2.620   7.113 -0.0101 -0.1526 -0.2268
 6221SOL    HW130125   4.566   2.552   7.097  1.5094  1.0083  1.1151
 6221SOL    HW230126   4.467   2.594   7.199  1.4692 -0.4657  0.2541
 6222SOL     OW30127   0.970   4.300  17.569  0.4997  0.4652 -0.4944
 6222SOL    HW130128   0.942   4.391  17.583 -3.3044 -0.9015  0.6427
 6222SOL    HW230129   1.036   4.301  17.639 -1.4828  0.4674  1.3851
 6223SOL     OW30130   0.807   3.999   8.486 -0.1829  0.1343 -0.3202
 6223SOL    HW130131   0.759   3.948   8.551 -2.1488  4.0619  1.3207
 6223SOL    HW230132   0.880   3.938   8.478  0.2122  0.4057  1.2767
 6224SOL     OW30133   0.013   0.482  13.593  0.0985 -0.5057 -0.3065
 6224SOL    HW130134   0.036   0.412  13.531 -0.8256 -0.8848 -0.2315
 6224SOL    HW230135   4.644   0.475  13.585 -0.2878  1.9252  2.1601
 6225SOL     OW30136   3.338   4.041   0.678 -0.1918 -0.4490  0.2272
 6225SOL    HW130137   3.370   4.099   0.747 -0.2006 -0.6615  0.4075
 6225SOL    HW230138   3.391   3.963   0.694  2.7465  1.4124 -0.4267
 6226SOL     OW30139   3.191   4.175   8.851 -0.1258  0.6331  0.1117
 6226SOL    HW130140   3.133   4.100   8.835  0.8651  0.9366 -4.8965
 6226SOL    HW230141   3.277   4.136   8.833 -0.1626  0.2052  0.8373
 6227SOL     OW30142   0.004   3.223  15.837  0.4821  0.6200 -0.0789
 6227SOL    HW130143   0.029   3.313  15.857 -1.3588  1.0795  0.1206
 6227SOL    HW230144   0.027   3.186  15.923  2.5569  2.9352  0.3699
 6228SOL     OW30145   2.183   3.739  13.755  0.5370  0.3946 -0.5081
 6228SOL    HW130146   2.129   3.772  13.826  0.7497 -1.0636  0.3378
 6228SOL    HW230147   2.265   3.741  13.804 -0.5348 -0.9579  1.3479
 6229SOL     OW30148   0.118   1.883   5.962 -0.6171  0.2860 -0.9003
 6229SOL    HW130149   0.154   1.853   6.045  1.3095  0.8977 -1.5005
 6229SOL    HW230150   0.144   1.975   5.952  0.3390 -0.1010 -2.0898
 6230SOL     OW30151   3.101   4.174   6.800 -0.5735  0.1741  0.1416
 6230SOL    HW130152   3.102   4.259   6.758 -0.5320 -0.1038 -0.4141
 6230SOL    HW230153   3.037   4.133   6.743 -0.0464 -3.1008  1.8847
 6231SOL     OW30154   1.730   4.641   9.306 -0.3265 -0.4589  0.6149
 6231SOL    HW130155   1.744   4.614   9.397  0.9621  1.2312  0.9218
 6231SOL    HW230156   1.812   4.690   9.310 -0.9782  0.7191 -0.3344
 6232SOL     OW30157   2.006   3.310  16.874 -0.0835  0.1378  0.3231
 6232SOL    HW130158   1.956   3.374  16.823 -0.5900  1.1584  2.0995
 6232SOL    HW230159   2.044   3.262  16.800  1.0759  0.5627  0.6478
 6233SOL     OW30160   3.874   3.811   1.986  0.2867 -0.4829 -0.0828
 6233SOL    HW130161   3.809   3.760   2.036 -1.2899  0.8734 -0.7387
 6233SOL    HW230162   3.930   3.829   2.061 -0.6717  1.3191  0.2045
 6234SOL     OW30163   1.557   4.123   8.423 -0.0901  0.3470 -0.3801
 6234SOL    HW130164   1.641   4.091   8.455 -0.4163 -2.2249 -2.1030
 6234SOL    HW230165   1.584   4.148   8.334  1.0358 -1.6213 -0.5945
 6235SOL     OW30166   3.821   0.184   7.681  0.0868 -0.0907 -0.3583
 6235SOL    HW130167   3.738   0.187   7.728  0.8541  0.4992  0.9991
 6235SOL    HW230168   3.821   0.092   7.653 -0.1459 -0.3214  0.3970
 6236SOL     OW30169   3.757   1.969   2.716 -0.1909  0.0717 -0.2086
 6236SOL    HW130170   3.678   1.917   2.730  0.9086 -1.9417 -1.5493
 6236SOL    HW230171   3.715   2.054   2.733  2.3260  1.6687 -1.9110
 6237SOL     OW30172   3.488   3.494   1.106 -0.2711  0.0785 -0.0656
 6237SOL    HW130173   3.489   3.545   1.187  0.4246  2.6217 -1.6749
 6237SOL    HW230174   3.553   3.424   1.109  1.6192  1.8342 -0.3212
 6238SOL     OW30175   1.477   4.334   3.849  0.2229 -0.2128  0.2876
 6238SOL    HW130176   1.402   4.367   3.899 -0.6036  0.9157 -1.7089
 6238SOL    HW230177   1.461   4.368   3.761 -1.1511  0.6777  0.8794
 6239SOL     OW30178   3.698   1.492   8.468 -0.1311 -0.8046 -0.6740
 6239SOL    HW130179   3.673   1.434   8.540  1.3189  0.6148  0.9591
 6239SOL    HW230180   3.762   1.549   8.510  0.7121 -1.0231 -1.6577
 6240SOL     OW30181   2.440   3.450   4.541 -0.3101 -0.1741 -0.0175
 6240SOL    HW130182   2.345   3.463   4.531 -0.3225 -1.1949 -1.3230
 6240SOL    HW230183   2.460   3.512   4.611 -0.5669  0.4470 -0.4937
 6241SOL     OW30184   0.028   2.447  11.211 -0.1369  0.1079  0.3063
 6241SOL    HW130185   4.676   2.444  11.156 -0.1241 -0.9130  0.3524
 6241SOL    HW230186   0.068   2.360  11.210  1.5846  0.8413  3.7280
 6242SOL     OW30187   2.386   4.212   5.820  0.2230 -0.1333  0.0059
 6242SOL    HW130188   2.387   4.250   5.732  1.7913  2.4429  1.1346
 6242SOL    HW230189   2.433   4.279   5.870 -1.2380  0.6111  0.3908
 6243SOL     OW30190   4.553   0.352  10.903 -0.1713 -0.1850  0.1944
 6243SOL    HW130191   4.512   0.351  10.989  1.4670  1.8959  1.0180
 6243SOL    HW230192   4.491   0.306  10.847 -0.8923 -0.9587  1.6588
 6244SOL     OW30193   0.970   1.706   8.425 -0.3938 -0.1097 -0.0498
 6244SOL    HW130194   0.974   1.801   8.420  0.9761 -0.0891  1.5492
 6244SOL    HW230195   1.063   1.682   8.422 -0.4987 -0.3517 -1.9653
 6245SOL     OW30196   3.810   3.111  17.360  0.2689  0.0436 -0.4297
 6245SOL    HW130197   3.821   3.052  17.434 -0.4730  0.8942  0.3697
 6245SOL    HW230198   3.788   3.196  17.399  1.1696  0.5747 -1.0625
 6246SOL     OW30199   1.962   0.832   9.488  0.1169  0.3790 -0.0951
 6246SOL    HW130200   2.025   0.844   9.417 -1.3130  0.7907 -1.2989
 6246SOL    HW230201   1.999   0.747   9.511 -0.7096  0.5681  1.9204
 6247SOL     OW30202   3.338   1.879   3.193  0.2404 -0.3097 -0.6252
 6247SOL    HW130203   3.327   1.954   3.251  0.6120  0.9756 -2.2489
 6247SOL    HW230204   3.389   1.815   3.242  0.6189  0.8465  0.4774
 6248SOL     OW30205   3.991   0.159   6.180 -0.0868  0.1342  0.5324
 6248SOL    HW130206   3.951   0.080   6.217 -0.0255  0.0113  0.3389
 6248SOL    HW230207   4.038   0.125   6.103  0.2107  0.4369  0.5833
 6249SOL     OW30208   3.715   1.955   5.445  0.0473  0.2626 -0.2558
 6249SOL    HW130209   3.735   2.033   5.392  0.3012 -0.9923 -2.0127
 6249SOL    HW230210   3.692   1.994   5.529  0.7804 -1.6862  0.8511
 6250SOL     OW30211   0.366   4.548   1.532  0.1970 -0.0866  0.8652
 6250SOL    HW130212   0.350   4.590   1.617 -0.7096 -0.5286  0.9122
 6250SOL    HW230213   0.299   4.597   1.483  1.3874 -0.4805 -1.1146
 6251SOL     OW30214   3.666   3.703  15.027 -0.3150 -0.0063 -0.3638
 6251SOL    HW130215   3.709   3.617  15.020 -1.6642 -0.6434 -0.7530
 6251SOL    HW230216   3.602   3.701  15.099 -1.0590 -0.8642 -1.0534
 6252SOL     OW30217   0.063   1.122   1.531 -0.5283  0.1788 -0.1536
 6252SOL    HW130218   0.087   1.213   1.509 -0.7050  0.8324  2.3745
 6252SOL    HW230219   0.139   1.087   1.485  0.2543 -0.0342  1.3032
 6253SOL     OW30220   3.617   0.264  13.064 -0.0495 -0.7044 -0.3238
 6253SOL    HW130221   3.678   0.192  13.053  1.0114  0.1991 -0.3982
 6253SOL    HW230222   3.565   0.259  12.984 -2.7894 -1.1481  1.4889
 6254SOL     OW30223   0.902   4.219   3.280 -0.0716 -0.3186 -0.3344
 6254SOL    HW130224   0.983   4.173   3.260  0.7604  0.8878  0.2047
 6254SOL    HW230225   0.846   4.146   3.306  1.0296 -1.5467 -1.4125
 6255SOL     OW30226   4.144   2.578   2.080  0.1384  0.3990  0.3662
 6255SOL    HW130227   4.150   2.590   2.175 -0.8604  0.2089  0.4592
 6255SOL    HW230228   4.079   2.644   2.055  0.9720  1.7186  1.6417
 6256SOL     OW30229   2.654   3.154   5.292  0.6479  0.1076 -0.1170
 6256SOL    HW130230   2.610   3.139   5.375 -0.9762  0.4811 -0.9076
 6256SOL    HW230231   2.726   3.208   5.324  0.0866  1.1075 -0.5366
 6257SOL     OW30232   1.227   3.667   4.383  0.8854 -0.0921 -0.2765
 6257SOL    HW130233   1.134   3.666   4.359  0.5961 -0.3186  0.8578
 6257SOL    HW230234   1.259   3.728   4.316 -1.0533  2.1516  0.8134
 6258SOL     OW30235   4.239   2.087  17.405  0.1961  0.0004  0.2545
 6258SOL    HW130236   4.256   2.181  17.403 -0.1607  0.0535 -0.1660
 6258SOL    HW230237   4.243   2.059  17.497 -1.0369  1.0044  0.6239
 6259SOL     OW30238   4.430   1.299   4.461  0.1689 -0.0493 -0.2910
 6259SOL    HW130239   4.456   1.340   4.379  1.2816  0.2560  0.2213
 6259SOL    HW230240   4.402   1.213   4.429  1.3318 -1.4726  2.4957
 6260SOL     OW30241   1.436   1.373  12.318  0.1950 -0.0572 -0.2063
 6260SOL    HW130242   1.461   1.386  12.409 -2.0423  0.4793  0.3420
 6260SOL    HW230243   1.517   1.347  12.276 -1.0017  0.0417 -2.5731
 6261SOL     OW30244   0.438   2.177   2.898 -0.0523  0.3483 -0.1874
 6261SOL    HW130245   0.375   2.178   2.970 -1.0340 -1.3746 -1.0258
 6261SOL    HW230246   0.412   2.101   2.846  0.0199  0.3755 -0.2642
 6262SOL     OW30247   0.708   2.169  16.198  0.2272 -0.4262 -0.5562
 6262SOL    HW130248   0.798   2.171  16.166  0.3018  0.9328 -0.2294
 6262SOL    HW230249   0.720   2.142  16.289  0.6703  0.6255 -0.3037
 6263SOL     OW30250   1.081   1.286   0.034  0.7030 -0.3361 -0.4952
 6263SOL    HW130251   1.023   1.290  17.664 -0.1941 -1.3393  0.1522
 6263SOL    HW230252   1.069   1.201   0.075  1.4062 -0.6845 -1.0151
 6264SOL     OW30253   3.157   1.843   4.679 -0.0750 -0.1797  0.0013
 6264SOL    HW130254   3.084   1.904   4.691  1.5306  1.4509  1.4377
 6264SOL    HW230255   3.202   1.900   4.617  1.1786 -0.5134  0.6217
 6265SOL     OW30256   3.389   0.717   4.694 -0.3907  0.6762 -0.5320
 6265SOL    HW130257   3.465   0.755   4.650 -0.5165  2.0526  0.4433
 6265SOL    HW230258   3.348   0.662   4.626  0.0896  1.4456 -1.4430
 6266SOL     OW30259   2.894   1.937  11.372 -0.0275  0.0945 -0.0859
 6266SOL    HW130260   2.853   1.979  11.296 -1.7971 -1.2384  0.1206
 6266SOL    HW230261   2.845   1.855  11.372  1.0378 -0.5482 -0.7327
 6267SOL     OW30262   1.344   0.359  17.472  0.0921 -0.0902 -0.0006
 6267SOL    HW130263   1.281   0.393  17.535  0.0929  3.7003 -2.0218
 6267SOL    HW230264   1.421   0.413  17.487  0.7237 -0.5641 -1.4473
 6268SOL     OW30265   3.607   4.697   6.753 -0.1655 -0.5595 -0.4489
 6268SOL    HW130266   3.677   4.694   6.687  0.9509 -2.0212  0.7871
 6268SOL    HW230267   3.603   0.067   6.759 -0.6904 -0.5515 -0.8898
 6269SOL     OW30268   1.551   2.113   8.480  0.0966  0.0400  0.1761
 6269SOL    HW130269   1.544   2.180   8.547 -2.2248 -0.0492  0.0189
 6269SOL    HW230270   1.597   2.158   8.409 -1.5739  3.1317  1.0845
 6270SOL     OW30271   2.957   3.660  11.993 -0.5317 -0.6395 -0.0019
 6270SOL    HW130272   2.980   3.574  12.028 -0.8760 -1.2086 -1.1934
 6270SOL    HW230273   3.008   3.737  12.019  1.5023 -2.4661  1.3734
 6271SOL     OW30274   3.987   0.172  11.108  0.2057  0.4183  0.3365
 6271SOL    HW130275   4.073   0.150  11.144 -0.1824  0.0874  1.0707
 6271SOL    HW230276   3.980   0.260  11.145  0.7479  0.5996 -0.0059
 6272SOL     OW30277   0.351   0.491   4.459  0.7231 -0.0532  0.7017
 6272SOL    HW130278   0.415   0.529   4.399  0.5522 -2.2423 -0.8643
 6272SOL    HW230279   0.308   0.568   4.495 -2.6882 -1.3767 -0.4817
 6273SOL     OW30280   2.904   0.192   6.418 -0.3079  0.4311  0.7315
 6273SOL    HW130281   2.847   0.166   6.491 -0.8370  3.0298  1.2592
 6273SOL    HW230282   2.913   0.120   6.356 -0.2450 -1.5724  3.0684
 6274SOL     OW30283   2.231   2.466   6.974  0.1501  0.2485 -0.2592
 6274SOL    HW130284   2.166   2.470   7.044  2.1411  1.1942  1.5303
 6274SOL    HW230285   2.311   2.462   7.026  0.5167 -1.1828 -0.9272
 6275SOL     OW30286   0.674   3.730   4.449  0.2999 -0.2879  0.1202
 6275SOL    HW130287   0.689   3.675   4.525  1.4563 -0.3035 -0.1129
 6275SOL    HW230288   0.619   3.677   4.392 -0.7290  2.4662 -1.4858
 6276SOL     OW30289   1.501   4.502   8.661 -0.2031  0.0055  0.4581
 6276SOL    HW130290   1.462   4.584   8.690 -1.5583 -0.9785  1.3742
 6276SOL    HW230291   1.570   4.531   8.601  0.9051  1.5280  2.4932
 6277SOL     OW30292   2.915   0.460  13.488  0.0924  0.0246 -0.1467
 6277SOL    HW130293   2.892   0.545  13.450  1.5835  1.2843  1.7492
 6277SOL    HW230294   2.991   0.452  13.431 -0.8853  1.7958 -1.7075
 6278SOL     OW30295   1.331   3.049   4.733 -0.3681  0.3609 -0.2214
 6278SOL    HW130296   1.264   2.986   4.708 -0.4409  1.0238 -1.7053
 6278SOL    HW230297   1.372   2.996   4.801 -0.1712  1.2354  0.3467
 6279SOL     OW30298   1.404   4.063   2.467  0.2926  0.0496 -0.7386
 6279SOL    HW130299   1.442   4.129   2.409  1.7789 -1.0785 -1.0413
 6279SOL    HW230300   1.450   3.982   2.445  0.4598  0.5996 -2.4168
 6280SOL     OW30301   3.863   3.479   7.070 -0.3429 -0.0189 -0.9861
 6280SOL    HW130302   3.916   3.549   7.108 -2.7776  1.5241 -0.4341
 6280SOL    HW230303   3.795   3.532   7.029 -0.1173  0.2242 -1.0474
 6281SOL     OW30304   1.055   0.175   8.576  0.3275 -0.9230 -0.4995
 6281SOL    HW130305   1.131   0.166   8.519 -0.0125  0.0516 -1.1108
 6281SOL    HW230306   1.066   0.104   8.639 -1.0291 -0.1303  0.6500
 6282SOL     OW30307   1.241   1.880   8.645 -0.3997 -0.8012  0.4348
 6282SOL    HW130308   1.315   1.920   8.691 -0.1199 -1.3763  0.4787
 6282SOL    HW230309   1.235   1.791   8.678 -1.2276 -1.1380 -0.6385
 6283SOL     OW30310   0.925   0.740   1.867 -0.6165 -0.0016  0.1570
 6283SOL    HW130311   0.937   0.806   1.799  2.5678 -1.2181 -0.4865
 6283SOL    HW230312   0.838   0.713   1.841 -0.8658  0.1474  0.8346
 6284SOL     OW30313   0.390   3.505   3.745 -0.2140  0.0627  0.1028
 6284SOL    HW130314   0.468   3.538   3.789  0.0230  0.5083 -0.6381
 6284SOL    HW230315   0.425   3.441   3.683 -0.3477 -0.7582  0.8847
 6285SOL     OW30316   4.331   0.138   3.121  0.0653 -0.5643 -0.5754
 6285SOL    HW130317   4.282   0.191   3.057 -0.6114  0.0744  0.4674
 6285SOL    HW230318   4.361   0.058   3.078 -2.1142 -2.6488  1.7810
 6286SOL     OW30319   4.552   1.156   2.021  0.1538 -0.1418 -0.5163
 6286SOL    HW130320   4.613   1.126   1.954  2.4085  0.5598  1.2054
 6286SOL    HW230321   4.609   1.223   2.060 -0.7281  0.4112 -0.1944
 6287SOL     OW30322   4.333   3.661   8.782  0.1966 -0.1017  0.2278
 6287SOL    HW130323   4.307   3.653   8.690  1.2883 -0.4966 -0.0524
 6287SOL    HW230324   4.283   3.741   8.796 -0.6636 -0.8534  1.4458
 6288SOL     OW30325   2.135   4.633   9.975  0.3069 -0.5023  0.4412
 6288SOL    HW130326   2.123   4.549  10.019 -0.9371 -0.4740  0.1607
 6288SOL    HW230327   2.161   4.692  10.045 -0.0366  1.0527 -0.7440
 6289SOL     OW30328   0.216   0.992   1.898  0.0116  0.3043  0.0817
 6289SOL    HW130329   0.178   0.919   1.947  0.2004 -0.8224 -1.4307
 6289SOL    HW230330   0.196   0.967   1.808 -2.0004 -1.9900  1.1758
 6290SOL     OW30331   4.026   0.952   0.313 -0.0920  0.4317  0.0932
 6290SOL    HW130332   4.044   0.959   0.406 -2.4508  1.8124  0.4605
 6290SOL    HW230333   3.978   0.870   0.305  0.2058  0.0766  2.1590
 6291SOL     OW30334   2.287   0.896   3.671 -0.0826  0.4108  0.0888
 6291SOL    HW130335   2.351   0.964   3.696  2.0511 -1.0642 -1.3515
 6291SOL    HW230336   2.304   0.902   3.577 -0.0372 -0.0056  0.0725
 6292SOL     OW30337   0.833   2.515   8.974 -0.2556  0.4824  0.5758
 6292SOL    HW130338   0.822   2.454   9.047  0.9530  0.5640  0.8272
 6292SOL    HW230339   0.923   2.492   8.952  0.2544  1.7824  1.2981
 6293SOL     OW30340   0.170   2.424   3.960 -0.0481  0.1840 -0.0799
 6293SOL    HW130341   0.150   2.353   3.899 -0.7494  0.7184 -0.4754
 6293SOL    HW230342   0.194   2.492   3.898 -3.0150  0.8161 -0.5333
 6294SOL     OW30343   1.822   4.724   8.624  0.1260  0.5185  0.3100
 6294SOL    HW130344   1.828   4.632   8.646  2.4283  1.3769  3.2029
 6294SOL    HW230345   1.903   0.014   8.575 -0.6009 -0.4907 -1.2230
 6295SOL     OW30346   2.996   1.793   4.266 -0.4572  0.4901 -0.4133
 6295SOL    HW130347   3.026   1.718   4.316  3.0236  1.0400 -1.6350
 6295SOL    HW230348   3.072   1.848   4.244  0.0763 -0.6494 -1.4912
 6296SOL     OW30349   2.576   3.830  13.101 -0.3753  0.0577 -0.3534
 6296SOL    HW130350   2.511   3.861  13.163  1.7501 -0.0785  1.9282
 6296SOL    HW230351   2.553   3.738  13.106  2.3476 -0.7830 -3.4124
 6297SOL     OW30352   0.094   3.489   7.057  0.4323 -0.1805  0.0224
 6297SOL    HW130353   0.161   3.494   6.989  2.8323 -1.4525  2.2756
 6297SOL    HW230354   0.054   3.403   7.046 -1.7537  0.9195 -0.6003
 6298SOL     OW30355   2.588   0.685   5.126  0.0786 -0.4258  0.0572
 6298SOL    HW130356   2.532   0.756   5.094  0.6516  0.6857  1.5429
 6298SOL    HW230357   2.526   0.634   5.178 -0.1486 -0.0845  0.1197
 6299SOL     OW30358   3.270   1.857   2.666  0.4881 -0.1396  0.3324
 6299SOL    HW130359   3.343   1.911   2.696 -0.3344  2.2480 -2.0236
 6299SOL    HW230360   3.225   1.870   2.750  0.4227 -0.3455  0.3291
 6300SOL     OW30361   4.602   1.095   0.176  0.3011  0.7510 -0.0786
 6300SOL    HW130362   4.525   1.066   0.224 -1.8573  3.0421 -2.2104
 6300SOL    HW230363   4.588   1.188   0.159 -2.2500  0.1667 -1.1421
 6301SOL     OW30364   3.360   4.536   3.293  0.1918 -0.6617  0.1777
 6301SOL    HW130365   3.375   4.461   3.237  2.9874  0.7749 -0.9979
 6301SOL    HW230366   3.359   4.605   3.227 -0.2049 -0.5465  0.3005
 6302SOL     OW30367   2.793   2.760   8.691 -0.3528 -0.1909 -0.0762
 6302SOL    HW130368   2.782   2.770   8.596 -0.1951 -0.3152 -0.1069
 6302SOL    HW230369   2.702   2.755   8.719 -0.7222  3.2666 -0.6272
 6303SOL     OW30370   1.938   3.208  13.534  0.4809  0.0480 -0.5400
 6303SOL    HW130371   1.976   3.294  13.517  0.6430 -0.1168 -1.0059
 6303SOL    HW230372   1.948   3.199  13.628  0.4462  0.1903 -0.5218
 6304SOL     OW30373   3.830   0.313   4.306 -0.2564 -0.3971 -0.0078
 6304SOL    HW130374   3.747   0.291   4.347 -0.5494 -0.7337 -0.7800
 6304SOL    HW230375   3.807   0.324   4.214 -1.5546 -0.5748  0.3044
 6305SOL     OW30376   3.566   1.431   1.704  0.0771 -0.4259 -0.2245
 6305SOL    HW130377   3.627   1.386   1.646  1.4629  0.0163  0.8969
 6305SOL    HW230378   3.495   1.471   1.653 -0.0609  0.8032  0.9288
 6306SOL     OW30379   4.439   1.384   5.492  0.0563 -0.3724  0.1111
 6306SOL    HW130380   4.534   1.394   5.478 -0.1630  1.6610  0.0023
 6306SOL    HW230381   4.424   1.413   5.582  0.1679  0.2328 -0.0614
 6307SOL     OW30382   1.913   2.473  16.013 -0.0088 -0.3250 -0.2265
 6307SOL    HW130383   1.843   2.525  16.054 -1.7030 -0.4634 -2.9062
 6307SOL    HW230384   1.881   2.384  16.028 -0.7721  0.0715  0.5125
 6308SOL     OW30385   3.311   4.109   2.188 -0.0871 -0.3135 -0.3713
 6308SOL    HW130386   3.271   4.089   2.273  0.6027  0.9425  0.2398
 6308SOL    HW230387   3.303   4.021   2.151  2.9174 -1.0913  0.8627
 6309SOL     OW30388   4.435   2.075  14.629  0.7884  0.1841  0.4577
 6309SOL    HW130389   4.502   2.141  14.647  0.7429  0.6748 -1.1663
 6309SOL    HW230390   4.486   2.018  14.571 -0.0721 -0.3470  0.2129
 6310SOL     OW30391   2.565   0.313   6.508 -0.3714 -0.3658 -0.2237
 6310SOL    HW130392   2.571   0.339   6.599  0.3249 -2.3060  0.2924
 6310SOL    HW230393   2.472   0.291   6.507 -0.5508  0.4222 -0.6924
 6311SOL     OW30394   1.273   2.494   6.099 -0.1826 -0.2871  0.5641
 6311SOL    HW130395   1.343   2.550   6.132  0.6812 -1.9386  1.5089
 6311SOL    HW230396   1.210   2.498   6.171 -0.5386 -2.6805  0.3719
 6312SOL     OW30397   0.921   0.419   7.049  0.2880 -0.1753  0.2715
 6312SOL    HW130398   0.899   0.350   6.987 -1.9972  0.2957  0.5633
 6312SOL    HW230399   0.969   0.386   7.125 -1.0008 -1.7239  0.4093
 6313SOL     OW30400   0.960   1.631   7.743  0.0881 -0.3945  0.6547
 6313SOL    HW130401   1.037   1.687   7.741  0.0021 -0.2875  0.3455
 6313SOL    HW230402   1.005   1.546   7.744 -0.8138 -0.8093  3.2579
 6314SOL     OW30403   3.271   1.870   9.590 -0.2522 -0.8689 -0.1181
 6314SOL    HW130404   3.242   1.925   9.662 -2.7477 -0.6358 -1.2936
 6314SOL    HW230405   3.215   1.902   9.519  1.4993  1.5541 -0.3770
 6315SOL     OW30406   3.453   1.331   8.236 -0.1115  0.1352 -0.1195
 6315SOL    HW130407   3.432   1.282   8.156  2.3683  0.3215 -0.9019
 6315SOL    HW230408   3.373   1.382   8.249  1.6512  2.9386 -0.2260
 6316SOL     OW30409   1.755   1.541   9.131 -0.1626  0.1954 -0.2280
 6316SOL    HW130410   1.790   1.628   9.152 -2.4223  0.6108  1.8617
 6316SOL    HW230411   1.838   1.496   9.141  0.7040  1.7158 -0.5219
 6317SOL     OW30412   1.950   0.058   1.985  0.3885  0.4346  0.6456
 6317SOL    HW130413   2.033   0.084   1.944  0.1595 -0.3761 -0.3216
 6317SOL    HW230414   1.938   4.694   1.955  1.0328  1.0574 -1.5159
 6318SOL     OW30415   3.250   1.135   9.776 -0.1294  0.3273  0.1651
 6318SOL    HW130416   3.316   1.106   9.839 -1.1670  2.8296  2.3695
 6318SOL    HW230417   3.172   1.091   9.809  0.9300 -1.1834  0.6559
 6319SOL     OW30418   2.886   1.329  12.773 -0.0658  0.2857  0.1342
 6319SOL    HW130419   2.911   1.418  12.748  0.1844  0.5281  1.2229
 6319SOL    HW230420   2.802   1.310  12.730  0.8240  1.4714 -2.0996
 6320SOL     OW30421   1.673   0.035   7.028 -0.2877  0.0982 -0.4232
 6320SOL    HW130422   1.657   0.020   7.121  1.2134 -2.7819 -0.6067
 6320SOL    HW230423   1.741   0.102   7.033 -1.9680  1.8400 -0.9625
 6321SOL     OW30424   4.376   4.136   7.867  0.1416  0.0086 -0.2078
 6321SOL    HW130425   4.380   4.231   7.850  0.5490  0.2896  1.5067
 6321SOL    HW230426   4.308   4.115   7.803  0.2776 -1.1655  0.0482
 6322SOL     OW30427   1.258   2.982   5.695  0.0732 -0.2338  0.2235
 6322SOL    HW130428   1.343   2.951   5.663 -0.4302 -0.1487 -1.1939
 6322SOL    HW230429   1.256   3.070   5.656 -0.3298 -0.5027 -0.3509
 6323SOL     OW30430   4.135   1.835  12.221 -0.1000 -0.2049 -0.0167
 6323SOL    HW130431   4.124   1.750  12.264  1.2572 -0.7336 -0.6981
 6323SOL    HW230432   4.184   1.795  12.148  1.6292 -0.9765  1.5722
 6324SOL     OW30433   0.409   2.628   8.737 -0.2341  0.2558 -0.2588
 6324SOL    HW130434   0.488   2.662   8.779 -0.5551  0.2238  0.3840
 6324SOL    HW230435   0.370   2.579   8.809  2.3011 -0.4499  0.6277
 6325SOL     OW30436   1.758   0.599  14.238  0.2594 -0.4122 -0.5855
 6325SOL    HW130437   1.797   0.671  14.190  0.1774  1.0516  1.5548
 6325SOL    HW230438   1.808   0.524  14.206 -1.9248 -2.6530  1.1839
 6326SOL     OW30439   3.302   3.509   8.148 -0.1342  0.6845 -0.0973
 6326SOL    HW130440   3.288   3.518   8.054 -0.0442 -0.4563 -0.2224
 6326SOL    HW230441   3.288   3.414   8.157  0.9662  0.4534 -0.7985
 6327SOL     OW30442   3.853   2.599   2.544  0.6945  0.7733  0.1234
 6327SOL    HW130443   3.900   2.678   2.516  1.1586 -0.1685 -1.7746
 6327SOL    HW230444   3.818   2.563   2.463 -0.7002  0.3865  0.9148
 6328SOL     OW30445   0.267   3.803   2.932  0.2736  0.0655 -0.0994
 6328SOL    HW130446   0.295   3.719   2.896  1.8306 -0.1391  1.5904
 6328SOL    HW230447   0.172   3.797   2.920  0.0261  1.4870  1.1267
 6329SOL     OW30448   4.373   1.991   0.686 -0.4248  0.1668 -0.5713
 6329SOL    HW130449   4.331   1.962   0.605 -2.0045 -0.1052  0.3485
 6329SOL    HW230450   4.294   2.015   0.735 -0.5430 -0.4828 -0.4431
 6330SOL     OW30451   2.757   3.462   5.259 -0.3684  0.2584 -0.5401
 6330SOL    HW130452   2.667   3.494   5.257 -0.7867 -0.8289  1.4221
 6330SOL    HW230453   2.794   3.487   5.344  0.8385  0.6633 -1.1680
 6331SOL     OW30454   3.979   3.597  15.562 -0.0205 -0.2916  0.7256
 6331SOL    HW130455   3.890   3.613  15.592  0.2133  2.8605 -0.3655
 6331SOL    HW230456   4.027   3.624  15.640 -0.4283  3.0231 -0.2033
 6332SOL     OW30457   3.945   3.344  14.564  0.2314  0.1171  0.6207
 6332SOL    HW130458   3.897   3.419  14.600  1.9465  1.4227  0.1823
 6332SOL    HW230459   3.884   3.276  14.591  0.7800 -0.9371 -0.7641
 6333SOL     OW30460   2.723   2.889  14.500 -0.2625 -0.2297 -0.1077
 6333SOL    HW130461   2.785   2.943  14.451  2.6110 -3.6691 -0.2739
 6333SOL    HW230462   2.760   2.882  14.588 -1.4092 -0.4649  0.3566
 6334SOL     OW30463   1.136   1.626   6.855 -0.1403  0.2889  0.0315
 6334SOL    HW130464   1.223   1.592   6.834 -0.8317  1.2302 -4.3234
 6334SOL    HW230465   1.121   1.687   6.783 -0.6886  1.7444  1.3565
 6335SOL     OW30466   2.602   4.301   1.515  0.0270  0.1847  0.3010
 6335SOL    HW130467   2.643   4.384   1.492  1.0757 -0.4924 -0.2295
 6335SOL    HW230468   2.517   4.327   1.551  0.3887  0.4908  0.9283
 6336SOL     OW30469   0.191   0.642   6.349 -0.1358  1.1841  0.9376
 6336SOL    HW130470   0.190   0.548   6.336  0.2016  1.1232  1.3354
 6336SOL    HW230471   0.266   0.657   6.291 -0.1886 -0.8667  0.3746
 6337SOL     OW30472   4.167   2.151  16.580  0.2519  0.1362  0.1208
 6337SOL    HW130473   4.208   2.236  16.601 -0.2945  0.2194  0.8535
 6337SOL    HW230474   4.087   2.173  16.532  1.1100 -1.4728 -2.0222
 6338SOL     OW30475   2.378   2.355   3.664 -0.0708  0.1306 -0.4803
 6338SOL    HW130476   2.373   2.278   3.607 -3.2210  0.2518 -0.3682
 6338SOL    HW230477   2.291   2.397   3.663 -0.7041 -1.1350  1.9233
 6339SOL     OW30478   2.079   2.709   8.738 -0.0902  0.5101 -0.0481
 6339SOL    HW130479   2.106   2.784   8.685  0.3687  0.1387 -0.3455
 6339SOL    HW230480   2.102   2.639   8.677 -0.0441  0.0240  0.5342
 6340SOL     OW30481   4.626   0.759   4.494 -0.1812  0.0086 -0.4425
 6340SOL    HW130482   4.619   0.699   4.419  0.8672  0.9294 -1.2785
 6340SOL    HW230483   4.719   0.757   4.512 -0.4759 -0.3176  1.0450
 6341SOL     OW30484   2.793   1.750   4.998 -0.1400 -0.4562 -1.0816
 6341SOL    HW130485   2.873   1.766   5.048 -0.4131 -0.9801 -0.4909
 6341SOL    HW230486   2.731   1.723   5.065  1.2913  0.2215  0.5181
 6342SOL     OW30487   2.796   1.680   9.762  0.4150  0.3327 -0.0125
 6342SOL    HW130488   2.761   1.751   9.709 -2.6137 -0.5735  0.7772
 6342SOL    HW230489   2.887   1.710   9.767 -0.1633  2.2597 -1.1629
 6343SOL     OW30490   3.157   2.470   3.154 -0.1083  0.4236  0.0871
 6343SOL    HW130491   3.137   2.442   3.243 -0.5178  0.9204  0.1496
 6343SOL    HW230492   3.245   2.506   3.163  0.2456 -0.7496  1.3402
 6344SOL     OW30493   3.915   1.058   6.102 -0.0269  0.3083 -0.0968
 6344SOL    HW130494   3.853   0.985   6.096 -1.0754  1.4897 -3.8220
 6344SOL    HW230495   3.931   1.067   6.008 -2.8111  0.5793 -0.5595
 6345SOL     OW30496   3.922   1.099   6.861 -0.4143  0.4330 -0.2438
 6345SOL    HW130497   3.990   1.092   6.928  0.3372  0.8089 -0.9907
 6345SOL    HW230498   3.907   1.193   6.864  1.8110  0.7594  0.5514
 6346SOL     OW30499   4.191   1.223  15.967  0.4997 -0.1486 -0.3072
 6346SOL    HW130500   4.174   1.317  15.976  0.8322 -0.1431  0.2756
 6346SOL    HW230501   4.263   1.219  16.030 -0.6398 -2.2130  0.8499
 6347SOL     OW30502   3.063   3.115   6.886  0.3566  0.1404 -0.8807
 6347SOL    HW130503   3.126   3.072   6.944 -0.1542 -0.3474 -0.6778
 6347SOL    HW230504   2.985   3.060   6.891  0.1969  0.3207 -1.3383
 6348SOL     OW30505   4.403   4.003   2.776 -0.6155 -0.2981  0.1490
 6348SOL    HW130506   4.427   3.949   2.851 -1.7532 -0.6969  0.2273
 6348SOL    HW230507   4.373   3.932   2.721 -3.2285  0.2300  0.8808
 6349SOL     OW30508   4.140   2.791  11.872  0.0120  0.1371 -0.3139
 6349SOL    HW130509   4.153   2.703  11.907  0.5387 -0.2512 -1.4987
 6349SOL    HW230510   4.123   2.773  11.780  0.4523 -1.1838 -0.1288
 6350SOL     OW30511   3.589   1.789  12.149  0.3944  0.2420 -0.4015
 6350SOL    HW130512   3.647   1.734  12.203 -0.4728 -1.1809 -0.9219
 6350SOL    HW230513   3.509   1.737  12.161  0.1287  0.6098 -0.6099
 6351SOL     OW30514   1.135   2.333   1.598 -1.0387  0.1037  0.2244
 6351SOL    HW130515   1.186   2.328   1.517 -0.5033 -1.2907  0.6343
 6351SOL    HW230516   1.085   2.413   1.588 -0.3184  0.5277  0.0053
 6352SOL     OW30517   1.609   3.801   5.893 -0.3062 -0.1802 -0.2848
 6352SOL    HW130518   1.609   3.892   5.924  1.6810 -0.8403  1.6415
 6352SOL    HW230519   1.638   3.805   5.802  0.4097 -2.9467 -0.1648
 6353SOL     OW30520   0.072   3.910   4.515 -0.1487  0.0665 -0.5113
 6353SOL    HW130521   0.149   3.913   4.572  0.6281  2.2491 -1.6783
 6353SOL    HW230522   0.114   3.933   4.432 -0.5631 -3.0797 -1.5683
 6354SOL     OW30523   3.441   3.533  15.379 -0.2029  0.7427 -0.3205
 6354SOL    HW130524   3.506   3.597  15.348  0.0404  1.1273  0.9829
 6354SOL    HW230525   3.394   3.591  15.439  1.2128  1.2070  0.3269
 6355SOL     OW30526   3.444   3.325  13.448 -0.3340 -0.0358  0.0013
 6355SOL    HW130527   3.502   3.262  13.405  1.1328  0.1677  1.7085
 6355SOL    HW230528   3.404   3.269  13.515  1.2920  0.6840  1.5499
 6356SOL     OW30529   4.554   2.825   6.043  0.2286  0.3040  0.3928
 6356SOL    HW130530   4.540   2.910   6.001 -2.9164 -0.3993  0.0085
 6356SOL    HW230531   4.499   2.763   5.994  0.2122  0.9426 -0.4009
 6357SOL     OW30532   0.175   2.619   1.190 -0.1575  0.5936 -1.1032
 6357SOL    HW130533   0.268   2.611   1.213 -0.4415 -0.6568 -0.4229
 6357SOL    HW230534   0.136   2.582   1.269 -1.1986 -1.4063 -2.5723
 6358SOL     OW30535   1.478   0.870  11.799 -0.0307  0.0019  0.2171
 6358SOL    HW130536   1.390   0.900  11.820  1.3232  2.0963  2.8687
 6358SOL    HW230537   1.494   0.799  11.862 -1.6607 -0.8174 -0.2820
 6359SOL     OW30538   3.159   1.138   6.262  0.3506 -0.5024  0.3087
 6359SOL    HW130539   3.109   1.123   6.342 -0.8993  1.6415 -0.0738
 6359SOL    HW230540   3.193   1.227   6.275  0.8648 -0.8294  1.2412
 6360SOL     OW30541   4.323   1.056   3.436 -0.1677  0.0169  0.0966
 6360SOL    HW130542   4.313   1.040   3.530 -0.3186 -0.9243 -0.0818
 6360SOL    HW230543   4.357   0.968   3.418 -0.7744 -0.7025  2.4259
 6361SOL     OW30544   3.242   2.655  15.027  0.1112 -0.3375  0.3518
 6361SOL    HW130545   3.230   2.634  15.120  0.6733 -2.2909 -0.0253
 6361SOL    HW230546   3.319   2.711  15.037  0.2485 -0.6572  1.0845
 6362SOL     OW30547   3.897   3.327   5.493 -0.5400  0.0276 -0.1327
 6362SOL    HW130548   3.950   3.364   5.564  0.7976  1.4814 -1.8865
 6362SOL    HW230549   3.945   3.364   5.419 -0.6725  2.3778  0.9547
 6363SOL     OW30550   2.759   3.461   9.069 -0.4577 -0.2235 -0.4548
 6363SOL    HW130551   2.673   3.502   9.080  0.0661  1.1700 -1.5010
 6363SOL    HW230552   2.787   3.479   9.158  0.7164 -1.3134 -0.5978
 6364SOL     OW30553   1.233   4.400  10.268  0.2021 -0.0604  0.4254
 6364SOL    HW130554   1.139   4.380  10.275  0.4114 -1.3445 -0.4304
 6364SOL    HW230555   1.234   4.454  10.189  2.3034 -1.7360 -0.6619
 6365SOL     OW30556   2.209   4.363  16.271 -0.0313 -0.1267  0.4320
 6365SOL    HW130557   2.195   4.384  16.179  0.4729 -1.5652  0.0280
 6365SOL    HW230558   2.257   4.281  16.255 -1.8984 -1.0794 -0.2463
 6366SOL     OW30559   2.653   1.462   5.705 -0.0267  0.1582 -0.0570
 6366SOL    HW130560   2.627   1.382   5.660  0.0710 -1.0383  1.9792
 6366SOL    HW230561   2.576   1.468   5.762  0.9907 -0.5149  1.4029
 6367SOL     OW30562   3.759   0.379   5.980 -0.6059 -0.3315 -0.0299
 6367SOL    HW130563   3.842   0.334   5.965 -1.2982 -1.6062 -0.0423
 6367SOL    HW230564   3.743   0.411   5.891 -2.9097 -1.2251  0.0668
 6368SOL     OW30565   1.716   4.532   8.269  0.0825  0.0476 -0.0543
 6368SOL    HW130566   1.654   4.517   8.198 -0.1286  2.2721 -0.3645
 6368SOL    HW230567   1.768   4.609   8.243  0.0467  0.5907  1.5044
 6369SOL     OW30568   4.396   2.359   2.539 -0.2642 -0.5227 -0.2458
 6369SOL    HW130569   4.300   2.362   2.542 -0.3000 -0.5261 -1.2897
 6369SOL    HW230570   4.429   2.410   2.613  0.2103 -0.4283 -0.5224
 6370SOL     OW30571   1.408   3.525   4.865 -0.2264  0.1335  0.5301
 6370SOL    HW130572   1.486   3.576   4.843 -0.0039 -0.1501  0.6540
 6370SOL    HW230573   1.379   3.495   4.779  1.0446  1.5533 -0.3952
 6371SOL     OW30574   0.005   3.086   1.015  0.5183  0.2887 -0.0106
 6371SOL    HW130575   0.022   2.995   1.041  0.6810 -0.2718 -2.0728
 6371SOL    HW230576   0.090   3.100   0.972  0.9198  1.9591  1.3719
 6372SOL     OW30577   0.044   0.532   3.502 -0.5411 -0.3846  0.4385
 6372SOL    HW130578   0.139   0.545   3.490 -0.2381 -1.2814  1.8493
 6372SOL    HW230579   0.042   0.529   3.598 -3.1624 -0.4295  0.3596
 6373SOL     OW30580   3.724   2.605   7.106 -0.0313 -0.4006 -0.0240
 6373SOL    HW130581   3.712   2.604   7.011  0.2103 -0.5999 -0.0540
 6373SOL    HW230582   3.759   2.693   7.121 -0.7729 -0.4514  1.9217
 6374SOL     OW30583   0.947   2.475   6.771  0.3684 -0.2020 -0.0047
 6374SOL    HW130584   0.897   2.556   6.764  0.9354  0.2075  0.7455
 6374SOL    HW230585   0.913   2.453   6.858  0.1574 -0.2407 -0.0959
 6375SOL     OW30586   1.757   3.129   7.187 -0.2313  0.2206  0.4762
 6375SOL    HW130587   1.757   3.224   7.175  1.3175  0.1919  0.2757
 6375SOL    HW230588   1.672   3.103   7.152 -0.1965 -1.3634  1.5844
 6376SOL     OW30589   1.619   3.777   9.365 -0.0714  0.2946  0.2810
 6376SOL    HW130590   1.691   3.814   9.417  0.3508  1.9587 -1.4897
 6376SOL    HW230591   1.608   3.842   9.295 -1.1845 -1.1479 -0.8729
 6377SOL     OW30592   2.661   3.524   1.300  0.0756 -0.3524  0.6003
 6377SOL    HW130593   2.655   3.569   1.384 -0.3959 -1.8834  1.3913
 6377SOL    HW230594   2.754   3.520   1.279  0.3235  2.0932  1.2997
 6378SOL     OW30595   3.033   3.926   3.999 -0.3555  0.3711  0.3015
 6378SOL    HW130596   3.010   3.879   3.919 -0.4731 -0.2892  0.7306
 6378SOL    HW230597   3.095   3.868   4.042 -1.9165 -1.8509 -0.4867
 6379SOL     OW30598   0.916   2.678   5.147 -0.2082 -0.1272 -0.6289
 6379SOL    HW130599   0.926   2.606   5.084  2.1098  0.5872 -1.0637
 6379SOL    HW230600   0.957   2.747   5.095  1.0422 -1.0088 -0.8278
 6380SOL     OW30601   0.301   2.207  14.468 -0.3196  0.1918  0.4564
 6380SOL    HW130602   0.287   2.269  14.539 -0.6825 -1.0628  1.4694
 6380SOL    HW230603   0.220   2.156  14.468  0.6368 -1.3049  1.8211
 6381SOL     OW30604   0.103   2.477   1.899  0.1720 -0.1215 -0.3506
 6381SOL    HW130605   0.037   2.546   1.892 -0.1032 -0.3875 -0.4107
 6381SOL    HW230606   0.079   2.418   1.827 -1.3159  0.0578 -0.0053
 6382SOL     OW30607   3.137   0.055   4.185 -0.7562  0.2057 -0.3371
 6382SOL    HW130608   3.211   0.015   4.139 -2.7353 -3.4737 -0.2924
 6382SOL    HW230609   3.111   0.108   4.109  0.2446  2.5523  0.9360
 6383SOL     OW30610   2.504   1.949   3.649  0.0917  0.1297  0.2176
 6383SOL    HW130611   2.579   1.890   3.641  0.7962  0.9889  0.5576
 6383SOL    HW230612   2.546   2.032   3.672 -0.5731 -0.4885  3.6910
 6384SOL     OW30613   1.113   2.379   7.380 -0.2002 -0.1519 -0.4668
 6384SOL    HW130614   1.155   2.302   7.418  0.0132 -0.4953 -1.3962
 6384SOL    HW230615   1.024   2.356   7.407  1.0453 -1.5380  2.4934
 6385SOL     OW30616   2.721   1.765   8.767 -0.2489 -0.1768 -0.3128
 6385SOL    HW130617   2.794   1.723   8.721 -0.1320 -0.4066  0.0818
 6385SOL    HW230618   2.753   1.840   8.817 -1.4223  1.3614 -1.8614
 6386SOL     OW30619   0.780   0.027   8.702  0.1662 -0.2916  0.5659
 6386SOL    HW130620   0.774   0.059   8.612 -1.9406  0.6338  1.0561
 6386SOL    HW230621   0.705   0.068   8.744  0.1221 -0.8453  1.0263
 6387SOL     OW30622   4.280   0.282   7.244 -0.8433 -0.2571 -0.2264
 6387SOL    HW130623   4.320   0.282   7.331 -0.2372 -0.1425 -0.5071
 6387SOL    HW230624   4.269   0.374   7.219 -1.0197  0.1229  1.2577
 6388SOL     OW30625   1.101   3.962   3.480 -0.2800 -0.3510 -0.2985
 6388SOL    HW130626   1.192   3.973   3.509 -0.0863 -1.8555 -0.3240
 6388SOL    HW230627   1.112   3.870   3.456  1.2821 -0.1598 -0.3692
 6389SOL     OW30628   2.244   0.909  12.437  0.8018  0.0362  0.0327
 6389SOL    HW130629   2.221   0.993  12.476  3.1905  1.0682 -0.8355
 6389SOL    HW230630   2.157   0.878  12.411  0.4119  1.4918 -0.3768
 6390SOL     OW30631   2.913   2.282   0.962  0.0727  0.2243 -0.5843
 6390SOL    HW130632   2.872   2.234   0.890  0.7559  1.2587 -1.6684
 6390SOL    HW230633   3.003   2.299   0.932  0.1269 -1.0415 -1.1474
 6391SOL     OW30634   0.090   1.022   2.246  0.1684 -0.9366  0.7757
 6391SOL    HW130635   0.011   1.029   2.299 -1.9981 -0.3888 -2.5867
 6391SOL    HW230636   0.062   0.956   2.184  1.2594 -1.9842  1.3924
 6392SOL     OW30637   1.306   0.913   0.075 -0.5190  0.4889  0.0788
 6392SOL    HW130638   1.323   0.889  17.689  0.9441  0.0875  0.4590
 6392SOL    HW230639   1.394   0.936   0.104 -0.6547 -1.6171  2.1913
 6393SOL     OW30640   2.979   1.790   8.363 -0.4311  0.2466 -0.8173
 6393SOL    HW130641   2.999   1.739   8.285 -0.8519  0.1052 -0.8290
 6393SOL    HW230642   2.894   1.832   8.352 -0.4118 -0.2597 -2.8868
 6394SOL     OW30643   0.333   0.747  11.018 -0.1480  0.0621  0.7867
 6394SOL    HW130644   0.350   0.827  11.068  1.0936 -0.0358  0.5358
 6394SOL    HW230645   0.249   0.722  11.057 -0.5230 -0.5893 -0.4559
 6395SOL     OW30646   2.795   4.592   2.980 -0.4103 -0.0437  0.2701
 6395SOL    HW130647   2.875   4.591   3.032 -0.3369  1.0529  0.1797
 6395SOL    HW230648   2.839   4.610   2.897  1.2320 -1.1467  0.9032
 6396SOL     OW30649   3.900   0.573   0.780  0.0026 -0.2600  0.5685
 6396SOL    HW130650   3.905   0.581   0.684 -2.1662 -0.4771  0.4391
 6396SOL    HW230651   3.816   0.609   0.805  0.2416  0.4980  0.2888
 6397SOL     OW30652   3.624   3.041   1.046 -0.3396  0.1849  0.0023
 6397SOL    HW130653   3.628   3.121   1.098  0.9925  0.0069  0.1708
 6397SOL    HW230654   3.548   3.061   0.991  0.9217  2.5134 -0.8542
 6398SOL     OW30655   1.595   3.890   8.269 -0.1200  0.4758 -0.1041
 6398SOL    HW130656   1.652   3.844   8.331  1.4477  0.5933 -1.4584
 6398SOL    HW230657   1.649   3.967   8.253  0.3856 -0.3689 -2.4833
 6399SOL     OW30658   2.720   3.728   0.474  0.1295 -0.1080 -0.2030
 6399SOL    HW130659   2.800   3.748   0.426 -0.2346 -3.1987 -2.0699
 6399SOL    HW230660   2.739   3.640   0.504 -0.1736  0.1731  0.8256
 6400SOL     OW30661   3.924   4.643   5.596  0.4117  0.2095 -0.1033
 6400SOL    HW130662   3.933   0.012   5.583  0.5624  0.0090 -1.4133
 6400SOL    HW230663   3.840   4.645   5.642 -0.8064 -0.1708 -2.3191
 6401SOL     OW30664   1.562   0.462   7.876  0.0874  0.0566  0.5927
 6401SOL    HW130665   1.516   0.445   7.794 -0.0416  1.6691  0.3370
 6401SOL    HW230666   1.653   0.466   7.846 -0.3759  1.7745 -0.5851
 6402SOL     OW30667   0.976   3.952   2.622  0.4277  0.1221 -0.7437
 6402SOL    HW130668   0.922   4.030   2.635  1.7513  0.6385  1.5462
 6402SOL    HW230669   0.973   3.917   2.711  0.2312  1.8610 -0.0737
 6403SOL     OW30670   3.350   1.674   5.313  0.2781  0.4779  0.3280
 6403SOL    HW130671   3.440   1.703   5.326 -0.8420  3.5106  1.2241
 6403SOL    HW230672   3.334   1.648   5.403 -2.1078  1.2699  0.1310
 6404SOL     OW30673   4.184   0.563   3.975  0.5633  0.0949 -0.9317
 6404SOL    HW130674   4.102   0.516   3.959  1.8046 -1.8777 -1.4541
 6404SOL    HW230675   4.176   0.654   3.946  0.3946  0.5526  0.5508
 6405SOL     OW30676   0.999   3.746  17.226  0.6942  0.2780 -0.0080
 6405SOL    HW130677   1.056   3.671  17.243  0.5458  0.4252  1.1361
 6405SOL    HW230678   0.914   3.717  17.261  1.2680  0.4815  1.5023
 6406SOL     OW30679   0.790   0.702   4.307 -0.3520 -0.0365  0.7033
 6406SOL    HW130680   0.804   0.788   4.267 -1.0131 -0.1072  0.3105
 6406SOL    HW230681   0.869   0.657   4.279 -2.1795 -2.6752 -0.2703
 6407SOL     OW30682   0.069   2.959   3.935 -0.6909  0.0304 -0.1662
 6407SOL    HW130683   0.165   2.959   3.933 -0.6818  3.1526  0.0817
 6407SOL    HW230684   0.056   2.939   4.028  4.0599 -1.6021  0.1728
 6408SOL     OW30685   3.278   0.612  15.533  0.0422  0.1136 -0.4648
 6408SOL    HW130686   3.244   0.527  15.558 -1.9878  1.1859  0.4446
 6408SOL    HW230687   3.299   0.593  15.441  0.7909 -0.6159 -0.1369
 6409SOL     OW30688   0.565   3.894   1.636  0.2095  0.3225  0.5347
 6409SOL    HW130689   0.516   3.928   1.561 -1.6477  1.2099  2.1682
 6409SOL    HW230690   0.618   3.969   1.661  0.1640  0.2842  0.7409
 6410SOL     OW30691   3.682   0.983   4.119 -0.0783  0.0703  0.5465
 6410SOL    HW130692   3.640   1.059   4.158  0.7000  1.2229 -0.8793
 6410SOL    HW230693   3.606   0.933   4.088 -1.3749  1.1146  2.0305
 6411SOL     OW30694   4.459   1.764   1.328  0.1915 -0.0049 -0.0352
 6411SOL    HW130695   4.515   1.803   1.395  2.4942 -1.5472 -1.0409
 6411SOL    HW230696   4.379   1.741   1.375  0.5207  1.2017  1.1148
 6412SOL     OW30697   2.386   2.704   9.586 -0.0643  0.1807 -0.5762
 6412SOL    HW130698   2.433   2.739   9.510  2.4187  1.0195  1.3613
 6412SOL    HW230699   2.410   2.611   9.585 -0.9798 -0.0615  0.1066
 6413SOL     OW30700   4.023   3.975  12.018  0.4985 -0.1695 -0.1788
 6413SOL    HW130701   4.060   4.016  12.097 -1.5024  0.8350  0.2262
 6413SOL    HW230702   4.095   3.993  11.959  0.0245 -1.9620 -1.3048
 6414SOL     OW30703   2.054   3.923   8.640 -0.3857 -0.0095  0.1853
 6414SOL    HW130704   2.065   3.876   8.723  0.6109  2.8351  1.6667
 6414SOL    HW230705   2.034   4.013   8.667  1.6007  0.7259 -0.8009
 6415SOL     OW30706   1.900   0.739   1.028 -0.3658  0.1395  0.4425
 6415SOL    HW130707   1.856   0.790   1.096 -1.6046  1.7327 -1.5988
 6415SOL    HW230708   1.968   0.693   1.078  0.1125  2.1349  1.6276
 6416SOL     OW30709   0.578   1.337   1.354 -0.3620  0.0482  0.5040
 6416SOL    HW130710   0.509   1.400   1.340 -0.2766  0.4123  1.7377
 6416SOL    HW230711   0.528   1.255   1.354  1.3996 -1.0501 -1.2911
 6417SOL     OW30712   2.533   1.711   8.518 -0.1904 -0.9942  0.4103
 6417SOL    HW130713   2.501   1.796   8.547 -1.1658 -1.9315  2.1357
 6417SOL    HW230714   2.602   1.689   8.581  1.0344 -0.6068 -0.8076
 6418SOL     OW30715   4.361   2.329  17.466  0.6115  0.3654  0.1869
 6418SOL    HW130716   4.350   2.421  17.491  3.1161  0.5618  0.5945
 6418SOL    HW230717   4.435   2.306  17.523  1.5961 -3.2888 -2.5678
 6419SOL     OW30718   3.482   3.756  11.155 -0.8607 -0.0494  0.6863
 6419SOL    HW130719   3.570   3.733  11.184  0.1077  2.6416 -0.0615
 6419SOL    HW230720   3.455   3.670  11.124 -2.3801  0.8625 -0.5260
 6420SOL     OW30721   0.406   4.680   2.776 -0.0629 -0.2098  0.5214
 6420SOL    HW130722   0.498   4.689   2.801  0.1820  2.2963 -1.2820
 6420SOL    HW230723   0.403   4.705   2.684  2.1368 -0.9480  0.2509
 6421SOL     OW30724   3.813   3.329   9.764  0.4947 -0.0067  0.0522
 6421SOL    HW130725   3.834   3.340   9.672 -0.4927 -0.7087 -0.2537
 6421SOL    HW230726   3.860   3.396   9.813  1.9026 -0.3077 -0.8840
 6422SOL     OW30727   0.738   2.512  11.582 -0.4399  0.1108 -0.0985
 6422SOL    HW130728   0.672   2.581  11.592 -0.5133 -0.0441  0.4988
 6422SOL    HW230729   0.685   2.441  11.545 -0.9258 -0.1621  1.1021
 6423SOL     OW30730   0.962   2.379  14.765 -0.3238 -0.2624  0.1374
 6423SOL    HW130731   0.918   2.452  14.722  1.7049  0.7810 -0.1766
 6423SOL    HW230732   0.888   2.354  14.819  0.1960 -1.2043  0.4229
 6424SOL     OW30733   2.862   1.684  10.756  0.0054  0.2924  0.3847
 6424SOL    HW130734   2.838   1.750  10.690  0.5931 -0.6537 -0.7847
 6424SOL    HW230735   2.792   1.704  10.818 -0.4410  3.4562 -1.1441
 6425SOL     OW30736   3.893   4.407  11.392 -0.6769  0.0634 -0.0025
 6425SOL    HW130737   3.868   4.329  11.441  0.1889  0.4568  1.0516
 6425SOL    HW230738   3.974   4.431  11.436  0.3564  0.5268 -2.1411
 6426SOL     OW30739   4.345   2.261   1.046 -0.0768 -0.0694  0.1245
 6426SOL    HW130740   4.296   2.241   0.966 -1.2850 -0.8678  1.0472
 6426SOL    HW230741   4.281   2.282   1.115  1.1915 -0.8289  1.5182
 6427SOL     OW30742   0.451   4.206   6.423  0.0581 -0.1426  0.0291
 6427SOL    HW130743   0.495   4.121   6.435  0.0700  0.0238  1.1585
 6427SOL    HW230744   0.480   4.254   6.500  0.6883  0.1132 -0.3679
 6428SOL     OW30745   0.224   4.704   3.184  0.6339 -0.2033  0.4685
 6428SOL    HW130746   0.160   4.632   3.188  0.9644 -0.4688  0.9879
 6428SOL    HW230747   0.254   4.698   3.275  0.9648  3.0057  0.5592
 6429SOL     OW30748   1.889   0.801  14.085 -0.3506 -0.4638  0.4059
 6429SOL    HW130749   1.822   0.870  14.086 -0.1627 -0.2733 -0.0198
 6429SOL    HW230750   1.967   0.849  14.057 -1.1380 -0.4025 -1.6644
 6430SOL     OW30751   0.531   4.082   2.117  0.3419  0.0420 -0.0350
 6430SOL    HW130752   0.557   4.021   2.186 -2.6496 -1.5841 -0.2988
 6430SOL    HW230753   0.456   4.036   2.078  0.8743  0.5274 -1.6420
 6431SOL     OW30754   0.318   2.072   0.484 -0.0461 -0.5317  0.0012
 6431SOL    HW130755   0.337   2.046   0.574 -2.9616  1.7219  1.2639
 6431SOL    HW230756   0.223   2.063   0.479 -0.1128  1.4823 -2.7797
 6432SOL     OW30757   3.720   0.430   4.632 -0.6338  0.3400 -0.1649
 6432SOL    HW130758   3.689   0.454   4.719 -3.1238 -0.0108 -0.9550
 6432SOL    HW230759   3.777   0.505   4.614 -0.4171  0.2882  0.3066
 6433SOL     OW30760   4.675   2.200   6.830  0.7983 -0.3824  0.4086
 6433SOL    HW130761   0.000   2.132   6.785 -0.4834  0.0329 -1.6745
 6433SOL    HW230762   4.615   2.217   6.758 -0.0425 -0.0228  1.1939
 6434SOL     OW30763   3.122   2.843   2.828  0.6327 -0.0973  0.1550
 6434SOL    HW130764   3.113   2.863   2.734  0.2052 -0.8503  0.0365
 6434SOL    HW230765   3.033   2.814   2.850 -1.0531  2.7003 -2.9183
 6435SOL     OW30766   4.532   3.412  14.340  0.0303 -0.2164  0.2089
 6435SOL    HW130767   4.585   3.334  14.321 -0.3444 -0.3605 -0.2473
 6435SOL    HW230768   4.473   3.424  14.265 -0.5775  3.0172  1.2235
 6436SOL     OW30769   4.053   0.351   8.663  0.2334 -0.1060 -0.9439
 6436SOL    HW130770   4.099   0.358   8.747 -1.0763 -2.3525 -0.0362
 6436SOL    HW230771   3.987   0.290   8.697  0.1067  1.1792  1.1168
 6437SOL     OW30772   3.455   4.447  15.809  0.1394  0.4648 -0.1821
 6437SOL    HW130773   3.505   4.448  15.891 -0.2676 -1.5927  0.0830
 6437SOL    HW230774   3.476   4.361  15.773  1.1307  0.2034  0.9933
 6438SOL     OW30775   1.746   0.298  10.936  0.9503 -0.1809 -0.1169
 6438SOL    HW130776   1.839   0.281  10.924  0.9288  0.5937 -1.4262
 6438SOL    HW230777   1.703   0.213  10.924  0.7157 -0.0055 -0.5327
 6439SOL     OW30778   4.068   2.307   4.563 -0.1237  0.6318 -0.6601
 6439SOL    HW130779   4.028   2.361   4.494  0.8650  1.2888 -0.7184
 6439SOL    HW230780   4.011   2.231   4.551 -0.8209  0.9358  0.6894
 6440SOL     OW30781   2.875   2.996  15.353  0.3154 -0.3270  0.3477
 6440SOL    HW130782   2.948   2.935  15.364 -0.0320 -0.5226  1.5471
 6440SOL    HW230783   2.825   2.993  15.435 -0.0008  3.2121  0.2775
 6441SOL     OW30784   0.869   4.703  13.391 -0.2815 -0.1005  0.3574
 6441SOL    HW130785   0.803   0.007  13.328  0.5459 -2.0080 -1.4103
 6441SOL    HW230786   0.953   0.009  13.361  0.5059 -1.4948  1.0557
 6442SOL     OW30787   4.047   2.411   1.840  0.0394 -0.2578 -0.6037
 6442SOL    HW130788   4.000   2.489   1.810  0.6836 -0.2994 -1.7207
 6442SOL    HW230789   4.063   2.421   1.933  1.2823  0.8978 -0.9484
 6443SOL     OW30790   1.431   1.651   6.457 -0.0355 -0.0851 -0.1743
 6443SOL    HW130791   1.448   1.594   6.382 -0.2365 -0.1850 -0.1435
 6443SOL    HW230792   1.522   1.673   6.475 -0.4535 -1.8641  4.0567
 6444SOL     OW30793   4.064   4.240  16.815  0.2217 -0.0179  0.1582
 6444SOL    HW130794   3.987   4.296  16.809  1.1083  0.9491 -2.2927
 6444SOL    HW230795   4.073   4.220  16.908  0.4969  0.0495  0.1479
 6445SOL     OW30796   3.064   2.832   9.122 -0.3278  0.5512 -0.2766
 6445SOL    HW130797   3.038   2.841   9.213  0.6256  1.0021 -0.0417
 6445SOL    HW230798   3.157   2.811   9.136 -0.5112  0.4948  0.8589
 6446SOL     OW30799   1.189   2.568   0.968 -0.1378  0.0904  0.0399
 6446SOL    HW130800   1.170   2.631   0.899  2.3614 -1.2054 -1.7992
 6446SOL    HW230801   1.276   2.550   0.933 -0.8750 -0.6395 -1.4062
 6447SOL     OW30802   0.969   4.396  10.308 -0.0254 -0.2353 -0.0308
 6447SOL    HW130803   0.920   4.386  10.390  0.8259  1.8336  0.7390
 6447SOL    HW230804   1.008   4.482  10.326  0.0421 -0.1008 -0.8484
 6448SOL     OW30805   1.621   1.798  17.625  0.3304  0.1175  0.2639
 6448SOL    HW130806   1.562   1.736  17.667 -0.1924  0.7971  0.5193
 6448SOL    HW230807   1.566   1.828  17.552 -1.1485 -0.3857  1.1797
 6449SOL     OW30808   0.338   4.439  16.382 -0.5783  0.5592 -0.2930
 6449SOL    HW130809   0.262   4.438  16.324 -0.0029  0.5495 -1.0472
 6449SOL    HW230810   0.405   4.391  16.332  0.4758  1.0128  0.6957
 6450SOL     OW30811   4.311   2.240   9.851  0.4464 -0.2043  0.2068
 6450SOL    HW130812   4.341   2.305   9.915 -1.1302  1.5814 -0.8628
 6450SOL    HW230813   4.348   2.160   9.887 -0.2349  0.2137  1.8386
 6451SOL     OW30814   0.296   2.021   4.715 -0.1475  0.0804 -0.0693
 6451SOL    HW130815   0.243   2.085   4.763 -0.8962 -1.2779  0.9268
 6451SOL    HW230816   0.345   2.071   4.650  4.7042 -3.1220  1.0764
 6452SOL     OW30817   4.481   1.367   3.012  0.4873  0.3122 -0.4988
 6452SOL    HW130818   4.507   1.308   3.083 -0.2921 -0.3009 -0.7139
 6452SOL    HW230819   4.397   1.399   3.045  0.5384 -1.2172  1.1108
 6453SOL     OW30820   1.341   2.821   8.722 -0.1427 -0.2030 -0.1893
 6453SOL    HW130821   1.410   2.758   8.737 -0.4658 -0.3387  0.6998
 6453SOL    HW230822   1.390   2.900   8.744 -1.1761  1.1131 -2.5447
 6454SOL     OW30823   1.726   4.350   6.378 -0.1666  0.1103  0.6284
 6454SOL    HW130824   1.675   4.417   6.333 -0.5845 -0.7668 -0.1997
 6454SOL    HW230825   1.772   4.402   6.443 -1.8901  1.9486  0.3829
 6455SOL     OW30826   3.757   3.225   1.509  0.1645 -0.6887  0.0017
 6455SOL    HW130827   3.671   3.183   1.516 -0.6271  0.2702 -3.5942
 6455SOL    HW230828   3.823   3.171   1.551  0.1049 -2.3715 -2.0799
 6456SOL     OW30829   2.882   0.321  12.758 -0.4579  0.6334 -0.3589
 6456SOL    HW130830   2.878   0.405  12.713  1.7126  1.8298  1.6781
 6456SOL    HW230831   2.847   0.332  12.847 -0.3187 -0.6281 -0.1501
 6457SOL     OW30832   1.858   3.853   6.718 -0.2819  0.3548 -0.1459
 6457SOL    HW130833   1.787   3.861   6.655 -0.7343  1.8913  0.5490
 6457SOL    HW230834   1.931   3.867   6.658  0.7232 -0.9716  0.7686
 6458SOL     OW30835   4.161   2.972   2.627  0.1647  0.1860  0.0214
 6458SOL    HW130836   4.199   3.059   2.622 -0.6223  0.6693  2.7962
 6458SOL    HW230837   4.065   2.979   2.625  0.2807  1.5949 -0.6895
 6459SOL     OW30838   2.019   1.275  17.564  0.1841 -0.4077 -0.3425
 6459SOL    HW130839   2.027   1.366  17.535 -3.0376  0.0385  0.1394
 6459SOL    HW230840   2.110   1.261  17.589 -0.3560 -2.4542  0.4238
 6460SOL     OW30841   1.209   0.990   6.612 -0.1531 -0.4651 -0.1986
 6460SOL    HW130842   1.148   0.918   6.623 -0.1390 -0.0909  2.4290
 6460SOL    HW230843   1.279   0.941   6.569  0.4732  0.1619  0.1091
 6461SOL     OW30844   4.125   1.026   5.118  0.1080 -0.0436 -0.1616
 6461SOL    HW130845   4.103   0.940   5.155  1.5348 -0.4256 -0.2122
 6461SOL    HW230846   4.212   1.030   5.156  0.0141  1.3013 -0.0823
 6462SOL     OW30847   1.540   4.240  11.002 -0.0818  0.2827 -0.0086
 6462SOL    HW130848   1.624   4.197  11.019  0.1963  0.1460 -1.7092
 6462SOL    HW230849   1.534   4.230  10.907  1.3738 -0.8972  0.0321
 6463SOL     OW30850   1.459   3.594  17.619  0.1308 -0.1479  0.0477
 6463SOL    HW130851   1.375   3.579  17.663 -0.0251  1.4978  0.3071
 6463SOL    HW230852   1.463   3.689  17.629 -0.5518 -0.3345  2.1430
 6464SOL     OW30853   1.966   4.142   0.026 -0.3711  0.0598  0.2270
 6464SOL    HW130854   1.989   4.072   0.086 -1.2015 -0.2330  0.2126
 6464SOL    HW230855   1.981   4.220   0.081  0.1954 -1.3923  2.1349
 6465SOL     OW30856   0.129   2.503   2.538  0.2284  0.4021 -0.1406
 6465SOL    HW130857   0.122   2.541   2.450 -0.5773 -1.2542 -0.7900
 6465SOL    HW230858   0.183   2.569   2.583  1.7209  0.5113 -2.0907
 6466SOL     OW30859   2.004   0.849   5.288 -0.4611 -0.9613  0.5047
 6466SOL    HW130860   2.067   0.799   5.339  1.5249  1.3121  0.2804
 6466SOL    HW230861   1.919   0.835   5.330 -0.4259  0.6295  1.1093
 6467SOL     OW30862   4.095   0.365   0.599  0.3451  0.5287 -0.1241
 6467SOL    HW130863   4.169   0.421   0.578  1.6560 -1.2444 -0.2096
 6467SOL    HW230864   4.132   0.277   0.605  0.1019  0.4855  0.7376
 6468SOL     OW30865   1.585   4.154   8.159  0.7950  0.2061 -0.4236
 6468SOL    HW130866   1.616   4.182   8.073  0.3233  2.2508  0.0795
 6468SOL    HW230867   1.562   4.064   8.133 -1.6022  0.8213 -0.4276
 6469SOL     OW30868   2.305   1.246   9.045  0.2197  0.0212 -0.1719
 6469SOL    HW130869   2.219   1.268   9.080  0.6171  1.1529  0.0830
 6469SOL    HW230870   2.356   1.234   9.126  0.7898  0.8213 -0.4108
 6470SOL     OW30871   2.939   4.037   7.469 -0.2081  0.3711  0.8931
 6470SOL    HW130872   2.924   4.129   7.445 -2.9969 -0.3729 -0.2016
 6470SOL    HW230873   2.980   3.994   7.394  1.1257  2.3122  0.5158
 6471SOL     OW30874   0.668   0.432  13.106 -0.1103  0.0777 -0.3555
 6471SOL    HW130875   0.631   0.362  13.160 -0.2416  1.6386  1.5514
 6471SOL    HW230876   0.762   0.415  13.112 -0.4124  0.0025  4.2883
 6472SOL     OW30877   4.029   2.186   2.534  0.1018 -0.4439 -0.1335
 6472SOL    HW130878   3.962   2.158   2.471 -2.5178  0.3290  2.3212
 6472SOL    HW230879   4.095   2.206   2.467 -0.3020 -0.4328 -0.5275
 6473SOL     OW30880   1.189   0.370   8.129  0.3739  0.3883 -0.3342
 6473SOL    HW130881   1.200   0.351   8.223  1.0040 -0.0913 -0.5055
 6473SOL    HW230882   1.235   0.454   8.124 -1.8143  1.3784 -3.1491
 6474SOL     OW30883   4.476   2.021   5.165 -0.3298 -0.2831 -0.0351
 6474SOL    HW130884   4.507   2.088   5.104  0.3118 -0.2703  0.3030
 6474SOL    HW230885   4.559   1.977   5.185  0.7383  2.3361  1.3889
 6475SOL     OW30886   0.017   0.198  10.575  0.6405 -0.3735  0.8913
 6475SOL    HW130887   4.672   0.200  10.639 -1.2689 -0.1024 -1.2237
 6475SOL    HW230888   0.068   0.270  10.610  3.2889 -1.7221 -0.1690
 6476SOL     OW30889   2.068   0.610  12.176  0.0808 -0.0823  0.3625
 6476SOL    HW130890   2.148   0.566  12.148  0.0912  0.1106  0.0924
 6476SOL    HW230891   2.021   0.634  12.096 -0.3505  0.8942  0.9111
 6477SOL     OW30892   1.727   0.361   4.923 -0.3302 -0.3337 -0.1220
 6477SOL    HW130893   1.791   0.403   4.865 -0.0637 -0.8870 -0.2300
 6477SOL    HW230894   1.676   0.440   4.942 -0.8742 -1.0432  1.3346
 6478SOL     OW30895   0.076   3.273   1.952 -0.4063 -0.1311  0.0770
 6478SOL    HW130896   0.036   3.319   2.027 -0.1505  0.5626 -0.2095
 6478SOL    HW230897   4.716   3.254   1.914 -0.6801  1.4185 -0.0807
 6479SOL     OW30898   0.915   1.996   6.775 -0.3941  0.3640  0.2037
 6479SOL    HW130899   0.860   1.970   6.701  0.5329 -0.7159 -0.1143
 6479SOL    HW230900   0.920   1.917   6.829  1.8297 -0.8703 -1.7553
 6480SOL     OW30901   3.150   0.039   4.621 -0.2254 -0.2596  0.8143
 6480SOL    HW130902   3.197   0.007   4.698 -0.4258 -0.9855  0.6375
 6480SOL    HW230903   3.181   4.705   4.553 -2.2444 -0.1800 -0.1683
 6481SOL     OW30904   0.306   3.260  10.047  0.2699  0.6834 -0.5758
 6481SOL    HW130905   0.373   3.270   9.981  0.4111 -1.0716 -0.7174
 6481SOL    HW230906   0.253   3.338  10.032 -0.8338 -0.1714 -1.1317
 6482SOL     OW30907   0.323   2.809   6.048  0.4463  0.1220  0.1651
 6482SOL    HW130908   0.359   2.721   6.061  0.5899  0.4102  1.7130
 6482SOL    HW230909   0.331   2.814   5.952  0.1121  0.6684  0.1612
 6483SOL     OW30910   0.819   1.602   7.987 -0.3288  0.0373  0.8405
 6483SOL    HW130911   0.890   1.622   8.048  2.3447 -2.9166 -1.3424
 6483SOL    HW230912   0.858   1.620   7.902  0.9778  1.4916  1.7424
 6484SOL     OW30913   1.858   1.689   3.818  0.2976 -0.3460 -0.6093
 6484SOL    HW130914   1.862   1.757   3.750 -0.9062  0.5947  0.2713
 6484SOL    HW230915   1.953   1.684   3.833  0.6414  1.5384 -2.2270
 6485SOL     OW30916   4.450   3.495   0.293 -0.3113 -0.0486  0.4402
 6485SOL    HW130917   4.395   3.420   0.318 -2.0675  0.9866 -0.3252
 6485SOL    HW230918   4.504   3.457   0.224 -0.8559 -1.0831  0.5745
 6486SOL     OW30919   4.062   1.132   5.421  0.1784 -0.1673 -0.1330
 6486SOL    HW130920   3.978   1.087   5.429  0.4978 -0.1291  3.5099
 6486SOL    HW230921   4.116   1.067   5.378 -0.5997 -0.0006 -1.3642
 6487SOL     OW30922   0.813   2.632  13.459  0.8473  0.7507  0.1961
 6487SOL    HW130923   0.793   2.684  13.381 -0.2810 -0.0085 -0.0248
 6487SOL    HW230924   0.833   2.546  13.423  2.3598  0.3476  2.0092
 6488SOL     OW30925   0.770   3.028   4.297  0.9014 -0.3030  0.1441
 6488SOL    HW130926   0.841   2.991   4.245 -0.0951 -0.5581 -1.0161
 6488SOL    HW230927   0.741   2.944   4.334  2.3737 -0.2439  1.4401
 6489SOL     OW30928   0.749   1.137   3.386 -0.3769 -0.3324 -0.0939
 6489SOL    HW130929   0.769   1.083   3.309  0.4263 -1.4476  0.8927
 6489SOL    HW230930   0.766   1.080   3.461 -1.4279  0.4434  0.7097
 6490SOL     OW30931   3.740   2.440  16.679  0.4075  0.6025 -0.1804
 6490SOL    HW130932   3.725   2.478  16.593  1.5223 -1.2879 -1.2395
 6490SOL    HW230933   3.822   2.478  16.712  1.8884 -2.7750  0.1060
 6491SOL     OW30934   2.010   3.295   9.854 -0.0147 -0.4304  0.2675
 6491SOL    HW130935   1.924   3.255   9.859 -0.6074  0.8312  0.2008
 6491SOL    HW230936   2.046   3.231   9.915 -2.0253  0.5312  2.4455
 6492SOL     OW30937   3.908   4.712   4.498  0.2395  0.0124 -0.0620
 6492SOL    HW130938   3.844   4.680   4.434  0.8230  0.4670 -0.8756
 6492SOL    HW230939   3.947   0.062   4.456  0.0622  0.1599  0.0398
 6493SOL     OW30940   3.550   1.481   6.585 -0.0736  0.1341 -0.1055
 6493SOL    HW130941   3.631   1.445   6.550 -0.1541 -1.0904  0.9566
 6493SOL    HW230942   3.573   1.572   6.565 -1.7685  0.3743 -0.9019
 6494SOL     OW30943   0.360   4.135  15.184 -0.3345 -0.2351 -0.4646
 6494SOL    HW130944   0.392   4.212  15.230 -0.1462 -0.3198 -0.4521
 6494SOL    HW230945   0.275   4.163  15.150 -0.6673  0.3767  0.8989
 6495SOL     OW30946   1.204   2.279   1.011  0.0037  0.3425 -0.2613
 6495SOL    HW130947   1.189   2.246   0.923  1.0287 -1.3026  0.1950
 6495SOL    HW230948   1.123   2.326   1.031  0.3751  0.9817 -0.2640
 6496SOL     OW30949   3.489   3.402   5.702 -0.2313 -0.5410  0.5353
 6496SOL    HW130950   3.462   3.325   5.651 -2.3793 -0.5986  1.7323
 6496SOL    HW230951   3.410   3.455   5.692  0.6680  0.9480  1.3809
 6497SOL     OW30952   2.503   0.916   4.796 -0.0951 -0.1066 -0.5661
 6497SOL    HW130953   2.435   0.963   4.845  1.1665  0.1554  0.9348
 6497SOL    HW230954   2.447   0.843   4.770 -0.0265 -0.5371  0.4975
 6498SOL     OW30955   2.471   3.170   9.469 -0.6941 -0.0124  0.0560
 6498SOL    HW130956   2.481   3.265   9.481 -2.3383  0.1030  0.5811
 6498SOL    HW230957   2.546   3.132   9.515 -0.3551  1.3290  0.6187
 6499SOL     OW30958   1.668   1.940  16.287  0.1278  0.0075 -0.6486
 6499SOL    HW130959   1.646   1.996  16.362  2.5596 -2.0861  1.6264
 6499SOL    HW230960   1.602   1.871  16.293  2.7537 -2.6329 -1.9762
 6500SOL     OW30961   2.982   2.211   3.637 -0.3095  0.1524  0.5297
 6500SOL    HW130962   2.974   2.303   3.663  1.9377  0.6253 -0.4597
 6500SOL    HW230963   2.910   2.213   3.575  1.7037  0.2663 -1.7853
 6501SOL     OW30964   3.060   3.531   8.312  0.0052 -0.5346  0.1715
 6501SOL    HW130965   3.077   3.617   8.350 -2.7447  0.8393 -1.7000
 6501SOL    HW230966   3.140   3.519   8.262  0.8244  3.7067  0.4414
 6502SOL     OW30967   3.236   2.112   8.807  0.1465  0.0982  0.0887
 6502SOL    HW130968   3.319   2.064   8.803 -0.1530 -0.4211  0.2028
 6502SOL    HW230969   3.179   2.039   8.786  0.4900  0.4236 -1.9506
 6503SOL     OW30970   2.272   1.621   5.316 -0.7817 -0.3810  0.4480
 6503SOL    HW130971   2.302   1.695   5.369  2.7535 -1.4552 -0.0809
 6503SOL    HW230972   2.201   1.669   5.274  1.3752 -0.8544 -3.6965
 6504SOL     OW30973   1.242   4.392   6.988  0.1950 -0.6088 -0.2752
 6504SOL    HW130974   1.336   4.394   6.969  0.6268 -1.0440  1.8345
 6504SOL    HW230975   1.227   4.303   6.958  0.6114 -0.6135 -0.4754
 6505SOL     OW30976   2.496   1.611  16.575  0.1213 -0.3034 -0.4027
 6505SOL    HW130977   2.431   1.578  16.636  0.3070  0.3413  0.1433
 6505SOL    HW230978   2.458   1.693  16.543 -0.2337  0.1716  1.2641
 6506SOL     OW30979   0.472   3.884   6.839  0.8229  0.4174  0.3233
 6506SOL    HW130980   0.421   3.904   6.918  2.9440 -2.0661  2.3430
 6506SOL    HW230981   0.410   3.888   6.766  1.5942  1.1515 -0.2855
 6507SOL     OW30982   4.565   3.887   2.127  0.2980  0.5074 -1.1133
 6507SOL    HW130983   4.591   3.796   2.119  0.2469  0.4068 -0.1209
 6507SOL    HW230984   4.481   3.887   2.081 -1.4497  0.2611  2.1421
 6508SOL     OW30985   0.911   2.793   4.827 -0.0666 -0.0825  0.0384
 6508SOL    HW130986   0.923   2.730   4.756  1.1888  0.1806  0.0260
 6508SOL    HW230987   0.819   2.819   4.822 -0.7677 -3.1361 -3.2367
 6509SOL     OW30988   3.992   0.671  10.408 -0.3890  0.3829  0.0286
 6509SOL    HW130989   3.908   0.645  10.445 -0.6892  3.3965  1.4482
 6509SOL    HW230990   3.974   0.630  10.323  3.4851  0.4750 -0.8485
 6510SOL     OW30991   0.835   1.270  14.923  0.0892 -0.6278  0.1771
 6510SOL    HW130992   0.820   1.226  14.840 -0.2558  0.7444 -0.4744
 6510SOL    HW230993   0.750   1.272  14.966  0.2926 -2.6446  0.7065
 6511SOL     OW30994   0.471   2.632  11.850  0.5042 -0.3230 -0.4913
 6511SOL    HW130995   0.483   2.672  11.764 -0.3661 -1.1406 -1.0057
 6511SOL    HW230996   0.530   2.678  11.909  0.3863  0.0016 -0.6300
 6512SOL     OW30997   0.687   2.052  15.908  0.0668  0.8712  0.3375
 6512SOL    HW130998   0.621   1.984  15.895  0.2745  0.8983 -0.8406
 6512SOL    HW230999   0.756   2.005  15.956 -0.1402 -0.5817 -0.7741
 6513SOL     OW31000   4.679   2.454  17.546 -0.2491 -0.1622  0.1046
 6513SOL    HW131001   0.003   2.476  17.624  0.9160 -1.8620 -0.1612
 6513SOL    HW231002   4.645   2.368  17.568 -1.1842 -0.3156 -1.9240
 6514SOL     OW31003   4.300   4.313   2.260  0.2098 -0.0045  0.2603
 6514SOL    HW131004   4.358   4.312   2.336  1.1837  0.0554 -0.4830
 6514SOL    HW231005   4.230   4.253   2.286  0.5095  0.1546  1.4223
 6515SOL     OW31006   2.623   0.522   6.373  0.2879  0.6230 -0.3011
 6515SOL    HW131007   2.611   0.437   6.416  1.2883  1.0027  0.7652
 6515SOL    HW231008   2.559   0.570   6.425 -1.4389  0.2225 -2.0665
 6516SOL     OW31009   2.169   0.359   7.682 -0.0946  0.1400  0.0982
 6516SOL    HW131010   2.168   0.452   7.707  0.0809  0.0381  0.4826
 6516SOL    HW231011   2.254   0.334   7.718 -1.0799 -0.4532  2.0498
 6517SOL     OW31012   2.619   1.271   6.874  0.0504 -0.2314 -0.5840
 6517SOL    HW131013   2.600   1.191   6.923  0.2123 -0.7165 -1.3187
 6517SOL    HW231014   2.712   1.261   6.856  0.2537 -0.2439  0.4449
 6518SOL     OW31015   0.598   2.487   3.840  0.6530  0.0030 -0.5646
 6518SOL    HW131016   0.563   2.398   3.847 -2.7822  1.2410 -1.9920
 6518SOL    HW231017   0.671   2.488   3.902 -0.9965  1.6020  1.3465
 6519SOL     OW31018   2.099   0.674  17.041  0.1218  0.1493 -0.2974
 6519SOL    HW131019   2.049   0.745  17.083  1.8627 -0.1142  2.2676
 6519SOL    HW231020   2.069   0.694  16.953 -0.0619 -0.8428 -0.4511
 6520SOL     OW31021   1.705   2.164  17.339  0.1932  0.1371  0.4787
 6520SOL    HW131022   1.659   2.187  17.420  2.5126 -1.4043  2.2339
 6520SOL    HW231023   1.710   2.069  17.344 -3.4110 -0.0996 -0.5753
 6521SOL     OW31024   4.224   3.931   1.516 -0.2199  0.1345 -0.1889
 6521SOL    HW131025   4.140   3.942   1.472  0.3484  0.3608 -1.2189
 6521SOL    HW231026   4.267   4.012   1.491 -1.0695  0.9268  0.9183
 6522SOL     OW31027   4.246   2.080   2.846 -0.2609  0.0025 -0.2740
 6522SOL    HW131028   4.312   2.052   2.783  0.6969  0.1415  0.6665
 6522SOL    HW231029   4.251   2.172   2.820 -4.0118  0.2043 -0.2515
 6523SOL     OW31030   3.322   2.043   5.439  0.6336 -0.0077 -0.1682
 6523SOL    HW131031   3.306   1.959   5.396  2.1455  1.0175 -2.6855
 6523SOL    HW231032   3.241   2.067   5.483 -0.8916  0.6533 -3.3218
 6524SOL     OW31033   4.174   1.736   7.103 -0.4830  0.4371 -0.1428
 6524SOL    HW131034   4.093   1.698   7.138  0.2686 -2.5226 -1.6101
 6524SOL    HW231035   4.222   1.654   7.092 -1.5187 -0.1087 -0.6168
 6525SOL     OW31036   4.289   3.360   3.460  0.4910 -0.4947  0.0664
 6525SOL    HW131037   4.228   3.295   3.425  2.6096 -2.5920  0.2913
 6525SOL    HW231038   4.249   3.388   3.542  0.3492 -1.0274  0.1800
 6526SOL     OW31039   1.557   1.230   3.421  0.0378 -0.1206  0.0538
 6526SOL    HW131040   1.571   1.144   3.383 -0.8309 -1.0111  1.7753
 6526SOL    HW231041   1.510   1.203   3.500 -0.0617  1.4356  0.5238
 6527SOL     OW31042   4.346   2.572   4.009 -0.0377  0.4390 -0.5954
 6527SOL    HW131043   4.405   2.647   4.002 -0.1144  0.3500 -2.3069
 6527SOL    HW231044   4.337   2.560   3.914 -0.2338  0.3777 -0.5685
 6528SOL     OW31045   2.054   0.363   6.976 -0.4939  0.6475  0.4881
 6528SOL    HW131046   2.130   0.340   7.030  0.6803  0.1879 -1.3701
 6528SOL    HW231047   2.019   0.440   7.020  0.1646  2.6238 -2.4490
 6529SOL     OW31048   3.163   0.130   1.805 -0.0995  0.1817  0.2918
 6529SOL    HW131049   3.069   0.142   1.790 -0.1717 -1.2033 -0.3647
 6529SOL    HW231050   3.198   0.218   1.789 -1.1743  0.3955 -0.9259
 6530SOL     OW31051   1.556   2.393  16.792  0.4248 -0.4319  0.0513
 6530SOL    HW131052   1.506   2.317  16.763 -0.6346  0.2580  0.0396
 6530SOL    HW231053   1.629   2.351  16.836  0.3803 -1.0519 -0.4779
 6531SOL     OW31054   0.946   4.089  17.103  0.1336  0.4598 -0.2265
 6531SOL    HW131055   0.864   4.044  17.086  1.5706 -2.2302  0.0005
 6531SOL    HW231056   0.960   4.121  17.014  0.7226 -0.5581 -0.5039
 6532SOL     OW31057   1.062   4.518   9.118 -0.7769 -0.0977 -0.2639
 6532SOL    HW131058   1.015   4.549   9.040 -0.5127  0.3832 -0.2289
 6532SOL    HW231059   0.991   4.541   9.178 -2.4947  0.1028 -2.3680
 6533SOL     OW31060   1.540   1.276  15.296  0.2198 -0.3567  0.3517
 6533SOL    HW131061   1.454   1.285  15.255 -0.6445 -3.5244  1.4454
 6533SOL    HW231062   1.571   1.366  15.288  1.0039 -0.6822 -0.3726
 6534SOL     OW31063   2.402   2.128   7.485 -0.2075  0.1782 -0.2120
 6534SOL    HW131064   2.425   2.146   7.394 -0.0511  1.2895  0.0545
 6534SOL    HW231065   2.446   2.206   7.517 -0.7190 -0.2877  1.6248
 6535SOL     OW31066   3.421   1.289  15.548  0.1383 -0.3426 -0.0952
 6535SOL    HW131067   3.364   1.243  15.609 -1.5851  2.5237  0.4420
 6535SOL    HW231068   3.360   1.347  15.502  0.2345  0.0411  0.2632
 6536SOL     OW31069   2.440   2.806   6.021  0.7109 -0.1384 -0.1745
 6536SOL    HW131070   2.442   2.778   5.929 -0.5491  1.0565 -0.5623
 6536SOL    HW231071   2.518   2.862   6.025 -0.1995  1.3184 -2.3881
 6537SOL     OW31072   2.292   2.432   3.103 -0.1787  0.0446  0.6252
 6537SOL    HW131073   2.206   2.472   3.096 -0.5288 -0.9544 -0.6633
 6537SOL    HW231074   2.292   2.368   3.032  0.5595 -1.4271  1.9357
 6538SOL     OW31075   2.364   3.532  14.008 -0.2309 -0.4789 -0.2383
 6538SOL    HW131076   2.288   3.542  14.065  1.4151 -0.5783  1.9809
 6538SOL    HW231077   2.387   3.621  13.981 -0.9858 -0.2361 -0.0824
 6539SOL     OW31078   4.119   0.728   0.735 -0.8393 -0.3440  0.3670
 6539SOL    HW131079   4.171   0.669   0.681 -0.8377 -1.2037  1.2981
 6539SOL    HW231080   4.059   0.667   0.777 -1.0994 -0.3491 -0.0215
 6540SOL     OW31081   0.310   3.233   4.823 -0.0765 -0.1624 -0.1527
 6540SOL    HW131082   0.299   3.178   4.746  0.2152 -0.0076 -0.3040
 6540SOL    HW231083   0.394   3.202   4.858  0.1778 -1.6200 -2.0491
 6541SOL     OW31084   2.515   3.380   9.749  0.8040  0.8166 -0.2055
 6541SOL    HW131085   2.431   3.351   9.786  0.2267  0.7415 -1.5679
 6541SOL    HW231086   2.495   3.428   9.669  0.8555 -1.7330 -1.7523
 6542SOL     OW31087   0.099   2.100   7.102 -0.1098 -0.2184  0.2111
 6542SOL    HW131088   0.072   2.023   7.053  0.2153 -0.6160  0.6581
 6542SOL    HW231089   0.167   2.148   7.055 -1.2274  1.8925  0.7280
 6543SOL     OW31090   0.622   1.499  16.204 -0.5138 -0.0883  0.3538
 6543SOL    HW131091   0.648   1.573  16.149  0.3692  0.7021  1.8284
 6543SOL    HW231092   0.709   1.473  16.233  1.2138  0.3379 -4.4303
 6544SOL     OW31093   1.139   4.661  15.672 -0.1375 -0.3359  0.3269
 6544SOL    HW131094   1.102   0.001  15.730 -0.1761  1.1419 -1.3643
 6544SOL    HW231095   1.106   4.692  15.588  1.4823  0.2593 -0.0871
 6545SOL     OW31096   3.910   3.558   3.058  0.5225 -0.0091  0.7969
 6545SOL    HW131097   3.872   3.625   3.115  2.6500  1.1860  0.7915
 6545SOL    HW231098   3.977   3.604   3.009  0.3655  0.8812  1.4153
 6546SOL     OW31099   4.331   1.365   9.471  0.1080  0.2331  0.1042
 6546SOL    HW131100   4.397   1.410   9.418 -0.2707 -0.3473 -0.8410
 6546SOL    HW231101   4.329   1.428   9.543 -0.0030  2.6180 -1.9749
 6547SOL     OW31102   2.518   1.928   7.670 -0.0067 -0.3619 -0.0477
 6547SOL    HW131103   2.481   1.956   7.586 -0.9021 -2.3034 -0.3044
 6547SOL    HW231104   2.591   1.989   7.672 -1.7532  1.6941  0.2851
 6548SOL     OW31105   4.301   0.021   6.795  0.2437  0.6102 -0.0594
 6548SOL    HW131106   4.300   0.089   6.727 -1.4564 -0.8739 -1.5076
 6548SOL    HW231107   4.245   0.068   6.857  1.2847  0.4841  0.9748
 6549SOL     OW31108   2.084   1.986   9.175 -0.0431 -0.3596  0.3112
 6549SOL    HW131109   2.150   1.986   9.106 -0.5974  0.0422 -0.2173
 6549SOL    HW231110   2.135   1.959   9.251  1.3661 -0.5617 -0.7159
 6550SOL     OW31111   0.648   2.132   8.689  0.3446  0.1844  0.4811
 6550SOL    HW131112   0.657   2.219   8.650 -1.4191 -0.7816 -2.0472
 6550SOL    HW231113   0.569   2.105   8.642  0.8989 -1.4685  0.4844
 6551SOL     OW31114   2.556   3.080   4.292  0.2702 -0.1683 -0.1129
 6551SOL    HW131115   2.568   3.097   4.198  0.3307 -1.6642 -0.3738
 6551SOL    HW231116   2.534   3.171   4.313 -0.5262 -0.6432  1.0799
 6552SOL     OW31117   1.054   3.135   7.596  0.2761  0.1523 -0.3291
 6552SOL    HW131118   0.972   3.116   7.550 -0.5667  2.0387  0.4139
 6552SOL    HW231119   1.038   3.098   7.683 -1.2275  0.3796 -0.4951
 6553SOL     OW31120   3.807   2.504   2.291  0.2568 -0.0022  0.0007
 6553SOL    HW131121   3.770   2.560   2.223  1.0078 -0.1733 -0.5557
 6553SOL    HW231122   3.762   2.421   2.281  0.9643 -0.3479 -0.3789
 6554SOL     OW31123   1.362   4.055   8.706 -0.7865 -0.4704  0.0320
 6554SOL    HW131124   1.351   4.135   8.654  1.1564  0.7740  1.5346
 6554SOL    HW231125   1.437   4.084   8.758  0.3195 -1.1024 -1.1827
 6555SOL     OW31126   3.873   4.371   9.202  0.2164  0.1370  0.2943
 6555SOL    HW131127   3.817   4.425   9.145  1.0439  0.8633  0.1711
 6555SOL    HW231128   3.923   4.445   9.236 -0.7764  1.2166 -0.5517
 6556SOL     OW31129   2.945   3.158   5.370  0.5662 -0.1301  0.2907
 6556SOL    HW131130   2.977   3.213   5.441  1.6256 -0.9873  0.4715
 6556SOL    HW231131   2.987   3.192   5.291 -0.3299 -2.6143 -1.2490
 6557SOL     OW31132   0.310   1.835   1.838  0.5178  0.4022  0.2539
 6557SOL    HW131133   0.388   1.891   1.850  1.8492 -1.0914 -1.4777
 6557SOL    HW231134   0.237   1.881   1.880  0.4028 -0.5389  1.0841
 6558SOL     OW31135   0.742   4.522   0.459 -0.0702 -0.2469 -0.0338
 6558SOL    HW131136   0.724   4.428   0.468  0.0813 -0.3087 -0.3864
 6558SOL    HW231137   0.681   4.545   0.389  1.4787  0.4305 -1.1379
 6559SOL     OW31138   0.945   0.143   4.084  0.0930  0.0177 -0.3324
 6559SOL    HW131139   0.925   0.102   4.168  0.2617 -1.8710 -1.2206
 6559SOL    HW231140   1.021   0.197   4.104 -0.3468  1.3242 -2.1841
 6560SOL     OW31141   3.990   3.042   7.958  0.3979  0.4020 -0.7445
 6560SOL    HW131142   4.083   3.057   7.940  0.6654 -0.8680 -0.4409
 6560SOL    HW231143   4.002   2.957   8.002  0.0915  2.0045  2.4327
 6561SOL     OW31144   3.049   1.081   8.008 -0.1493 -0.2890 -0.8312
 6561SOL    HW131145   3.043   1.031   8.089 -0.2264  0.0932 -0.5970
 6561SOL    HW231146   3.134   1.045   7.981 -0.2751 -0.3408 -1.1572
 6562SOL     OW31147   1.971   3.496   8.953 -0.4226  0.2368 -0.1090
 6562SOL    HW131148   2.022   3.421   8.923  1.8162  0.6455  2.5668
 6562SOL    HW231149   2.018   3.531   9.029 -0.6309 -0.3218  0.2782
 6563SOL     OW31150   4.344   4.448   7.127  0.2981 -0.5967 -0.1078
 6563SOL    HW131151   4.283   4.522   7.127 -1.2761 -1.8876 -0.4512
 6563SOL    HW231152   4.431   4.488   7.130  0.4293 -0.8434 -0.5758
 6564SOL     OW31153   4.459   3.559  10.011  0.2583 -0.5085  0.4582
 6564SOL    HW131154   4.383   3.505  10.031 -1.7549  2.2675  0.2404
 6564SOL    HW231155   4.527   3.492  10.005  0.8094 -0.0171  1.0938
 6565SOL     OW31156   4.399   0.204   4.195  0.1234 -0.0338 -0.0128
 6565SOL    HW131157   4.453   0.267   4.241 -0.7465  0.6617  0.0419
 6565SOL    HW231158   4.455   0.184   4.120 -0.1121  0.1630 -0.2399
 6566SOL     OW31159   3.876   1.559  10.465 -0.3411  0.1467 -0.3805
 6566SOL    HW131160   3.920   1.475  10.457 -1.7616 -0.5143 -1.3936
 6566SOL    HW231161   3.946   1.624  10.470 -2.1233  2.0819 -0.6113
 6567SOL     OW31162   0.326   2.650   4.195  0.4953  0.8025  0.3361
 6567SOL    HW131163   0.369   2.662   4.110  1.1879 -0.5402  0.4994
 6567SOL    HW231164   0.332   2.555   4.205 -0.7609  0.6104 -0.6657
 6568SOL     OW31165   2.498   4.027   4.061  0.1861 -0.0089 -0.1298
 6568SOL    HW131166   2.507   4.076   3.979  1.4107 -0.5904 -0.3383
 6568SOL    HW231167   2.586   3.989   4.069  1.0590  1.7846 -1.0816
 6569SOL     OW31168   0.190   1.813   0.063 -0.2973 -0.5185  0.5079
 6569SOL    HW131169   0.156   1.724   0.067  1.8702 -1.3296  0.5062
 6569SOL    HW231170   0.272   1.792   0.106 -0.3065 -4.2242 -1.2981
 6570SOL     OW31171   2.802   3.255   0.412 -0.0806 -0.2604 -0.6225
 6570SOL    HW131172   2.781   3.316   0.482  0.6903  0.2426 -0.8359
 6570SOL    HW231173   2.853   3.189   0.459  2.7846  2.4605  0.1044
 6571SOL     OW31174   3.396   3.469  13.820 -0.0810  0.1012 -0.3390
 6571SOL    HW131175   3.461   3.476  13.750  0.3247 -3.5258 -0.3583
 6571SOL    HW231176   3.325   3.439  13.762  0.4854  2.2926 -2.1802
 6572SOL     OW31177   1.533   0.604   4.477  0.0739 -0.4029 -0.5407
 6572SOL    HW131178   1.595   0.654   4.529 -1.4204 -0.8866  1.7128
 6572SOL    HW231179   1.582   0.586   4.396  1.3930  2.5994 -0.4060
 6573SOL     OW31180   1.795   2.707   8.919  0.2474 -0.0230 -0.2304
 6573SOL    HW131181   1.735   2.701   8.993 -0.9516  0.2240 -1.1756
 6573SOL    HW231182   1.878   2.671   8.950  1.4664  1.4531 -1.8008
 6574SOL     OW31183   4.493   1.176   6.181  0.0162 -1.1538  0.3309
 6574SOL    HW131184   4.539   1.137   6.107  1.5019 -1.6263  1.5064
 6574SOL    HW231185   4.493   1.108   6.249 -0.7620  0.1079  1.6078
 6575SOL     OW31186   1.539   2.436   3.241  0.0658  0.5603  0.0244
 6575SOL    HW131187   1.448   2.405   3.239  0.6311 -0.8917 -4.0379
 6575SOL    HW231188   1.550   2.461   3.333  2.2212  2.3423 -0.7010
 6576SOL     OW31189   1.800   2.139  12.461 -0.0969 -0.0417  0.2268
 6576SOL    HW131190   1.826   2.077  12.392  0.3477 -0.2163  0.5471
 6576SOL    HW231191   1.781   2.077  12.532  0.7216 -1.0942 -0.4605
 6577SOL     OW31192   1.833   3.331   8.594 -0.4939 -0.0363  0.3622
 6577SOL    HW131193   1.757   3.289   8.555 -1.1322  1.2581  0.2092
 6577SOL    HW231194   1.891   3.255   8.604 -0.4378  0.3355  2.8747
 6578SOL     OW31195   0.246   3.564   3.212  0.2156 -0.1525 -0.1204
 6578SOL    HW131196   0.318   3.606   3.165  2.1492 -1.8156  1.3892
 6578SOL    HW231197   0.237   3.492   3.150  1.7216 -0.4287 -0.0043
 6579SOL     OW31198   0.492   3.694  15.546 -0.1546 -0.3822 -0.4525
 6579SOL    HW131199   0.566   3.752  15.567 -1.7631  1.2972  0.5014
 6579SOL    HW231200   0.475   3.729  15.459 -0.6499 -0.4573 -0.3846
 6580SOL     OW31201   1.831   0.461   7.773  0.0377  0.3096  1.1882
 6580SOL    HW131202   1.899   0.466   7.840  1.2163  0.6097 -0.0213
 6580SOL    HW231203   1.829   0.366   7.759  0.5838  0.4398  0.2158
 6581SOL     OW31204   0.891   2.855   8.911 -0.0663  0.8775  0.0677
 6581SOL    HW131205   0.957   2.787   8.919 -2.2415 -1.0616  1.3200
 6581SOL    HW231206   0.930   2.914   8.847 -0.1222  1.4854  0.5935
 6582SOL     OW31207   3.688   0.192   7.073 -0.6557  0.7905  0.1270
 6582SOL    HW131208   3.730   0.256   7.130  0.1738 -0.5680  1.0247
 6582SOL    HW231209   3.608   0.165   7.118 -1.4220  0.3255 -1.5120
 6583SOL     OW31210   1.946   2.752   4.738  0.2952  0.4641 -0.0358
 6583SOL    HW131211   1.867   2.798   4.709  2.6198  4.0815 -0.6790
 6583SOL    HW231212   1.972   2.801   4.816  1.3158 -0.6437  0.3098
 6584SOL     OW31213   0.129   1.328   7.033  0.7650  0.1461  0.2570
 6584SOL    HW131214   0.075   1.338   7.112 -1.3916 -1.3748 -1.0234
 6584SOL    HW231215   0.101   1.245   6.993 -1.4542  0.0293  2.0391
 6585SOL     OW31216   2.726   4.499  15.537 -0.4731 -0.2494 -0.2899
 6585SOL    HW131217   2.684   4.585  15.548  1.8019  0.6787  1.2456
 6585SOL    HW231218   2.682   4.457  15.463 -0.9537 -3.0273  1.5927
 6586SOL     OW31219   0.131   0.929   8.540  0.1952 -0.6611  0.0691
 6586SOL    HW131220   0.166   0.966   8.459  1.9470  0.1628  1.1962
 6586SOL    HW231221   0.205   0.948   8.598 -0.3935  1.3428  0.1597
 6587SOL     OW31222   0.383   1.299   2.170  0.6888 -0.4457  0.0301
 6587SOL    HW131223   0.394   1.392   2.190  1.9467 -0.0550 -2.5544
 6587SOL    HW231224   0.383   1.267   2.261 -0.6508 -1.6849 -0.4017
 6588SOL     OW31225   1.648   4.293   5.988 -0.0739 -0.2313 -0.0565
 6588SOL    HW131226   1.585   4.357   6.021  0.6148  0.6317 -0.3923
 6588SOL    HW231227   1.669   4.337   5.905 -1.6128  1.2981  0.3558
 6589SOL     OW31228   1.083   3.420   8.583  0.0762 -0.0362 -0.7553
 6589SOL    HW131229   1.138   3.439   8.507 -0.5427 -1.9289 -1.6604
 6589SOL    HW231230   1.065   3.326   8.578 -1.2427  0.1801 -0.0631
 6590SOL     OW31231   1.502   0.477   6.637 -1.0630  0.1184 -0.6108
 6590SOL    HW131232   1.420   0.467   6.685 -0.8470 -1.6228 -0.6042
 6590SOL    HW231233   1.517   0.572   6.640  0.4978 -0.0923 -1.8003
 6591SOL     OW31234   0.088   2.509   5.366  0.2103 -0.4930  0.0200
 6591SOL    HW131235   0.110   2.431   5.314  2.9026  0.0684  0.2996
 6591SOL    HW231236   0.178   2.528   5.392  0.3301 -0.6807 -0.2484
 6592SOL     OW31237   1.207   1.509  11.566 -0.4990 -0.0205  0.1422
 6592SOL    HW131238   1.226   1.530  11.474 -2.5753 -0.0198 -0.2935
 6592SOL    HW231239   1.275   1.443  11.577 -1.4960 -0.6489  2.5181
 6593SOL     OW31240   2.062   0.510   1.118 -0.3858  0.2624 -0.2577
 6593SOL    HW131241   2.154   0.537   1.117 -0.1597 -0.5028  0.2429
 6593SOL    HW231242   2.061   0.419   1.148 -0.2664 -0.4091 -2.2767
 6594SOL     OW31243   0.831   2.554  13.727 -0.4380 -0.7231 -0.0841
 6594SOL    HW131244   0.914   2.601  13.712 -0.6054 -0.4671 -0.2097
 6594SOL    HW231245   0.801   2.562  13.636 -0.3215 -1.7903 -0.2224
 6595SOL     OW31246   3.644   0.837  12.149 -0.2173 -0.3442  0.0666
 6595SOL    HW131247   3.648   0.750  12.188  1.0407  0.2284  1.2233
 6595SOL    HW231248   3.699   0.882  12.213  2.7132 -0.1871 -2.5367
 6596SOL     OW31249   0.201   1.500   6.850  0.1403 -0.3581  0.2634
 6596SOL    HW131250   0.195   1.432   6.783 -0.6545 -0.2009  0.1663
 6596SOL    HW231251   0.185   1.454   6.932 -1.9744  2.0522  1.2116
 6597SOL     OW31252   1.448   3.112   3.667 -0.4343  0.4193  0.5091
 6597SOL    HW131253   1.505   3.049   3.624  0.9357  2.2298 -0.3340
 6597SOL    HW231254   1.388   3.145   3.600 -0.2560 -2.1150 -0.9008
 6598SOL     OW31255   0.127   0.266   3.312 -0.4302  1.2052  0.0041
 6598SOL    HW131256   0.171   0.341   3.273 -0.3290  2.7794  3.1163
 6598SOL    HW231257   0.186   0.191   3.304  0.5129  1.8382  0.9376
 6599SOL     OW31258   2.601   4.240   2.485 -0.4817 -0.0853  0.9044
 6599SOL    HW131259   2.528   4.301   2.496 -1.0779 -0.6047 -0.0756
 6599SOL    HW231260   2.663   4.278   2.547  0.5123 -0.8196  0.3526
 6600SOL     OW31261   0.541   3.381  17.285 -0.0621 -0.3545 -0.2236
 6600SOL    HW131262   0.598   3.458  17.284  0.3820 -0.7127 -3.8243
 6600SOL    HW231263   0.482   3.406  17.356  0.9579  1.3304 -0.0021
 6601SOL     OW31264   1.558   3.422   7.552  0.2134  0.4748 -0.0907
 6601SOL    HW131265   1.646   3.440   7.584 -0.1214  0.6315  0.7414
 6601SOL    HW231266   1.548   3.499   7.496  0.1636  1.0573  0.7199
 6602SOL     OW31267   0.656   1.619   6.278 -0.7407 -0.1080 -0.0416
 6602SOL    HW131268   0.701   1.693   6.238 -0.8632  0.7994  1.5284
 6602SOL    HW231269   0.688   1.610   6.368 -0.7095 -0.1718 -0.0584
 6603SOL     OW31270   2.394   2.309   2.829 -0.2216  0.1554 -0.2261
 6603SOL    HW131271   2.418   2.232   2.777  1.0441  0.0666  0.4915
 6603SOL    HW231272   2.319   2.345   2.783  2.0315  1.6453 -2.6702
 6604SOL     OW31273   1.433   1.866   0.588  0.4399  0.2972 -0.4691
 6604SOL    HW131274   1.416   1.953   0.552  0.8250 -0.1598 -1.7639
 6604SOL    HW231275   1.374   1.809   0.540 -1.0152  1.2224  0.2304
 6605SOL     OW31276   3.890   1.607   1.084  0.0870 -0.1260 -0.6566
 6605SOL    HW131277   3.895   1.702   1.079 -0.4392  0.0193  1.7175
 6605SOL    HW231278   3.799   1.593   1.109 -0.1906  1.2736 -0.8980
 6606SOL     OW31279   0.918   4.130   8.963 -0.0889  0.0935  0.6763
 6606SOL    HW131280   0.861   4.106   8.890  2.1847  0.7366 -1.2968
 6606SOL    HW231281   0.917   4.226   8.968  2.9542  0.3093 -2.6900
 6607SOL     OW31282   3.170   2.571   8.673 -0.5100 -0.2490 -0.4032
 6607SOL    HW131283   3.128   2.649   8.709  0.1339 -1.1617  2.3333
 6607SOL    HW231284   3.206   2.598   8.589 -0.9962 -1.8388 -1.1142
 6608SOL     OW31285   4.244   0.361   4.465  0.5188 -0.2016  0.4331
 6608SOL    HW131286   4.221   0.438   4.516  0.2226 -0.1242  0.1812
 6608SOL    HW231287   4.252   0.412   4.385 -0.7724 -0.9733 -0.1896
 6609SOL     OW31288   2.052   3.836  16.412  0.1358  0.0985 -0.0383
 6609SOL    HW131289   2.102   3.911  16.442 -0.0142 -0.4513  1.5652
 6609SOL    HW231290   2.058   3.828  16.316 -0.5063 -1.1646  0.0253
 6610SOL     OW31291   0.793   4.203   2.641  0.5163 -0.1042  0.4148
 6610SOL    HW131292   0.761   4.243   2.722  0.0443  0.7110 -0.1725
 6610SOL    HW231293   0.709   4.188   2.598  0.2234  1.1274  0.5432
 6611SOL     OW31294   3.869   1.729   2.517 -0.2590  0.5735 -0.3337
 6611SOL    HW131295   3.912   1.809   2.546 -0.4792  1.0548 -1.3170
 6611SOL    HW231296   3.777   1.752   2.501 -1.1817 -2.1543  0.9953
 6612SOL     OW31297   1.501   0.739   2.430 -0.3620  0.1441 -0.1004
 6612SOL    HW131298   1.523   0.649   2.407 -0.9321 -0.3475  1.2856
 6612SOL    HW231299   1.412   0.743   2.396 -0.0559  0.5558 -0.8604
 6613SOL     OW31300   4.195   1.463  10.261 -0.0649 -0.3038  0.4205
 6613SOL    HW131301   4.246   1.478  10.182  1.3334 -1.3365  1.1383
 6613SOL    HW231302   4.225   1.373  10.274  1.0119 -0.0766 -0.6161
 6614SOL     OW31303   3.076   4.040   2.801  0.3502  0.0115  0.3547
 6614SOL    HW131304   3.024   4.048   2.720  2.8427  2.0909 -1.0331
 6614SOL    HW231305   3.013   4.021   2.870 -0.1444  0.9514  0.1627
 6615SOL     OW31306   2.122   1.816   7.688 -0.0081  0.5161  0.5883
 6615SOL    HW131307   2.099   1.890   7.743  1.6629  0.0087  1.9498
 6615SOL    HW231308   2.203   1.792   7.733  0.5260  0.6015 -0.3450
 6616SOL     OW31309   0.638   2.164   7.478  0.6059 -0.1505 -0.1864
 6616SOL    HW131310   0.629   2.078   7.437  2.8099 -0.6778  0.4139
 6616SOL    HW231311   0.569   2.212   7.434  1.0778  0.0898 -0.6536
 6617SOL     OW31312   4.526   3.702   5.577 -1.2462  0.2453  0.0225
 6617SOL    HW131313   4.511   3.726   5.486  1.1884  3.1671  0.3646
 6617SOL    HW231314   4.463   3.765   5.614  0.1179  2.1051 -0.8149
 6618SOL     OW31315   1.657   0.205   7.521  0.3002  0.1309  0.6144
 6618SOL    HW131316   1.636   0.277   7.581  0.1121  0.7707 -0.2131
 6618SOL    HW231317   1.600   0.215   7.445  1.0356  0.0097  0.0442
 6619SOL     OW31318   0.686   3.032  14.728 -0.5038  0.4703 -0.0666
 6619SOL    HW131319   0.745   3.106  14.738  1.3217 -0.9024 -0.6870
 6619SOL    HW231320   0.706   3.009  14.638  1.5674 -3.0373  1.2903
 6620SOL     OW31321   1.082   1.140   8.620 -0.0042 -0.1514  0.3595
 6620SOL    HW131322   1.162   1.193   8.625  0.3403 -0.6387  0.0828
 6620SOL    HW231323   1.040   1.149   8.705 -0.5858  2.3813 -0.1957
 6621SOL     OW31324   2.719   2.346   5.102 -0.2899  0.3805  0.0397
 6621SOL    HW131325   2.671   2.290   5.042  0.0772  1.7343 -1.5165
 6621SOL    HW231326   2.781   2.374   5.035 -0.7310 -1.4849 -1.1343
 6622SOL     OW31327   0.577   1.715   8.333 -0.1480  0.4707  0.7454
 6622SOL    HW131328   0.603   1.803   8.307  0.2427  0.4956  1.2328
 6622SOL    HW231329   0.482   1.728   8.330  0.0682  1.2095 -2.4761
 6623SOL     OW31330   2.170   2.952   8.910  0.2713  0.5107  0.6695
 6623SOL    HW131331   2.076   2.935   8.901  0.1211  1.7852 -0.1900
 6623SOL    HW231332   2.194   2.874   8.960 -2.6509 -1.2296 -0.6439
 6624SOL     OW31333   1.734   3.560   8.266 -0.0942 -0.1122 -0.0660
 6624SOL    HW131334   1.732   3.652   8.294 -0.5018  0.0801 -0.7202
 6624SOL    HW231335   1.818   3.536   8.303 -0.5177 -1.6073 -0.0970
 6625SOL     OW31336   1.357   3.825   0.133 -0.1277  0.0044  0.2073
 6625SOL    HW131337   1.358   3.890   0.062 -0.4672 -1.0237 -0.7464
 6625SOL    HW231338   1.283   3.858   0.185 -1.8379 -1.5857 -1.1881
 6626SOL     OW31339   1.482   1.259   5.944  0.5860  0.4238  0.2916
 6626SOL    HW131340   1.504   1.292   5.857  2.1911  1.0593  0.9363
 6626SOL    HW231341   1.479   1.164   5.932 -0.1374  0.7557 -2.0624
 6627SOL     OW31342   1.913   4.055   7.883  0.0433 -0.4747 -0.1699
 6627SOL    HW131343   1.918   3.969   7.924  0.8244  0.9934  2.8709
 6627SOL    HW231344   1.820   4.078   7.885  0.1714  0.0632 -0.4454
 6628SOL     OW31345   1.405   0.929   1.293  0.1554  1.0301  0.4274
 6628SOL    HW131346   1.386   0.836   1.280  2.4735  0.6504 -0.2466
 6628SOL    HW231347   1.418   0.946   1.199 -0.7266 -1.2087 -0.0913
 6629SOL     OW31348   1.285   4.103  16.794  0.3324 -0.1400  0.6783
 6629SOL    HW131349   1.194   4.110  16.822  0.6079  1.0549  1.3185
 6629SOL    HW231350   1.300   4.194  16.766  2.9565 -1.1482 -1.1004
 6630SOL     OW31351   1.180   2.214   2.553  0.1652  0.3427 -0.1254
 6630SOL    HW131352   1.212   2.162   2.479 -1.5568 -1.6495  0.5233
 6630SOL    HW231353   1.095   2.172   2.565  0.8616 -0.7229  1.1574
 6631SOL     OW31354   3.032   0.043  14.995 -0.3350  0.3234 -0.2956
 6631SOL    HW131355   3.102   0.032  14.931  1.3357  2.2883  1.1625
 6631SOL    HW231356   3.053   4.691  15.045 -1.5625  0.0385 -0.2174
 6632SOL     OW31357   2.366   3.371  14.919 -0.0215  0.1516  0.2842
 6632SOL    HW131358   2.274   3.380  14.893 -0.1360 -0.2826  0.5289
 6632SOL    HW231359   2.403   3.311  14.855  1.9185  1.2084  0.4221
 6633SOL     OW31360   0.218   3.198  12.514  0.2582  0.4151 -0.2828
 6633SOL    HW131361   0.188   3.239  12.433  2.2335  0.3946 -1.0463
 6633SOL    HW231362   0.159   3.226  12.583 -0.0155 -0.3465 -0.2068
 6634SOL     OW31363   1.024   3.975   2.893  0.3806  0.1336 -0.3197
 6634SOL    HW131364   1.092   3.940   2.950 -0.8640 -0.5516  0.7405
 6634SOL    HW231365   0.949   3.988   2.951 -0.9212 -1.0972 -1.7279
 6635SOL     OW31366   3.316   3.167   4.192  1.0086 -0.5443 -0.6619
 6635SOL    HW131367   3.383   3.146   4.128  1.3374 -3.7520  0.7727
 6635SOL    HW231368   3.298   3.077   4.218  0.0039 -0.6747 -1.7976
 6636SOL     OW31369   1.089   4.078  16.554 -0.1497  0.1179 -0.1928
 6636SOL    HW131370   1.051   3.992  16.534 -0.2779  0.6800 -2.3400
 6636SOL    HW231371   1.159   4.044  16.610 -1.4413 -0.6897  0.9482
 6637SOL     OW31372   2.130   3.185  10.371 -0.1715  0.1225 -0.4292
 6637SOL    HW131373   2.208   3.160  10.421  0.8630  0.6298 -1.8087
 6637SOL    HW231374   2.093   3.232  10.446 -0.4245 -1.3003  0.3429
 6638SOL     OW31375   1.672   3.404   4.279  0.7214  0.4585 -0.4865
 6638SOL    HW131376   1.756   3.416   4.325  1.8773 -0.5537 -2.3378
 6638SOL    HW231377   1.659   3.497   4.258 -1.9242  0.4605  1.1042
 6639SOL     OW31378   1.155   0.573  15.509  0.5278 -0.4915 -0.2140
 6639SOL    HW131379   1.119   0.556  15.422  0.2786 -1.7320  0.1261
 6639SOL    HW231380   1.249   0.553  15.505  0.3598 -0.6651 -3.1760
 6640SOL     OW31381   4.243   3.398  10.067 -0.4650 -0.2412 -0.1009
 6640SOL    HW131382   4.236   3.348  10.148  1.6185 -0.4122 -0.0230
 6640SOL    HW231383   4.184   3.466  10.099  0.3742  0.1943  0.5170
 6641SOL     OW31384   2.856   2.193   8.520 -0.3070 -0.0554 -0.3343
 6641SOL    HW131385   2.819   2.210   8.433 -1.3786  0.1911  0.1713
 6641SOL    HW231386   2.946   2.169   8.499 -0.7839 -1.1316 -1.1350
 6642SOL     OW31387   3.235   2.850   6.393  0.7503 -0.6482 -0.5930
 6642SOL    HW131388   3.141   2.834   6.396  0.9222 -1.3550  1.0767
 6642SOL    HW231389   3.258   2.850   6.300  0.8576 -0.1908 -0.5664
 6643SOL     OW31390   3.334   3.845   1.102  0.1118  0.4063  0.0485
 6643SOL    HW131391   3.245   3.827   1.071  0.9448 -2.4704 -0.7178
 6643SOL    HW231392   3.320   3.904   1.175  0.2488 -0.9538  1.1732
 6644SOL     OW31393   3.494   2.887   9.264 -0.0187 -0.1517 -0.0074
 6644SOL    HW131394   3.534   2.968   9.231  0.3934  0.2866  1.5779
 6644SOL    HW231395   3.435   2.917   9.333  0.1478 -2.6475  1.2272
 6645SOL     OW31396   3.373   2.656   7.895 -0.6993  0.0880  0.0153
 6645SOL    HW131397   3.459   2.620   7.917 -1.0670  0.3442  1.8631
 6645SOL    HW231398   3.364   2.702   7.978  3.6184  3.2781 -1.3222
 6646SOL     OW31399   4.389   2.980   1.533  0.3870 -0.2672  0.3854
 6646SOL    HW131400   4.396   3.075   1.524  0.2198 -0.0987  2.0788
 6646SOL    HW231401   4.395   2.943   1.445 -0.1804 -0.1845  0.3133
 6647SOL     OW31402   0.248   0.602  15.544  0.2138 -0.5436 -0.0898
 6647SOL    HW131403   0.215   0.664  15.479 -2.8334 -3.0484 -0.9327
 6647SOL    HW231404   0.319   0.576  15.486  1.5391  1.2507  0.7456
 6648SOL     OW31405   0.063   4.614  10.005  0.2477  0.0809  0.9515
 6648SOL    HW131406   0.046   4.646   9.917 -2.9164  1.0115  1.8836
 6648SOL    HW231407   4.703   4.601  10.047  0.0182 -3.0409 -0.4982
 6649SOL     OW31408   1.265   1.718   9.316 -0.6213  0.4263 -0.0907
 6649SOL    HW131409   1.360   1.729   9.309 -0.3253 -2.1686 -0.1561
 6649SOL    HW231410   1.223   1.780   9.257  0.3422  0.2985 -0.9001
 6650SOL     OW31411   1.901   3.724   6.089 -0.3259  0.1438  0.9487
 6650SOL    HW131412   1.875   3.649   6.143 -0.8094  0.8002  1.6192
 6650SOL    HW231413   1.989   3.692   6.069 -0.1449 -0.0413  2.0276
 6651SOL     OW31414   2.430   1.128  10.973  0.0984 -0.0758  0.2398
 6651SOL    HW131415   2.463   1.217  10.965 -0.1797  0.1547  1.8138
 6651SOL    HW231416   2.435   1.093  10.884  1.8458 -0.3802  0.4711
 6652SOL     OW31417   1.883   2.556  17.588  0.4131 -0.4930 -0.5102
 6652SOL    HW131418   1.890   2.590  17.677 -1.3084 -2.0327  0.2121
 6652SOL    HW231419   1.848   2.628  17.536  0.9343  0.4542  0.4450
 6653SOL     OW31420   1.315   2.848   7.422 -0.0857 -0.0043 -0.4522
 6653SOL    HW131421   1.353   2.852   7.510 -1.7037 -1.4128  0.3192
 6653SOL    HW231422   1.324   2.754   7.409  0.3274 -0.1512  0.8950
 6654SOL     OW31423   3.252   4.247   5.449  0.1449 -0.2253  0.0278
 6654SOL    HW131424   3.233   4.156   5.470  0.1792  0.0020  1.0516
 6654SOL    HW231425   3.230   4.257   5.356 -0.6926 -0.9206  0.1576
 6655SOL     OW31426   1.056   3.451   6.890 -0.5223  0.6021  0.1069
 6655SOL    HW131427   1.091   3.517   6.951 -1.0283  1.3137 -0.3758
 6655SOL    HW231428   1.085   3.374   6.939  2.0400  0.6387 -1.3948
 6656SOL     OW31429   0.419   4.459   5.792 -0.1433  0.0427  0.6839
 6656SOL    HW131430   0.468   4.402   5.734 -0.8642 -1.6744  1.7598
 6656SOL    HW231431   0.474   4.472   5.869  0.1803 -1.4262  0.7005
 6657SOL     OW31432   4.008   0.540   7.397 -0.5861 -0.1094 -0.2420
 6657SOL    HW131433   4.046   0.542   7.309 -3.1059 -3.4883 -1.4130
 6657SOL    HW231434   3.930   0.595   7.390 -0.6228 -0.0936  0.2905
 6658SOL     OW31435   2.075   1.367   5.054  0.1832 -0.5827 -0.9371
 6658SOL    HW131436   2.147   1.429   5.052 -2.3044  2.4265  1.8970
 6658SOL    HW231437   2.093   1.322   5.137  1.2180  0.8372 -0.3872
 6659SOL     OW31438   2.962   3.531   7.648  0.4720 -0.4760 -0.7200
 6659SOL    HW131439   3.047   3.488   7.659  2.1711  3.3457  0.8816
 6659SOL    HW231440   2.902   3.457   7.642 -0.9893  0.7146 -0.8398
 6660SOL     OW31441   3.628   0.869   0.644  0.6053  0.5073 -0.3081
 6660SOL    HW131442   3.610   0.869   0.550 -0.9857  2.8543 -0.0200
 6660SOL    HW231443   3.657   0.960   0.648  0.1361  0.6013  1.0399
 6661SOL     OW31444   4.449   0.802  12.200  0.2744 -0.3245 -0.5456
 6661SOL    HW131445   4.354   0.790  12.196  0.1099  1.4089 -1.9264
 6661SOL    HW231446   4.466   0.770  12.289  1.7112 -2.5426 -1.6095
 6662SOL     OW31447   1.801   1.667   5.351  0.0063  0.0531 -0.3056
 6662SOL    HW131448   1.801   1.651   5.445  1.5362  0.2379 -0.2767
 6662SOL    HW231449   1.730   1.731   5.347  2.0478  2.4173  1.3288
 6663SOL     OW31450   2.816   1.195   5.457 -0.0253  0.2004 -0.0556
 6663SOL    HW131451   2.857   1.123   5.409  2.3441  0.6588  1.2444
 6663SOL    HW231452   2.811   1.261   5.387  0.5937  0.9150  0.5788
 6664SOL     OW31453   0.995   1.469   8.938 -0.0428 -0.2102  0.4342
 6664SOL    HW131454   1.016   1.554   8.977  4.3217 -1.2098  0.2358
 6664SOL    HW231455   0.927   1.491   8.875  0.1917  0.1545  0.3080
 6665SOL     OW31456   2.382   0.135   7.988  0.0103  0.3385 -0.0256
 6665SOL    HW131457   2.310   0.079   7.959 -1.8826  2.5447  0.4653
 6665SOL    HW231458   2.366   0.143   8.082  0.2216 -0.4944  0.0836
 6666SOL     OW31459   3.688   4.451   6.215 -0.1879  0.1989  0.5160
 6666SOL    HW131460   3.642   4.454   6.299 -1.9190  2.2758 -0.4952
 6666SOL    HW231461   3.641   4.520   6.168 -0.0734 -0.3899 -0.4558
 6667SOL     OW31462   2.146   0.619   9.558 -0.3027  0.3782 -0.7539
 6667SOL    HW131463   2.231   0.663   9.548 -0.4260  0.9340  0.7157
 6667SOL    HW231464   2.147   0.543   9.500  1.8641 -1.8512  2.2084
 6668SOL     OW31465   1.788   1.192   9.626  0.1582  0.1868 -0.3275
 6668SOL    HW131466   1.796   1.260   9.560 -0.8431 -0.3801 -1.0312
 6668SOL    HW231467   1.866   1.137   9.623 -0.5010 -0.8260  1.0413
 6669SOL     OW31468   1.334   1.867   9.836  0.3258 -0.8098  0.3338
 6669SOL    HW131469   1.298   1.799   9.892 -1.2802  0.9734  1.4659
 6669SOL    HW231470   1.312   1.831   9.750  0.0984  3.8368 -1.5839
 6670SOL     OW31471   1.410   2.407   5.834 -0.0598 -0.5702  0.1220
 6670SOL    HW131472   1.440   2.328   5.788  2.8263  0.4886  0.1922
 6670SOL    HW231473   1.353   2.365   5.899  0.6318  0.7224  1.5430
 6671SOL     OW31474   0.016   4.174   8.052  0.5644 -0.2458  0.6470
 6671SOL    HW131475   4.665   4.116   8.062  0.9058 -0.1550  3.5948
 6671SOL    HW231476   0.061   4.138   7.975  1.6737  0.8075  0.8198
 6672SOL     OW31477   3.344   3.980   2.881 -0.7038  1.0819 -0.5165
 6672SOL    HW131478   3.275   3.996   2.816 -2.3778  3.3721  1.8454
 6672SOL    HW231479   3.286   3.963   2.955 -1.1196  4.3690 -0.0936
 6673SOL     OW31480   3.039   0.522   0.568 -0.4701  0.0520  0.0957
 6673SOL    HW131481   3.122   0.492   0.605 -0.9260  0.9533  1.8420
 6673SOL    HW231482   2.983   0.447   0.584  0.2418 -0.2752  1.0643
 6674SOL     OW31483   3.585   2.672   4.374 -0.1390 -0.1384  0.5808
 6674SOL    HW131484   3.517   2.721   4.420  0.6037  1.3211  0.1335
 6674SOL    HW231485   3.601   2.602   4.437 -1.4351 -2.4227 -1.6630
 6675SOL     OW31486   3.582   3.180   5.840 -0.3078  0.5411  0.3403
 6675SOL    HW131487   3.669   3.159   5.807  1.2088 -0.7067  5.0717
 6675SOL    HW231488   3.561   3.223   5.757  0.4397  0.6598  0.2167
 6676SOL     OW31489   2.880   1.640  13.842  0.1293  0.1663  0.0838
 6676SOL    HW131490   2.814   1.709  13.852  1.2564  1.5561 -2.1242
 6676SOL    HW231491   2.874   1.628  13.747 -2.5146  1.7132  0.0445
 6677SOL     OW31492   4.322   2.013   8.088 -0.2309  0.1578  0.1631
 6677SOL    HW131493   4.349   1.950   8.155  0.6048  1.1559  0.7574
 6677SOL    HW231494   4.369   2.095   8.103 -1.9285  2.0185 -4.8927
 6678SOL     OW31495   3.377   2.337   5.352  0.1220 -0.1441  0.1445
 6678SOL    HW131496   3.382   2.247   5.320 -0.2554 -0.1100 -0.0071
 6678SOL    HW231497   3.457   2.361   5.306  0.7449  2.3641  2.5668
 6679SOL     OW31498   0.347   3.109   2.922 -0.1465  0.2414 -0.1604
 6679SOL    HW131499   0.395   3.068   2.851  1.6292  0.5333  0.8836
 6679SOL    HW231500   0.406   3.166   2.971 -1.4083  0.6391  0.9124
 6680SOL     OW31501   2.668   1.705   7.280 -0.0255 -0.1722  0.2759
 6680SOL    HW131502   2.747   1.688   7.228  0.2570  1.0595  0.2795
 6680SOL    HW231503   2.704   1.745   7.359 -1.0143 -1.4680  1.3575
 6681SOL     OW31504   2.857   2.752   0.280 -0.8085  0.6730  0.0475
 6681SOL    HW131505   2.839   2.782   0.369  3.5995  0.5090  1.0127
 6681SOL    HW231506   2.887   2.831   0.235 -1.8739  1.2224  0.2938
 6682SOL     OW31507   0.272   1.128   9.268 -0.4253 -0.1816 -0.3009
 6682SOL    HW131508   0.287   1.060   9.334  2.9200  0.1646 -0.7162
 6682SOL    HW231509   0.207   1.177   9.318 -1.1614 -0.7951 -0.6570
 6683SOL     OW31510   4.688   0.630  14.468 -0.0579  0.0638 -0.5198
 6683SOL    HW131511   0.017   0.621  14.390 -0.0409 -0.1649 -0.4813
 6683SOL    HW231512   4.719   0.548  14.506 -0.8640 -0.1325 -0.3021
 6684SOL     OW31513   1.708   4.386   8.516  0.2368 -0.0257  0.3297
 6684SOL    HW131514   1.765   4.311   8.496 -0.1839 -0.4134  0.5973
 6684SOL    HW231515   1.681   4.410   8.427  0.1745  1.4554  0.7504
 6685SOL     OW31516   2.489   1.424  15.915  0.1991 -0.1219 -0.1045
 6685SOL    HW131517   2.436   1.413  15.994 -0.8626 -0.8177 -0.9136
 6685SOL    HW231518   2.498   1.519  15.921  0.7510 -0.3183  2.2452
 6686SOL     OW31519   4.554   4.537  14.823 -0.6287  0.1953 -0.1894
 6686SOL    HW131520   4.591   4.625  14.824 -1.1894  0.4279  0.0930
 6686SOL    HW231521   4.527   4.527  14.731 -2.3874 -0.5724  0.4070
 6687SOL     OW31522   2.035   4.107  14.822  0.1269 -0.3096 -0.4576
 6687SOL    HW131523   2.069   4.178  14.876 -0.6224  1.6066 -2.4989
 6687SOL    HW231524   1.959   4.146  14.778  1.0001  1.5651 -0.3113
 6688SOL     OW31525   4.275   0.735   6.241 -0.5834 -0.4411 -0.2259
 6688SOL    HW131526   4.346   0.767   6.185  0.5813  2.0637  2.6377
 6688SOL    HW231527   4.233   0.672   6.182 -0.2995  0.4999 -1.4347
 6689SOL     OW31528   0.625   3.716  10.505 -0.0639  0.1335  0.0650
 6689SOL    HW131529   0.550   3.740  10.450 -0.0317 -1.0864 -0.5057
 6689SOL    HW231530   0.693   3.773  10.470 -0.5474  0.4164 -0.4138
 6690SOL     OW31531   3.223   2.975   8.748 -0.2309  0.0568  0.3407
 6690SOL    HW131532   3.180   2.897   8.782  0.8987 -0.6083  0.2533
 6690SOL    HW231533   3.227   2.962   8.653 -0.4484  1.3342  0.1572
 6691SOL     OW31534   2.941   3.156   8.404 -0.2700  0.1566 -0.0718
 6691SOL    HW131535   2.927   3.089   8.337  0.1495  0.6844 -0.6774
 6691SOL    HW231536   2.944   3.102   8.483 -1.9271  0.5010  0.2356
 6692SOL     OW31537   0.571   0.790   3.247  0.2196  0.0535 -0.0149
 6692SOL    HW131538   0.606   0.702   3.239 -1.5484 -0.7164  0.6753
 6692SOL    HW231539   0.541   0.795   3.338  0.9589 -1.1669  0.2908
 6693SOL     OW31540   1.897   0.932  11.095  0.1523 -0.1065  0.5625
 6693SOL    HW131541   1.840   0.875  11.043 -1.2894  0.3934  1.5918
 6693SOL    HW231542   1.835   0.995  11.131  0.2904  1.4912 -1.9539
 6694SOL     OW31543   1.373   2.770   7.087 -0.2226 -0.2207  0.0959
 6694SOL    HW131544   1.355   2.682   7.053 -0.9737  0.6260 -1.6747
 6694SOL    HW231545   1.457   2.766   7.132 -1.0243  0.0785  1.6438
 6695SOL     OW31546   3.877   3.911   4.228 -0.2663 -0.3198 -0.0609
 6695SOL    HW131547   3.973   3.913   4.228 -0.3091  1.7254 -1.9137
 6695SOL    HW231548   3.851   3.881   4.315  0.8928 -0.3274  0.2818
 6696SOL     OW31549   1.520   2.281   2.093  0.3075 -0.2466 -0.1252
 6696SOL    HW131550   1.472   2.268   2.175 -3.1552  2.3407 -1.7451
 6696SOL    HW231551   1.601   2.239   2.123 -0.5667 -0.8915  1.3663
 6697SOL     OW31552   4.021   1.426   5.525 -0.2001  0.0576  0.0658
 6697SOL    HW131553   4.071   1.462   5.599 -1.2214  0.6438  0.4800
 6697SOL    HW231554   3.994   1.342   5.564 -1.5062 -0.0668 -1.0944
 6698SOL     OW31555   1.819   2.306   2.586 -0.6596 -0.3203 -0.3433
 6698SOL    HW131556   1.875   2.375   2.620 -1.4128  0.0921  0.0585
 6698SOL    HW231557   1.754   2.357   2.537 -0.6786  0.4354  0.4611
 6699SOL     OW31558   2.873   0.720  10.152  0.2641 -0.2555 -0.0566
 6699SOL    HW131559   2.851   0.794  10.096  0.4183 -0.2185 -0.0686
 6699SOL    HW231560   2.874   0.648  10.088  0.2122 -0.5136  0.2341
 6700SOL     OW31561   0.620   1.332   4.716 -0.4087  0.0706 -0.3096
 6700SOL    HW131562   0.595   1.418   4.684  0.2084 -0.1613 -1.4100
 6700SOL    HW231563   0.708   1.354   4.747 -0.9121 -0.6891  1.6303
 6701SOL     OW31564   0.057   2.235  17.337  0.1923  0.4676  0.5998
 6701SOL    HW131565   0.050   2.159  17.280 -0.3198  1.2038 -0.3119
 6701SOL    HW231566   4.693   2.239  17.369  0.2993  0.3383  0.9160
 6702SOL     OW31567   0.555   4.245   1.187 -0.0772 -0.2213 -0.5851
 6702SOL    HW131568   0.498   4.314   1.222 -0.8747 -1.6104  0.8003
 6702SOL    HW231569   0.635   4.298   1.197  0.2934 -0.4475 -2.3075
 6703SOL     OW31570   3.888   3.955   8.753 -0.0125 -0.1900  0.0867
 6703SOL    HW131571   3.973   3.988   8.723 -1.7352  1.2924 -3.1511
 6703SOL    HW231572   3.875   3.992   8.841 -0.5478 -0.7352  0.2352
 6704SOL     OW31573   4.662   2.252   7.345 -0.7988  0.0605 -0.0539
 6704SOL    HW131574   4.699   2.280   7.261 -2.7312  0.4621 -0.7642
 6704SOL    HW231575   4.640   2.166   7.310 -0.0650  0.4331 -1.4443
 6705SOL     OW31576   0.246   4.337   3.127  0.1517 -0.2831 -0.3202
 6705SOL    HW131577   0.207   4.381   3.202  0.5557 -1.3503  0.5158
 6705SOL    HW231578   0.336   4.372   3.135 -0.3398  1.6948 -3.2023
 6706SOL     OW31579   2.687   1.983  14.184  0.2816 -0.0984  0.0487
 6706SOL    HW131580   2.706   1.893  14.209 -1.7540 -0.3695  0.5784
 6706SOL    HW231581   2.607   2.011  14.228 -0.0216  0.4271 -0.8277
 6707SOL     OW31582   3.910   3.250   6.900 -0.1305 -0.0723 -0.6148
 6707SOL    HW131583   4.004   3.236   6.896 -0.0669  0.3345 -0.5149
 6707SOL    HW231584   3.911   3.338   6.939 -3.1801  0.3776 -1.5149
 6708SOL     OW31585   3.932   1.089   0.749 -0.6268 -0.0109  0.4682
 6708SOL    HW131586   3.952   1.162   0.690 -0.6769  1.1518  1.8803
 6708SOL    HW231587   3.837   1.090   0.740 -0.6299  1.1145  0.6078
 6709SOL     OW31588   2.331   1.653   6.510  0.1455 -0.5187  0.3853
 6709SOL    HW131589   2.299   1.565   6.492 -2.3876  0.5571 -0.4438
 6709SOL    HW231590   2.249   1.699   6.496  1.4458  0.1603 -5.0209
 6710SOL     OW31591   3.041   0.007  11.216  0.2736  0.2228  0.5438
 6710SOL    HW131592   3.021   0.086  11.165  0.7253  2.3210  3.5838
 6710SOL    HW231593   3.076   4.678  11.146  1.9403  0.6225  1.0520
 6711SOL     OW31594   0.044   2.038   0.634 -0.7961  0.0333 -0.1051
 6711SOL    HW131595   0.035   2.011   0.725  2.5509 -2.2282 -0.4621
 6711SOL    HW231596   0.069   2.130   0.646  0.8051 -0.4419  0.1688
 6712SOL     OW31597   1.480   1.801  14.876  0.0504 -0.2510 -0.1155
 6712SOL    HW131598   1.503   1.793  14.784 -0.4689 -2.0199 -0.0846
 6712SOL    HW231599   1.504   1.893  14.886  1.7984 -0.9417  2.0991
 6713SOL     OW31600   1.264   4.086  13.461  0.4539  0.0173 -0.0438
 6713SOL    HW131601   1.239   3.996  13.482  1.8001 -0.8874 -2.3289
 6713SOL    HW231602   1.178   4.126  13.472  0.6979  0.3431  0.7275
 6714SOL     OW31603   2.514   4.376  12.755  0.1569  0.3325 -0.0475
 6714SOL    HW131604   2.440   4.395  12.697  0.9695 -0.2332 -1.2791
 6714SOL    HW231605   2.570   4.319  12.701 -2.0468 -3.0395  1.2350
 6715SOL     OW31606   0.431   2.189  16.453 -0.4967 -0.0284  0.4131
 6715SOL    HW131607   0.419   2.119  16.389  1.8796 -0.1210  0.0693
 6715SOL    HW231608   0.497   2.148  16.509 -0.7008 -2.2347 -0.9600
 6716SOL     OW31609   1.847   3.409   0.025  0.6102 -0.1919 -0.2275
 6716SOL    HW131610   1.851   3.421  17.634 -0.6724 -0.3123 -0.2915
 6716SOL    HW231611   1.775   3.459   0.063  0.2713 -1.3265  0.6151
 6717SOL     OW31612   1.649   3.053   6.636  0.4703  0.6513  0.2244
 6717SOL    HW131613   1.744   3.063   6.629  0.6652 -2.0205 -0.9595
 6717SOL    HW231614   1.627   3.052   6.543  3.6449  0.2043 -0.5274
 6718SOL     OW31615   4.702   4.429  17.086 -0.0465 -0.4511  0.0284
 6718SOL    HW131616   0.038   4.480  17.137 -2.4864  0.8785  1.6522
 6718SOL    HW231617   4.634   4.403  17.149 -1.3254  1.1506 -0.6876
 6719SOL     OW31618   0.048   0.079   4.348 -0.3187 -0.3919 -0.3874
 6719SOL    HW131619   0.129   0.034   4.370 -0.5847 -0.7843 -0.2083
 6719SOL    HW231620   4.717   0.008   4.318 -2.1871  0.1912  1.7413
 6720SOL     OW31621   4.693   2.113   5.735  0.3536 -0.1495 -0.4640
 6720SOL    HW131622   4.620   2.137   5.678  1.6038  1.9401 -1.1845
 6720SOL    HW231623   0.026   2.185   5.715  2.6260 -1.5916  0.9034
 6721SOL     OW31624   0.084   3.225   5.030  0.6457 -0.5525  0.2663
 6721SOL    HW131625   0.141   3.195   4.959  0.2154 -1.0760  0.1459
 6721SOL    HW231626   0.134   3.297   5.067 -1.3713 -0.0676  2.0354
 6722SOL     OW31627   0.890   3.248   9.525 -0.5907 -1.0708 -0.5224
 6722SOL    HW131628   0.801   3.242   9.489 -0.0839 -0.1048 -1.9540
 6722SOL    HW231629   0.952   3.202   9.468  3.0594  1.2458  1.5608
 6723SOL     OW31630   1.427   2.444   7.131  0.3584  0.2475 -0.0268
 6723SOL    HW131631   1.454   2.469   7.043 -0.7430  2.2818  0.2159
 6723SOL    HW231632   1.342   2.405   7.109  0.2968 -0.6701  1.7999
 6724SOL     OW31633   3.384   3.800   5.815  0.2209  0.3294  0.1773
 6724SOL    HW131634   3.348   3.746   5.885 -2.2364 -0.7376 -1.9086
 6724SOL    HW231635   3.440   3.861   5.862  1.1315  0.5785 -1.2313
 6725SOL     OW31636   0.545   2.951   6.884 -0.1707 -0.3663 -0.1808
 6725SOL    HW131637   0.628   2.964   6.932 -0.2321 -0.4157 -0.0621
 6725SOL    HW231638   0.528   3.034   6.839 -2.5591 -1.4145 -1.1663
 6726SOL     OW31639   3.021   2.224  14.726 -0.3560 -0.4339  0.3721
 6726SOL    HW131640   3.059   2.208  14.813  2.5129  0.3107 -0.7343
 6726SOL    HW231641   2.969   2.302  14.743 -0.9076 -0.5693 -0.7095
 6727SOL     OW31642   2.892   0.524  12.590 -0.3982 -0.0866 -0.2378
 6727SOL    HW131643   2.945   0.543  12.513  0.9193  0.9406  0.9200
 6727SOL    HW231644   2.815   0.578  12.571 -2.2204 -1.8355  2.1441
 6728SOL     OW31645   0.347   3.460   6.555  0.1173  0.1663  0.0670
 6728SOL    HW131646   0.355   3.369   6.582 -0.8158 -0.6601 -2.4001
 6728SOL    HW231647   0.291   3.451   6.477  1.2837 -1.8780 -0.5447
 6729SOL     OW31648   3.023   1.501   5.375  0.2260 -0.1056  0.0710
 6729SOL    HW131649   2.937   1.498   5.334 -0.6371 -2.0829  2.0166
 6729SOL    HW231650   3.000   1.539   5.460  0.0180 -1.3093  0.5563
 6730SOL     OW31651   1.615   2.724   7.800 -0.0362  0.0204  0.0076
 6730SOL    HW131652   1.557   2.760   7.866  1.4907 -0.6183  1.6937
 6730SOL    HW231653   1.662   2.661   7.855  1.1913 -0.1648 -1.2498
 6731SOL     OW31654   2.691   4.388  16.965 -0.2465  0.8761  0.3872
 6731SOL    HW131655   2.645   4.423  17.042 -3.6781 -1.3156 -0.7138
 6731SOL    HW231656   2.702   4.474  16.924 -0.0931 -0.4544 -2.3036
 6732SOL     OW31657   3.158   2.347   5.557  0.7037 -0.2165 -0.6049
 6732SOL    HW131658   3.235   2.342   5.500  0.8132  3.2282 -0.7873
 6732SOL    HW231659   3.110   2.271   5.525 -0.1510  1.5311 -3.4920
 6733SOL     OW31660   1.902   3.937   4.730  0.2973  0.9601 -0.1995
 6733SOL    HW131661   1.895   3.863   4.789  0.2349  0.6932 -0.5408
 6733SOL    HW231662   1.849   3.998   4.782 -1.6362 -1.7249  0.9614
 6734SOL     OW31663   3.641   1.526   4.346 -0.0581 -0.0378  0.4452
 6734SOL    HW131664   3.621   1.542   4.438 -0.5717 -0.1647  0.3531
 6734SOL    HW231665   3.606   1.606   4.309  1.7641  1.1711  1.3475
 6735SOL     OW31666   4.031   3.419   6.093  0.5567  0.1589 -0.1305
 6735SOL    HW131667   4.063   3.509   6.100  2.6707 -0.6046 -0.1020
 6735SOL    HW231668   3.936   3.431   6.105  0.3623 -0.2145 -1.3115
 6736SOL     OW31669   3.316   1.984   4.466 -0.4940  0.5871 -0.1234
 6736SOL    HW131670   3.285   1.960   4.379  0.8604  0.4636 -0.5731
 6736SOL    HW231671   3.325   2.080   4.464 -0.9879  0.6672  1.6505
 6737SOL     OW31672   0.620   1.572  12.561  0.8416  0.1550 -0.8341
 6737SOL    HW131673   0.715   1.559  12.548  0.9926 -0.3450  0.8478
 6737SOL    HW231674   0.594   1.489  12.601  0.1828  0.5113 -0.5461
 6738SOL     OW31675   3.171   3.514   7.849 -0.0775  0.3102 -0.3388
 6738SOL    HW131676   3.146   3.598   7.810  2.3126  1.6183  0.8764
 6738SOL    HW231677   3.089   3.484   7.886  0.8196 -2.1278 -0.3449
 6739SOL     OW31678   2.110   4.438  10.223 -0.2067 -0.0237 -0.0105
 6739SOL    HW131679   2.107   4.481  10.308 -0.7985  0.0201 -0.0537
 6739SOL    HW231680   2.019   4.413  10.206 -0.5864 -1.2754  3.8935
 6740SOL     OW31681   1.526   1.447   9.887 -0.5803 -0.8372 -0.2352
 6740SOL    HW131682   1.520   1.445   9.792 -1.2151 -2.1278 -0.1805
 6740SOL    HW231683   1.605   1.395   9.901 -0.5350 -0.9010 -0.7430
 6741SOL     OW31684   3.977   2.968   4.148 -0.1395  0.2879 -0.2343
 6741SOL    HW131685   3.917   2.903   4.112  1.1114  0.5170 -2.6869
 6741SOL    HW231686   3.934   2.991   4.230  1.6285  0.7170  0.5717
 6742SOL     OW31687   3.385   1.188  14.122  0.0159 -0.2883 -0.0737
 6742SOL    HW131688   3.325   1.168  14.050 -0.3956 -0.4262  0.3131
 6742SOL    HW231689   3.375   1.113  14.179 -0.4348 -0.5441 -0.4877
 6743SOL     OW31690   2.855   4.503   8.322 -0.1383  0.0789  0.1773
 6743SOL    HW131691   2.782   4.534   8.267 -1.5863 -0.3873  1.8550
 6743SOL    HW231692   2.932   4.545   8.283 -0.4626  0.9945  0.5202
 6744SOL     OW31693   4.036   1.531   2.504  0.7755 -0.0212 -0.0156
 6744SOL    HW131694   4.072   1.543   2.592  0.4465  1.0302 -0.0329
 6744SOL    HW231695   3.965   1.594   2.514  1.3818  0.5657  0.6464
 6745SOL     OW31696   3.337   1.506   3.460  0.2025 -0.4073  0.3287
 6745SOL    HW131697   3.386   1.444   3.406  2.2257 -0.0573  1.7655
 6745SOL    HW231698   3.254   1.509   3.412  0.2995 -1.4664  0.0943
 6746SOL     OW31699   2.092   3.155  13.286  0.0289 -0.2926  0.4086
 6746SOL    HW131700   2.025   3.144  13.353  1.0372  0.4477  1.5307
 6746SOL    HW231701   2.154   3.089  13.318  1.0750 -0.0872 -1.2120
 6747SOL     OW31702   1.738   3.043   2.902 -0.1436  0.3252  0.4270
 6747SOL    HW131703   1.754   3.116   2.962 -0.3517  0.6927  0.0415
 6747SOL    HW231704   1.703   3.089   2.825  0.4365  0.8744  0.4994
 6748SOL     OW31705   3.983   3.810   2.243  0.4604 -0.2828 -0.2179
 6748SOL    HW131706   3.890   3.826   2.260  0.3589  2.0979 -3.0357
 6748SOL    HW231707   4.003   3.767   2.326 -0.8231  0.4829  0.4908
 6749SOL     OW31708   2.119   4.271   3.818  0.6214 -0.1730  0.0086
 6749SOL    HW131709   2.143   4.191   3.772 -0.5530  0.3719 -1.5383
 6749SOL    HW231710   2.088   4.319   3.742  0.5837  2.1501  1.4703
 6750SOL     OW31711   2.833   1.183   4.534 -0.5380 -0.4482  0.0166
 6750SOL    HW131712   2.814   1.109   4.475  2.8393  0.5011 -2.2227
 6750SOL    HW231713   2.807   1.156   4.622 -0.1854  3.9354  1.4328
 6751SOL     OW31714   3.785   1.312   9.718  0.0747  0.6582  0.6516
 6751SOL    HW131715   3.778   1.285   9.627 -1.1929 -0.6720  1.1484
 6751SOL    HW231716   3.772   1.406   9.705 -0.2036  0.1771 -2.3625
 6752SOL     OW31717   4.170   3.064  14.752  0.1022 -0.2852  0.2368
 6752SOL    HW131718   4.216   3.005  14.693  3.7417  1.3463  1.4335
 6752SOL    HW231719   4.233   3.136  14.757 -1.2489  0.8179  1.8232
 6753SOL     OW31720   1.568   2.187   6.845 -0.7406 -0.2017 -0.2903
 6753SOL    HW131721   1.590   2.115   6.905 -0.2396 -0.6851 -1.0477
 6753SOL    HW231722   1.647   2.241   6.849 -2.8218  2.5964  2.5044
 6754SOL     OW31723   3.398   2.584   2.294  0.4051 -0.0824  0.2976
 6754SOL    HW131724   3.485   2.601   2.332 -0.4026  1.0272  1.6255
 6754SOL    HW231725   3.344   2.578   2.373  0.4245  2.5556  0.4948
 6755SOL     OW31726   4.491   4.457   8.232  0.3894  0.2891 -0.0794
 6755SOL    HW131727   4.439   4.512   8.290  0.5431  0.2141  0.1335
 6755SOL    HW231728   4.437   4.461   8.154  1.4390 -0.7979 -0.8711
 6756SOL     OW31729   4.493   4.375   4.943 -0.6265 -0.3180 -0.0380
 6756SOL    HW131730   4.430   4.386   4.872  2.3092  1.2348 -2.4244
 6756SOL    HW231731   4.563   4.336   4.890 -0.0057 -0.7942  1.1445
 6757SOL     OW31732   1.680   4.660   6.677  0.0042  0.1545  0.4486
 6757SOL    HW131733   1.653   0.026   6.671  1.0309  0.3446 -1.2968
 6757SOL    HW231734   1.606   4.625   6.725  2.0085 -2.1284  1.8582
 6758SOL     OW31735   2.650   2.084   6.713 -0.0344  0.8297  0.3375
 6758SOL    HW131736   2.697   2.119   6.638  2.3439  0.4886  1.6783
 6758SOL    HW231737   2.623   2.166   6.755  0.5839  1.5757 -0.7163
 6759SOL     OW31738   0.190   1.908   1.562  0.2511  0.5401  0.1116
 6759SOL    HW131739   0.197   1.884   1.655  1.1261 -0.6616 -0.2680
 6759SOL    HW231740   0.094   1.911   1.562  0.2454 -0.3184 -2.4778
 6760SOL     OW31741   1.222   1.765   7.734 -0.0695 -0.2378 -0.5734
 6760SOL    HW131742   1.282   1.812   7.793 -0.7001 -2.6145  1.9532
 6760SOL    HW231743   1.249   1.676   7.758  1.9659  0.9265  1.4988
 6761SOL     OW31744   4.700   0.343   8.528  0.4494  0.1230  0.8081
 6761SOL    HW131745   4.638   0.382   8.589 -2.0870 -1.4051 -0.7891
 6761SOL    HW231746   4.718   0.422   8.478 -2.5610 -0.4232 -1.1712
 6762SOL     OW31747   2.591   0.996  10.734 -0.3758 -0.5261  0.1324
 6762SOL    HW131748   2.611   1.040  10.652  0.5601 -0.0195  0.6331
 6762SOL    HW231749   2.592   0.904  10.707 -0.1031 -0.6741  0.6374
 6763SOL     OW31750   0.255   0.635   5.227  0.4800  0.6317 -0.1723
 6763SOL    HW131751   0.238   0.651   5.320  0.1940  0.0638 -0.1263
 6763SOL    HW231752   0.273   0.541   5.226  0.9169  0.7225 -1.3108
 6764SOL     OW31753   2.311   1.841   3.486  0.2855 -0.1688 -0.2323
 6764SOL    HW131754   2.378   1.883   3.541  0.0122  0.3485 -0.2929
 6764SOL    HW231755   2.350   1.759   3.457  1.4243  0.4674 -0.4797
 6765SOL     OW31756   1.715   3.951   3.871 -0.3816 -0.0977  0.1093
 6765SOL    HW131757   1.684   4.027   3.920 -0.1827  0.8063 -1.1998
 6765SOL    HW231758   1.639   3.921   3.822 -0.2554  0.5166 -0.4553
 6766SOL     OW31759   2.706   3.898  14.278 -0.0653  0.3790 -0.3300
 6766SOL    HW131760   2.729   3.990  14.286  2.2233 -0.4528  2.2983
 6766SOL    HW231761   2.657   3.898  14.195 -0.4786 -1.1285 -0.0919
 6767SOL     OW31762   4.538   1.203   5.749  0.1450 -0.0779  0.9304
 6767SOL    HW131763   4.454   1.161   5.767 -0.9364  0.1405 -3.8632
 6767SOL    HW231764   4.515   1.295   5.765 -3.2232 -0.9424  1.0181
 6768SOL     OW31765   2.170   4.068   6.390 -0.0797  0.5892 -0.1554
 6768SOL    HW131766   2.088   4.112   6.411 -2.2922 -2.7286 -1.9579
 6768SOL    HW231767   2.217   4.137   6.342 -0.8738  1.4961  0.3591
 6769SOL     OW31768   2.368   3.375   8.073 -0.3447  0.2290 -0.7051
 6769SOL    HW131769   2.364   3.389   7.978  2.4645 -1.0050 -1.0110
 6769SOL    HW231770   2.379   3.456   8.122  1.1082 -0.0548 -0.5698
 6770SOL     OW31771   2.424   1.911   6.684 -0.2817 -0.5308  0.3746
 6770SOL    HW131772   2.504   1.960   6.704  0.1865 -0.9495 -0.4876
 6770SOL    HW231773   2.397   1.961   6.607 -0.0405 -1.2767 -0.1945
 6771SOL     OW31774   1.694   0.317   0.498 -0.8512 -0.0900 -0.5190
 6771SOL    HW131775   1.667   0.378   0.429 -3.5581  0.8242  1.3475
 6771SOL    HW231776   1.751   0.261   0.445  0.5026 -0.0805  0.9298
 6772SOL     OW31777   0.209   1.805  12.589  0.0286 -0.4179  0.8361
 6772SOL    HW131778   0.262   1.836  12.662  0.4522 -4.3266  2.1997
 6772SOL    HW231779   0.181   1.894  12.567  0.7805 -0.9662 -2.3786
 6773SOL     OW31780   3.133   0.673  16.676  0.8138 -0.3095 -0.3511
 6773SOL    HW131781   3.114   0.682  16.582  0.7673  0.0893 -0.3031
 6773SOL    HW231782   3.223   0.705  16.687  0.1266  2.0724 -1.5985
 6774SOL     OW31783   4.217   2.318   5.509 -0.5209  0.0264 -0.1132
 6774SOL    HW131784   4.239   2.267   5.432 -1.2893 -0.4598 -0.0058
 6774SOL    HW231785   4.167   2.389   5.469 -2.7726 -2.0581 -0.9331
 6775SOL     OW31786   1.450   0.462  11.276  0.3930 -0.1373  0.5029
 6775SOL    HW131787   1.421   0.468  11.185 -2.5588 -0.2394  1.4421
 6775SOL    HW231788   1.371   0.431  11.320  0.8214 -0.8756  0.7611
 6776SOL     OW31789   4.075   2.314   1.254  0.1055  0.3839  0.1085
 6776SOL    HW131790   4.133   2.268   1.315 -1.9554 -1.7359  0.4583
 6776SOL    HW231791   3.999   2.302   1.310  0.3670 -2.4396 -0.1304
 6777SOL     OW31792   3.740   2.305  14.208  0.3100  0.3893  0.2614
 6777SOL    HW131793   3.690   2.224  14.201  2.1741 -0.7687  0.2683
 6777SOL    HW231794   3.723   2.335  14.118  0.7564 -0.1372 -0.0028
 6778SOL     OW31795   1.011   1.391  13.332 -0.2167 -0.0232  0.2747
 6778SOL    HW131796   0.925   1.349  13.333 -0.1703 -0.1147  0.4771
 6778SOL    HW231797   1.023   1.424  13.421  0.3538  0.8969 -0.1420
 6779SOL     OW31798   3.315   2.258   4.463 -0.0374 -0.2711 -0.0453
 6779SOL    HW131799   3.396   2.303   4.439  1.1018 -2.8029 -0.9241
 6779SOL    HW231800   3.313   2.270   4.558  0.5557 -0.6778  0.0201
 6780SOL     OW31801   0.224   3.250   6.710  0.0905  0.0869  0.4293
 6780SOL    HW131802   0.164   3.199   6.764  0.8387 -0.3408  0.8539
 6780SOL    HW231803   0.264   3.176   6.665  0.4287 -0.5566  1.7797
 6781SOL     OW31804   4.672   3.145  15.062  0.1997  0.5971  0.0965
 6781SOL    HW131805   4.616   3.166  15.136 -1.2593  0.3914 -0.9647
 6781SOL    HW231806   4.670   3.226  15.012  0.1551  1.1077  0.9115
 6782SOL     OW31807   0.467   2.034  16.734 -0.5867  0.0573 -0.2558
 6782SOL    HW131808   0.527   1.986  16.677 -1.0234 -0.6617 -0.1047
 6782SOL    HW231809   0.412   1.961  16.761 -2.3594  2.1495  1.7790
 6783SOL     OW31810   2.302   1.186   6.358 -0.1373  0.0245  0.2020
 6783SOL    HW131811   2.384   1.150   6.324 -0.5835 -0.4228 -0.4051
 6783SOL    HW231812   2.232   1.127   6.331  0.3271 -0.2406 -0.4301
 6784SOL     OW31813   3.978   2.400  12.800  0.4364  0.2166  0.1912
 6784SOL    HW131814   3.949   2.478  12.753  5.1325  1.7953 -0.0480
 6784SOL    HW231815   3.925   2.392  12.880 -0.0893 -0.9757 -0.2658
 6785SOL     OW31816   2.877   2.422  11.544 -0.1647  0.0062  0.3383
 6785SOL    HW131817   2.829   2.504  11.560  1.6610  0.9556  0.9786
 6785SOL    HW231818   2.831   2.396  11.465  0.9723  0.1707 -0.3784
 6786SOL     OW31819   2.518   4.174   0.638 -0.6954 -0.0203  0.3233
 6786SOL    HW131820   2.565   4.099   0.603 -2.6547 -1.5245  0.9115
 6786SOL    HW231821   2.448   4.134   0.691  0.4926 -1.2043  0.9831
 6787SOL     OW31822   0.503   0.793   5.868 -0.2984  0.2148 -0.5254
 6787SOL    HW131823   0.544   0.765   5.786 -0.9323  4.0564 -2.1470
 6787SOL    HW231824   0.574   0.827   5.922 -1.3508 -3.1804  3.0438
 6788SOL     OW31825   1.952   0.844   6.412 -0.0517 -0.2367  0.0714
 6788SOL    HW131826   1.899   0.789   6.469  0.1789 -0.1449  0.3741
 6788SOL    HW231827   1.993   0.778   6.356  0.5997 -0.6083  0.9864
 6789SOL     OW31828   1.800   4.293   2.445  0.0936  0.8937  0.1542
 6789SOL    HW131829   1.838   4.367   2.493  0.1586  2.2954 -2.0403
 6789SOL    HW231830   1.729   4.273   2.506  1.8762 -1.3157  1.5191
 6790SOL     OW31831   2.548   2.649   9.113 -0.2715 -0.5556  0.0134
 6790SOL    HW131832   2.628   2.689   9.080 -0.0680 -1.2471 -0.3303
 6790SOL    HW231833   2.579   2.584   9.176 -0.1121  0.1871  0.7067
 6791SOL     OW31834   1.479   0.198   9.584 -0.5210 -0.5370  0.0710
 6791SOL    HW131835   1.468   0.248   9.503 -0.6486 -1.2484 -0.3527
 6791SOL    HW231836   1.388   0.186   9.611  0.3284  1.5541  3.9666
 6792SOL     OW31837   2.232   2.425  10.286 -0.0626 -0.4179 -0.6147
 6792SOL    HW131838   2.215   2.513  10.321 -4.1384 -1.8780  1.0397
 6792SOL    HW231839   2.327   2.429  10.285 -0.0593 -0.1883  0.3195
 6793SOL     OW31840   1.839   4.074   1.988  0.0569 -0.2815  0.3811
 6793SOL    HW131841   1.781   4.000   1.967 -0.2157  0.1469 -0.3828
 6793SOL    HW231842   1.787   4.085   2.068  1.6434  0.0784  1.3628
 6794SOL     OW31843   4.663   4.291   8.353  0.6407  0.0655  0.1678
 6794SOL    HW131844   4.624   4.314   8.438 -0.4229 -0.9469 -0.0544
 6794SOL    HW231845   4.611   4.357   8.307  0.2128 -0.8285 -0.6068
 6795SOL     OW31846   0.870   2.128   7.032  0.7925 -0.6168 -1.1530
 6795SOL    HW131847   0.911   2.055   6.987  1.4854 -1.4300  0.7947
 6795SOL    HW231848   0.786   2.084   7.041  0.5393  0.7370  3.2779
 6796SOL     OW31849   1.217   1.995   4.466  0.5230  0.5192 -0.3239
 6796SOL    HW131850   1.257   2.053   4.531  1.3321 -1.6209  1.0848
 6796SOL    HW231851   1.153   2.055   4.428 -1.3717 -1.8793 -0.8497
 6797SOL     OW31852   0.531   0.540   9.199  0.3693 -0.4702  0.2209
 6797SOL    HW131853   0.448   0.500   9.175  0.0553  0.1941  0.1974
 6797SOL    HW231854   0.538   0.548   9.294  0.0469  0.3881  0.1712
 6798SOL     OW31855   0.469   1.477   8.645 -0.5184 -0.1088  0.1577
 6798SOL    HW131856   0.489   1.537   8.717 -0.7898 -0.4559  0.5235
 6798SOL    HW231857   0.537   1.508   8.585 -1.9374  2.4154 -0.1632
 6799SOL     OW31858   1.642   4.571   2.067  0.5433  0.3849  0.2276
 6799SOL    HW131859   1.612   4.623   2.142  1.0077  0.4661  0.3611
 6799SOL    HW231860   1.584   4.612   2.004  1.3714  1.8832  0.4385
 6800SOL     OW31861   4.090   4.723   5.974 -0.7304 -0.3792  0.0858
 6800SOL    HW131862   4.054   4.641   6.007 -0.0649 -0.3071  0.9749
 6800SOL    HW231863   4.089   4.707   5.879 -1.0616  0.5715 -0.0760
 6801SOL     OW31864   1.171   0.397   3.283 -0.2200  0.1641  0.0827
 6801SOL    HW131865   1.148   0.488   3.303 -1.1022 -0.1166  0.3412
 6801SOL    HW231866   1.131   0.379   3.198 -0.4389  0.3372  0.1509
 6802SOL     OW31867   3.626   1.144   7.678  0.0233  0.1741 -0.4071
 6802SOL    HW131868   3.687   1.218   7.668  0.2090  0.1866  0.9423
 6802SOL    HW231869   3.553   1.191   7.717 -0.4467 -0.4154 -0.5911
 6803SOL     OW31870   0.368   4.685   6.613 -0.2358 -0.5997  0.5327
 6803SOL    HW131871   0.324   4.608   6.575  2.1306 -1.4334 -0.4888
 6803SOL    HW231872   0.292   0.013   6.636 -1.5038 -1.6394 -1.1319
 6804SOL     OW31873   1.680   3.284   3.703 -0.2091 -0.2126  0.0858
 6804SOL    HW131874   1.732   3.203   3.700 -1.2254 -0.8381 -0.5435
 6804SOL    HW231875   1.601   3.238   3.732 -1.2813  1.8431  0.4111
 6805SOL     OW31876   4.429   1.450   1.126 -0.0375  0.0618  0.2700
 6805SOL    HW131877   4.485   1.510   1.078 -2.4678  0.9134 -1.4433
 6805SOL    HW231878   4.350   1.502   1.140  1.0487  1.5839  0.7803
 6806SOL     OW31879   1.664   3.294   4.900 -0.0562 -0.2800 -0.0394
 6806SOL    HW131880   1.627   3.301   4.812 -0.5230 -3.4318 -0.1069
 6806SOL    HW231881   1.594   3.260   4.956  2.3469 -0.8251  2.6513
 6807SOL     OW31882   0.901   2.371   0.981  0.0017 -0.1820  0.2268
 6807SOL    HW131883   0.934   2.335   0.900  2.1009  1.0261  0.5389
 6807SOL    HW231884   0.908   2.290   1.031 -0.2582 -0.4119 -0.1105
 6808SOL     OW31885   0.467   2.266  15.811  0.1655  0.2048 -0.3829
 6808SOL    HW131886   0.458   2.291  15.719  0.7451  1.5680 -0.0709
 6808SOL    HW231887   0.414   2.333  15.854 -1.1696 -1.4621  0.5970
 6809SOL     OW31888   0.261   2.058   0.991 -1.0580  0.1685 -0.3312
 6809SOL    HW131889   0.173   2.036   0.961 -0.4445  0.1342 -2.1327
 6809SOL    HW231890   0.239   2.088   1.079 -0.5947 -0.3104 -0.0557
 6810SOL     OW31891   2.154   0.228   6.527 -0.1889  0.3255  0.5546
 6810SOL    HW131892   2.153   0.187   6.441 -2.9257 -0.8521  1.1646
 6810SOL    HW231893   2.124   0.314   6.499  0.0197  0.3280  0.3409
 6811SOL     OW31894   4.639   0.275   6.173 -0.2092 -0.1567  0.6031
 6811SOL    HW131895   4.664   0.367   6.167 -1.1784  0.0223 -0.7245
 6811SOL    HW231896   4.592   0.258   6.092  0.5449  2.6250 -0.4259
 6812SOL     OW31897   1.778   3.443   6.706 -0.0119 -0.8596  0.0900
 6812SOL    HW131898   1.767   3.445   6.611  3.4725  2.6900 -0.2560
 6812SOL    HW231899   1.871   3.466   6.699  0.0800 -0.3152  3.1026
 6813SOL     OW31900   4.147   3.937   8.577  0.0240 -0.3235 -0.0503
 6813SOL    HW131901   4.103   3.896   8.503  0.3482  1.7248 -1.3860
 6813SOL    HW231902   4.162   4.029   8.552  1.9887 -1.1395 -1.8842
 6814SOL     OW31903   4.488   3.756   0.349  0.7659 -0.3778  0.1684
 6814SOL    HW131904   4.483   3.661   0.346  1.7789 -0.4112 -0.4288
 6814SOL    HW231905   4.564   3.769   0.292  0.1984  0.6147 -0.3727
 6815SOL     OW31906   3.884   1.428   3.044 -0.4996  0.0056  0.1044
 6815SOL    HW131907   3.933   1.406   3.123 -2.0792  0.5219  1.2233
 6815SOL    HW231908   3.871   1.523   3.039 -1.4759 -0.0733  1.3220
 6816SOL     OW31909   2.848   4.601  17.660 -0.0604 -0.1362 -0.1700
 6816SOL    HW131910   2.803   4.517  17.657 -0.9604  0.2595  2.3641
 6816SOL    HW231911   2.926   4.574   0.003  0.2514  0.0936 -0.5420
 6817SOL     OW31912   4.572   0.815   8.263 -0.0516  0.2506  0.7088
 6817SOL    HW131913   4.597   0.861   8.343 -3.0171  0.8671  1.2782
 6817SOL    HW231914   4.479   0.817   8.284 -0.8501 -0.5533 -2.7646
 6818SOL     OW31915   1.392   0.436   4.645  1.1080  0.1337 -0.0881
 6818SOL    HW131916   1.448   0.360   4.660 -0.8013 -1.1724  0.4835
 6818SOL    HW231917   1.406   0.465   4.555  1.3234 -0.2341 -0.1755
 6819SOL     OW31918   3.028   0.070   7.676  0.3836 -0.1341  0.2325
 6819SOL    HW131919   3.072   0.145   7.715 -2.9567  1.7617  0.3434
 6819SOL    HW231920   3.078   0.070   7.594  0.0923  1.0149  0.0564
 6820SOL     OW31921   4.314   0.497   6.966  0.4188 -0.1832 -0.5419
 6820SOL    HW131922   4.303   0.567   6.901 -1.0419  0.5790  0.5089
 6820SOL    HW231923   4.402   0.473   6.938 -0.2940  0.0841 -3.0394
 6821SOL     OW31924   0.068   1.183   5.581  0.1299 -0.1158 -0.6452
 6821SOL    HW131925   0.120   1.112   5.620  2.1973  1.7299 -0.0714
 6821SOL    HW231926   4.714   1.181   5.634  0.0335  0.3855 -0.7697
 6822SOL     OW31927   0.150   0.041   9.785  0.2512 -0.3659  0.0473
 6822SOL    HW131928   0.226   4.720   9.819 -0.4410 -0.7550  1.0640
 6822SOL    HW231929   0.156   0.116   9.845  1.1126 -1.6090  1.5252
 6823SOL     OW31930   4.253   2.006   9.363 -0.2912 -0.2956 -0.0707
 6823SOL    HW131931   4.258   2.071   9.294  1.2462 -0.3486  0.0032
 6823SOL    HW231932   4.228   2.068   9.431  1.9848  1.0947 -0.5069
 6824SOL     OW31933   0.550   2.186   5.532  0.1638  0.6521 -0.0210
 6824SOL    HW131934   0.587   2.169   5.445  0.4831 -0.5603  0.3503
 6824SOL    HW231935   0.549   2.094   5.559  0.4004  1.3316  2.2387
 6825SOL     OW31936   2.192   0.181   6.818  0.3026  0.2290  0.5384
 6825SOL    HW131937   2.147   0.247   6.871 -0.0319 -0.7093  1.4194
 6825SOL    HW231938   2.160   0.203   6.731  0.2550  1.3910  0.8408
 6826SOL     OW31939   0.651   0.065  13.204  0.7484  0.8665  0.2413
 6826SOL    HW131940   0.717   0.134  13.193 -1.6323  3.5723  2.8906
 6826SOL    HW231941   0.568   0.112  13.207 -0.4672 -1.5019  3.1268
 6827SOL     OW31942   2.508   1.468   2.229 -0.2067  0.0805 -0.3824
 6827SOL    HW131943   2.549   1.431   2.151 -0.8204 -0.8841 -0.2419
 6827SOL    HW231944   2.578   1.489   2.292 -1.6982 -2.1004  1.9957
 6828SOL     OW31945   0.558   2.268   3.587  0.3714 -0.2303 -0.4537
 6828SOL    HW131946   0.636   2.220   3.615 -0.1950 -1.2908 -0.6920
 6828SOL    HW231947   0.509   2.193   3.554  0.1444 -1.0766  1.7936
 6829SOL     OW31948   1.270   0.357  15.255  0.1749 -0.3627 -0.0873
 6829SOL    HW131949   1.298   0.312  15.175  0.3548 -0.8722  0.2662
 6829SOL    HW231950   1.191   0.305  15.273  0.3029 -1.5004 -2.7705
 6830SOL     OW31951   1.352   1.137  10.730  0.6050 -0.3344 -0.3833
 6830SOL    HW131952   1.347   1.113  10.637  1.0883 -1.0083 -0.2309
 6830SOL    HW231953   1.259   1.141  10.752 -0.1333 -1.4771 -3.3425
 6831SOL     OW31954   1.526   1.467   9.027  0.1248  0.0667 -0.5195
 6831SOL    HW131955   1.505   1.532   8.961  2.2377 -0.6341 -1.9020
 6831SOL    HW231956   1.610   1.498   9.061  1.4835 -2.9935 -1.0741
 6832SOL     OW31957   2.462   0.254   5.194  0.6235  0.3329  0.2485
 6832SOL    HW131958   2.382   0.204   5.211  0.5525  0.8082  1.2944
 6832SOL    HW231959   2.511   0.201   5.131  1.9980  3.0003 -0.9511
 6833SOL     OW31960   0.852   2.302   8.129  0.3008  0.1311  0.6468
 6833SOL    HW131961   0.867   2.226   8.072 -1.6813  0.3275 -0.1232
 6833SOL    HW231962   0.827   2.371   8.068  0.5794  0.8596  1.3489
 6834SOL     OW31963   0.594   0.360   6.195  0.0570 -0.1987 -0.3081
 6834SOL    HW131964   0.591   0.390   6.286 -1.0752  0.2558 -0.4948
 6834SOL    HW231965   0.578   0.267   6.207 -1.9798  0.3267  1.0734
 6835SOL     OW31966   1.185   1.125   3.942  0.0926  0.2168 -0.4351
 6835SOL    HW131967   1.177   1.074   3.862  1.1996 -0.0087 -0.4025
 6835SOL    HW231968   1.279   1.144   3.938  0.5786 -1.8998  0.9900
 6836SOL     OW31969   1.262   0.868   1.760  0.6596 -0.0120 -0.1540
 6836SOL    HW131970   1.321   0.793   1.757  0.4337 -0.2022  0.0868
 6836SOL    HW231971   1.283   0.915   1.679  0.3718  2.0393  0.9639
 6837SOL     OW31972   0.500   0.341   5.507  0.5365 -0.0563  0.1572
 6837SOL    HW131973   0.472   0.312   5.594  0.9214 -1.1948 -0.1016
 6837SOL    HW231974   0.560   0.268   5.492 -0.0304 -0.6991  1.0343
 6838SOL     OW31975   4.590   4.256   5.523 -0.2353  0.2195 -0.1086
 6838SOL    HW131976   4.572   4.165   5.548 -2.5918  0.9614  0.9341
 6838SOL    HW231977   4.506   4.282   5.484 -0.9336 -0.8363  0.6617
 6839SOL     OW31978   1.898   2.916   9.879 -0.2924 -0.5052  0.8548
 6839SOL    HW131979   1.881   2.829   9.916 -0.0656 -0.7871  0.3008
 6839SOL    HW231980   1.822   2.927   9.823  1.1990 -0.1461 -1.0807
 6840SOL     OW31981   0.432   3.128   8.361 -0.0018 -0.3176  0.6698
 6840SOL    HW131982   0.482   3.072   8.421  0.3401 -1.6013 -0.7987
 6840SOL    HW231983   0.479   3.211   8.372  0.8689 -0.4518 -2.0239
 6841SOL     OW31984   1.603   2.080   7.244  0.5551  0.2875 -0.8990
 6841SOL    HW131985   1.528   2.074   7.303  0.4063  0.6555 -1.0489
 6841SOL    HW231986   1.670   2.118   7.301 -1.4025  0.2201  1.4158
 6842SOL     OW31987   1.774   1.944   1.331  0.2962  0.3314  0.5176
 6842SOL    HW131988   1.683   1.960   1.306  1.1337 -0.6403 -3.1551
 6842SOL    HW231989   1.816   2.020   1.292 -0.6688 -0.0029 -1.1628
 6843SOL     OW31990   0.801   2.895   7.019  0.0680 -0.3436  0.0035
 6843SOL    HW131991   0.861   2.967   7.041 -0.5640  0.6623 -1.5597
 6843SOL    HW231992   0.860   2.824   6.996  0.5107 -0.3504  1.1531
 6844SOL     OW31993   2.965   4.497  12.917  0.0449 -0.2267  0.7021
 6844SOL    HW131994   3.019   4.434  12.870  0.3065  0.4490  0.0961
 6844SOL    HW231995   2.897   4.506  12.851 -1.5952 -1.7148  2.1652
 6845SOL     OW31996   4.302   2.858  11.627  0.1087 -0.1073 -0.1496
 6845SOL    HW131997   4.283   2.765  11.620  0.6640 -0.3645  1.7691
 6845SOL    HW231998   4.394   2.865  11.599  0.2900  2.8246  1.0901
 6846SOL     OW31999   4.585   4.710   4.617 -0.2440  0.0450  0.4108
 6846SOL    HW132000   4.586   0.044   4.691  0.1307  1.6376 -0.8860
 6846SOL    HW232001   4.518   0.022   4.559 -0.5557  0.7927  1.2793
 6847SOL     OW32002   2.444   3.460   9.107  0.4539 -0.3616 -0.0689
 6847SOL    HW132003   2.447   3.510   9.189  1.5315  0.1122 -0.3982
 6847SOL    HW232004   2.475   3.376   9.141  0.2901 -0.5513 -0.3929
 6848SOL     OW32005   3.937   1.813   4.096  0.0163 -0.2281 -0.6121
 6848SOL    HW132006   3.892   1.841   4.176  0.4518  0.2129 -0.5190
 6848SOL    HW232007   3.901   1.725   4.089  0.2976 -0.3953  0.0448
 6849SOL     OW32008   2.109   1.794   4.130  0.2893 -0.9848 -0.3949
 6849SOL    HW132009   2.123   1.853   4.056 -0.8365  0.6373  0.6553
 6849SOL    HW232010   2.040   1.833   4.185  0.7303  0.5265 -0.9094
 6850SOL     OW32011   4.162   2.610   6.807 -0.1322 -0.1606 -0.5445
 6850SOL    HW132012   4.211   2.584   6.729  1.3782  0.2275  0.2524
 6850SOL    HW232013   4.139   2.531   6.856 -1.5495  1.2362  1.0178
 6851SOL     OW32014   2.634   2.033   2.914 -0.2528  0.6476 -0.1170
 6851SOL    HW132015   2.645   2.128   2.911  0.4809  0.5892  0.7707
 6851SOL    HW232016   2.722   2.013   2.880  0.1618  1.3075  0.5651
 6852SOL     OW32017   0.724   0.299   6.677 -0.5140 -0.5190  0.4018
 6852SOL    HW132018   0.758   0.245   6.747 -0.5187  0.4447  1.1495
 6852SOL    HW232019   0.675   0.364   6.729 -1.5022 -0.2156 -0.8964
 6853SOL     OW32020   0.109   4.194   4.634  0.1021 -0.1452 -0.0588
 6853SOL    HW132021   0.135   4.102   4.637 -0.5334 -0.3434 -0.4742
 6853SOL    HW232022   0.085   4.198   4.541  0.2873  0.0551 -0.0974
 6854SOL     OW32023   1.487   1.612   8.810  0.1756  0.4741  0.1228
 6854SOL    HW132024   1.392   1.619   8.802  0.3688  0.8730 -1.9116
 6854SOL    HW232025   1.510   1.620   8.717  0.7346  1.5939  0.3527
 6855SOL     OW32026   1.451   2.717   0.719 -0.2881 -0.4632  0.1211
 6855SOL    HW132027   1.389   2.708   0.646 -1.4924 -1.7281  1.3027
 6855SOL    HW232028   1.494   2.801   0.703 -1.1830  0.4649  2.5274
 6856SOL     OW32029   1.357   3.698   9.968  0.0642 -0.0027 -0.0647
 6856SOL    HW132030   1.313   3.766   9.917  2.9049  0.8071 -1.4445
 6856SOL    HW232031   1.339   3.621   9.913 -0.6786 -1.4904  2.2894
 6857SOL     OW32032   3.456   0.729   1.089 -0.1430  0.2750 -0.0039
 6857SOL    HW132033   3.495   0.701   1.171  0.3565 -1.5076 -0.8594
 6857SOL    HW232034   3.513   0.806   1.079 -0.0629  0.0687 -1.2308
 6858SOL     OW32035   2.459   0.262   9.852 -0.4700  0.2159  0.3364
 6858SOL    HW132036   2.495   0.220   9.930 -1.6870 -1.5677 -0.0717
 6858SOL    HW232037   2.368   0.241   9.830  0.8491 -1.0738 -3.8548
 6859SOL     OW32038   1.241   3.702   4.663 -0.3364  0.2611  0.4531
 6859SOL    HW132039   1.247   3.698   4.567  0.2689 -0.0165  0.5035
 6859SOL    HW232040   1.334   3.713   4.682 -0.0743 -1.0208 -0.0318
 6860SOL     OW32041   1.017   3.340   2.321  0.5236  0.6088 -0.2584
 6860SOL    HW132042   1.037   3.266   2.264 -2.0553 -0.9961  0.8994
 6860SOL    HW232043   1.100   3.353   2.367  0.1949 -1.7794  0.9889
 6861SOL     OW32044   3.972   4.000   9.577  0.3439  0.5638 -0.3275
 6861SOL    HW132045   3.911   4.070   9.601  0.9460  0.5412  1.2733
 6861SOL    HW232046   4.013   3.994   9.663 -0.5929 -3.4632 -0.1990
 6862SOL     OW32047   0.039   2.916   2.492 -0.6293 -0.2542  0.0870
 6862SOL    HW132048   0.024   3.008   2.510  3.5433  0.1979  1.1817
 6862SOL    HW232049   0.115   2.893   2.545  0.6454  0.1731 -1.5640
 6863SOL     OW32050   2.762   1.661  13.593  0.0442  0.1439 -0.3288
 6863SOL    HW132051   2.670   1.655  13.568 -0.2896 -1.1271  1.1590
 6863SOL    HW232052   2.778   1.749  13.561  0.5350  0.2625  0.2258
 6864SOL     OW32053   2.058   0.996   6.825 -0.5872  0.1072  0.2708
 6864SOL    HW132054   2.003   1.015   6.749  2.3880  0.3141 -1.8361
 6864SOL    HW232055   1.989   0.982   6.890 -1.4460  0.2369 -0.6152
 6865SOL     OW32056   0.621   4.541  13.351 -0.4018 -0.1660 -0.1389
 6865SOL    HW132057   0.708   4.516  13.321 -0.8339 -0.3673 -1.2275
 6865SOL    HW232058   0.606   4.628  13.313 -0.1754 -0.4558 -0.8792
 6866SOL     OW32059   3.446   3.173   6.292  0.1441  0.1871  0.3988
 6866SOL    HW132060   3.483   3.260   6.277 -2.2587  1.1012 -0.1331
 6866SOL    HW232061   3.524   3.118   6.302 -0.2564 -0.2235  1.2370
 6867SOL     OW32062   2.794   1.363  11.744 -0.0080  0.2777  0.0687
 6867SOL    HW132063   2.747   1.287  11.780  0.9021 -1.1605 -1.7747
 6867SOL    HW232064   2.774   1.428  11.811  2.9141  1.2115  0.0516
 6868SOL     OW32065   3.947   0.793   3.461  0.0956  0.8650  0.2663
 6868SOL    HW132066   3.853   0.794   3.442  0.5457  2.2204 -1.9371
 6868SOL    HW232067   3.984   0.740   3.390  0.2595  0.2300  0.8256
 6869SOL     OW32068   1.784   0.902   7.690 -0.1360  0.5540 -0.3562
 6869SOL    HW132069   1.712   0.847   7.658  1.4981 -0.9586 -1.4050
 6869SOL    HW232070   1.792   0.881   7.783 -3.9346  2.1503  0.3546
 6870SOL     OW32071   1.379   0.773  12.258  0.1702 -0.4940 -0.5131
 6870SOL    HW132072   1.372   0.687  12.299  2.8115  1.0201  3.1485
 6870SOL    HW232073   1.303   0.829  12.273  0.4152  0.1574 -1.6663
 6871SOL     OW32074   2.050   0.864   5.826 -0.0785  0.2170 -0.1101
 6871SOL    HW132075   1.990   0.827   5.761 -0.4859 -0.2433  0.5268
 6871SOL    HW232076   1.998   0.852   5.905 -0.3860 -1.3403 -0.5571
 6872SOL     OW32077   4.090   2.512   8.708  0.1885 -0.4694 -0.8424
 6872SOL    HW132078   4.005   2.475   8.685 -1.3894  3.0725 -0.5478
 6872SOL    HW232079   4.061   2.602   8.720 -0.0796 -0.7256  0.4979
 6873SOL     OW32080   0.816   0.165  12.052  0.6467  0.2485  0.8152
 6873SOL    HW132081   0.741   0.134  12.002 -0.2360  1.8501  1.1334
 6873SOL    HW232082   0.792   0.236  12.112  1.7239  0.4266  1.0337
 6874SOL     OW32083   1.967   4.196   9.368  0.2545  0.8209 -0.0848
 6874SOL    HW132084   1.988   4.165   9.456  1.0267 -1.2630 -1.0049
 6874SOL    HW232085   2.042   4.253   9.346  0.2164  1.3332  1.1371
 6875SOL     OW32086   4.318   3.186  12.050  0.0005 -0.1113  0.1794
 6875SOL    HW132087   4.388   3.250  12.035  2.3248 -2.0990  2.6216
 6875SOL    HW232088   4.371   3.112  12.020 -0.7156 -0.0398 -1.2465
 6876SOL     OW32089   4.671   2.370   0.498 -0.3240 -0.0037  0.5399
 6876SOL    HW132090   0.033   2.405   0.515 -1.3391  1.9905  1.6261
 6876SOL    HW232091   4.631   2.352   0.583  1.1143  1.4691  1.5103
 6877SOL     OW32092   1.641   3.884   1.877  0.3496 -0.4911  0.1005
 6877SOL    HW132093   1.547   3.904   1.882  0.7436  1.9874 -2.9881
 6877SOL    HW232094   1.662   3.922   1.792  1.7296 -1.1324  0.1590
 6878SOL     OW32095   0.394   3.779   7.484  0.1240  0.2542  0.0881
 6878SOL    HW132096   0.446   3.742   7.555 -0.8345 -0.9675  0.1500
 6878SOL    HW232097   0.462   3.786   7.416 -2.7508  1.0050 -2.7193
 6879SOL     OW32098   0.529   1.056  10.987 -0.0395 -0.4073 -0.0090
 6879SOL    HW132099   0.446   1.043  10.941 -0.2352 -0.3873  0.3297
 6879SOL    HW232100   0.498   1.072  11.077  0.4542  1.1752 -0.1227
 6880SOL     OW32101   1.722   0.665  16.132  0.0926  0.3281  0.1950
 6880SOL    HW132102   1.753   0.735  16.189 -0.1879 -0.7896  1.7046
 6880SOL    HW232103   1.781   0.597  16.164 -0.3841 -0.4450 -0.5616
 6881SOL     OW32104   3.714   3.073   6.817 -0.5100 -0.2017 -0.3966
 6881SOL    HW132105   3.738   3.085   6.726 -1.1087  0.5886 -0.4488
 6881SOL    HW232106   3.785   3.120   6.859 -2.0900  1.7240  0.1115
 6882SOL     OW32107   2.181   3.746   7.835 -0.6458  0.0288 -0.2529
 6882SOL    HW132108   2.127   3.818   7.867  0.2228  0.9818 -0.9313
 6882SOL    HW232109   2.266   3.763   7.876 -0.9609 -0.7852  0.7564
 6883SOL     OW32110   3.369   3.320   7.419 -0.1822  0.0729 -0.4436
 6883SOL    HW132111   3.418   3.349   7.496  1.0111  1.3533 -1.6798
 6883SOL    HW232112   3.392   3.376   7.344  0.0761  0.1856 -0.2815
 6884SOL     OW32113   1.319   2.297   3.275 -0.2810 -0.1896 -0.0916
 6884SOL    HW132114   1.262   2.269   3.204  2.8639 -1.7019 -2.0016
 6884SOL    HW232115   1.250   2.321   3.336  0.0277 -2.7913  1.2725
 6885SOL     OW32116   0.524   1.534   4.567  0.1839 -0.2597  0.4340
 6885SOL    HW132117   0.515   1.629   4.565  1.5296 -0.1621 -1.4213
 6885SOL    HW232118   0.464   1.511   4.495 -0.4526  1.7360  0.3228
 6886SOL     OW32119   3.892   0.514   9.025 -0.9420 -0.3135  0.1909
 6886SOL    HW132120   3.900   0.578   9.095 -1.8570 -1.8183  1.6692
 6886SOL    HW232121   3.932   0.557   8.949 -1.0211 -0.4821  0.0552
 6887SOL     OW32122   3.841   4.355   4.440 -0.5713  0.3913 -0.0684
 6887SOL    HW132123   3.842   4.419   4.369 -3.1671  0.1562 -0.2999
 6887SOL    HW232124   3.809   4.412   4.509 -0.3551  1.7282 -1.0681
 6888SOL     OW32125   2.834   2.949   3.886  0.0513  0.3750  0.1262
 6888SOL    HW132126   2.751   2.936   3.932 -0.1948 -1.3819 -0.8051
 6888SOL    HW232127   2.899   2.958   3.956 -0.9450 -0.5942  1.1850
 6889SOL     OW32128   2.766   3.333  13.050 -0.0001 -0.4585  0.0716
 6889SOL    HW132129   2.836   3.320  12.986  0.1997  1.6328 -0.1573
 6889SOL    HW232130   2.732   3.245  13.060 -2.8740  0.6130 -0.3305
 6890SOL     OW32131   3.346   1.016   0.515 -0.7479  0.0890  0.2906
 6890SOL    HW132132   3.316   0.955   0.583  1.0770  0.8916  1.8137
 6890SOL    HW232133   3.371   1.087   0.574 -2.9576 -0.4862  1.9105
 6891SOL     OW32134   1.749   4.498  17.084 -0.2125  1.0013  0.5188
 6891SOL    HW132135   1.842   4.504  17.064  0.0223 -1.7601  0.8681
 6891SOL    HW232136   1.701   4.509  17.001  2.0286  1.6043 -0.6819
 6892SOL     OW32137   2.342   0.508   1.113  0.6006 -0.1399  0.5714
 6892SOL    HW132138   2.327   0.438   1.176  1.4151 -1.6950 -0.9644
 6892SOL    HW232139   2.435   0.502   1.092  0.5744  1.2924  0.0307
 6893SOL     OW32140   2.286   4.284   2.375 -0.1769  0.2139 -0.6903
 6893SOL    HW132141   2.243   4.368   2.363 -0.6180  0.5198  2.9502
 6893SOL    HW232142   2.208   4.229   2.365 -1.3735  1.6355  0.8054
 6894SOL     OW32143   4.592   4.410   2.043  0.2558  0.0871 -0.5779
 6894SOL    HW132144   4.609   4.344   2.110 -0.1921  1.2603  0.6901
 6894SOL    HW232145   4.563   4.356   1.970  1.4838  1.5429 -2.1349
 6895SOL     OW32146   0.329   1.289   3.740  0.5405 -0.1962 -0.1375
 6895SOL    HW132147   0.286   1.302   3.824  0.2105  0.6297 -0.4337
 6895SOL    HW232148   0.413   1.253   3.769  2.7307  2.9797 -2.5645
 6896SOL     OW32149   2.752   4.145   5.934 -0.2668 -0.3845 -0.1076
 6896SOL    HW132150   2.698   4.075   5.896 -3.0025  0.6207  1.8941
 6896SOL    HW232151   2.814   4.153   5.862  1.0706  0.0871  1.0831
 6897SOL     OW32152   4.579   0.593   9.896  1.2125 -0.1698 -0.0598
 6897SOL    HW132153   4.491   0.611   9.929  1.4019  1.6030 -0.4812
 6897SOL    HW232154   4.593   0.662   9.831  2.3701  0.8412  1.2504
 6898SOL     OW32155   3.016   3.714   3.745 -0.2788  0.3738  0.7780
 6898SOL    HW132156   3.069   3.751   3.675 -2.4544  1.9937  0.0048
 6898SOL    HW232157   3.035   3.620   3.735  1.3333  0.8331 -0.3779
 6899SOL     OW32158   1.533   3.488   5.276 -0.0436  0.6614 -0.1513
 6899SOL    HW132159   1.494   3.448   5.198  0.6119 -0.1264 -0.0737
 6899SOL    HW232160   1.552   3.415   5.335 -1.3644  0.8366  0.5172
 6900SOL     OW32161   3.712   1.729   5.968  0.2505  0.4167  0.1326
 6900SOL    HW132162   3.711   1.635   5.949  2.2445  0.2929  0.6782
 6900SOL    HW232163   3.620   1.744   5.986 -0.5511 -3.3923 -0.7692
 6901SOL     OW32164   3.030   0.679  13.655 -0.4662  0.8924 -0.0921
 6901SOL    HW132165   3.065   0.657  13.568 -0.1467  0.3549  0.1728
 6901SOL    HW232166   2.974   0.754  13.636 -0.5300  1.0367  0.6590
 6902SOL     OW32167   4.624   2.902   1.672 -0.1054 -0.3309 -0.6493
 6902SOL    HW132168   4.556   2.910   1.605 -0.6132 -0.0481 -0.1032
 6902SOL    HW232169   4.585   2.957   1.741 -0.8943  0.0739 -1.4244
 6903SOL     OW32170   2.553   0.659   7.232 -0.3207 -0.3326 -0.4878
 6903SOL    HW132171   2.502   0.638   7.310 -0.8956 -0.8533 -1.0044
 6903SOL    HW232172   2.600   0.736   7.264 -2.8759  0.3095  1.6720
 6904SOL     OW32173   2.787   4.654   7.637  0.4866 -0.1883 -0.3658
 6904SOL    HW132174   2.766   4.637   7.729 -2.0529 -0.3645 -0.9892
 6904SOL    HW232175   2.872   4.699   7.635  1.1384 -1.4062  0.2118
 6905SOL     OW32176   3.898   2.490  11.897  0.0942  0.0724 -0.2360
 6905SOL    HW132177   3.854   2.440  11.966 -0.9725  0.9974 -0.2378
 6905SOL    HW232178   3.987   2.496  11.932  1.1121 -2.2242 -2.4343
 6906SOL     OW32179   0.472   1.712   5.043 -0.2341  0.0404 -0.1384
 6906SOL    HW132180   0.384   1.736   5.072 -0.3089  1.7819 -1.7682
 6906SOL    HW232181   0.470   1.617   5.053  2.3230 -0.2247 -2.0704
 6907SOL     OW32182   2.820   4.711   0.981 -0.4581 -0.5431  0.5472
 6907SOL    HW132183   2.911   0.002   0.959 -0.7773  1.3587  0.7120
 6907SOL    HW232184   2.783   0.068   0.953  1.2768 -0.0116 -0.1696
 6908SOL     OW32185   0.401   1.373   1.102 -0.0512 -0.4273 -0.5095
 6908SOL    HW132186   0.495   1.365   1.114 -0.1187  1.0967  0.9359
 6908SOL    HW232187   0.383   1.450   1.155  0.8536 -1.7542  1.7161
 6909SOL     OW32188   2.176   2.534   3.967  0.1373 -0.0958  0.1502
 6909SOL    HW132189   2.264   2.497   3.960  0.2131  0.4254 -1.5701
 6909SOL    HW232190   2.154   2.525   3.875  0.0333 -0.5715  0.2243
 6910SOL     OW32191   3.696   1.884  17.185 -0.3910 -0.4739 -0.0884
 6910SOL    HW132192   3.790   1.897  17.182 -0.1625 -2.0138  0.3972
 6910SOL    HW232193   3.660   1.957  17.134 -1.7142 -1.0261  0.0533
 6911SOL     OW32194   0.364   0.789   8.140  0.1014 -0.4527 -0.0144
 6911SOL    HW132195   0.343   0.745   8.223 -1.4841 -0.3058 -0.3357
 6911SOL    HW232196   0.393   0.716   8.086  1.6566 -0.8896  1.3921
 6912SOL     OW32197   3.685   0.633  12.322 -0.0902  0.2517  0.4856
 6912SOL    HW132198   3.775   0.611  12.301 -0.3459  1.1045 -1.5486
 6912SOL    HW232199   3.686   0.639  12.418  0.7838 -2.7100  0.6513
 6913SOL     OW32200   0.113   3.530   3.709 -0.1097 -0.0006 -0.3020
 6913SOL    HW132201   0.116   3.564   3.619  2.2893 -2.0873 -0.9932
 6913SOL    HW232202   0.205   3.505   3.718  0.6866  3.0352 -0.0300
 6914SOL     OW32203   4.191   3.545   4.018  0.4707  0.0258  0.6464
 6914SOL    HW132204   4.197   3.449   4.011  0.6862  0.3062 -2.8011
 6914SOL    HW232205   4.109   3.553   4.067  0.7590  3.5210  0.5253
 6915SOL     OW32206   1.655   0.986   1.455 -0.7740  0.0326 -0.3582
 6915SOL    HW132207   1.569   0.961   1.421 -0.5562 -2.5757  0.9991
 6915SOL    HW232208   1.647   1.081   1.460  2.8362  0.3907 -1.7140
 6916SOL     OW32209   3.617   1.234   6.122 -0.0790  0.0661 -0.5079
 6916SOL    HW132210   3.553   1.168   6.150 -1.5009  1.6360 -0.0953
 6916SOL    HW232211   3.693   1.187   6.157  0.7493  0.2198 -2.1132
 6917SOL     OW32212   2.007   0.617  12.751  0.3832  0.0739  0.2217
 6917SOL    HW132213   2.101   0.601  12.740  0.8068  1.7231  1.3526
 6917SOL    HW232214   1.990   0.555  12.822 -2.1579 -0.9477 -1.2843
 6918SOL     OW32215   4.210   3.687   6.536  0.4059 -0.7061 -0.2342
 6918SOL    HW132216   4.260   3.700   6.617 -1.3711 -1.1008  0.9302
 6918SOL    HW232217   4.279   3.687   6.470  0.6197  0.2853 -0.0203
 6919SOL     OW32218   1.747   1.170  11.887 -0.1266  0.0799 -0.2180
 6919SOL    HW132219   1.760   1.121  11.806  2.0154 -0.3065  0.3346
 6919SOL    HW232220   1.715   1.098  11.941  3.1377 -0.9563  0.3665
 6920SOL     OW32221   3.563   0.042  10.573 -0.1459  0.3420 -0.2826
 6920SOL    HW132222   3.637   0.011  10.519 -0.4509 -0.0198 -0.4896
 6920SOL    HW232223   3.542   0.126  10.532 -0.7723  0.0281 -0.6147
 6921SOL     OW32224   0.117   1.282   0.020 -0.0754  0.0835 -0.0091
 6921SOL    HW132225   0.060   1.242   0.086  0.9613 -1.0776  0.1907
 6921SOL    HW232226   0.060   1.271  17.649 -0.2818 -1.2933  0.3348
 6922SOL     OW32227   1.945   1.478   3.558  0.1289 -0.1406 -0.1015
 6922SOL    HW132228   1.921   1.569   3.538 -0.8208 -0.0456  1.4693
 6922SOL    HW232229   1.934   1.471   3.653  0.2839 -3.5893 -0.3357
 6923SOL     OW32230   0.090   2.945  14.503  0.1131 -0.1187 -0.4351
 6923SOL    HW132231   0.179   2.911  14.513 -0.4967 -1.7640 -0.6442
 6923SOL    HW232232   0.040   2.864  14.495  0.7294 -0.4325 -1.2010
 6924SOL     OW32233   0.705   2.579   1.552  0.3694  0.2076  0.1543
 6924SOL    HW132234   0.792   2.549   1.528  0.3915  0.1857  0.2619
 6924SOL    HW232235   0.697   2.550   1.643 -1.0187  0.5591  0.1557
 6925SOL     OW32236   2.587   2.447   3.516  0.3010  0.1961  0.0436
 6925SOL    HW132237   2.506   2.444   3.566 -1.7172 -0.2095 -3.2827
 6925SOL    HW232238   2.631   2.522   3.556 -0.3713 -0.2583  1.5940
 6926SOL     OW32239   0.499   3.649   6.272 -0.1637  0.0815  0.4386
 6926SOL    HW132240   0.404   3.651   6.265  0.0730 -1.2260 -3.1015
 6926SOL    HW232241   0.524   3.737   6.246 -0.1153 -0.5095 -1.5615
 6927SOL     OW32242   1.897   4.516   1.954 -0.3364  0.7902  0.2393
 6927SOL    HW132243   1.817   4.510   2.007 -0.1994 -0.2492  0.3371
 6927SOL    HW232244   1.863   4.497   1.866  0.6388  0.5671 -0.0890
 6928SOL     OW32245   2.421   0.518   8.854 -0.0556 -0.4207  0.3638
 6928SOL    HW132246   2.353   0.528   8.787 -2.0792 -1.3012  2.3126
 6928SOL    HW232247   2.376   0.455   8.910 -1.1833  1.3807  1.4974
 6929SOL     OW32248   2.236   3.956   7.554 -0.0356 -0.4809 -0.5369
 6929SOL    HW132249   2.318   4.006   7.564  0.9039 -2.4305  1.6065
 6929SOL    HW232250   2.256   3.869   7.521  0.2048 -0.6708  0.1118
 6930SOL     OW32251   2.114   3.261   8.870  0.1655 -0.4698  0.7627
 6930SOL    HW132252   2.051   3.217   8.813  1.4851 -2.1833  0.5990
 6930SOL    HW232253   2.195   3.214   8.849  1.0254  0.6348  1.6762
 6931SOL     OW32254   2.379   0.569  10.774 -0.1441  0.4383  0.0075
 6931SOL    HW132255   2.441   0.535  10.708  0.3054 -0.4982  0.9016
 6931SOL    HW232256   2.421   0.557  10.860 -1.4889  1.4941  0.8054
 6932SOL     OW32257   3.659   3.639   6.994 -0.1398  0.2982  0.0064
 6932SOL    HW132258   3.573   3.673   7.018 -0.5293  0.6657 -1.8937
 6932SOL    HW232259   3.656   3.641   6.898  0.9985 -1.2384 -0.0526
 6933SOL     OW32260   4.222   1.472   9.723  0.0990 -0.1737  0.4784
 6933SOL    HW132261   4.198   1.428   9.805  0.4149  0.4400  0.8934
 6933SOL    HW232262   4.270   1.548   9.754 -1.1933  0.2760  1.3763
 6934SOL     OW32263   1.397   0.126  15.776 -0.3019 -0.1613  0.2569
 6934SOL    HW132264   1.470   0.104  15.719 -0.2509  1.5975 -0.3440
 6934SOL    HW232265   1.348   0.175  15.710  2.9084 -1.1488 -2.8377
 6935SOL     OW32266   4.349   0.199   5.807  0.0590 -0.6089  0.2608
 6935SOL    HW132267   4.297   0.183   5.885 -1.2184 -0.9058 -0.6541
 6935SOL    HW232268   4.411   0.127   5.817 -0.3361 -1.1855 -1.3836
 6936SOL     OW32269   1.354   1.580   8.184  0.7547  0.4005  0.4997
 6936SOL    HW132270   1.352   1.673   8.160 -1.2940  0.5361  1.2278
 6936SOL    HW232271   1.447   1.561   8.194  0.7351 -0.1362 -0.3560
 6937SOL     OW32272   0.806   2.719   9.183 -0.2318  0.2848 -0.1188
 6937SOL    HW132273   0.864   2.771   9.127  0.5390  0.0260  0.4431
 6937SOL    HW232274   0.833   2.631   9.159 -2.0107 -0.7787  1.7790
 6938SOL     OW32275   2.563   0.608   5.958  0.4595 -0.3027  0.2739
 6938SOL    HW132276   2.639   0.629   5.904  0.9900  3.0226  2.3122
 6938SOL    HW232277   2.607   0.548   6.018  0.4569 -1.0120 -0.4288
 6939SOL     OW32278   4.207   1.028   8.033 -0.2073  0.6443  0.3747
 6939SOL    HW132279   4.152   1.027   8.112 -0.5407  0.1814  0.1371
 6939SOL    HW232280   4.290   1.060   8.067  0.2322 -1.2554  1.0998
 6940SOL     OW32281   0.853   0.695  14.618  0.2731  0.6345 -0.0108
 6940SOL    HW132282   0.791   0.635  14.577  1.4079  0.2345 -1.1124
 6940SOL    HW232283   0.907   0.729  14.547 -0.5680 -0.7483 -1.3061
 6941SOL     OW32284   0.589   4.518   2.028 -0.2328 -0.3803 -0.1219
 6941SOL    HW132285   0.653   4.466   1.980 -1.6293 -0.4910 -1.8279
 6941SOL    HW232286   0.570   4.456   2.099  0.7028 -0.4152  0.1017
 6942SOL     OW32287   2.854   4.366   7.548 -0.2860  0.4542 -1.0716
 6942SOL    HW132288   2.880   4.329   7.632  1.3623  1.2934 -1.2217
 6942SOL    HW232289   2.847   4.460   7.567  2.7274  0.3489  0.4218
 6943SOL     OW32290   1.677   0.732   3.847 -0.3887  0.0400  0.5033
 6943SOL    HW132291   1.691   0.664   3.782  1.4600  0.4932  0.4319
 6943SOL    HW232292   1.594   0.704   3.886  0.1785 -2.1048  0.1647
 6944SOL     OW32293   0.310   3.505   1.134 -0.3282  0.0345 -0.2191
 6944SOL    HW132294   0.274   3.573   1.077  0.6539  1.0105  0.3133
 6944SOL    HW232295   0.351   3.554   1.205 -1.0057 -0.6338  0.6273
 6945SOL     OW32296   4.151   3.913   4.235 -0.5844 -0.1875  0.0961
 6945SOL    HW132297   4.238   3.924   4.196 -0.9174  3.2317  0.3671
 6945SOL    HW232298   4.115   3.861   4.163  1.0480  0.5365 -1.2409
 6946SOL     OW32299   4.030   3.898   4.707  0.7874  0.9504 -0.1918
 6946SOL    HW132300   4.000   3.808   4.724  1.5156 -0.0426 -4.0846
 6946SOL    HW232301   3.988   3.928   4.626  1.5952  0.8324 -0.6581
 6947SOL     OW32302   0.003   0.751  14.132  0.0978 -1.0338 -0.1941
 6947SOL    HW132303   0.058   0.786  14.201 -1.7752  0.7914  0.3608
 6947SOL    HW232304   0.062   0.734  14.058 -1.0964 -0.3916 -1.2990
 6948SOL     OW32305   0.731   1.174   4.396  0.2176  0.2781  0.3847
 6948SOL    HW132306   0.825   1.155   4.399 -0.0972 -1.4258 -0.8744
 6948SOL    HW232307   0.720   1.255   4.446 -1.9088 -0.5173  1.1814
 6949SOL     OW32308   2.915   0.980   7.567 -0.0115 -0.4567 -0.1355
 6949SOL    HW132309   2.897   1.042   7.497  0.8514  0.3753  0.3681
 6949SOL    HW232310   2.948   1.039   7.635 -0.8238 -1.3700  1.0614
 6950SOL     OW32311   4.029   0.729   8.216 -0.0717 -0.1052  0.1582
 6950SOL    HW132312   3.954   0.676   8.243  0.5039 -1.5517 -1.1014
 6950SOL    HW232313   3.989   0.798   8.163 -1.7357  0.2910  1.9389
 6951SOL     OW32314   0.606   2.264   5.254  0.0405  0.0042 -0.5889
 6951SOL    HW132315   0.663   2.234   5.182 -0.1656 -1.9756  0.0620
 6951SOL    HW232316   0.607   2.359   5.243  1.9145  0.0106 -0.4953
 6952SOL     OW32317   1.404   0.340   8.637  0.0140 -0.5949 -0.4609
 6952SOL    HW132318   1.496   0.341   8.665 -0.3469  2.1844  0.6024
 6952SOL    HW232319   1.355   0.343   8.718 -0.2754  0.0636 -0.6607
 6953SOL     OW32320   2.504   2.760   6.571  0.2810 -0.3914 -0.3054
 6953SOL    HW132321   2.418   2.728   6.541 -0.8238  1.1854  1.2130
 6953SOL    HW232322   2.535   2.690   6.628 -1.0921 -0.1661  0.7100
 6954SOL     OW32323   3.937   2.150   5.585  0.3331 -0.0756  0.3035
 6954SOL    HW132324   3.919   2.243   5.600  2.1022  0.2177  0.5878
 6954SOL    HW232325   3.940   2.154   5.489  0.8676 -0.5691  0.3003
 6955SOL     OW32326   1.904   3.043   6.941  0.4568  0.3132 -0.1586
 6955SOL    HW132327   1.826   3.089   6.973  1.3675  1.0208  1.0706
 6955SOL    HW232328   1.885   2.950   6.948  3.3738 -0.1895  0.9827
 6956SOL     OW32329   1.803   1.966  16.059  0.5647  0.3067  0.7177
 6956SOL    HW132330   1.728   1.945  16.113 -0.9449  1.8415 -0.7723
 6956SOL    HW232331   1.879   1.937  16.110 -0.7163 -3.2585  0.5697
 6957SOL     OW32332   2.602   1.188  16.175  0.2740 -0.1485  0.6009
 6957SOL    HW132333   2.696   1.204  16.161  0.7556 -1.5760  2.0668
 6957SOL    HW232334   2.602   1.121  16.244  0.0399 -3.1672 -2.3020
 6958SOL     OW32335   2.598   4.042   1.815 -0.5788 -0.0216  0.5359
 6958SOL    HW132336   2.526   4.027   1.875  0.4783 -1.8186  1.3432
 6958SOL    HW232337   2.661   3.982   1.854  1.5550  0.2739 -2.4296
 6959SOL     OW32338   0.087   2.931  14.991 -0.3408  0.1261 -0.1607
 6959SOL    HW132339   0.154   2.931  15.059 -0.2513  0.5782 -0.2497
 6959SOL    HW232340   0.032   3.007  15.007  0.1462  0.4702 -0.1264
 6960SOL     OW32341   3.371   4.572   5.430  0.0503 -0.2510  0.2105
 6960SOL    HW132342   3.465   4.553   5.436 -0.0843 -1.2982 -0.9263
 6960SOL    HW232343   3.344   4.484   5.404 -1.7354  0.1638  0.6570
 6961SOL     OW32344   2.957   0.235  11.097  0.2005 -0.1975 -0.0957
 6961SOL    HW132345   2.870   0.250  11.134  0.5868 -0.8828  1.0616
 6961SOL    HW232346   2.988   0.325  11.093 -0.2542 -0.0502 -0.3019
 6962SOL     OW32347   0.830   1.127  11.905 -0.5188 -0.0878 -0.5292
 6962SOL    HW132348   0.742   1.133  11.942  0.2438 -0.4358  1.3210
 6962SOL    HW232349   0.829   1.054  11.843 -2.1180  0.1864 -0.8161
 6963SOL     OW32350   1.101   2.411  12.643 -0.3757  0.1147  0.0608
 6963SOL    HW132351   1.143   2.330  12.614  0.6836  0.1793  1.4038
 6963SOL    HW232352   1.126   2.474  12.577 -1.5669  0.1311 -0.3715
 6964SOL     OW32353   0.085   0.147  10.313  0.6265 -0.6069  0.3715
 6964SOL    HW132354   0.034   0.154  10.394 -3.0003 -0.4140 -1.9365
 6964SOL    HW232355   0.010   0.170  10.258  0.6998 -2.4821 -0.5167
 6965SOL     OW32356   3.129   4.065   0.507  0.4036 -0.0577 -0.0825
 6965SOL    HW132357   3.196   4.062   0.574 -0.6548 -0.4032  0.9589
 6965SOL    HW232358   3.057   4.079   0.568  1.4626  1.9079  0.6983
 6966SOL     OW32359   4.673   2.509   4.075  0.2928 -0.6018 -0.1411
 6966SOL    HW132360   4.709   2.527   4.162  0.6638 -0.4949 -0.3148
 6966SOL    HW232361   0.014   2.454   4.034  0.0999  0.8431 -2.4363
 6967SOL     OW32362   4.135   4.148  14.134 -1.0710  0.4278 -0.7118
 6967SOL    HW132363   4.097   4.085  14.195  1.1815  3.8253  4.1846
 6967SOL    HW232364   4.213   4.098  14.109 -1.0207  0.1780 -0.0384
 6968SOL     OW32365   1.540   1.997   9.066  0.0838 -0.1353  0.1276
 6968SOL    HW132366   1.566   1.928   9.005 -0.3371  0.4945 -0.7641
 6968SOL    HW232367   1.600   1.993   9.140  2.7506  2.3710 -1.9195
 6969SOL     OW32368   0.860   3.150   3.966  0.3515  0.2870 -0.1695
 6969SOL    HW132369   0.828   3.223   4.019 -0.2569  1.4936 -2.2046
 6969SOL    HW232370   0.869   3.188   3.879  0.6884 -2.3756 -1.2998
 6970SOL     OW32371   1.446   2.359   7.751  0.2521 -0.6497 -0.4555
 6970SOL    HW132372   1.416   2.392   7.836  0.0839 -2.5303  0.2012
 6970SOL    HW232373   1.531   2.325   7.778 -0.3090 -0.8536  1.1077
 6971SOL     OW32374   4.014   1.824   1.955 -0.8767  0.0752  0.1622
 6971SOL    HW132375   3.949   1.844   2.022  0.3232  0.2509  1.2744
 6971SOL    HW232376   4.096   1.800   1.999 -1.1127 -2.2593 -0.6525
 6972SOL     OW32377   1.597   3.169   2.394 -0.1063 -0.6683  0.2704
 6972SOL    HW132378   1.506   3.152   2.419 -0.0612 -0.9330  0.2583
 6972SOL    HW232379   1.595   3.166   2.298  1.0598  4.3814  0.1111
 6973SOL     OW32380   4.415   0.324  11.194 -0.1131  0.4440  0.0663
 6973SOL    HW132381   4.420   0.420  11.190 -1.7909  0.7170  3.7888
 6973SOL    HW232382   4.445   0.312  11.284 -0.0794  1.8108  0.2525
 6974SOL     OW32383   4.585   2.777   5.195 -0.1712  0.1573 -0.1809
 6974SOL    HW132384   4.586   2.873   5.190  0.5294  0.1937  0.6310
 6974SOL    HW232385   4.664   2.765   5.141  1.0571  3.3822  0.9042
 6975SOL     OW32386   0.240   0.461  16.625 -0.0438 -0.0659  0.4909
 6975SOL    HW132387   0.321   0.413  16.641 -0.3441 -0.5142  0.6709
 6975SOL    HW232388   0.275   0.538  16.581 -0.4591 -0.8348 -1.2119
 6976SOL     OW32389   2.354   2.649   8.552  0.3471  0.7147 -0.4427
 6976SOL    HW132390   2.368   2.708   8.625 -0.7680 -1.5464  1.5837
 6976SOL    HW232391   2.444   2.629   8.525  0.8172  2.7399 -0.3497
 6977SOL     OW32392   1.776   0.070   0.855 -0.3199  0.3393  0.1045
 6977SOL    HW132393   1.689   0.109   0.861 -0.7105 -0.9396  2.4411
 6977SOL    HW232394   1.810   0.137   0.795  0.0993 -0.7530 -0.8753
 6978SOL     OW32395   2.839   0.955   4.359  0.2643  0.3452  0.4175
 6978SOL    HW132396   2.789   0.971   4.279 -1.2757 -0.1071  1.2870
 6978SOL    HW232397   2.883   0.871   4.348 -0.6057  0.0018 -0.5333
 6979SOL     OW32398   0.755   3.433   1.492 -0.4881 -0.3651 -0.6679
 6979SOL    HW132399   0.751   3.519   1.534  1.8363  0.7095 -2.6357
 6979SOL    HW232400   0.849   3.431   1.475 -0.1003  0.8673  1.3511
 6980SOL     OW32401   0.059   1.578   1.441  0.0944 -0.6630 -0.2639
 6980SOL    HW132402   0.004   1.611   1.513  0.7730 -1.1343  0.4756
 6980SOL    HW232403   0.102   1.504   1.483 -0.6543 -0.9049  0.0885
 6981SOL     OW32404   4.702   3.630  14.263 -0.2575  0.1973  0.1091
 6981SOL    HW132405   4.624   3.583  14.292  1.3614 -3.3176 -1.2753
 6981SOL    HW232406   0.022   3.629  14.347  0.3388 -1.3208 -0.2439
 6982SOL     OW32407   4.551   3.318   5.950  0.4146 -0.5106  0.5075
 6982SOL    HW132408   4.589   3.397   5.912  0.9288 -0.6498  0.7308
 6982SOL    HW232409   4.470   3.355   5.986 -0.3263 -1.2999 -0.3390
 6983SOL     OW32410   1.579   1.044   3.208 -0.1418 -0.5382 -0.2214
 6983SOL    HW132411   1.660   1.031   3.160  0.3085  3.0822 -0.4227
 6983SOL    HW232412   1.545   1.123   3.166 -0.3413 -0.0811  0.8142
 6984SOL     OW32413   2.274   2.154   6.887  0.0206  0.2895 -0.1206
 6984SOL    HW132414   2.241   2.233   6.929 -0.0971  1.0622 -1.6440
 6984SOL    HW232415   2.311   2.107   6.961 -2.1513 -0.3242  0.5672
 6985SOL     OW32416   1.839   4.245   4.701  0.0810  0.4368  0.3557
 6985SOL    HW132417   1.793   4.222   4.620  1.1434  1.4513 -0.5252
 6985SOL    HW232418   1.928   4.259   4.669 -0.7169  1.7401 -1.3015
 6986SOL     OW32419   4.119   3.038   4.823 -0.0617  0.4829  0.0149
 6986SOL    HW132420   4.147   2.951   4.792 -0.2256  0.3813  0.1503
 6986SOL    HW232421   4.144   3.090   4.747  0.0276 -1.4219 -1.2878
 6987SOL     OW32422   4.055   4.533   7.163 -0.1188  0.0528  0.2283
 6987SOL    HW132423   4.002   4.454   7.147  0.2778 -0.2151  0.2303
 6987SOL    HW232424   4.036   4.554   7.255 -1.8707  0.6940 -0.2821
 6988SOL     OW32425   2.483   4.056   5.059 -0.9576 -0.2919 -0.2433
 6988SOL    HW132426   2.440   4.004   5.128 -2.2735  2.6009  1.1515
 6988SOL    HW232427   2.437   4.140   5.065 -2.2466 -0.9932 -0.3239
 6989SOL     OW32428   3.916   0.509   3.988  0.4990  0.1208  0.2307
 6989SOL    HW132429   3.861   0.438   4.022 -1.4004  0.8832 -1.2207
 6989SOL    HW232430   3.862   0.528   3.911 -0.2114 -0.5010  0.5804
 6990SOL     OW32431   2.234   2.786  10.144 -0.0097 -0.7695  0.2584
 6990SOL    HW132432   2.199   2.838  10.072  0.6614 -0.1716  0.3714
 6990SOL    HW232433   2.162   2.760  10.202  1.0350 -2.0685  0.9941
 6991SOL     OW32434   0.509   1.134   9.595 -0.2022 -0.5412  0.4278
 6991SOL    HW132435   0.510   1.046   9.631 -3.6491 -0.1401  1.4580
 6991SOL    HW232436   0.536   1.103   9.508  3.1673  2.1482  0.4886
 6992SOL     OW32437   2.644   2.164   3.733 -0.2348 -0.0345  0.7359
 6992SOL    HW132438   2.700   2.190   3.805 -0.7916 -0.3187  1.2729
 6992SOL    HW232439   2.694   2.197   3.658  0.1393  0.6759  1.3021
 6993SOL     OW32440   2.626   3.538   6.881  0.7030 -0.4593 -0.1648
 6993SOL    HW132441   2.655   3.627   6.900 -1.8673  0.0921  1.2317
 6993SOL    HW232442   2.673   3.494   6.951 -0.5108  0.1364  1.0242
 6994SOL     OW32443   2.256   3.341  11.006 -0.0183  0.0485 -0.0859
 6994SOL    HW132444   2.310   3.414  10.975  0.5126 -0.8005 -1.1737
 6994SOL    HW232445   2.276   3.268  10.947  1.7248  0.7279 -0.3191
 6995SOL     OW32446   3.332   1.801   5.740  0.3087 -0.4048  0.0740
 6995SOL    HW132447   3.371   1.767   5.820  1.1711 -1.3239 -0.7305
 6995SOL    HW232448   3.339   1.895   5.755  2.1641 -0.3616 -0.9820
 6996SOL     OW32449   4.717   3.390   2.173  0.0862  1.1746 -0.2341
 6996SOL    HW132450   4.638   3.375   2.225  0.4067  0.5462  0.0762
 6996SOL    HW232451   0.062   3.394   2.237  0.0089 -0.5251 -0.0536
 6997SOL     OW32452   2.942   3.755   4.418 -0.5665  0.3060  0.4966
 6997SOL    HW132453   2.975   3.835   4.375  1.8106 -0.8072  0.2565
 6997SOL    HW232454   3.024   3.707   4.431 -0.5320  0.3486  0.4349
 6998SOL     OW32455   3.732   1.627   1.363 -0.1470  0.5076  0.4097
 6998SOL    HW132456   3.667   1.608   1.295  1.1684 -2.6554  0.0469
 6998SOL    HW232457   3.681   1.663   1.436 -0.1443 -0.6117  0.9709
 6999SOL     OW32458   1.856   2.664   4.335  0.0774 -0.3843  0.4043
 6999SOL    HW132459   1.820   2.745   4.370  3.4105  1.3523 -0.1166
 6999SOL    HW232460   1.950   2.677   4.346  0.2944 -1.6071  0.0430
 7000SOL     OW32461   0.393   1.427   8.137  0.1334  0.3322 -1.5393
 7000SOL    HW132462   0.372   1.381   8.219 -1.5741  3.4500 -0.2277
 7000SOL    HW232463   0.375   1.519   8.157  1.4368  0.3692 -0.4931
 7001SOL     OW32464   2.585   2.466  10.350  0.7375 -0.0349 -0.4134
 7001SOL    HW132465   2.668   2.432  10.382  1.6636  0.6747 -2.1026
 7001SOL    HW232466   2.529   2.444  10.424  1.6686 -1.5794 -0.1733
 7002SOL     OW32467   1.325   4.131  11.685  0.7134 -0.4464 -0.1403
 7002SOL    HW132468   1.244   4.139  11.635 -0.7405 -1.1428  2.0573
 7002SOL    HW232469   1.315   4.203  11.748 -2.4107  0.3709 -1.5345
 7003SOL     OW32470   3.097   2.431  11.969  1.0801 -0.6359 -0.0800
 7003SOL    HW132471   3.165   2.498  11.958  0.8485 -0.4211 -0.1905
 7003SOL    HW232472   3.080   2.414  11.876  1.6652 -0.0794 -0.2899
 7004SOL     OW32473   2.884   1.827   6.420  0.0219 -0.0936  0.4204
 7004SOL    HW132474   2.905   1.833   6.327 -2.1476  0.1691 -0.0684
 7004SOL    HW232475   2.793   1.797   6.413 -0.1356  0.6256 -0.7044
 7005SOL     OW32476   3.036   0.734   6.984 -0.0023 -0.8520  0.5090
 7005SOL    HW132477   2.970   0.776   7.039 -1.7100 -1.0720 -1.3528
 7005SOL    HW232478   2.983   0.656   6.966 -1.4017  0.3972 -0.7557
 7006SOL     OW32479   3.109   1.651   4.487  0.0296 -0.1872 -0.1108
 7006SOL    HW132480   3.190   1.599   4.485 -0.7286 -1.3336 -1.4254
 7006SOL    HW232481   3.129   1.718   4.552 -3.1524  0.8189 -0.1904
 7007SOL     OW32482   0.464   1.951   8.563  0.8476 -0.1746 -0.2129
 7007SOL    HW132483   0.426   1.934   8.476  2.1074 -2.1103 -0.3695
 7007SOL    HW232484   0.557   1.929   8.553  1.3297  0.9315  1.7735
 7008SOL     OW32485   4.684   0.097  13.925  0.0367 -0.1225 -0.2867
 7008SOL    HW132486   4.634   0.080  13.845 -1.6619  0.3805  0.6780
 7008SOL    HW232487   4.647   0.184  13.936 -1.8166 -1.1834  1.7040
 7009SOL     OW32488   0.481   2.642   6.844 -0.3876 -0.1515  0.1922
 7009SOL    HW132489   0.524   2.722   6.874 -2.7333  1.2940 -0.3419
 7009SOL    HW232490   0.418   2.633   6.915 -2.0457  5.1995 -0.5831
 7010SOL     OW32491   1.552   4.593   2.537  0.0523 -0.3218 -0.4912
 7010SOL    HW132492   1.497   4.670   2.549 -0.7987 -1.0241  0.1383
 7010SOL    HW232493   1.562   4.596   2.442  0.6404  1.1560 -0.3767
 7011SOL     OW32494   2.531   4.705   1.105 -0.5627  0.6766  0.2426
 7011SOL    HW132495   2.469   4.691   1.176 -0.4322  0.5053  0.3218
 7011SOL    HW232496   2.506   0.065   1.072 -0.6976  0.8143  0.7017
 7012SOL     OW32497   0.025   2.775   1.855 -0.0827  0.1811 -0.1404
 7012SOL    HW132498   0.012   2.830   1.778  1.0792 -0.0351 -0.4987
 7012SOL    HW232499   4.682   2.811   1.910 -0.2872 -2.9781  1.7231
 7013SOL     OW32500   3.970   2.011  15.181  0.4765 -0.4837  0.0799
 7013SOL    HW132501   3.922   2.047  15.256  1.0180  0.3583  0.0278
 7013SOL    HW232502   4.039   1.968  15.231 -0.6390 -2.0429  0.2768
 7014SOL     OW32503   1.621   2.570   6.365  0.3342 -0.2614  0.2287
 7014SOL    HW132504   1.594   2.634   6.430  0.1066 -0.2058  0.0823
 7014SOL    HW232505   1.656   2.637   6.307 -0.9692 -0.2980 -0.6098
 7015SOL     OW32506   3.960   1.854   4.818  0.5438  0.0697 -0.1451
 7015SOL    HW132507   3.967   1.914   4.893 -1.2768 -1.6676  1.4258
 7015SOL    HW232508   4.041   1.804   4.828  1.2863  1.2298 -0.3059
 7016SOL     OW32509   3.806   0.007  10.763  0.6813 -0.5204  0.5856
 7016SOL    HW132510   3.832   4.649  10.724  3.5409  0.8692 -0.4902
 7016SOL    HW232511   3.716   0.018  10.732  0.3559  0.3933  1.8397
 7017SOL     OW32512   2.253   4.585   7.689 -0.4162  0.2119 -0.1558
 7017SOL    HW132513   2.260   4.493   7.713  1.1530  0.8877  1.9715
 7017SOL    HW232514   2.235   4.621   7.776  3.0107  3.1254 -0.6566
 7018SOL     OW32515   2.701   1.512   8.328 -0.0779 -0.2691  0.0168
 7018SOL    HW132516   2.674   1.587   8.382 -1.9936 -2.7711  2.5587
 7018SOL    HW232517   2.620   1.462   8.333 -0.8117  0.7406 -1.8122
 7019SOL     OW32518   4.552   4.487  16.838  0.2103  0.0560  0.0853
 7019SOL    HW132519   4.630   4.506  16.890 -0.5001 -1.7008  1.7850
 7019SOL    HW232520   4.487   4.487  16.908 -0.5932  2.3709 -0.6685
 7020SOL     OW32521   2.474   1.208   1.834  0.5394 -0.0001  0.0873
 7020SOL    HW132522   2.390   1.179   1.869 -0.1557  1.3918 -0.4383
 7020SOL    HW232523   2.447   1.203   1.742  0.0661 -2.7472  0.3767
 7021SOL     OW32524   2.268   2.822   8.114 -0.0653 -0.9820 -0.0825
 7021SOL    HW132525   2.250   2.801   8.022  0.1492  1.5517 -0.7032
 7021SOL    HW232526   2.363   2.830   8.123  0.0328  0.6658 -2.4234
 7022SOL     OW32527   0.037   3.803   2.400  0.4903 -0.4735  0.3959
 7022SOL    HW132528   0.088   3.862   2.345  0.6043 -0.8578  0.0911
 7022SOL    HW232529   4.674   3.838   2.407 -0.3562 -2.2919 -1.0339
 7023SOL     OW32530   2.847   2.649   8.118 -0.2201  0.1588  0.3108
 7023SOL    HW132531   2.880   2.560   8.104 -1.1536 -0.4447  1.9325
 7023SOL    HW232532   2.809   2.661   8.031 -1.2566 -0.8002  0.6388
 7024SOL     OW32533   2.882   0.780   2.576 -0.6164 -0.1644 -0.3804
 7024SOL    HW132534   2.815   0.827   2.526  0.4813  0.4870 -1.2461
 7024SOL    HW232535   2.867   0.825   2.659  0.4349  3.1981 -1.9913
 7025SOL     OW32536   0.757   4.223  14.090 -0.7268 -0.1867 -0.1909
 7025SOL    HW132537   0.689   4.213  14.157 -2.5113 -0.9277 -2.1035
 7025SOL    HW232538   0.761   4.316  14.070 -1.5189 -0.2982 -0.8778
 7026SOL     OW32539   0.578   3.653   5.817  0.0277 -0.1991 -0.5359
 7026SOL    HW132540   0.606   3.739   5.786 -3.7471  0.9454 -0.6926
 7026SOL    HW232541   0.487   3.669   5.841  0.4293  0.7799  0.3210
 7027SOL     OW32542   1.484   2.083   6.490  0.2315  0.4021 -0.4578
 7027SOL    HW132543   1.451   2.171   6.511 -1.6483  0.1663 -2.4706
 7027SOL    HW232544   1.403   2.039   6.516 -0.4359  2.2125  0.5362
 7028SOL     OW32545   1.968   1.345   4.498  0.7526 -0.1340 -0.1338
 7028SOL    HW132546   2.027   1.406   4.452  2.3586 -0.9844  0.7801
 7028SOL    HW232547   1.910   1.407   4.542  1.7175  1.4625 -1.1028
 7029SOL     OW32548   0.970   1.582   2.592 -0.5762  0.3426 -0.1246
 7029SOL    HW132549   0.901   1.645   2.574 -1.1112 -0.0118  0.7091
 7029SOL    HW232550   0.983   1.595   2.686  1.3612  0.2433 -0.3750
 7030SOL     OW32551   4.681   0.164   3.508  0.0203 -1.0700  0.3522
 7030SOL    HW132552   0.050   0.154   3.499 -0.1814 -1.9020 -0.8022
 7030SOL    HW232553   4.655   0.098   3.444 -1.1762 -0.3881  0.1354
 7031SOL     OW32554   1.743   3.922   7.327  0.2876 -0.9079 -0.1035
 7031SOL    HW132555   1.826   3.919   7.375 -0.2273  0.5767  0.8960
 7031SOL    HW232556   1.780   3.978   7.259  1.2207 -0.7662  0.5200
 7032SOL     OW32557   0.309   4.353  16.004  0.5936 -0.3375  0.3308
 7032SOL    HW132558   0.329   4.428  15.947 -0.0279 -0.2939  0.1678
 7032SOL    HW232559   0.379   4.362  16.069  1.1932  2.5251 -0.7072
 7033SOL     OW32560   3.129   2.443   4.843  0.4065 -0.0934  0.1573
 7033SOL    HW132561   3.056   2.404   4.891 -0.3016 -0.1311 -0.9283
 7033SOL    HW232562   3.083   2.476   4.765 -0.3786 -0.5737  0.4179
 7034SOL     OW32563   1.847   2.662   9.957 -0.4058 -0.4728  0.1998
 7034SOL    HW132564   1.888   2.580   9.928  0.7787 -0.8574  2.9976
 7034SOL    HW232565   1.767   2.624   9.994  0.0234  0.3092  1.9175
 7035SOL     OW32566   2.245   0.626  11.345  0.0494 -0.0533  0.0764
 7035SOL    HW132567   2.213   0.704  11.390 -0.4162 -0.6883  0.8224
 7035SOL    HW232568   2.335   0.657  11.338  0.5189 -1.2294  0.9936
 7036SOL     OW32569   1.522   2.558   3.528 -0.1571  0.2805  0.0878
 7036SOL    HW132570   1.505   2.482   3.583 -3.0085  1.2999  0.6284
 7036SOL    HW232571   1.496   2.627   3.589  0.6321 -0.6154  1.4364
 7037SOL     OW32572   1.096   0.927   2.667  0.6111  0.3066 -0.1737
 7037SOL    HW132573   1.064   0.838   2.683 -2.7623  1.6009  0.3822
 7037SOL    HW232574   1.024   0.967   2.617  0.5243  1.9752  1.2887
 7038SOL     OW32575   4.501   0.906   9.025 -0.1418 -0.3801 -0.2447
 7038SOL    HW132576   4.587   0.948   9.015  1.0747 -2.9569 -0.5367
 7038SOL    HW232577   4.447   0.985   9.021 -0.6723 -0.7864 -0.9671
 7039SOL     OW32578   2.376   0.375  15.763  0.2549  0.3807 -0.1735
 7039SOL    HW132579   2.435   0.430  15.815 -1.7969 -0.1430  2.7166
 7039SOL    HW232580   2.364   0.434  15.689  0.1922 -0.7083 -1.0383
 7040SOL     OW32581   1.092   0.011  14.780  0.0037  0.1629  0.3662
 7040SOL    HW132582   1.049   0.091  14.810 -0.9931 -0.2922  0.1603
 7040SOL    HW232583   1.126   0.047  14.699  0.7695  2.2972  1.6462
 7041SOL     OW32584   2.513   4.191  15.619 -0.1134  0.1259 -0.6044
 7041SOL    HW132585   2.468   4.141  15.687 -0.8696  1.9992  0.2836
 7041SOL    HW232586   2.531   4.119  15.558 -2.8263 -0.9595 -0.0997
 7042SOL     OW32587   0.096   3.174   7.052 -0.4070  0.3847 -0.7809
 7042SOL    HW132588   0.145   3.119   6.991  0.9632  0.1574  0.5047
 7042SOL    HW232589   0.017   3.121   7.065 -1.1579  1.7811  0.3849
 7043SOL     OW32590   2.134   2.291   4.607  0.2347 -0.3336  0.3335
 7043SOL    HW132591   2.082   2.278   4.528 -1.4857 -0.9232  1.5597
 7043SOL    HW232592   2.102   2.377   4.635  1.9701 -0.5038  2.8421
 7044SOL     OW32593   0.319   1.135   3.455  0.2108  0.3197 -0.1434
 7044SOL    HW132594   0.393   1.097   3.504 -0.6727 -1.9831 -0.5977
 7044SOL    HW232595   0.303   1.221   3.494 -0.6276 -0.9788  2.4336
 7045SOL     OW32596   2.510   3.221   4.668 -0.0946 -0.1179 -0.2825
 7045SOL    HW132597   2.497   3.308   4.631  1.5297  0.0683 -0.4209
 7045SOL    HW232598   2.461   3.168   4.605 -0.3412 -0.2217 -0.0033
 7046SOL     OW32599   0.259   0.391   6.277 -0.1106  0.2284  0.2441
 7046SOL    HW132600   0.340   0.365   6.322  0.8749  0.6273 -1.2816
 7046SOL    HW232601   0.297   0.412   6.192 -0.0660 -0.7191  0.0283
 7047SOL     OW32602   2.833   0.007   5.619 -0.0863  0.2531  0.4960
 7047SOL    HW132603   2.797   4.716   5.706 -1.6522 -0.5411 -0.3045
 7047SOL    HW232604   2.765   4.698   5.561  2.6795 -4.6060  0.1839
 7048SOL     OW32605   1.421   0.097   0.485 -0.0889  0.4077 -0.4164
 7048SOL    HW132606   1.428   0.174   0.541  1.5823 -1.5903  2.1358
 7048SOL    HW232607   1.346   0.111   0.427 -1.2048  1.7743  1.3627
 7049SOL     OW32608   3.305   3.588   5.650 -0.1770 -0.7958 -0.4805
 7049SOL    HW132609   3.228   3.637   5.677  0.2836 -1.3050  1.8056
 7049SOL    HW232610   3.364   3.645   5.699  1.2575 -1.1002 -1.8473
 7050SOL     OW32611   3.471   1.928  10.969 -0.2439  0.2807 -0.1905
 7050SOL    HW132612   3.443   1.846  11.009 -0.0529  0.7325  0.8716
 7050SOL    HW232613   3.522   1.890  10.897  0.6962 -1.2215  1.2578
 7051SOL     OW32614   4.683   2.217   4.432  0.2763  0.2212 -0.1830
 7051SOL    HW132615   4.601   2.199   4.477  0.3136  0.0456 -0.1820
 7051SOL    HW232616   4.655   2.224   4.341  2.1655 -1.2735 -0.8894
 7052SOL     OW32617   0.263   4.628   4.382 -0.6109  0.1872  0.6075
 7052SOL    HW132618   0.306   4.645   4.298 -0.0052  2.7776  1.4591
 7052SOL    HW232619   0.316   4.553   4.410 -0.0272  1.0325  1.7652
 7053SOL     OW32620   1.723   4.453  14.869  0.1486 -0.1067  0.2853
 7053SOL    HW132621   1.670   4.503  14.931  1.6443 -0.7897  2.1449
 7053SOL    HW232622   1.729   4.505  14.789  0.9206  1.3544  1.2779
 7054SOL     OW32623   0.217   2.570   7.249  0.1287  0.2020  0.0448
 7054SOL    HW132624   0.236   2.594   7.339  0.1262  0.9062 -0.1480
 7054SOL    HW232625   0.299   2.526   7.224 -0.7792 -0.5077 -1.7553
 7055SOL     OW32626   1.232   3.823   3.025  0.8103 -0.0627 -0.3846
 7055SOL    HW132627   1.287   3.775   3.088 -1.4345 -0.4969  1.2379
 7055SOL    HW232628   1.255   3.777   2.944 -0.8173  2.6864 -2.3713
 7056SOL     OW32629   2.359   3.495   5.260 -0.2775  0.1504  0.0616
 7056SOL    HW132630   2.301   3.542   5.199  0.9124 -3.9308 -4.1890
 7056SOL    HW232631   2.438   3.545   5.242 -0.2270 -0.5827 -1.7195
 7057SOL     OW32632   1.889   4.426  15.254 -0.0141  0.3607 -0.4639
 7057SOL    HW132633   1.942   4.490  15.302  1.1864 -1.0714  0.1173
 7057SOL    HW232634   1.808   4.476  15.250  0.3804  0.8208 -3.1648
 7058SOL     OW32635   0.587   3.021   3.518  0.4430 -0.0754  0.3698
 7058SOL    HW132636   0.627   3.087   3.575  0.0309  1.9880 -1.6791
 7058SOL    HW232637   0.577   2.944   3.573 -1.1320 -0.0621  0.0976
 7059SOL     OW32638   4.097   1.777   7.586 -0.0080 -0.1405  1.0368
 7059SOL    HW132639   4.187   1.762   7.555 -0.5253  1.3988 -1.2357
 7059SOL    HW232640   4.119   1.850   7.643  1.6400 -0.2077  0.5162
 7060SOL     OW32641   4.152   0.552   7.175  0.2788 -0.2614  0.0913
 7060SOL    HW132642   4.105   0.631   7.150  0.3372 -0.1984  0.1781
 7060SOL    HW232643   4.199   0.530   7.095 -0.1704  0.0252 -0.2463
 7061SOL     OW32644   4.314   3.190   6.272 -0.4455 -0.0819 -0.0127
 7061SOL    HW132645   4.334   3.255   6.205  1.3404 -1.2445 -0.6111
 7061SOL    HW232646   4.390   3.132   6.272 -1.1762 -1.0069  2.9235
 7062SOL     OW32647   3.234   2.532  13.661 -0.1575  0.1908 -0.1535
 7062SOL    HW132648   3.203   2.444  13.683  0.1039  0.4048  1.0424
 7062SOL    HW232649   3.208   2.584  13.737  1.0554  0.2904  0.1817
 7063SOL     OW32650   0.372   4.037   8.439 -0.2471 -0.1433 -0.2752
 7063SOL    HW132651   0.293   4.053   8.491  1.1762  1.8616  1.2661
 7063SOL    HW232652   0.331   4.043   8.353  0.5692  0.0627 -0.6388
 7064SOL     OW32653   0.251   2.073   7.630  0.0603  0.6076  0.0883
 7064SOL    HW132654   0.230   1.980   7.633 -1.0433  0.8044 -1.4960
 7064SOL    HW232655   0.334   2.084   7.675 -0.3107  0.0166  0.9251
 7065SOL     OW32656   3.667   0.739   8.145  0.9786 -0.6382  0.0435
 7065SOL    HW132657   3.691   0.814   8.199 -0.0021  0.2148 -0.6965
 7065SOL    HW232658   3.669   0.663   8.202 -1.1558 -0.4266  0.4076
 7066SOL     OW32659   3.935   0.092   6.797  0.2231  0.1401 -0.6188
 7066SOL    HW132660   4.009   0.152   6.809 -2.1265  3.3379 -2.1852
 7066SOL    HW232661   3.868   0.157   6.818  0.6259  1.4158 -3.2728
 7067SOL     OW32662   3.747   1.836   4.328  0.2901  0.5390  0.1186
 7067SOL    HW132663   3.681   1.875   4.385 -1.9161  1.6873 -3.2779
 7067SOL    HW232664   3.784   1.777   4.394 -0.7584  0.5153  0.6722
 7068SOL     OW32665   3.515   2.653  12.967 -0.0643  0.5687 -0.1401
 7068SOL    HW132666   3.450   2.703  12.917  0.1021  1.9905  1.0675
 7068SOL    HW232667   3.471   2.643  13.052  2.6859  0.5090  1.2561
 7069SOL     OW32668   2.663   3.182   4.867 -0.2540 -0.0215  0.1827
 7069SOL    HW132669   2.609   3.183   4.789 -0.5087 -0.5579  0.3511
 7069SOL    HW232670   2.629   3.241   4.934  0.2804  0.0636  0.3799
 7070SOL     OW32671   3.176   0.810  10.161 -0.1457  0.2591  0.2053
 7070SOL    HW132672   3.205   0.858  10.084 -0.8647  0.0128 -0.2234
 7070SOL    HW232673   3.129   0.735  10.123 -1.7272  0.7730  1.1759
 7071SOL     OW32674   4.182   2.066  14.480 -0.0375 -0.3743 -0.1383
 7071SOL    HW132675   4.137   2.058  14.564  1.6830  0.0526  0.8319
 7071SOL    HW232676   4.273   2.052  14.506 -0.2696  1.5894  1.6833
 7072SOL     OW32677   0.886   4.350  17.278  0.1444 -0.1000  0.9346
 7072SOL    HW132678   0.927   4.344  17.364  0.1806  1.8344  1.0684
 7072SOL    HW232679   0.910   4.264  17.243 -0.8636  0.7219 -1.8310
 7073SOL     OW32680   3.512   0.910   9.773  0.0369 -0.0795 -0.2302
 7073SOL    HW132681   3.591   0.963   9.760  0.9686 -1.5974 -0.7868
 7073SOL    HW232682   3.514   0.862   9.690  0.6604  1.4407 -1.1091
 7074SOL     OW32683   2.246   1.098   5.924 -0.4839  0.1363  0.0735
 7074SOL    HW132684   2.272   1.104   5.832 -1.3974 -0.9932 -0.2580
 7074SOL    HW232685   2.152   1.078   5.918 -0.6926  1.4391 -1.1307
 7075SOL     OW32686   1.030   4.209   5.429  0.3425  0.6635  0.4483
 7075SOL    HW132687   1.028   4.266   5.353 -1.2550  0.0543  0.0324
 7075SOL    HW232688   0.969   4.261   5.483 -0.6016  2.0139 -1.9289
 7076SOL     OW32689   4.541   3.055   5.927 -0.1692  0.3944  0.7262
 7076SOL    HW132690   4.592   3.037   5.848  3.2252  1.6268  2.6318
 7076SOL    HW232691   4.536   3.150   5.935 -1.2902  0.5251 -1.6460
 7077SOL     OW32692   4.552   1.368   0.158  0.3690 -0.0624 -0.2355
 7077SOL    HW132693   4.480   1.358   0.095 -1.2529 -0.2669  1.6477
 7077SOL    HW232694   4.508   1.372   0.243 -0.4642  2.8784 -0.7991
 7078SOL     OW32695   3.187   0.937  12.022  0.2255 -0.3924  0.0135
 7078SOL    HW132696   3.259   0.977  12.069  0.3289  1.0089 -1.3629
 7078SOL    HW232697   3.169   0.994  11.948  0.3660 -1.9050 -1.2036
 7079SOL     OW32698   1.003   2.509   7.651  0.6272  0.2943 -0.4021
 7079SOL    HW132699   0.920   2.474   7.618  0.5819 -0.1586  0.1756
 7079SOL    HW232700   1.061   2.434   7.644 -1.0516 -0.7879 -2.7086
 7080SOL     OW32701   1.765   4.328   8.768 -0.5518  0.5164  0.0381
 7080SOL    HW132702   1.756   4.412   8.814 -1.6580  1.0579 -1.1909
 7080SOL    HW232703   1.732   4.348   8.681  0.3624 -0.6075 -0.5553
 7081SOL     OW32704   0.235   3.458   1.830 -0.0083 -0.4021  0.1585
 7081SOL    HW132705   0.179   3.380   1.837  0.3186 -0.6401  0.1233
 7081SOL    HW232706   0.321   3.418   1.842 -0.1366 -1.1805 -1.4164
 7082SOL     OW32707   1.241   1.471   3.944  0.3135  0.4868  0.3464
 7082SOL    HW132708   1.279   1.444   3.861  0.4248  0.0737  0.5296
 7082SOL    HW232709   1.261   1.565   3.946 -1.7148  0.8658  3.0848
 7083SOL     OW32710   1.322   4.614   6.374  0.4634 -0.6432 -0.7218
 7083SOL    HW132711   1.281   4.528   6.360 -2.2388  0.3479  1.0995
 7083SOL    HW232712   1.312   4.627   6.468  3.8095  1.0773 -0.6294
 7084SOL     OW32713   1.851   1.308   9.372 -0.0779  0.4036 -0.0006
 7084SOL    HW132714   1.772   1.270   9.334 -0.3095 -0.0281  0.8992
 7084SOL    HW232715   1.923   1.266   9.325 -1.1837  0.4671 -1.7240
 7085SOL     OW32716   0.783   3.931  10.403  0.2746  0.4402  0.0905
 7085SOL    HW132717   0.759   3.918  10.311  0.8936 -2.2557  0.3132
 7085SOL    HW232718   0.879   3.940  10.403  0.1258  2.2171 -1.8276
 7086SOL     OW32719   1.746   2.353   8.280 -0.0999 -0.0410  0.4791
 7086SOL    HW132720   1.708   2.429   8.325  0.3622 -0.1375  1.0368
 7086SOL    HW232721   1.837   2.367   8.303  0.2041  0.0322 -0.8048
 7087SOL     OW32722   0.588   3.103   7.159 -0.5985  0.8872 -0.1828
 7087SOL    HW132723   0.614   3.194   7.144 -0.2796  0.8760  0.2948
 7087SOL    HW232724   0.498   3.092   7.128 -0.8764  1.4534  0.4131
 7088SOL     OW32725   3.932   1.924   1.035  0.1303  0.4018 -0.4747
 7088SOL    HW132726   3.915   2.018   1.035 -0.4527  0.2980 -1.0713
 7088SOL    HW232727   3.847   1.895   1.002 -0.0306 -1.0690  1.2324
 7089SOL     OW32728   3.862   0.973   9.356 -0.8078 -0.4893 -0.5280
 7089SOL    HW132729   3.911   0.927   9.289 -0.3713 -3.2689  1.7001
 7089SOL    HW232730   3.938   0.999   9.408  0.3868 -0.8242 -2.1026
 7090SOL     OW32731   0.088   4.431   4.799  0.4049  0.4802  0.5034
 7090SOL    HW132732   0.091   4.358   4.738 -0.5963  1.3088 -0.5490
 7090SOL    HW232733   0.075   4.497   4.731 -3.8612  1.0312  1.8792
 7091SOL     OW32734   4.716   1.553   2.030  0.5774 -0.6860 -0.7231
 7091SOL    HW132735   0.010   1.470   2.072 -1.2193  0.1690  1.7845
 7091SOL    HW232736   0.045   1.548   1.952 -0.5271 -0.3676 -1.5229
 7092SOL     OW32737   2.767   2.666  12.242 -0.3550  0.3094  0.1322
 7092SOL    HW132738   2.861   2.677  12.250 -0.1180  0.2824 -2.6415
 7092SOL    HW232739   2.762   2.592  12.181 -0.7790 -0.0419  0.5894
 7093SOL     OW32740   0.472   4.567   3.334 -0.3770  0.5615 -0.4356
 7093SOL    HW132741   0.498   4.658   3.328 -1.0490  0.5475 -3.4537
 7093SOL    HW232742   0.552   4.528   3.298  0.4446  0.6337  1.3455
 7094SOL     OW32743   2.244   0.275   0.351  0.1401 -0.3215 -0.1117
 7094SOL    HW132744   2.302   0.299   0.279 -2.0662  0.8747 -1.4513
 7094SOL    HW232745   2.245   0.359   0.396 -0.6317 -1.3177  1.7504
 7095SOL     OW32746   0.004   3.208  10.436  0.5809  0.2275  0.4207
 7095SOL    HW132747   4.723   3.139  10.501 -0.2862  0.2352  0.3443
 7095SOL    HW232748   0.093   3.241  10.449  0.8401  0.1997 -1.2389
 7096SOL     OW32749   3.030   2.662   1.020  0.1515 -0.0326  0.7813
 7096SOL    HW132750   3.112   2.711   1.011 -1.6923  3.0338  0.8016
 7096SOL    HW232751   3.079   2.580   1.024  1.3002  0.5593 -1.0115
 7097SOL     OW32752   2.088   2.465   1.365  0.2037  0.1600  0.1156
 7097SOL    HW132753   2.017   2.516   1.405  0.7664 -0.0569  1.3884
 7097SOL    HW232754   2.080   2.390   1.423  1.5216  0.5832  0.8523
 7098SOL     OW32755   4.278   0.719   2.515  0.0456  0.2820  0.1384
 7098SOL    HW132756   4.252   0.646   2.459  1.1843 -1.3465  1.7000
 7098SOL    HW232757   4.348   0.688   2.574 -0.2191  0.2412  0.4296
 7099SOL     OW32758   2.262   1.060   9.441  0.6027  0.1830 -0.7624
 7099SOL    HW132759   2.187   1.040   9.496  1.2032  0.7253  0.2513
 7099SOL    HW232760   2.319   1.109   9.500  1.3617 -0.6226 -0.8187
 7100SOL     OW32761   4.691   3.025   2.832 -0.6220 -0.1288 -0.0321
 7100SOL    HW132762   4.601   2.998   2.816 -0.9142  0.8149  0.0533
 7100SOL    HW232763   4.719   2.935   2.850  0.3011 -0.2944 -2.4212
 7101SOL     OW32764   1.410   1.328  11.581 -0.3663  0.4761 -0.7130
 7101SOL    HW132765   1.415   1.234  11.561  0.7340  0.2704  0.5356
 7101SOL    HW232766   1.422   1.326  11.676  3.2354 -2.6155 -1.2223
 7102SOL     OW32767   1.599   3.071   8.741  0.3604  0.1324 -0.1082
 7102SOL    HW132768   1.624   3.101   8.654 -0.2458  1.0375  0.0223
 7102SOL    HW232769   1.668   3.005   8.745  0.4611  0.2314 -0.2172
 7103SOL     OW32770   2.050   4.178   2.406  0.3847  0.5097  0.1800
 7103SOL    HW132771   1.962   4.213   2.399  0.5184  0.6752 -0.6999
 7103SOL    HW232772   2.042   4.112   2.475 -1.7860 -1.6311 -2.1121
 7104SOL     OW32773   0.299   3.212  14.742  0.2569 -0.5179 -0.1691
 7104SOL    HW132774   0.305   3.232  14.649 -0.8821  1.5681  0.2020
 7104SOL    HW232775   0.273   3.297  14.777  0.9219  1.0877 -3.6248
 7105SOL     OW32776   0.438   3.355   3.531 -0.1876 -0.0830  0.0047
 7105SOL    HW132777   0.353   3.315   3.511 -0.0584 -0.4377  0.1567
 7105SOL    HW232778   0.492   3.344   3.452 -0.9499 -0.0281 -0.5291
 7106SOL     OW32779   0.692   4.563   6.407  0.5169  0.1906  0.1580
 7106SOL    HW132780   0.730   4.634   6.459  0.4027  0.6489 -0.3734
 7106SOL    HW232781   0.602   4.590   6.392  1.0031  1.6596 -0.2197
 7107SOL     OW32782   4.000   3.897   0.359 -0.2768  0.4313 -0.3250
 7107SOL    HW132783   3.929   3.960   0.370 -0.2352  0.5314 -0.6309
 7107SOL    HW232784   3.946   3.818   0.361 -0.3124  0.5014  1.9927
 7108SOL     OW32785   3.949   0.331   5.322  0.6905  0.0545 -0.0641
 7108SOL    HW132786   3.925   0.277   5.247 -1.0026  0.7812 -0.0468
 7108SOL    HW232787   3.963   0.417   5.281  1.2677  0.1833  0.4148
 7109SOL     OW32788   0.851   1.079   2.579  0.1414 -0.0491  0.0608
 7109SOL    HW132789   0.772   1.128   2.558 -0.0736 -1.0571 -1.4987
 7109SOL    HW232790   0.830   0.993   2.543  0.1190  0.0747 -0.2213
 7110SOL     OW32791   4.257   2.903   3.597 -0.2949 -0.4483  0.0889
 7110SOL    HW132792   4.197   2.837   3.561  0.7485 -2.0423  1.2540
 7110SOL    HW232793   4.189   2.942   3.653 -0.7019 -0.1511 -0.6152
 7111SOL     OW32794   2.402   2.659   1.042 -0.1470  0.0203 -0.5718
 7111SOL    HW132795   2.375   2.617   1.124 -1.1887  0.5844 -0.6343
 7111SOL    HW232796   2.374   2.595   0.977  0.6849 -0.5281 -0.3867
 7112SOL     OW32797   0.786   1.161   7.497 -0.3910 -0.2068 -0.1923
 7112SOL    HW132798   0.692   1.152   7.483 -0.3007 -1.2296 -0.1185
 7112SOL    HW232799   0.806   1.226   7.429  0.2922 -0.4908 -0.2610
 7113SOL     OW32800   3.552   0.122   3.884  0.0458 -0.4510  0.0011
 7113SOL    HW132801   3.589   0.147   3.799  1.3447  0.6068  0.8726
 7113SOL    HW232802   3.622   0.067   3.919 -0.8547 -1.0696  0.7974
 7114SOL     OW32803   2.584   0.728   3.480  0.3834  0.0489  0.4226
 7114SOL    HW132804   2.602   0.676   3.401 -0.2229  0.1370  0.2238
 7114SOL    HW232805   2.527   0.798   3.449  1.6497  0.4158 -1.0787
 7115SOL     OW32806   0.471   3.334   1.867  0.8689 -0.2084 -0.3752
 7115SOL    HW132807   0.530   3.322   1.793 -0.0572  1.2805 -1.3539
 7115SOL    HW232808   0.442   3.245   1.886 -0.1049  0.0881 -0.4723
 7116SOL     OW32809   2.124   0.535   3.489  0.5244  0.3816  0.2779
 7116SOL    HW132810   2.160   0.567   3.572  2.0312 -0.3233 -0.1149
 7116SOL    HW232811   2.181   0.464   3.461 -2.4522 -1.0924 -2.0186
 7117SOL     OW32812   3.157   0.206   8.285  0.0802 -0.1057 -0.7558
 7117SOL    HW132813   3.074   0.242   8.252  0.2334  0.6826 -0.2698
 7117SOL    HW232814   3.119   0.150   8.352  2.1621 -0.5555  0.0425
 7118SOL     OW32815   2.105   3.430  14.527 -0.4182  0.3837 -0.0678
 7118SOL    HW132816   2.043   3.359  14.510 -0.3777  0.3177  0.0641
 7118SOL    HW232817   2.122   3.427  14.621  1.0053  1.1095 -0.3041
 7119SOL     OW32818   4.635   4.649   8.080 -0.8510 -0.2550  0.6878
 7119SOL    HW132819   4.577   4.630   8.006 -1.5956 -0.6473  1.3827
 7119SOL    HW232820   4.602   4.597   8.153 -0.9168  0.2692  1.0327
 7120SOL     OW32821   2.648   0.437   7.108  0.1879 -0.0520  0.4881
 7120SOL    HW132822   2.614   0.520   7.141 -0.7642  0.6572 -2.3400
 7120SOL    HW232823   2.738   0.450   7.138  0.8709 -0.4271 -1.4398
 7121SOL     OW32824   0.143   2.434  17.003  0.0838  0.8218  0.2621
 7121SOL    HW132825   0.234   2.463  17.004  0.5991 -0.8038  1.2745
 7121SOL    HW232826   0.113   2.458  17.091 -1.7040 -0.9135  0.1391
 7122SOL     OW32827   3.011   2.496  16.769  0.0966 -0.1736 -0.1461
 7122SOL    HW132828   3.071   2.552  16.818 -1.7770  1.0626  0.7120
 7122SOL    HW232829   2.964   2.565  16.723  0.4080 -0.4943 -0.9562
 7123SOL     OW32830   2.771   1.434  12.465 -0.0640 -0.2658  0.6768
 7123SOL    HW132831   2.742   1.497  12.532  0.3268  0.5115  0.1109
 7123SOL    HW232832   2.695   1.431  12.408 -0.0271  1.5384  0.5235
 7124SOL     OW32833   4.178   4.087   5.733  0.0831  0.1071 -0.7851
 7124SOL    HW132834   4.201   4.148   5.662  0.7196 -0.5773 -1.1742
 7124SOL    HW232835   4.093   4.056   5.702 -0.1531 -1.0969  1.1310
 7125SOL     OW32836   1.793   2.200   4.901  0.8433  0.2640 -0.2759
 7125SOL    HW132837   1.805   2.188   4.807 -1.0080  0.6472 -0.5695
 7125SOL    HW232838   1.884   2.211   4.928  0.9061 -1.4028  0.1925
 7126SOL     OW32839   1.142   0.516   3.610  0.2145 -0.4335 -0.6142
 7126SOL    HW132840   1.203   0.488   3.678 -1.2910 -3.1267 -0.3364
 7126SOL    HW232841   1.120   0.427   3.583  1.2030 -1.4053  1.7682
 7127SOL     OW32842   3.477   1.218   1.125 -0.2398  0.1908  0.0899
 7127SOL    HW132843   3.443   1.281   1.188  1.3672  1.5054 -0.3499
 7127SOL    HW232844   3.554   1.182   1.170 -0.0561 -1.3187 -1.4363
 7128SOL     OW32845   3.210   0.338   2.887 -0.2254  0.4163 -0.1275
 7128SOL    HW132846   3.160   0.393   2.826  0.1337 -1.6157 -2.2328
 7128SOL    HW232847   3.229   0.392   2.964 -0.9562 -0.8156  0.9056
 7129SOL     OW32848   0.328   4.678   1.775  0.1054 -0.2966  0.4634
 7129SOL    HW132849   0.289   4.623   1.844  2.6069 -1.4199  0.9634
 7129SOL    HW232850   0.284   0.037   1.783  0.0624 -0.3694  1.0074
 7130SOL     OW32851   1.348   3.015   5.964  0.2303  0.1447  0.0265
 7130SOL    HW132852   1.279   2.951   5.980  1.6647 -1.2047  0.7647
 7130SOL    HW232853   1.319   3.038   5.875  0.2989 -0.3845 -0.1338
 7131SOL     OW32854   1.780   2.756   5.426 -0.0083 -0.0171  0.6729
 7131SOL    HW132855   1.748   2.701   5.354 -0.4103  0.3300  0.5895
 7131SOL    HW232856   1.845   2.808   5.378  1.0305 -0.2677  1.8169
 7132SOL     OW32857   4.666   1.293  10.779  0.4133 -0.3063 -0.1629
 7132SOL    HW132858   4.684   1.361  10.714 -1.9974 -0.1316 -0.6699
 7132SOL    HW232859   4.620   1.223  10.734 -1.4048  1.4748 -1.0745
 7133SOL     OW32860   0.670   0.802   7.517  0.9558  0.2841 -0.3964
 7133SOL    HW132861   0.631   0.808   7.605  1.3609 -0.0390 -0.1988
 7133SOL    HW232862   0.594   0.814   7.461 -1.5337 -0.2590  2.8251
 7134SOL     OW32863   3.540   1.253  11.953  0.3940 -0.3532 -0.3224
 7134SOL    HW132864   3.537   1.168  11.998  0.9673  0.8755  2.0296
 7134SOL    HW232865   3.446   1.268  11.942  0.2443 -1.7266 -0.9659
 7135SOL     OW32866   4.111   2.114   6.598 -0.2227 -0.0253  0.0092
 7135SOL    HW132867   4.047   2.092   6.665  0.9246  1.3672  1.5453
 7135SOL    HW232868   4.110   2.040   6.537 -0.8458 -0.1458  0.1737
 7136SOL     OW32869   3.030   1.705  14.865  0.2443  0.4049 -0.4017
 7136SOL    HW132870   3.038   1.610  14.858  1.1809  0.3822  0.9680
 7136SOL    HW232871   3.119   1.737  14.857  0.5902 -0.2448  0.7517
 7137SOL     OW32872   3.885   0.855   0.971 -0.5434 -0.1314  0.2852
 7137SOL    HW132873   3.884   0.785   1.036  1.2180 -1.8988 -1.5842
 7137SOL    HW232874   3.805   0.849   0.920 -0.4133  0.3306  0.0281
 7138SOL     OW32875   0.520   1.767   6.665  0.2173 -0.3239  0.1343
 7138SOL    HW132876   0.517   1.706   6.738 -1.6172  0.5738  0.8056
 7138SOL    HW232877   0.487   1.704   6.600  0.2272  1.3619 -1.5061
 7139SOL     OW32878   4.403   0.104   8.110  0.0909 -0.4617  0.1692
 7139SOL    HW132879   4.341   0.143   8.172 -0.6958 -0.9198 -0.3358
 7139SOL    HW232880   4.450   0.182   8.082 -0.7867 -0.0648 -0.2007
 7140SOL     OW32881   4.527   0.910  14.217  0.2672  0.1957 -0.1480
 7140SOL    HW132882   4.607   0.863  14.192  0.7931 -0.0416  1.9681
 7140SOL    HW232883   4.560   0.997  14.241 -1.8231  1.1537 -0.7595
 7141SOL     OW32884   3.290   3.767  10.166 -0.2073  0.0010  0.0863
 7141SOL    HW132885   3.215   3.732  10.214  2.4747 -0.9670  3.6014
 7141SOL    HW232886   3.367   3.727  10.207  0.4120 -0.0138 -1.0803
 7142SOL     OW32887   3.174   3.301   3.660 -0.1666 -0.1132  0.5356
 7142SOL    HW132888   3.153   3.220   3.613  0.5164 -0.2558  0.4769
 7142SOL    HW232889   3.243   3.272   3.719 -0.2727 -1.9306 -0.2223
 7143SOL     OW32890   0.215   1.512  10.960 -0.0492  0.3180 -0.2608
 7143SOL    HW132891   0.244   1.544  11.045 -2.4250 -1.0408  1.0600
 7143SOL    HW232892   0.165   1.434  10.982  1.0240 -0.4547 -0.5924
 7144SOL     OW32893   2.885   4.005   9.729 -0.4661  0.0545  0.2150
 7144SOL    HW132894   2.956   3.956   9.770 -2.5032 -2.1312  1.1428
 7144SOL    HW232895   2.907   4.095   9.751 -1.4511  0.3982 -0.1805
 7145SOL     OW32896   1.291   0.030   3.656  1.0962 -0.1512  0.0336
 7145SOL    HW132897   1.202   0.064   3.662  0.2753 -1.8379 -2.2572
 7145SOL    HW232898   1.283   4.666   3.625  1.3725 -0.6101  1.2818
 7146SOL     OW32899   4.244   1.713   6.526 -0.3361 -0.4160 -0.0916
 7146SOL    HW132900   4.323   1.765   6.543  0.2377 -1.0510 -0.8533
 7146SOL    HW232901   4.268   1.621   6.536  2.9416  0.2841 -1.4421
 7147SOL     OW32902   0.621   1.514   2.084  0.3542  0.0764 -0.1058
 7147SOL    HW132903   0.549   1.530   2.023  0.1499 -1.3450 -0.2306
 7147SOL    HW232904   0.662   1.601   2.086 -1.1821  0.7903  0.0931
 7148SOL     OW32905   3.643   0.006   2.517  0.2625  0.0836 -0.1857
 7148SOL    HW132906   3.667   4.680   2.593  1.7592 -0.5868 -1.1211
 7148SOL    HW232907   3.573   0.063   2.550 -0.2571 -0.3326 -0.5626
 7149SOL     OW32908   3.370   3.944  15.669 -0.1976 -0.5541  0.3924
 7149SOL    HW132909   3.367   3.858  15.629 -2.6770 -0.0194 -0.5819
 7149SOL    HW232910   3.276   3.964  15.667  0.2371  1.5590  1.1180
 7150SOL     OW32911   2.147   2.455  17.315 -0.0771 -0.1422  0.2093
 7150SOL    HW132912   2.085   2.410  17.257 -0.9083  1.7349 -0.3493
 7150SOL    HW232913   2.108   2.431  17.399 -1.0674 -2.1615 -0.8079
 7151SOL     OW32914   2.704   0.886   3.745 -0.0370 -0.1108  0.1974
 7151SOL    HW132915   2.678   0.796   3.761 -0.0058 -0.2067 -0.3045
 7151SOL    HW232916   2.758   0.874   3.667  2.0419 -0.1692  1.6443
 7152SOL     OW32917   3.426   0.724  14.060 -0.7144  0.0968 -0.2664
 7152SOL    HW132918   3.480   0.656  14.020  1.2730  1.4922  0.0631
 7152SOL    HW232919   3.347   0.727  14.006 -0.7454 -0.5168 -0.2559
 7153SOL     OW32920   1.401   2.988   0.288 -1.0807  0.8357  0.4108
 7153SOL    HW132921   1.406   2.956   0.198  0.5332  0.7087  0.5547
 7153SOL    HW232922   1.436   3.077   0.281  1.0154  0.1939  2.4987
 7154SOL     OW32923   3.044   2.121   4.325  0.2391 -0.2407  0.6611
 7154SOL    HW132924   3.034   2.216   4.337 -1.7376 -0.9329  4.3883
 7154SOL    HW232925   3.053   2.085   4.413 -0.0337  1.6026  1.4442
 7155SOL     OW32926   1.382   4.046   1.926  0.4765  0.6980  0.4636
 7155SOL    HW132927   1.362   3.992   2.002  0.2969 -0.1220 -0.1663
 7155SOL    HW232928   1.308   4.039   1.866  0.4660  1.4796  0.3890
 7156SOL     OW32929   2.968   4.472   6.386 -0.2036 -0.5400 -0.5519
 7156SOL    HW132930   3.050   4.518   6.369 -0.2920 -0.3944 -0.5928
 7156SOL    HW232931   2.936   4.509   6.468 -4.0168 -2.7332 -1.0579
 7157SOL     OW32932   1.187   1.831   1.965  0.4746  0.2832 -0.0034
 7157SOL    HW132933   1.249   1.772   1.922  0.4710  0.6144 -0.4641
 7157SOL    HW232934   1.227   1.864   2.045  0.1647  0.3369  0.1305
 7158SOL     OW32935   3.724   0.711  14.533 -0.6901  0.0023  0.5235
 7158SOL    HW132936   3.687   0.647  14.594 -1.1895  0.8541  1.1290
 7158SOL    HW232937   3.753   0.654  14.463 -1.9413  0.0780 -0.0617
 7159SOL     OW32938   3.133   4.596  13.794  0.6030 -0.1420 -0.5759
 7159SOL    HW132939   3.090   4.670  13.750  2.7382  0.6888 -1.2815
 7159SOL    HW232940   3.180   4.564  13.717 -0.9481  2.5407 -2.6217
 7160SOL     OW32941   3.952   1.822   5.441 -0.1869 -0.4277 -0.6699
 7160SOL    HW132942   4.014   1.882   5.484 -1.1377  1.6613 -2.2377
 7160SOL    HW232943   3.870   1.868   5.455  0.1604 -0.3256  1.0892
 7161SOL     OW32944   3.534   0.113   7.891 -0.2238 -0.4554  0.6884
 7161SOL    HW132945   3.593   0.056   7.940  1.1378 -0.2278 -0.7150
 7161SOL    HW232946   3.537   0.190   7.948  1.9264  0.5819 -0.8288
 7162SOL     OW32947   1.660   3.247   6.836 -0.1795 -0.4473 -0.0560
 7162SOL    HW132948   1.715   3.313   6.794 -1.4990  1.2392  0.9070
 7162SOL    HW232949   1.647   3.174   6.775 -0.6479 -0.5130  0.1234
 7163SOL     OW32950   1.984   3.176   3.014  0.2604 -0.1219  0.2291
 7163SOL    HW132951   2.005   3.102   3.071 -0.7322 -2.2121 -2.1292
 7163SOL    HW232952   2.057   3.239   3.013 -0.4074  0.5780 -2.1929
 7164SOL     OW32953   0.019   4.162   6.262 -0.1055  0.5558 -0.4798
 7164SOL    HW132954   0.073   4.205   6.327  1.0268 -0.6737 -0.5992
 7164SOL    HW232955   4.665   4.185   6.310 -0.3432  0.1559 -0.6756
 7165SOL     OW32956   3.014   3.705   2.009 -0.2718  0.5674  0.3424
 7165SOL    HW132957   2.928   3.666   2.025  0.5983 -2.4363 -2.2462
 7165SOL    HW232958   3.027   3.690   1.915  1.1730  4.1915 -0.0280
 7166SOL     OW32959   2.015   2.107   4.409 -0.2743  0.1644  0.3411
 7166SOL    HW132960   2.094   2.138   4.365  0.1431 -1.9028 -0.3793
 7166SOL    HW232961   1.967   2.061   4.341 -2.5269  1.8053  0.8148
 7167SOL     OW32962   1.419   1.026   0.641 -0.1910  0.1318  0.6570
 7167SOL    HW132963   1.324   1.042   0.640 -0.0902  0.7968  1.7094
 7167SOL    HW232964   1.424   1.020   0.546  0.3986  0.1086  0.6910
 7168SOL     OW32965   4.275   2.874   2.049 -0.1524  0.0026  0.1808
 7168SOL    HW132966   4.243   2.938   2.111 -0.7752  0.0631 -0.2027
 7168SOL    HW232967   4.200   2.882   1.990 -0.2716 -1.4307  0.1177
 7169SOL     OW32968   3.209   2.275  13.764 -0.2989  0.1918 -0.1096
 7169SOL    HW132969   3.179   2.256  13.852  1.0211 -0.2023  0.2590
 7169SOL    HW232970   3.295   2.234  13.764 -0.0232  0.7949  2.7616
 7170SOL     OW32971   4.668   4.178  15.754  0.0242 -0.0128  0.0183
 7170SOL    HW132972   4.682   4.087  15.726  0.4887  1.1176 -3.3608
 7170SOL    HW232973   4.574   4.165  15.770 -0.7171  1.3176 -3.2085
 7171SOL     OW32974   3.239   2.876   4.204 -0.0576  0.0415  0.1784
 7171SOL    HW132975   3.299   2.831   4.145 -1.5902 -1.9169  0.0929
 7171SOL    HW232976   3.235   2.803   4.265 -0.1740  1.9433  2.4649
 7172SOL     OW32977   2.863   2.283   3.038  0.2880 -0.6877 -0.0960
 7172SOL    HW132978   2.772   2.285   3.009  0.1935 -0.6663  0.2006
 7172SOL    HW232979   2.854   2.235   3.121 -1.4527 -0.0495  0.0891
 7173SOL     OW32980   3.891   2.969  14.756 -0.2079 -0.8266  0.3521
 7173SOL    HW132981   3.851   2.928  14.679 -1.8778  0.2149  0.6561
 7173SOL    HW232982   3.965   3.020  14.723 -1.6663  0.1964 -1.3361
 7174SOL     OW32983   3.388   2.697  17.481 -0.0590  0.9171 -0.5812
 7174SOL    HW132984   3.449   2.628  17.505 -0.0277  1.6641  1.4851
 7174SOL    HW232985   3.309   2.672  17.530  0.8341 -1.0698 -0.1500
 7175SOL     OW32986   0.626   3.830   8.633 -0.1394  0.2558  0.0515
 7175SOL    HW132987   0.600   3.833   8.541  0.3075  2.9114 -0.0151
 7175SOL    HW232988   0.575   3.755   8.661  0.8375 -1.2029 -2.1006
 7176SOL     OW32989   1.777   0.508   0.959 -0.4303 -0.0376 -0.1058
 7176SOL    HW132990   1.809   0.598   0.969 -2.9095  1.0051 -1.5737
 7176SOL    HW232991   1.850   0.457   0.994  0.0556  1.0980  0.5424
 7177SOL     OW32992   3.748   4.038   5.760  0.3658  0.1027 -0.2594
 7177SOL    HW132993   3.684   4.049   5.690 -1.1535 -0.3316  1.0580
 7177SOL    HW232994   3.684   4.009   5.825  0.2021  0.8739 -0.0826
 7178SOL     OW32995   3.979   3.789   3.750  0.0269 -0.1445  0.2431
 7178SOL    HW132996   3.890   3.754   3.747 -0.1749  0.6219 -2.6509
 7178SOL    HW232997   3.987   3.839   3.670  0.9662  1.0304  1.0672
 7179SOL     OW32998   2.075   3.337   0.190 -0.0656 -0.2761 -0.2565
 7179SOL    HW132999   2.000   3.371   0.141  1.7681  3.5501 -0.3456
 7179SOL    HW233000   2.142   3.394   0.152  1.2014  0.3404  2.9330
 7180SOL     OW33001   3.733   4.422   6.848  0.2314  0.0944 -0.5311
 7180SOL    HW133002   3.813   4.449   6.802  1.9297 -1.1629  1.6833
 7180SOL    HW233003   3.715   4.495   6.908  0.1203 -2.5513  2.6859
 7181SOL     OW33004   4.070   1.506   8.332  0.6028 -0.0367 -0.2645
 7181SOL    HW133005   4.057   1.421   8.372 -2.9506  0.1021 -1.1556
 7181SOL    HW233006   4.047   1.571   8.399 -1.6720  1.4421 -2.4562
 7182SOL     OW33007   4.004   1.558  11.458 -0.1408 -0.3140 -0.0131
 7182SOL    HW133008   4.052   1.641  11.465 -0.0271 -0.3987  0.1991
 7182SOL    HW233009   4.052   1.509  11.525  0.7005 -0.8128 -0.9671
 7183SOL     OW33010   1.579   3.312   3.031 -0.8988 -0.5334  0.2461
 7183SOL    HW133011   1.504   3.320   2.972 -0.6803 -1.2749 -0.1364
 7183SOL    HW233012   1.547   3.268   3.110 -0.3026  0.5225  1.0674
 7184SOL     OW33013   3.988   0.291   9.690  0.0783  0.5889 -0.1861
 7184SOL    HW133014   3.999   0.255   9.601 -0.8145  1.7203 -0.7503
 7184SOL    HW233015   3.921   0.356   9.670 -0.9293 -0.7668 -1.2131
 7185SOL     OW33016   4.593   1.969   7.456  0.2142 -0.1031  0.3875
 7185SOL    HW133017   4.647   1.984   7.534 -0.5138 -1.8457  1.2232
 7185SOL    HW233018   4.515   2.019   7.480  0.1403 -0.0085 -0.0557
 7186SOL     OW33019   3.523   1.401  10.016 -0.6643 -0.5239 -0.2319
 7186SOL    HW133020   3.454   1.361  10.069  0.3294 -1.4804  0.3483
 7186SOL    HW233021   3.604   1.371  10.058  0.2691 -0.2501 -1.7992
 7187SOL     OW33022   2.215   2.217   0.048 -0.0503  0.8406  0.0440
 7187SOL    HW133023   2.163   2.268  17.691 -1.3960  0.1393  0.5909
 7187SOL    HW233024   2.301   2.257   0.034  1.1798 -0.7625  2.9290
 7188SOL     OW33025   2.175   0.577  12.429 -0.3929 -0.3085 -0.1834
 7188SOL    HW133026   2.148   0.596  12.339  0.4692  0.2418 -0.3248
 7188SOL    HW233027   2.116   0.504  12.448 -0.6949  0.3680  1.4414
 7189SOL     OW33028   3.085   4.311   2.668 -0.4413  0.1845 -0.6780
 7189SOL    HW133029   3.112   4.277   2.753  0.2810  0.5244 -0.7670
 7189SOL    HW233030   3.169   4.294   2.625 -0.4053 -0.5078 -0.3368
 7190SOL     OW33031   1.666   3.993  17.273  0.2162  0.3460  0.3458
 7190SOL    HW133032   1.687   3.936  17.346 -2.6472  0.4164  1.2376
 7190SOL    HW233033   1.609   4.058  17.316 -1.9803 -1.7316  0.5876
 7191SOL     OW33034   0.612   1.955   7.052  0.4114  0.0562 -0.1490
 7191SOL    HW133035   0.677   1.900   7.008  1.9474  2.0474 -0.3743
 7191SOL    HW233036   0.538   1.939   6.993  0.5726  3.3384 -1.2738
 7192SOL     OW33037   3.986   3.508   9.874  0.2789  0.0488 -0.3438
 7192SOL    HW133038   4.021   3.594   9.897 -1.0608  0.2665  0.8634
 7192SOL    HW233039   4.061   3.451   9.857  1.1036  1.0108  0.1008
 7193SOL     OW33040   4.337   0.815   2.877  0.2049 -0.3615 -0.5312
 7193SOL    HW133041   4.262   0.769   2.914 -1.2787  2.9814  0.6188
 7193SOL    HW233042   4.371   0.748   2.818 -0.3978 -1.9456  0.9022
 7194SOL     OW33043   1.949   0.962   2.946 -0.6866  0.8650 -0.1200
 7194SOL    HW133044   1.887   1.015   2.896 -1.9692 -0.1560  0.3824
 7194SOL    HW233045   1.967   1.025   3.015  0.8105 -0.9622  1.1644
 7195SOL     OW33046   3.209   1.233   5.077 -0.1476  0.5360 -0.3098
 7195SOL    HW133047   3.256   1.311   5.109  0.5044  0.6754 -1.6189
 7195SOL    HW233048   3.147   1.279   5.021  0.0317 -0.4316 -1.2837
 7196SOL     OW33049   2.077   2.328   0.823  0.4099  0.1326  0.1546
 7196SOL    HW133050   2.138   2.276   0.771 -1.6472 -0.5754 -1.5155
 7196SOL    HW233051   2.005   2.350   0.764  0.5171  0.6110  0.1941
 7197SOL     OW33052   0.768   3.646   2.573 -0.1365  0.0891  0.2721
 7197SOL    HW133053   0.781   3.726   2.523 -0.8828 -0.7580 -1.2745
 7197SOL    HW233054   0.771   3.576   2.508 -2.3846  0.1599  0.0784
 7198SOL     OW33055   0.862   3.361  17.373  0.5834 -0.0670 -0.1509
 7198SOL    HW133056   0.768   3.355  17.391  0.6130  0.7971  0.3032
 7198SOL    HW233057   0.888   3.435  17.428  0.7474 -1.5083  1.6968
 7199SOL     OW33058   2.734   2.883   3.313 -0.2971  0.1792  0.2635
 7199SOL    HW133059   2.813   2.912   3.268  0.5269 -2.8958 -0.3073
 7199SOL    HW233060   2.711   2.806   3.261 -0.7808 -0.3632  1.2849
 7200SOL     OW33061   2.654   1.470   3.704 -0.6265 -0.2300  0.1806
 7200SOL    HW133062   2.562   1.445   3.704 -0.7221  0.1338  0.9882
 7200SOL    HW233063   2.665   1.475   3.799  0.1899 -2.5013  0.2037
 7201SOL     OW33064   2.965   4.682   2.786 -0.0103  0.6777  0.4150
 7201SOL    HW133065   2.954   0.049   2.765 -1.3565  0.9086  2.0952
 7201SOL    HW233066   3.045   4.661   2.738  0.7904  3.8945  0.3164
 7202SOL     OW33067   1.818   0.350   6.251 -0.0985 -0.9613  0.1869
 7202SOL    HW133068   1.761   0.283   6.288 -1.0331 -1.0679 -1.4240
 7202SOL    HW233069   1.753   0.383   6.188  0.1996 -0.4737  0.1316
 7203SOL     OW33070   0.605   2.265   6.918  0.3017  0.0904  0.3953
 7203SOL    HW133071   0.680   2.237   6.866  0.4335 -1.6966  1.5484
 7203SOL    HW233072   0.544   2.191   6.927  0.6825 -0.1886  0.6487
 7204SOL     OW33073   4.527   2.208   0.344  0.0721 -0.2422  0.1465
 7204SOL    HW133074   4.438   2.241   0.332 -0.6596 -2.2702 -0.0313
 7204SOL    HW233075   4.557   2.281   0.399  0.5008 -1.0948  1.0520
 7205SOL     OW33076   1.223   1.802  15.416 -0.3028 -0.3567 -0.1294
 7205SOL    HW133077   1.129   1.786  15.406 -0.6435  0.4711  1.7698
 7205SOL    HW233078   1.224   1.841  15.503  1.0988  2.6243 -1.4784
 7206SOL     OW33079   4.655   4.360   6.666 -0.7143  0.0699  0.7937
 7206SOL    HW133080   4.565   4.386   6.685 -1.9898 -3.5572 -0.3439
 7206SOL    HW233081   4.641   4.284   6.609  0.1559  1.0048 -0.6514
 7207SOL     OW33082   0.901   3.465   3.375  0.7399 -0.6450 -0.0166
 7207SOL    HW133083   0.916   3.370   3.372  0.8350 -0.6350  0.1164
 7207SOL    HW233084   0.928   3.497   3.289 -1.3092  2.6271  0.5738
 7208SOL     OW33085   4.578   1.751  17.540 -0.3983  0.4498 -0.6051
 7208SOL    HW133086   4.505   1.724  17.485  0.2983 -0.0758 -1.2803
 7208SOL    HW233087   4.543   1.766  17.628 -1.8270  0.4991 -1.1819
 7209SOL     OW33088   3.092   2.561   9.960  0.0632  0.5259 -0.8089
 7209SOL    HW133089   3.185   2.586   9.965 -0.0184  0.3605  1.2690
 7209SOL    HW233090   3.066   2.517  10.040 -0.6246 -1.1110 -1.9360
 7210SOL     OW33091   2.288   3.975   5.694 -0.3323  0.1290 -0.2450
 7210SOL    HW133092   2.314   4.063   5.721  1.3501 -1.8612  4.5414
 7210SOL    HW233093   2.196   3.991   5.675 -0.6527  1.1137  2.1702
 7211SOL     OW33094   0.446   4.629   5.561  0.3983 -0.5824 -0.1250
 7211SOL    HW133095   0.536   4.661   5.573 -0.4719  2.1665 -0.8985
 7211SOL    HW233096   0.436   4.561   5.627  1.9178  0.8693  1.6194
 7212SOL     OW33097   3.556   1.541   3.053  0.1348 -0.7860  0.4334
 7212SOL    HW133098   3.474   1.576   3.086 -0.6017 -0.7363 -1.4735
 7212SOL    HW233099   3.529   1.520   2.963  2.0988 -0.6363 -0.1955
 7213SOL     OW33100   2.079   3.889  16.134  0.1097 -0.0217  0.0784
 7213SOL    HW133101   2.005   3.841  16.097 -0.7572  0.0295  1.7516
 7213SOL    HW233102   2.086   3.959  16.069 -1.9744  0.8915  0.8228
 7214SOL     OW33103   0.039   1.303   2.101  0.3433 -0.2646  0.4681
 7214SOL    HW133104   0.121   1.253   2.100  0.2430 -0.4254 -0.7845
 7214SOL    HW233105   0.008   1.293   2.191 -1.3463 -0.6011 -0.1514
 7215SOL     OW33106   0.487   0.571   8.012 -0.4176  0.5996 -0.3269
 7215SOL    HW133107   0.525   0.505   8.069 -1.0680 -0.5850 -1.2589
 7215SOL    HW233108   0.563   0.613   7.973  0.6154 -1.1259 -0.1663
 7216SOL     OW33109   1.589   1.493  10.971 -0.6862  0.0809  0.3925
 7216SOL    HW133110   1.636   1.512  10.890  0.3783 -3.5096  0.1463
 7216SOL    HW233111   1.587   1.399  10.989 -1.6469  0.1749  0.7959
 7217SOL     OW33112   0.555   1.480   7.763 -0.2097 -0.3750  0.0834
 7217SOL    HW133113   0.630   1.421   7.768 -1.3728 -1.8083  0.6009
 7217SOL    HW233114   0.587   1.538   7.695  0.5222 -0.7115  0.1444
 7218SOL     OW33115   3.009   2.955   6.043  0.2656 -0.5003 -0.2800
 7218SOL    HW133116   3.054   3.024   5.995  1.8174  0.9296  3.3221
 7218SOL    HW233117   3.090   2.918   6.075  0.0866  0.9161  1.7842
 7219SOL     OW33118   0.534   4.331   2.208  0.2116 -0.5178  0.1104
 7219SOL    HW133119   0.524   4.243   2.173  0.5778 -1.2453  1.8373
 7219SOL    HW233120   0.501   4.318   2.297 -1.1543  1.8604 -0.0180
 7220SOL     OW33121   3.052   2.244  12.187 -0.4593  0.0229  0.0670
 7220SOL    HW133122   3.065   2.314  12.123 -2.5425  1.3015  1.0346
 7220SOL    HW233123   3.074   2.164  12.140 -0.1463  0.8007 -1.1104
 7221SOL     OW33124   3.311   1.547  10.456 -0.2475 -0.1236 -0.2939
 7221SOL    HW133125   3.327   1.569  10.548  0.4035 -0.9201 -0.2080
 7221SOL    HW233126   3.298   1.453  10.472  0.3235 -0.0438  0.6508
 7222SOL     OW33127   2.054   4.409   5.454  0.0914  0.1035 -0.0226
 7222SOL    HW133128   2.011   4.455   5.526 -0.8211  2.7944 -2.3249
 7222SOL    HW233129   1.991   4.418   5.383 -0.3562  0.2819  0.3993
 7223SOL     OW33130   1.155   3.838  16.810 -0.0099  0.6169  0.6001
 7223SOL    HW133131   1.101   3.856  16.886 -0.1712  0.7141  0.4627
 7223SOL    HW233132   1.234   3.879  16.846  0.6776  0.1829 -0.4015
 7224SOL     OW33133   0.587   1.142   6.465 -0.1955 -0.8377 -0.1460
 7224SOL    HW133134   0.509   1.186   6.430  0.2958 -0.8001 -1.1757
 7224SOL    HW233135   0.604   1.189   6.547  0.6937  2.7911 -2.4109
 7225SOL     OW33136   2.618   2.578  13.797  0.0022 -0.5338 -0.0062
 7225SOL    HW133137   2.664   2.496  13.814 -3.4583 -2.7161 -1.1038
 7225SOL    HW233138   2.644   2.630  13.873 -2.2276 -0.6292  0.8101
 7226SOL     OW33139   1.344   4.621   3.288 -0.1290 -0.1086 -0.5503
 7226SOL    HW133140   1.329   4.536   3.248  1.1806 -0.2692 -0.7131
 7226SOL    HW233141   1.293   4.603   3.366 -0.4026 -1.2622 -0.9982
 7227SOL     OW33142   2.339   3.808  13.244  0.2150 -0.6793  0.3310
 7227SOL    HW133143   2.260   3.808  13.189 -0.0131  1.0464  0.6629
 7227SOL    HW233144   2.299   3.777  13.326 -0.7093 -2.2449 -0.7100
 7228SOL     OW33145   0.051   2.997   5.178  0.4909 -0.2356 -0.1966
 7228SOL    HW133146   0.066   3.076   5.126  0.4449 -0.8694 -1.1751
 7228SOL    HW233147   0.098   2.935   5.122 -0.4324  1.2288 -2.5767
 7229SOL     OW33148   1.051   3.561  16.397  0.5209  0.4928  0.3297
 7229SOL    HW133149   1.124   3.506  16.369  1.2264  0.6759  1.8216
 7229SOL    HW233150   1.007   3.572  16.313 -0.0828 -1.8068  0.3668
 7230SOL     OW33151   3.263   4.674   6.704  0.1302  0.0431 -0.0236
 7230SOL    HW133152   3.308   4.705   6.625 -0.4675 -0.3998 -0.5354
 7230SOL    HW233153   3.197   0.015   6.721 -0.6791 -0.6013 -0.6212
 7231SOL     OW33154   2.424   1.163   1.565  0.4980  0.6840  0.9859
 7231SOL    HW133155   2.463   1.149   1.479 -0.4481  0.4699  0.5985
 7231SOL    HW233156   2.391   1.252   1.553 -0.1687  0.2135 -0.6408
 7232SOL     OW33157   0.273   0.614   4.129 -0.2161  0.7488 -0.3429
 7232SOL    HW133158   0.320   0.556   4.069 -0.3062  0.1657  0.1454
 7232SOL    HW233159   0.222   0.552   4.181  1.2319 -1.5808 -1.7097
 7233SOL     OW33160   4.301   2.943   5.821 -0.5285 -0.1790 -0.8487
 7233SOL    HW133161   4.390   2.969   5.847 -1.3647  0.3679  1.4973
 7233SOL    HW233162   4.265   3.027   5.791  0.2663  0.0548 -1.1571
 7234SOL     OW33163   2.296   1.121   5.664  0.3380 -0.2100  0.5799
 7234SOL    HW133164   2.358   1.187   5.633 -1.6190 -0.1461 -3.2523
 7234SOL    HW233165   2.221   1.143   5.608 -0.1376  2.5820  2.3249
 7235SOL     OW33166   3.634   1.888  11.211 -0.4159 -0.3087  0.0375
 7235SOL    HW133167   3.639   1.959  11.275  1.0554  1.9236 -2.5960
 7235SOL    HW233168   3.566   1.924  11.155 -2.3320 -2.4407  0.9419
 7236SOL     OW33169   0.074   2.966   2.205 -0.0724 -0.8604  0.9439
 7236SOL    HW133170   4.710   2.993   2.185 -0.0268 -2.2817 -1.1975
 7236SOL    HW233171   0.060   2.940   2.296  2.5369 -1.5361  1.1551
 7237SOL     OW33172   0.164   0.523  10.294 -0.2244  0.1905  0.3974
 7237SOL    HW133173   0.243   0.497  10.247 -0.5583  0.4138 -0.2813
 7237SOL    HW233174   0.124   0.583  10.231 -1.5400 -0.7696  0.3242
 7238SOL     OW33175   1.375   1.187   3.643 -0.3793 -0.1486  0.0502
 7238SOL    HW133176   1.393   1.097   3.617  1.7143  0.4388 -0.5266
 7238SOL    HW233177   1.280   1.195   3.649 -0.3056  0.5975  0.3129
 7239SOL     OW33178   4.566   1.144   6.798  1.2525 -0.0023  0.5735
 7239SOL    HW133179   4.612   1.224   6.774  0.6461  0.7454  1.8911
 7239SOL    HW233180   4.632   1.082   6.768  0.0266 -0.8655 -0.3618
 7240SOL     OW33181   1.073   2.173   8.755 -0.5059 -0.2180 -0.2886
 7240SOL    HW133182   1.016   2.200   8.683 -1.8560  2.5591  1.8126
 7240SOL    HW233183   1.020   2.095   8.770 -0.2576 -0.5315 -1.0608
 7241SOL     OW33184   2.798   3.072   6.392 -0.0682  0.1571 -0.0862
 7241SOL    HW133185   2.740   3.135   6.347 -1.2379  0.0579  1.3043
 7241SOL    HW233186   2.866   3.136   6.414  0.8730 -0.8034 -0.2085
 7242SOL     OW33187   0.514   2.388   7.695 -0.2702 -0.3661 -0.0254
 7242SOL    HW133188   0.512   2.366   7.602  1.6738  0.8502 -0.3583
 7242SOL    HW233189   0.521   2.483   7.686  0.1913 -0.0749  3.3049
 7243SOL     OW33190   2.469   1.991   5.549  0.1540  0.1983  0.0385
 7243SOL    HW133191   2.411   2.053   5.593  1.3018  0.2148  1.5353
 7243SOL    HW233192   2.543   2.008   5.609  1.4730  0.1672 -1.5884
 7244SOL     OW33193   0.740   1.023   1.577 -0.2620  0.1800  0.3849
 7244SOL    HW133194   0.783   1.023   1.663 -0.3069 -2.4309  0.4019
 7244SOL    HW233195   0.782   1.101   1.541 -2.1374  0.9263 -0.2095
 7245SOL     OW33196   0.197   0.252   1.106 -0.3086  0.6302 -0.3250
 7245SOL    HW133197   0.192   0.289   1.194  3.1459  1.7681 -0.6111
 7245SOL    HW233198   0.289   0.273   1.089 -0.3804  0.5897 -0.7891
 7246SOL     OW33199   0.890   1.263  15.217  0.3636  0.0801 -0.4835
 7246SOL    HW133200   0.962   1.307  15.263  1.4748  0.1286 -2.2436
 7246SOL    HW233201   0.916   1.277  15.125 -1.3999 -0.2768 -1.0234
 7247SOL     OW33202   0.899   0.501   5.445 -0.4302 -0.4126  0.5380
 7247SOL    HW133203   0.970   0.495   5.381 -0.9935  1.6873 -0.2609
 7247SOL    HW233204   0.827   0.504   5.382  0.5507 -2.3245 -0.6816
 7248SOL     OW33205   1.837   1.501  12.591  0.1500  0.2527  0.6369
 7248SOL    HW133206   1.843   1.497  12.686  0.0012  1.2883  0.6815
 7248SOL    HW233207   1.880   1.585  12.579  1.2423  0.0079  2.7928
 7249SOL     OW33208   3.946   3.182   0.378 -0.8932  0.3665  0.1064
 7249SOL    HW133209   3.976   3.092   0.365  0.5578  0.5843  1.9475
 7249SOL    HW233210   3.852   3.170   0.371 -0.7563  0.9290 -2.5647
 7250SOL     OW33211   2.766   0.743   6.250 -0.0402  0.6308  0.2577
 7250SOL    HW133212   2.696   0.759   6.186  0.0855 -3.6409 -0.9810
 7250SOL    HW233213   2.735   0.668   6.301 -0.6266 -0.0926 -1.1367
 7251SOL     OW33214   1.652   0.786   0.051 -0.2249 -0.3841  0.3073
 7251SOL    HW133215   1.594   0.725   0.095  0.9687 -0.3024  1.9869
 7251SOL    HW233216   1.634   0.860   0.108 -0.1530  1.2872 -1.8115
 7252SOL     OW33217   0.505   0.834   7.742 -0.0270 -0.6284  0.2745
 7252SOL    HW133218   0.426   0.860   7.694  0.0138  0.7957  0.9853
 7252SOL    HW233219   0.495   0.886   7.821  0.6213  2.0767 -1.4435
 7253SOL     OW33220   1.192   0.615   9.639  0.2071  0.1480 -0.3075
 7253SOL    HW133221   1.253   0.685   9.662  2.6059 -2.3244  0.8761
 7253SOL    HW233222   1.235   0.571   9.566 -1.6461  0.6548 -1.7002
 7254SOL     OW33223   1.977   0.408   9.198 -0.2098  0.1525 -0.0083
 7254SOL    HW133224   2.038   0.342   9.166  0.2672 -0.2222  1.6942
 7254SOL    HW233225   1.891   0.366   9.203  0.8640 -2.1022 -0.8285
 7255SOL     OW33226   1.243   3.837   5.654 -0.1223  0.5742 -0.3820
 7255SOL    HW133227   1.280   3.758   5.613 -3.0316 -1.0835  0.1433
 7255SOL    HW233228   1.178   3.859   5.587  0.1425  0.8817 -0.5340
 7256SOL     OW33229   1.455   1.876   8.343  0.6611  0.5705  0.2369
 7256SOL    HW133230   1.428   1.894   8.252 -0.0070  0.7077  0.4581
 7256SOL    HW233231   1.457   1.961   8.388  1.0128 -0.2608  1.7806
 7257SOL     OW33232   0.875   4.024   6.541  0.0193 -0.7920 -0.6422
 7257SOL    HW133233   0.912   3.939   6.562 -1.8860 -1.6640 -0.8393
 7257SOL    HW233234   0.956   4.059   6.504 -1.1587  1.4683 -1.1244
 7258SOL     OW33235   2.945   1.328   7.409 -0.8027  0.7184 -0.5678
 7258SOL    HW133236   2.868   1.376   7.442  0.5576  1.4953  1.5066
 7258SOL    HW233237   3.014   1.361   7.467 -0.7399 -0.1654 -0.1420
 7259SOL     OW33238   2.563   3.142   8.747 -0.2078 -0.1800  0.7465
 7259SOL    HW133239   2.485   3.164   8.798  0.2587 -0.8237  1.7486
 7259SOL    HW233240   2.626   3.191   8.800  0.2261 -0.6458  0.6549
 7260SOL     OW33241   1.294   1.711  16.954 -0.4078  0.5380  0.3533
 7260SOL    HW133242   1.318   1.803  16.938  1.2680  0.1302  0.5313
 7260SOL    HW233243   1.214   1.721  17.004  1.3351 -0.5596  3.3492
 7261SOL     OW33244   1.131   3.910   0.316 -0.4561 -0.1361 -0.1587
 7261SOL    HW133245   1.206   3.971   0.316 -0.7064  0.1973  1.8647
 7261SOL    HW233246   1.068   3.978   0.293  1.4078  2.0659  1.1507
 7262SOL     OW33247   3.448   4.317   3.486  0.4627  0.5994 -0.5109
 7262SOL    HW133248   3.491   4.357   3.411  0.8811 -0.8635 -1.0537
 7262SOL    HW233249   3.378   4.263   3.450  0.8321 -0.6002  0.5468
 7263SOL     OW33250   3.895   1.186   8.721 -0.2260  0.0060 -0.3208
 7263SOL    HW133251   3.884   1.108   8.776  0.7853 -0.5529 -0.8950
 7263SOL    HW233252   3.968   1.222   8.771  1.0442 -2.9133 -0.0884
 7264SOL     OW33253   4.158   3.021   7.586 -0.2073  0.3694  0.2032
 7264SOL    HW133254   4.151   2.947   7.645 -0.4119  1.2111  1.2252
 7264SOL    HW233255   4.224   3.071   7.633  1.2338 -0.9453 -0.4232
 7265SOL     OW33256   2.507   0.818  14.599 -0.5265  0.8429 -0.2944
 7265SOL    HW133257   2.425   0.796  14.556  1.6916 -3.0875 -2.4768
 7265SOL    HW233258   2.538   0.897  14.554 -1.3338  0.2809 -1.8268
 7266SOL     OW33259   4.295   2.487   4.939  0.4359 -0.3605 -0.0986
 7266SOL    HW133260   4.260   2.408   4.897  0.4601 -0.6814  0.4828
 7266SOL    HW233261   4.323   2.448   5.022 -0.3720 -2.5717 -0.8654
 7267SOL     OW33262   0.771   0.426   4.489 -0.3181 -0.0176  1.1167
 7267SOL    HW133263   0.858   0.387   4.491  0.0285  0.8932  3.3814
 7267SOL    HW233264   0.769   0.488   4.416 -0.5737 -0.4302  0.7725
 7268SOL     OW33265   4.170   0.161   8.294  0.0588  0.8897 -0.4389
 7268SOL    HW133266   4.091   0.173   8.346 -0.3848 -0.0846 -0.8982
 7268SOL    HW233267   4.234   0.195   8.357 -0.9773  1.0787  0.5062
 7269SOL     OW33268   1.546   3.972   9.135 -0.2517  0.0245 -0.6139
 7269SOL    HW133269   1.538   4.064   9.111 -2.8089  0.0182  0.1513
 7269SOL    HW233270   1.465   3.935   9.100 -0.9588  0.0927  0.9329
 7270SOL     OW33271   2.307   0.804   5.744 -0.0384  0.1156  0.1676
 7270SOL    HW133272   2.341   0.893   5.729 -1.6452  0.4277 -1.6713
 7270SOL    HW233273   2.214   0.826   5.737 -0.7898 -2.7616  1.4741
 7271SOL     OW33274   1.618   1.921   6.249  0.6004  0.0132 -0.1458
 7271SOL    HW133275   1.651   2.008   6.226  0.8781 -0.1181 -0.2415
 7271SOL    HW233276   1.598   1.945   6.339 -2.9472 -0.2140 -0.8499
 7272SOL     OW33277   0.292   4.106  16.072 -0.2949 -0.1320 -0.4901
 7272SOL    HW133278   0.202   4.116  16.101 -0.3818 -0.1722 -0.7509
 7272SOL    HW233279   0.296   4.198  16.045 -1.2830  0.2962  0.8201
 7273SOL     OW33280   1.479   4.650   5.025 -0.3262  0.0220 -0.0889
 7273SOL    HW133281   1.535   4.677   4.952 -1.1939  1.8744 -0.0949
 7273SOL    HW233282   1.539   4.648   5.100  0.2178  1.0479 -0.4987
 7274SOL     OW33283   0.875   2.959   3.555 -0.0015  0.7089 -0.4786
 7274SOL    HW133284   0.794   3.002   3.528 -0.5256 -0.7563 -1.2334
 7274SOL    HW233285   0.910   2.917   3.476 -1.9647  0.4965 -1.2358
 7275SOL     OW33286   0.966   2.774   7.737  0.1186 -0.4663  0.0776
 7275SOL    HW133287   0.978   2.686   7.703 -2.2991 -0.4492 -0.8118
 7275SOL    HW233288   0.871   2.786   7.749  0.1862 -0.3069  0.4434
 7276SOL     OW33289   4.446   3.931   3.514 -0.0138  0.2072 -0.2170
 7276SOL    HW133290   4.439   3.999   3.581  0.1739  1.4366 -1.4278
 7276SOL    HW233291   4.353   3.909   3.507 -0.5511  2.0902  0.8745
 7277SOL     OW33292   3.949   3.958   7.594  0.1563 -0.3854 -0.5133
 7277SOL    HW133293   3.888   4.019   7.635 -0.3155 -0.2172 -1.4672
 7277SOL    HW233294   3.902   3.918   7.520 -0.9825  0.8850 -0.4833
 7278SOL     OW33295   0.422   1.255   1.654  0.0757  0.0549  0.4544
 7278SOL    HW133296   0.440   1.166   1.625  2.5964  0.6941 -0.0271
 7278SOL    HW233297   0.399   1.244   1.746 -2.6000  0.1478 -0.2229
 7279SOL     OW33298   1.294   1.221   8.324  0.1549  0.2733  0.0260
 7279SOL    HW133299   1.250   1.138   8.344  1.2356 -0.9119 -2.5016
 7279SOL    HW233300   1.226   1.286   8.310 -0.9600 -0.6641  1.0972
 7280SOL     OW33301   2.938   0.853  16.333  0.4142 -0.1829  0.5439
 7280SOL    HW133302   3.016   0.850  16.387 -0.0763  0.8927  1.3025
 7280SOL    HW233303   2.973   0.819  16.251 -2.2941  1.7785 -1.4337
 7281SOL     OW33304   3.450   1.859  13.242  0.6546  0.4616  0.0538
 7281SOL    HW133305   3.493   1.774  13.231 -0.3675  0.0666 -0.9397
 7281SOL    HW233306   3.459   1.917  13.167 -0.0157  0.0232 -0.3662
 7282SOL     OW33307   1.706   0.900   7.974 -0.0643 -0.0724  0.4363
 7282SOL    HW133308   1.732   0.827   8.030 -0.5944 -0.1583  0.5666
 7282SOL    HW233309   1.676   0.958   8.043 -3.0035  0.0947 -0.9639
 7283SOL     OW33310   1.683   4.695   0.536  0.2442 -0.4807  0.4389
 7283SOL    HW133311   1.589   4.709   0.533  0.3747  0.5321  1.4211
 7283SOL    HW233312   1.720   0.029   0.471  0.9637 -1.2456  0.1392
 7284SOL     OW33313   1.725   2.509   7.935 -0.2321  0.1895 -0.4631
 7284SOL    HW133314   1.818   2.489   7.939 -0.0443  1.1524 -0.0530
 7284SOL    HW233315   1.691   2.430   7.892 -0.1710  0.9423 -1.9280
 7285SOL     OW33316   3.634   0.378   0.818  0.2549  0.8863 -0.5029
 7285SOL    HW133317   3.624   0.434   0.741  0.7377 -0.2902 -1.4344
 7285SOL    HW233318   3.558   0.402   0.871 -1.1670 -1.9888 -1.2385
 7286SOL     OW33319   0.433   3.432  13.771  0.8873  0.3986 -0.4099
 7286SOL    HW133320   0.375   3.454  13.698  0.0566  2.8592  1.0043
 7286SOL    HW233321   0.515   3.472  13.743  2.6442 -0.4144  3.5523
 7287SOL     OW33322   4.408   1.867  14.826  0.1521 -0.5007  0.0902
 7287SOL    HW133323   4.407   1.782  14.782  0.9978 -0.7160  0.4946
 7287SOL    HW233324   4.464   1.922  14.771  1.4434 -0.0914  1.8129
 7288SOL     OW33325   2.993   4.203   2.089  0.0538  0.1713  0.4994
 7288SOL    HW133326   2.940   4.123   2.089 -0.7196  0.6797 -0.6376
 7288SOL    HW233327   3.055   4.179   2.021  1.1184  2.9184  0.4874
 7289SOL     OW33328   1.171   3.678   9.503 -0.0588  0.3308  0.2059
 7289SOL    HW133329   1.110   3.749   9.482 -1.6453 -1.0494  0.1572
 7289SOL    HW233330   1.179   3.630   9.421 -0.7891  1.1054 -0.3167
 7290SOL     OW33331   2.555   3.196  15.340 -0.1724 -0.2491  0.7624
 7290SOL    HW133332   2.597   3.123  15.384 -2.0064 -2.5460 -1.2855
 7290SOL    HW233333   2.481   3.204  15.400 -2.7924  1.6560 -2.7123
 7291SOL     OW33334   2.194   1.268   5.298  0.3796 -0.8681  0.0661
 7291SOL    HW133335   2.207   1.331   5.368  2.7646 -0.4383 -0.7573
 7291SOL    HW233336   2.103   1.248   5.318 -0.4112  0.7641 -1.8543
 7292SOL     OW33337   0.605   1.806   4.830 -0.4356 -0.6486 -0.0395
 7292SOL    HW133338   0.584   1.770   4.916  0.6637 -2.1203 -0.3860
 7292SOL    HW233339   0.520   1.781   4.795 -0.2541 -0.1564 -0.8375
 7293SOL     OW33340   0.260   1.651  15.298  0.1657  0.1974  0.0962
 7293SOL    HW133341   0.257   1.577  15.360  0.7366  0.0746 -0.0198
 7293SOL    HW233342   0.265   1.607  15.213  0.5838 -2.9268  1.7061
 7294SOL     OW33343   4.021   2.961   3.422 -0.6389 -0.6736 -0.4199
 7294SOL    HW133344   4.064   2.877   3.438 -1.9348 -1.1477  0.5735
 7294SOL    HW233345   3.929   2.942   3.441 -0.4290 -2.8031 -1.6476
 7295SOL     OW33346   1.017   1.180   9.895 -0.1228 -0.1312  0.3684
 7295SOL    HW133347   1.036   1.271   9.871 -2.0514  0.2297  0.1884
 7295SOL    HW233348   1.027   1.139   9.808  1.1893  1.3085 -0.1673
 7296SOL     OW33349   1.253   2.064  10.793 -0.7367  0.1700  0.7652
 7296SOL    HW133350   1.214   1.982  10.764 -0.6045  0.1419  0.6635
 7296SOL    HW233351   1.199   2.083  10.869  0.0811  1.5193  1.0188
 7297SOL     OW33352   3.987   1.544   1.643  0.2191 -0.3409 -0.6916
 7297SOL    HW133353   3.991   1.566   1.550 -0.3613  0.8065 -0.4480
 7297SOL    HW233354   4.054   1.602   1.680 -0.9926  2.2752 -2.6806
 7298SOL     OW33355   0.970   2.115   2.894  0.0249 -0.4646  0.0429
 7298SOL    HW133356   0.983   2.040   2.836  2.3466 -1.4593  1.8993
 7298SOL    HW233357   0.885   2.150   2.866  0.6209  0.6804 -0.3146
 7299SOL     OW33358   1.023   2.265   0.758  0.0544  0.0249  0.1669
 7299SOL    HW133359   1.030   2.350   0.714  1.5423 -0.8380 -1.2563
 7299SOL    HW233360   1.084   2.212   0.706  2.6498  2.5040  0.7058
 7300SOL     OW33361   0.311   2.934  14.685  0.6741  0.7099  0.0537
 7300SOL    HW133362   0.389   2.903  14.729 -1.0346 -0.6703  2.1136
 7300SOL    HW233363   0.298   3.028  14.701  1.6875  1.0351 -0.9870
 7301SOL     OW33364   0.092   0.600   2.700 -0.5118 -0.7907  0.1995
 7301SOL    HW133365   0.014   0.552   2.729 -1.4207  1.1210  0.9403
 7301SOL    HW233366   0.148   0.592   2.776 -2.5018 -2.2781  1.4976
 7302SOL     OW33367   4.319   3.957   6.499 -0.0189 -0.2030 -0.4583
 7302SOL    HW133368   4.313   4.047   6.468 -0.6152 -1.0071 -2.6463
 7302SOL    HW233369   4.301   3.963   6.593 -0.8501 -0.1661 -0.6237
 7303SOL     OW33370   2.914   3.063  11.304 -0.1045  0.3846 -0.1051
 7303SOL    HW133371   2.915   2.971  11.330 -0.1094  0.8449  1.4978
 7303SOL    HW233372   2.831   3.061  11.256 -0.6009 -3.7026  0.8820
 7304SOL     OW33373   3.278   4.556   3.800  0.4809 -0.0246  0.0324
 7304SOL    HW133374   3.367   4.531   3.774  0.0539 -0.9639 -0.5292
 7304SOL    HW233375   3.230   4.550   3.717 -0.7464  0.8222  0.6884
 7305SOL     OW33376   1.483   0.670  11.476 -0.9321  0.5503 -0.2463
 7305SOL    HW133377   1.445   0.618  11.406 -0.1922 -0.4626  0.0939
 7305SOL    HW233378   1.493   0.760  11.446 -1.7370  0.4482 -0.8128
 7306SOL     OW33379   4.570   0.705   7.131  0.2629 -0.5126 -0.2636
 7306SOL    HW133380   4.560   0.675   7.221 -0.8387  0.0215 -0.2212
 7306SOL    HW233381   4.479   0.731   7.119  0.9502  1.3256 -1.4556
 7307SOL     OW33382   1.642   2.367   5.005  0.5111  0.2481  0.1630
 7307SOL    HW133383   1.704   2.307   4.963  0.5498 -0.4554  1.2284
 7307SOL    HW233384   1.685   2.451   5.017 -0.8328  1.1387 -1.1933
 7308SOL     OW33385   4.387   0.750   4.914  0.1748 -0.0581 -0.2170
 7308SOL    HW133386   4.323   0.814   4.880 -0.9653 -1.2015 -0.2327
 7308SOL    HW233387   4.459   0.778   4.858  0.4549 -2.0253 -0.8170
 7309SOL     OW33388   2.412   1.630   2.825  0.2452  0.0853  0.2393
 7309SOL    HW133389   2.343   1.610   2.761 -0.2299  0.2664  0.6932
 7309SOL    HW233390   2.401   1.724   2.812  1.6040  0.1481 -0.4957
 7310SOL     OW33391   3.954   4.033   0.859 -0.1207  0.2709 -0.1565
 7310SOL    HW133392   3.947   4.127   0.873  0.3969  0.1669  0.8443
 7310SOL    HW233393   3.872   3.998   0.893  0.1381  0.0697  0.2658
 7311SOL     OW33394   2.289   1.690   1.505 -0.4473 -0.1690  0.3925
 7311SOL    HW133395   2.199   1.660   1.490 -1.4314  2.6528  0.5959
 7311SOL    HW233396   2.281   1.696   1.600  0.4039 -0.1179  0.4537
 7312SOL     OW33397   2.850   4.491  13.168 -0.4736  0.0402  0.4520
 7312SOL    HW133398   2.893   4.480  13.083 -1.7160 -0.7509 -0.0676
 7312SOL    HW233399   2.798   4.411  13.178 -0.3376 -0.3996 -2.1475
 7313SOL     OW33400   2.545   3.048  10.023  0.0018 -0.2392 -0.3411
 7313SOL    HW133401   2.527   3.010  10.109  1.5596 -1.0011 -0.3366
 7313SOL    HW233402   2.489   3.125  10.029  1.2747  0.6462  0.2945
 7314SOL     OW33403   0.979   0.344  16.545  0.1203 -0.0250 -0.0556
 7314SOL    HW133404   0.949   0.385  16.626 -1.2190  1.2004 -1.1819
 7314SOL    HW233405   0.905   0.286  16.529 -1.4499  1.7123  0.9561
 7315SOL     OW33406   4.088   2.065  16.808  0.0065  0.1384  0.2261
 7315SOL    HW133407   4.020   2.131  16.816  0.0895  0.0976  1.2750
 7315SOL    HW233408   4.119   2.083  16.719 -0.9147 -0.9896 -0.3156
 7316SOL     OW33409   1.274   2.752   6.274 -0.3951  0.9577  0.4307
 7316SOL    HW133410   1.342   2.755   6.207  1.9294  0.8014  2.7835
 7316SOL    HW233411   1.328   2.757   6.352 -0.7504  2.0485  0.6069
 7317SOL     OW33412   0.109   3.208   6.202  0.1272 -0.4172 -0.0071
 7317SOL    HW133413   0.175   3.203   6.132  0.0092 -1.7001 -0.0139
 7317SOL    HW233414   0.150   3.164   6.276 -1.3538 -0.4256  0.7983
 7318SOL     OW33415   1.290   1.595  15.271 -0.5078 -0.3703  0.1960
 7318SOL    HW133416   1.198   1.567  15.272  0.6283 -4.1130  0.5577
 7318SOL    HW233417   1.277   1.670  15.328  0.2401  1.3822 -1.9553
 7319SOL     OW33418   0.246   2.596   5.710 -0.4481 -0.6587 -0.3094
 7319SOL    HW133419   0.318   2.556   5.661 -0.6779  0.3348 -1.4736
 7319SOL    HW233420   0.288   2.678   5.736 -0.8726 -0.5662  0.0890
 7320SOL     OW33421   2.080   3.323  12.159 -0.1490 -0.3242 -0.4913
 7320SOL    HW133422   2.140   3.269  12.108  1.6402  0.8315  0.4021
 7320SOL    HW233423   2.021   3.344  12.086  0.8883  2.3617 -0.5390
 7321SOL     OW33424   2.245   1.777   5.890  0.6573 -0.0277  0.3800
 7321SOL    HW133425   2.339   1.791   5.895  0.2567  1.9105  2.0853
 7321SOL    HW233426   2.232   1.830   5.811  0.9489  0.2326  0.5082
 7322SOL     OW33427   3.904   2.376   7.160  0.0537 -0.1922  0.2888
 7322SOL    HW133428   3.843   2.443   7.129  0.5562  0.1676  0.0708
 7322SOL    HW233429   3.979   2.430   7.134 -0.2892  0.5612  0.8792
 7323SOL     OW33430   3.532   2.223  15.815  0.5081 -0.1962 -0.4028
 7323SOL    HW133431   3.508   2.307  15.854  0.6178 -0.8404  1.0257
 7323SOL    HW233432   3.573   2.184  15.892 -0.8927 -1.0362 -0.0970
 7324SOL     OW33433   4.121   3.636  10.139 -0.2907 -0.2389  0.0498
 7324SOL    HW133434   4.108   3.682  10.056 -1.4765 -2.1160 -0.8091
 7324SOL    HW233435   4.063   3.686  10.195  0.5349  0.5989  0.1558
 7325SOL     OW33436   1.767   3.936   3.040 -0.2066 -0.4650 -0.0317
 7325SOL    HW133437   1.678   3.970   3.049  0.0505  0.5332 -1.3422
 7325SOL    HW233438   1.803   4.006   2.987  1.0014 -1.0067  0.0758
 7326SOL     OW33439   1.692   2.946  13.322  0.1646 -0.5640 -0.3749
 7326SOL    HW133440   1.671   2.855  13.298  1.1971 -1.1426  0.9149
 7326SOL    HW233441   1.643   2.988  13.252 -1.0565  1.4317  1.6598
 7327SOL     OW33442   1.442   0.383  13.122  0.0378  0.3005  1.3126
 7327SOL    HW133443   1.513   0.427  13.074  0.6285 -1.0942  0.8958
 7327SOL    HW233444   1.366   0.405  13.068  2.5075  3.6798 -0.7722
 7328SOL     OW33445   3.603   3.552   9.747 -0.6008  0.5038  0.0564
 7328SOL    HW133446   3.664   3.482   9.723 -0.3836  0.4112  0.8503
 7328SOL    HW233447   3.543   3.509   9.807 -0.0217 -1.7357 -0.9935
 7329SOL     OW33448   1.176   4.686   2.655 -0.2468  0.7228 -0.6047
 7329SOL    HW133449   1.256   4.679   2.601  0.0052  0.7440 -0.2326
 7329SOL    HW233450   1.204   4.608   2.702 -0.2683  0.2702 -1.3395
 7330SOL     OW33451   3.602   1.752  10.100  0.2284  0.3103 -0.3756
 7330SOL    HW133452   3.629   1.840  10.076 -0.9343  0.9233  0.5329
 7330SOL    HW233453   3.600   1.761  10.195  0.7546 -3.0552 -0.0310
 7331SOL     OW33454   2.608   4.679   3.640  0.1809  0.2439  0.3825
 7331SOL    HW133455   2.612   4.665   3.545  0.6669  0.1105  0.4230
 7331SOL    HW233456   2.546   0.025   3.650  0.4981  0.2838  2.0541
 7332SOL     OW33457   2.644   3.848  17.017 -0.2815 -0.1111 -0.3178
 7332SOL    HW133458   2.652   3.878  16.927  1.5951 -1.4369 -0.6066
 7332SOL    HW233459   2.562   3.894  17.036  0.6342  1.2624  0.3060
 7333SOL     OW33460   1.159   3.973   5.899 -0.6090 -0.3947 -0.5186
 7333SOL    HW133461   1.147   3.909   5.829 -2.2653  1.7873 -2.2360
 7333SOL    HW233462   1.088   3.951   5.958 -0.1291  1.6600  0.8178
 7334SOL     OW33463   3.443   2.976  14.176 -0.1122 -0.1967  0.4101
 7334SOL    HW133464   3.471   2.889  14.147  1.5368  0.4301  0.0823
 7334SOL    HW233465   3.403   3.016  14.099  0.9063 -3.7376 -1.9199
 7335SOL     OW33466   2.558   2.467   0.492 -0.2392 -0.2534  0.7434
 7335SOL    HW133467   2.563   2.440   0.400 -1.4691 -0.7813  0.8230
 7335SOL    HW233468   2.512   2.551   0.490  0.3027  0.0115 -0.3934
 7336SOL     OW33469   3.362   0.318  15.429  0.0947  0.1847  0.1334
 7336SOL    HW133470   3.382   0.381  15.361  0.0869  1.5820  1.4309
 7336SOL    HW233471   3.448   0.278  15.446  0.3143  0.9020  0.7076
 7337SOL     OW33472   0.510   0.144  10.153  0.3186  0.3066  0.1678
 7337SOL    HW133473   0.428   0.112  10.190  0.5941 -0.3670  0.1889
 7337SOL    HW233474   0.546   0.063  10.118 -0.2893 -0.2438  0.8145
 7338SOL     OW33475   1.924   1.785  12.464  0.2638 -0.2208  0.3594
 7338SOL    HW133476   1.839   1.771  12.422 -0.8599  0.7180  2.3380
 7338SOL    HW233477   1.900   1.819  12.550  1.0876  1.6739 -0.1670
 7339SOL     OW33478   2.640   2.358  14.237  0.4789 -0.0639 -0.1324
 7339SOL    HW133479   2.657   2.443  14.278 -3.9469  1.3452 -1.1988
 7339SOL    HW233480   2.623   2.308  14.317 -0.6593  0.7797  0.1502
 7340SOL     OW33481   4.411   2.993   8.220  0.4553 -0.3588  0.3033
 7340SOL    HW133482   4.450   2.919   8.174 -0.7575 -0.9976  0.3158
 7340SOL    HW233483   4.413   2.952   8.306  2.2412  0.0007  0.4312
 7341SOL     OW33484   1.019   0.836   6.293  0.6252 -0.1574 -0.2043
 7341SOL    HW133485   0.938   0.832   6.343  0.0736  1.3642 -0.9617
 7341SOL    HW233486   1.027   0.931   6.287 -4.2715  0.1577 -1.4820
 7342SOL     OW33487   1.631   1.922   3.207  0.4541 -0.1251  0.3275
 7342SOL    HW133488   1.656   2.014   3.198  2.2901 -0.8199 -1.8375
 7342SOL    HW233489   1.543   1.930   3.171 -0.1079 -1.8178  1.3544
 7343SOL     OW33490   3.119   2.976   0.844  0.5659 -0.0815  0.2878
 7343SOL    HW133491   3.058   2.978   0.918  0.5943  1.6659  0.2579
 7343SOL    HW233492   3.136   3.068   0.825 -1.6851  0.0700 -1.0314
 7344SOL     OW33493   2.748   2.254   8.763  0.4771  0.2869 -0.0669
 7344SOL    HW133494   2.813   2.248   8.693 -0.2060  3.6702 -1.0271
 7344SOL    HW233495   2.776   2.173   8.805 -0.0163  0.8311  1.3137
 7345SOL     OW33496   1.479   4.031   7.484  0.7144 -0.5555 -0.1990
 7345SOL    HW133497   1.557   3.996   7.527 -0.1393 -0.5489  1.3293
 7345SOL    HW233498   1.513   4.103   7.431  0.8634 -0.4494  0.0467
 7346SOL     OW33499   2.446   2.346   6.427  0.4084 -0.1418  0.0019
 7346SOL    HW133500   2.443   2.379   6.337 -0.1361 -0.3868 -0.0742
 7346SOL    HW233501   2.508   2.407   6.465  0.1906  0.0719  0.0121
 7347SOL     OW33502   0.788   2.090   0.796  0.2549 -0.1372  0.2212
 7347SOL    HW133503   0.878   2.121   0.783 -0.1134  0.4569 -0.8753
 7347SOL    HW233504   0.807   2.022   0.861  1.5883  2.3216  2.4231
 7348SOL     OW33505   3.778   4.302   0.738  0.2663 -0.4601 -0.6790
 7348SOL    HW133506   3.822   4.218   0.751 -1.2531 -1.5256 -2.4000
 7348SOL    HW233507   3.806   4.347   0.818  1.3523 -0.0015 -1.3316
 7349SOL     OW33508   0.829   3.860   2.396 -0.1958 -0.0400  0.6022
 7349SOL    HW133509   0.884   3.822   2.327 -2.3896 -1.4794 -0.3535
 7349SOL    HW233510   0.891   3.896   2.459  2.7059 -2.2173 -1.0364
 7350SOL     OW33511   2.085   4.432   4.731  0.3974  0.2237 -0.2174
 7350SOL    HW133512   2.101   4.398   4.643  0.0116 -1.2565  0.2743
 7350SOL    HW233513   2.103   4.353   4.783 -1.5690 -1.5700 -2.2695
 7351SOL     OW33514   4.697   0.663   5.126  1.0624  0.6153 -0.0816
 7351SOL    HW133515   0.055   0.643   5.166  1.2498  1.3018 -0.1299
 7351SOL    HW233516   4.725   0.709   5.047 -0.1341 -1.6226 -1.7958
 7352SOL     OW33517   0.449   3.430  15.351 -0.6105 -0.4466 -0.2260
 7352SOL    HW133518   0.420   3.521  15.343  1.9183  0.5004  1.1572
 7352SOL    HW233519   0.391   3.407  15.424 -0.2548  0.3888  0.3182
 7353SOL     OW33520   4.446   2.931   1.252  0.4365 -0.2588 -0.0789
 7353SOL    HW133521   4.537   2.909   1.272  1.0873  0.9207 -1.7748
 7353SOL    HW233522   4.455   3.019   1.216  0.4846  0.1832  1.0268
 7354SOL     OW33523   1.860   3.162   3.499  0.4051  1.1752 -0.3680
 7354SOL    HW133524   1.932   3.190   3.443  0.9382 -0.4214 -0.4576
 7354SOL    HW233525   1.875   3.068   3.488 -1.2913  1.1415 -2.2675
 7355SOL     OW33526   1.526   0.174   0.876 -0.2171 -0.8795 -0.0284
 7355SOL    HW133527   1.512   0.244   0.813 -1.1100 -0.9752  0.0568
 7355SOL    HW233528   1.439   0.165   0.915 -0.1693  2.0509  0.7298
 7356SOL     OW33529   0.333   0.047   7.783 -0.3941 -0.4164 -0.5759
 7356SOL    HW133530   0.240   0.055   7.806 -0.3979  0.5620 -0.9594
 7356SOL    HW233531   0.344   0.135   7.749 -1.4716 -0.9152 -2.2191
 7357SOL     OW33532   2.255   2.272   6.642 -0.2705  0.2906  0.2504
 7357SOL    HW133533   2.281   2.237   6.726  0.0651  0.6720  0.3048
 7357SOL    HW233534   2.343   2.297   6.614 -0.6487 -1.2499 -2.3150
 7358SOL     OW33535   1.686   1.324   2.730 -0.1370 -0.7689 -0.3094
 7358SOL    HW133536   1.741   1.376   2.788  0.0686  0.5683 -1.7122
 7358SOL    HW233537   1.674   1.391   2.663  1.0966  1.7887  1.9999
 7359SOL     OW33538   0.458   3.916   3.359 -0.0865 -0.3230  0.1576
 7359SOL    HW133539   0.388   3.902   3.295 -1.3597 -1.6576  1.8327
 7359SOL    HW233540   0.509   3.840   3.330 -0.8930 -1.7084  2.4200
 7360SOL     OW33541   0.566   4.296   0.340  0.5771  0.1236  0.9575
 7360SOL    HW133542   0.486   4.348   0.335  0.5017  0.1698  2.4832
 7360SOL    HW233543   0.608   4.326   0.259 -0.8981  0.8636  0.4707
 7361SOL     OW33544   0.829   3.534   5.679  0.1926  0.0262 -0.4545
 7361SOL    HW133545   0.806   3.586   5.757 -0.6780  1.5428 -1.7204
 7361SOL    HW233546   0.799   3.596   5.612  1.0699 -0.0172 -0.8862
 7362SOL     OW33547   2.903   0.566  17.094  0.0533  0.3096 -0.6403
 7362SOL    HW133548   2.917   0.618  17.014  0.3049  1.6521  0.2732
 7362SOL    HW233549   2.964   0.609  17.154  0.6699 -1.8237  0.2753
 7363SOL     OW33550   4.331   1.226   2.201  0.1584  0.4534 -0.2175
 7363SOL    HW133551   4.412   1.188   2.166  1.0332  2.3234 -0.2120
 7363SOL    HW233552   4.359   1.317   2.189 -1.5966  1.2521  1.7704
 7364SOL     OW33553   2.808   0.882   0.499 -0.6361  0.9097  0.2936
 7364SOL    HW133554   2.832   0.928   0.419  1.6739  0.4009  0.6801
 7364SOL    HW233555   2.719   0.910   0.517 -1.9403 -2.1422 -1.4407
 7365SOL     OW33556   1.713   0.090   9.651 -0.0766 -0.4337  0.2959
 7365SOL    HW133557   1.713   4.723   9.632 -1.8964 -0.6728  1.4939
 7365SOL    HW233558   1.621   0.106   9.630  0.4271  0.1199 -1.4613
 7366SOL     OW33559   2.617   2.547  13.198  0.2869 -0.2550  0.5654
 7366SOL    HW133560   2.688   2.530  13.260  0.9679  0.5392  0.0165
 7366SOL    HW233561   2.566   2.598  13.260 -1.0461  1.0233 -1.5792
 7367SOL     OW33562   2.830   4.214   8.709  0.2671 -0.0175 -0.1856
 7367SOL    HW133563   2.887   4.144   8.742 -0.3183 -1.0122 -1.2554
 7367SOL    HW233564   2.865   4.225   8.620 -0.1156 -0.1851 -0.3581
 7368SOL     OW33565   4.001   1.397  13.749  0.0481 -0.0386 -0.6712
 7368SOL    HW133566   4.023   1.307  13.774 -1.3028 -0.2480 -0.2474
 7368SOL    HW233567   4.069   1.422  13.687  1.0406  1.2613  0.9224
 7369SOL     OW33568   3.491   3.107   2.866 -0.2165 -0.2151  0.0303
 7369SOL    HW133569   3.544   3.186   2.876 -0.6619  0.0423  0.3508
 7369SOL    HW233570   3.555   3.054   2.819 -1.4368 -0.7903 -0.9773
 7370SOL     OW33571   4.075   4.616  14.904  0.1739  0.2107  0.1978
 7370SOL    HW133572   4.151   4.564  14.926  0.5131  0.1398 -1.1281
 7370SOL    HW233573   4.002   4.558  14.925  0.4298 -0.8582 -1.9057
 7371SOL     OW33574   2.245   1.843  13.484 -0.4328  0.5078 -0.4494
 7371SOL    HW133575   2.331   1.875  13.509 -1.0002  0.1319  1.9471
 7371SOL    HW233576   2.261   1.819  13.392 -2.9142 -0.7055 -0.5868
 7372SOL     OW33577   0.221   2.645   8.336 -0.1586  0.3952  0.3513
 7372SOL    HW133578   0.243   2.675   8.248 -0.1483 -0.7178 -0.0333
 7372SOL    HW233579   0.306   2.652   8.380  0.2732  0.5242 -0.5057
 7373SOL     OW33580   3.924   1.358   9.164  0.1056  0.1364  0.4826
 7373SOL    HW133581   3.873   1.366   9.244  0.7091 -2.0685  1.0790
 7373SOL    HW233582   4.009   1.348   9.206  0.4219  0.2764 -0.1135
 7374SOL     OW33583   1.256   1.612   0.843 -0.1330 -0.0945  0.0587
 7374SOL    HW133584   1.210   1.531   0.819  0.8848 -0.6224 -0.1378
 7374SOL    HW233585   1.194   1.675   0.807  0.2038 -0.5384 -1.3214
 7375SOL     OW33586   2.623   4.308  15.381 -0.2802 -0.1283 -0.1137
 7375SOL    HW133587   2.646   4.216  15.365 -2.7737 -0.8765  0.4940
 7375SOL    HW233588   2.568   4.295  15.459 -0.6829 -1.0541 -0.5447
 7376SOL     OW33589   0.891   2.643   5.408  0.2746 -0.0657  0.1366
 7376SOL    HW133590   0.902   2.648   5.313 -2.7169 -2.2642 -0.3154
 7376SOL    HW233591   0.966   2.691   5.444 -0.7643 -1.3379  3.9676
 7377SOL     OW33592   0.471   0.435   3.992  0.1039  0.1249 -0.3459
 7377SOL    HW133593   0.441   0.392   3.912  0.1962 -0.4292 -0.0820
 7377SOL    HW233594   0.497   0.357   4.041  2.9840  1.1344 -0.2826
 7378SOL     OW33595   3.135   0.900  15.852  0.1608  0.1867 -0.4142
 7378SOL    HW133596   3.094   0.857  15.776 -0.7443 -0.0090  0.1803
 7378SOL    HW233597   3.227   0.918  15.832 -0.1566  2.1926 -0.0869
 7379SOL     OW33598   0.846   2.348   7.445 -0.4947  0.1374 -0.5644
 7379SOL    HW133599   0.777   2.293   7.482 -1.0285  1.0255 -0.2172
 7379SOL    HW233600   0.795   2.376   7.369  0.5171  3.9914  0.1823
 7380SOL     OW33601   4.524   1.740  16.242  0.0771 -0.3550 -0.5404
 7380SOL    HW133602   4.560   1.811  16.294  0.4898 -0.1325 -1.1271
 7380SOL    HW233603   4.599   1.680  16.249 -0.0464 -0.6699 -1.9302
 7381SOL     OW33604   4.399   1.715   4.477  0.1961 -0.1922 -0.1458
 7381SOL    HW133605   4.489   1.728   4.447  0.9822  2.4782  3.2810
 7381SOL    HW233606   4.415   1.653   4.549  2.3620  1.4111  0.7604
 7382SOL     OW33607   3.199   0.103  11.407 -0.3957  0.1039 -0.0403
 7382SOL    HW133608   3.166   0.191  11.391 -0.1438  0.3405  0.7629
 7382SOL    HW233609   3.154   0.058  11.335  1.0224 -0.6409 -0.4753
 7383SOL     OW33610   1.573   1.701   7.335 -0.0274 -0.0716  0.7781
 7383SOL    HW133611   1.620   1.627   7.297  1.0219  0.8556  0.2577
 7383SOL    HW233612   1.505   1.714   7.269  1.1777  1.0105 -0.2637
 7384SOL     OW33613   0.938   2.982  15.763  0.2471 -0.1286 -0.0563
 7384SOL    HW133614   0.999   3.052  15.738  1.1568 -1.0254 -0.3748
 7384SOL    HW233615   0.865   2.999  15.705 -0.1018  0.8895  0.6846
 7385SOL     OW33616   2.756   0.227   5.260  0.1372 -0.0098 -0.5602
 7385SOL    HW133617   2.762   0.322   5.270 -1.0072 -0.0044  0.1082
 7385SOL    HW233618   2.676   0.206   5.309 -0.0456 -0.4358 -1.0352
 7386SOL     OW33619   4.702   2.044   7.684  0.1185  0.2402  0.1610
 7386SOL    HW133620   0.061   2.079   7.657  0.5118 -2.1545 -1.6967
 7386SOL    HW233621   4.701   2.089   7.769  0.5523 -0.2160  0.4116
 7387SOL     OW33622   1.667   2.315  13.506  0.0304 -0.0361 -0.1140
 7387SOL    HW133623   1.735   2.252  13.527  0.7630  0.3995 -1.1513
 7387SOL    HW233624   1.656   2.353  13.593  1.5156 -0.8003  0.4053
 7388SOL     OW33625   1.304   1.408   1.868  0.7837  0.8466 -0.1790
 7388SOL    HW133626   1.345   1.472   1.926  0.3481  0.6189  0.3936
 7388SOL    HW233627   1.383   1.364   1.837  0.2878  0.6509 -1.1624
 7389SOL     OW33628   3.769   0.021  11.050  0.3416  0.1433 -0.0931
 7389SOL    HW133629   3.846   0.066  11.085 -0.4746  1.2971  0.2059
 7389SOL    HW233630   3.791   0.031  10.957  3.4755  1.0054  0.7428
 7390SOL     OW33631   4.537   2.133   4.908 -0.1841  0.1418 -0.4108
 7390SOL    HW133632   4.560   2.220   4.876  1.3316  0.2467  0.9860
 7390SOL    HW233633   4.451   2.116   4.869 -0.5178  4.8760 -1.7324
 7391SOL     OW33634   2.894   4.653  11.447 -0.3592 -0.0244  0.9750
 7391SOL    HW133635   2.847   4.578  11.411  0.8567  0.2014 -1.1016
 7391SOL    HW233636   2.975   4.642  11.397  0.5989  0.1033  2.5331
 7392SOL     OW33637   0.420   1.788   4.590  0.0552 -0.3171 -0.2178
 7392SOL    HW133638   0.353   1.846   4.626 -0.9637  1.0748 -4.3280
 7392SOL    HW233639   0.475   1.857   4.553  0.2431  0.5837  1.7523
 7393SOL     OW33640   2.582   0.240   4.080  0.5932 -0.1764  0.6087
 7393SOL    HW133641   2.664   0.192   4.089 -0.3918 -2.3280 -1.8564
 7393SOL    HW233642   2.524   0.204   4.148  1.9590 -1.6801  0.9858
 7394SOL     OW33643   0.572   2.639   7.656 -0.0872  0.6112 -0.4402
 7394SOL    HW133644   0.587   2.714   7.715  2.5929 -0.4715  0.2498
 7394SOL    HW233645   0.635   2.666   7.589  1.8199  0.0005  1.0788
 7395SOL     OW33646   3.634   4.284   3.186 -0.1239  0.5220  0.9401
 7395SOL    HW133647   3.677   4.245   3.110 -1.5718  2.5562 -0.9297
 7395SOL    HW233648   3.579   4.212   3.216  1.3167 -0.6833  0.6761
 7396SOL     OW33649   0.785   1.797   0.005  0.0122  0.5494  0.3980
 7396SOL    HW133650   0.711   1.803   0.065 -0.6204 -0.4706 -0.2947
 7396SOL    HW233651   0.840   1.871   0.031 -0.4648  0.7753  0.7510
 7397SOL     OW33652   1.502   0.556   2.829 -0.3025 -0.3077  0.3494
 7397SOL    HW133653   1.585   0.540   2.785 -1.5291  0.6794 -2.3370
 7397SOL    HW233654   1.520   0.545   2.923 -1.6895 -1.3042  0.5133
 7398SOL     OW33655   1.881   2.100   4.663  0.0348  0.0704  0.0456
 7398SOL    HW133656   1.939   2.036   4.704  0.0764 -0.7300 -1.2471
 7398SOL    HW233657   1.929   2.118   4.583  0.3131  3.1525  0.8915
 7399SOL     OW33658   1.247   1.665   8.414  0.0478  0.0472  0.6193
 7399SOL    HW133659   1.295   1.747   8.423 -0.5178  0.3605  0.8171
 7399SOL    HW233660   1.282   1.616   8.340 -0.4878  1.6689 -0.7157
 7400SOL     OW33661   4.646   3.402  16.696 -0.2823 -0.2734  0.4418
 7400SOL    HW133662   4.600   3.444  16.622 -0.9816 -0.4155  0.7937
 7400SOL    HW233663   4.608   3.449  16.770  0.6337  1.4174 -0.1718
 7401SOL     OW33664   1.541   3.705   3.775  0.1717  0.2424  0.6465
 7401SOL    HW133665   1.556   3.686   3.683  0.4735 -0.4219  0.8351
 7401SOL    HW233666   1.602   3.640   3.811  0.7510  1.3885  1.7441
 7402SOL     OW33667   4.011   4.697  11.487  0.4354 -0.1624  0.0109
 7402SOL    HW133668   4.005   4.628  11.553 -0.4831 -2.9777 -3.0529
 7402SOL    HW233669   4.036   4.652  11.407 -0.7703  0.4246 -0.6869
 7403SOL     OW33670   1.545   3.251   6.325  0.1143  0.2799 -0.0019
 7403SOL    HW133671   1.453   3.228   6.312  1.2609 -3.3705 -1.7177
 7403SOL    HW233672   1.539   3.335   6.370  1.1179 -0.8246  2.1920
 7404SOL     OW33673   4.165   1.073  12.327 -0.1610  0.2803  0.3374
 7404SOL    HW133674   4.234   1.059  12.392  0.3854  2.0095  0.1472
 7404SOL    HW233675   4.222   1.113  12.261 -1.7354  2.2769  0.1634
 7405SOL     OW33676   0.582   0.416   2.771  0.2576 -0.7226  0.8555
 7405SOL    HW133677   0.641   0.469   2.825 -0.4800 -0.9090  1.8350
 7405SOL    HW233678   0.608   0.327   2.794  0.6468 -1.2859 -1.7428
 7406SOL     OW33679   0.865   2.049   1.401  0.2400 -0.1156 -0.2290
 7406SOL    HW133680   0.771   2.062   1.419  0.4410 -0.0889  0.8119
 7406SOL    HW233681   0.900   2.068   1.488  1.1821  1.8341 -1.0376
 7407SOL     OW33682   3.943   3.427   0.480 -0.0660 -0.2693  0.0943
 7407SOL    HW133683   3.935   3.338   0.447 -0.0028 -0.1399 -0.2739
 7407SOL    HW233684   3.933   3.416   0.574  1.3863  0.2086  0.3103
 7408SOL     OW33685   2.980   1.181   8.586 -0.3161 -0.8559  0.3514
 7408SOL    HW133686   2.976   1.086   8.578 -0.8821 -0.6459 -1.7880
 7408SOL    HW233687   2.935   1.198   8.669 -0.9747  1.2774 -0.4333
 7409SOL     OW33688   0.055   0.273   6.406  0.0345  0.3687 -0.1794
 7409SOL    HW133689   0.131   0.317   6.368  2.5525 -2.5677  1.4766
 7409SOL    HW233690   4.722   0.297   6.334 -1.5083 -0.9810  0.6242
 7410SOL     OW33691   3.941   0.524   2.370 -0.2482  0.0469 -0.1352
 7410SOL    HW133692   3.870   0.470   2.335  0.9518 -1.0859 -0.8150
 7410SOL    HW233693   3.924   0.513   2.463  0.4143 -0.0504 -0.0240
 7411SOL     OW33694   0.287   1.938   2.758 -0.0033  0.7199 -0.2791
 7411SOL    HW133695   0.245   1.853   2.751 -3.3076  2.4042 -0.8498
 7411SOL    HW233696   0.218   2.005   2.762  0.2421  1.0090 -0.8276
 7412SOL     OW33697   3.729   1.039   0.003 -0.0657  0.6942 -0.1464
 7412SOL    HW133698   3.730   1.124  17.664  0.0851  0.5452 -0.4296
 7412SOL    HW233699   3.674   1.068   0.075  0.5290 -1.3498  1.1383
 7413SOL     OW33700   3.936   2.271   0.230 -0.1815  0.1378 -0.7149
 7413SOL    HW133701   3.899   2.185   0.253  1.6816 -1.3998 -3.4795
 7413SOL    HW233702   3.857   2.318   0.201 -1.0526 -1.3306 -0.7392
 7414SOL     OW33703   4.085   3.874   7.881 -0.1148  0.0260  0.3807
 7414SOL    HW133704   4.060   3.930   7.953  1.0967 -1.0399  1.6324
 7414SOL    HW233705   4.025   3.801   7.897  0.6399 -0.8634 -0.8332
 7415SOL     OW33706   2.150   0.172  10.135 -0.4062 -0.5452 -0.3883
 7415SOL    HW133707   2.240   0.201  10.154 -0.5136 -0.5405  0.1323
 7415SOL    HW233708   2.141   0.102  10.200  1.9555 -0.0236  0.5020
 7416SOL     OW33709   3.069   3.412   4.836  0.1471  0.3057 -0.2361
 7416SOL    HW133710   2.987   3.426   4.788 -1.6062 -1.6268  2.1991
 7416SOL    HW233711   3.048   3.444   4.924 -0.7645 -2.5014  0.5537
 7417SOL     OW33712   3.833   2.825   0.629 -0.3673 -0.4608 -0.0302
 7417SOL    HW133713   3.858   2.854   0.717 -1.1309  0.0052  0.0329
 7417SOL    HW233714   3.744   2.858   0.622  0.8672  2.7378 -0.7072
 7418SOL     OW33715   4.072   3.279  12.457 -0.2105 -0.9489 -0.2764
 7418SOL    HW133716   4.150   3.293  12.404 -0.2141  0.7915  0.1684
 7418SOL    HW233717   4.066   3.184  12.445 -1.0906 -0.3044 -5.0048
 7419SOL     OW33718   2.071   2.573   1.955 -0.0550  0.1674  0.1756
 7419SOL    HW133719   2.110   2.490   1.983  0.7590  0.6237  0.3709
 7419SOL    HW233720   2.146   2.628   1.977 -0.5182  0.4941  0.9132
 7420SOL     OW33721   0.969   3.869   6.294  0.0596 -0.0799  0.1632
 7420SOL    HW133722   0.890   3.836   6.338  0.7360 -1.2537  0.5094
 7420SOL    HW233723   0.940   3.843   6.206 -2.7152 -1.5286  1.4620
 7421SOL     OW33724   0.050   1.966  17.573 -0.6839  1.4028  0.0145
 7421SOL    HW133725   0.098   1.910  17.635  0.5706  0.5911 -1.6762
 7421SOL    HW233726   4.692   1.920  17.571  0.2785 -0.2910 -1.3416
 7422SOL     OW33727   3.174   4.278   8.052  0.1862  0.2241 -0.1475
 7422SOL    HW133728   3.257   4.288   8.005 -0.5107  1.5807 -1.0913
 7422SOL    HW233729   3.118   4.334   7.999  1.0157  1.0003 -0.2127
 7423SOL     OW33730   2.375   4.525   1.816 -0.2934  0.1645 -0.4081
 7423SOL    HW133731   2.309   4.481   1.870 -1.5789  0.2808 -1.8847
 7423SOL    HW233732   2.425   4.561   1.889  2.0365 -2.5795 -0.6462
 7424SOL     OW33733   0.641   0.537   3.242 -0.0388 -0.0135 -0.3011
 7424SOL    HW133734   0.573   0.477   3.211 -0.1469 -1.2704  2.3720
 7424SOL    HW233735   0.719   0.498   3.203  1.7092  0.7322  2.5046
 7425SOL     OW33736   4.417   2.414   6.071  0.2135 -0.3353 -0.3986
 7425SOL    HW133737   4.359   2.425   6.146  1.6889  3.5672  0.1454
 7425SOL    HW233738   4.380   2.340   6.022  1.1404 -1.8288  1.1616
 7426SOL     OW33739   3.860   2.838   4.842 -0.2285 -0.7020  0.5853
 7426SOL    HW133740   3.919   2.907   4.812 -1.3465  0.5125  1.1798
 7426SOL    HW233741   3.792   2.836   4.775 -0.8104  0.8495  1.1327
 7427SOL     OW33742   3.255   4.432   6.069  0.3616  0.3029  0.7713
 7427SOL    HW133743   3.285   4.427   5.978  1.1163 -2.0382  1.1591
 7427SOL    HW233744   3.173   4.385   6.055  0.1481  0.3239  1.9641
 7428SOL     OW33745   3.502   4.214   6.309  0.2618 -0.9010 -0.0129
 7428SOL    HW133746   3.451   4.134   6.293 -0.0521 -1.0232  1.5896
 7428SOL    HW233747   3.508   4.246   6.219 -0.7255 -1.2221 -0.1941
 7429SOL     OW33748   1.960   2.994   9.378  0.3222 -0.2695 -0.0861
 7429SOL    HW133749   1.929   3.036   9.298 -2.1447  0.5195  1.2606
 7429SOL    HW233750   1.904   2.916   9.374  1.3912 -1.1858  2.4499
 7430SOL     OW33751   2.876   3.191  10.625  0.0030 -0.7753  0.7010
 7430SOL    HW133752   2.918   3.171  10.541 -0.0237 -0.8392  0.7027
 7430SOL    HW233753   2.862   3.285  10.619  0.0469 -0.7100  1.5482
 7431SOL     OW33754   3.329   3.484   5.408  0.3790  0.5285  0.8225
 7431SOL    HW133755   3.325   3.507   5.500 -1.7344  1.7118  0.4431
 7431SOL    HW233756   3.238   3.499   5.380  0.4580 -0.5430 -0.0290
 7432SOL     OW33757   3.662   3.105   6.527 -0.2008 -0.1468  0.0969
 7432SOL    HW133758   3.680   3.078   6.437 -1.1139 -1.8289  0.4045
 7432SOL    HW233759   3.576   3.064   6.540 -0.0585 -0.3826  0.3059
 7433SOL     OW33760   1.411   2.439   2.655 -0.0085  0.0072  0.0195
 7433SOL    HW133761   1.342   2.374   2.644 -0.3151  0.1958  0.8107
 7433SOL    HW233762   1.401   2.475   2.743  1.3896 -0.4818  0.3765
 7434SOL     OW33763   3.791   2.788   6.888  0.2395  0.1550 -0.1002
 7434SOL    HW133764   3.817   2.868   6.842 -0.5841  0.5759  0.1626
 7434SOL    HW233765   3.697   2.802   6.881  0.3724  1.8897  1.8533
 7435SOL     OW33766   1.062   2.601   9.922 -0.2802  0.1607  0.5459
 7435SOL    HW133767   1.115   2.578   9.998  0.5776 -3.8539 -1.2130
 7435SOL    HW233768   1.058   2.696   9.916 -0.4659  0.2695  2.5804
 7436SOL     OW33769   1.864   1.920   9.443  0.2688  0.0110 -0.6655
 7436SOL    HW133770   1.871   1.844   9.501  1.8726  0.3860 -0.3453
 7436SOL    HW233771   1.947   1.951   9.480  0.5875 -0.7795 -0.7142
 7437SOL     OW33772   0.973   1.146   8.876 -1.0982  0.1011  0.6248
 7437SOL    HW133773   0.883   1.178   8.879 -0.1837  2.6609  0.9082
 7437SOL    HW233774   1.027   1.194   8.939  1.1227 -0.9842 -0.4078
 7438SOL     OW33775   1.598   2.229   3.476  0.2546  0.1128  0.6037
 7438SOL    HW133776   1.536   2.248   3.405  1.6051  3.0801  0.2328
 7438SOL    HW233777   1.681   2.213   3.432  0.2166 -0.1096  0.6131
 7439SOL     OW33778   0.861   1.382   2.180  0.2973 -0.4512  0.0501
 7439SOL    HW133779   0.790   1.418   2.127  1.3451  1.9942  0.3391
 7439SOL    HW233780   0.939   1.406   2.130 -0.7379  2.3676 -0.1904
 7440SOL     OW33781   4.051   1.880  14.941 -0.4312  0.0764  0.3104
 7440SOL    HW133782   4.035   1.924  15.024 -0.7134  2.2972 -0.9238
 7440SOL    HW233783   4.129   1.933  14.924 -1.0957  0.4891 -1.4258
 7441SOL     OW33784   2.983   2.001   8.069 -0.5394 -0.1233  0.4423
 7441SOL    HW133785   3.055   1.987   8.131  2.5271  1.0286 -2.8974
 7441SOL    HW233786   2.910   1.968   8.122 -0.3824 -1.3318 -0.0971
 7442SOL     OW33787   0.285   3.807   1.077  0.4811  0.0701 -0.3711
 7442SOL    HW133788   0.261   3.882   1.131  0.3741 -1.0199  1.1130
 7442SOL    HW233789   0.378   3.799   1.100 -0.0128 -0.7423  1.3367
 7443SOL     OW33790   3.715   0.612   6.306  0.4166 -0.4559 -0.2810
 7443SOL    HW133791   3.772   0.657   6.368  0.2726 -0.2179 -0.3187
 7443SOL    HW233792   3.770   0.620   6.228  1.0102  0.6151  0.2513
 7444SOL     OW33793   3.796   3.258   3.271 -0.7362 -0.5523 -0.0947
 7444SOL    HW133794   3.766   3.341   3.234  2.3920  0.0102 -1.4182
 7444SOL    HW233795   3.785   3.201   3.195 -4.1955 -0.1232  0.1198
 7445SOL     OW33796   1.465   3.470   4.081  0.0292 -0.0784 -0.1546
 7445SOL    HW133797   1.540   3.485   4.023  0.4387 -2.0051 -0.1250
 7445SOL    HW233798   1.486   3.385   4.121  0.0844  0.2147  0.4313
 7446SOL     OW33799   1.305   0.053   6.796  0.5506 -0.0924 -0.5043
 7446SOL    HW133800   1.366   0.008   6.854  0.5780  1.7335  0.8898
 7446SOL    HW233801   1.268   4.712   6.738 -0.4713  0.4919 -0.5336
 7447SOL     OW33802   1.116   0.923   7.701  0.3073 -0.9128 -0.2363
 7447SOL    HW133803   1.133   0.934   7.794 -3.4225  0.9422  0.2082
 7447SOL    HW233804   1.021   0.920   7.699  0.2319  0.4566  1.8688
 7448SOL     OW33805   0.289   3.517   6.851  0.1094  0.2290  0.2268
 7448SOL    HW133806   0.287   3.450   6.783 -1.9016  0.8723 -0.3657
 7448SOL    HW233807   0.236   3.588   6.813  0.2324  0.9336  1.3815
 7449SOL     OW33808   3.150   3.271   6.209  0.4861  0.0090  0.0199
 7449SOL    HW133809   3.200   3.350   6.229  0.1796 -0.0561  0.9962
 7449SOL    HW233810   3.223   3.209   6.211 -2.4248 -3.3675  1.2072
 7450SOL     OW33811   1.271   4.280   3.298  0.2486 -0.1713 -0.1799
 7450SOL    HW133812   1.357   4.238   3.295  1.0333  1.3424  0.9421
 7450SOL    HW233813   1.215   4.207   3.326  0.0308  0.4627  1.0333
 7451SOL     OW33814   3.835   0.142   3.544 -0.2979  0.1710  0.6224
 7451SOL    HW133815   3.826   0.058   3.501  2.5075  0.3973 -0.3971
 7451SOL    HW233816   3.890   0.121   3.619  0.4056  1.3773  0.4423
 7452SOL     OW33817   3.243   3.387  14.596 -0.0950 -0.0056  0.1557
 7452SOL    HW133818   3.174   3.409  14.534  0.8664 -1.2841 -1.3591
 7452SOL    HW233819   3.192   3.346  14.665 -1.4445 -0.2033 -0.9642
 7453SOL     OW33820   4.506   2.585   9.483 -0.0852 -0.6736  0.6446
 7453SOL    HW133821   4.453   2.517   9.526 -1.0430 -1.1239 -1.2840
 7453SOL    HW233822   4.558   2.611   9.559  0.4301  2.1551 -0.7094
 7454SOL     OW33823   4.188   1.599   1.137 -0.1929 -0.2325 -0.3225
 7454SOL    HW133824   4.253   1.648   1.087 -0.6429  0.5354 -0.1411
 7454SOL    HW233825   4.122   1.589   1.069 -1.5930  0.7736  0.9010
 7455SOL     OW33826   3.336   4.710   4.029  0.5626  0.1229  0.7001
 7455SOL    HW133827   3.373   0.031   3.954  0.2863 -0.3847  0.2468
 7455SOL    HW233828   3.320   4.628   3.982 -2.0580  0.2069  1.4463
 7456SOL     OW33829   2.190   4.640   6.824 -0.1568 -0.0159 -0.1471
 7456SOL    HW133830   2.164   0.006   6.832 -0.8469 -0.1437 -1.0190
 7456SOL    HW233831   2.176   4.611   6.914 -2.1278 -0.4699 -0.6150
 7457SOL     OW33832   3.510   2.432   4.511 -0.5583  0.2703 -0.6283
 7457SOL    HW133833   3.506   2.468   4.599 -1.1519  2.5378 -1.5818
 7457SOL    HW233834   3.583   2.370   4.513 -0.5380  0.3772  1.1993
 7458SOL     OW33835   1.231   2.597  12.492  0.2542 -0.3868 -0.5373
 7458SOL    HW133836   1.206   2.626  12.404  1.8814  0.7245 -0.6403
 7458SOL    HW233837   1.267   2.678  12.528 -3.4703  0.3854  1.4825
 7459SOL     OW33838   4.181   2.449   8.969  0.4559  0.9076  0.0161
 7459SOL    HW133839   4.203   2.474   8.880  1.9198  1.7898  0.6169
 7459SOL    HW233840   4.101   2.399   8.952  0.7926  0.1261  0.7454
 7460SOL     OW33841   3.720   0.582   3.485  0.4110 -0.7468 -0.1242
 7460SOL    HW133842   3.737   0.553   3.395 -1.8425 -0.1903 -0.7364
 7460SOL    HW233843   3.714   0.675   3.461  0.8553 -1.3919 -2.7259
 7461SOL     OW33844   3.685   3.887  16.356 -0.3043  0.4258  0.2759
 7461SOL    HW133845   3.750   3.817  16.354  0.2754  0.9942 -0.6457
 7461SOL    HW233846   3.617   3.834  16.314  2.2538 -2.8614  0.2994
 7462SOL     OW33847   2.962   1.888   9.078  0.6988 -0.3030  0.3738
 7462SOL    HW133848   3.037   1.910   9.134 -2.3298  1.1642  3.9100
 7462SOL    HW233849   2.892   1.880   9.143  1.1424 -2.6437  0.5588
 7463SOL     OW33850   0.765   0.398   2.495 -0.2537  0.1894 -0.2322
 7463SOL    HW133851   0.804   0.421   2.411 -3.1868  2.2560 -1.0282
 7463SOL    HW233852   0.810   0.457   2.555  0.5785 -0.1379 -0.5396
 7464SOL     OW33853   1.498   0.209  12.880 -0.1830 -0.0223 -0.0578
 7464SOL    HW133854   1.476   0.160  12.959 -0.1100 -1.6476 -1.0433
 7464SOL    HW233855   1.593   0.199  12.875  0.0347  1.2280  1.5537
 7465SOL     OW33856   4.140   2.575   9.472  0.0672 -1.0882 -0.4937
 7465SOL    HW133857   4.183   2.642   9.525  0.4963 -1.4596 -0.3635
 7465SOL    HW233858   4.167   2.592   9.382  0.9359 -0.5127 -0.1277
 7466SOL     OW33859   3.123   0.806   4.049  0.0666 -1.1700 -0.2606
 7466SOL    HW133860   3.146   0.849   4.132 -0.9630  1.1719 -1.1765
 7466SOL    HW233861   3.034   0.773   4.061 -0.1701 -0.9879 -1.5021
 7467SOL     OW33862   0.530   0.955   1.950  0.0139 -0.2690  0.0805
 7467SOL    HW133863   0.444   0.992   1.932  0.0149 -1.1202 -1.6336
 7467SOL    HW233864   0.594   1.025   1.941 -0.4582 -0.0668 -1.5959
 7468SOL     OW33865   0.834   2.154   5.041 -0.4631 -0.7426  0.1862
 7468SOL    HW133866   0.772   2.170   4.969 -0.0330 -0.1962 -0.0666
 7468SOL    HW233867   0.921   2.153   5.000 -1.0688 -0.0199 -1.1153
 7469SOL     OW33868   0.426   3.065   1.871  0.0962  0.2461 -0.1131
 7469SOL    HW133869   0.432   2.970   1.881  0.2840  0.4761  2.0563
 7469SOL    HW233870   0.369   3.077   1.947 -0.9625  0.4276 -0.9311
 7470SOL     OW33871   1.502   1.833   4.328 -0.0014  0.5532  0.1550
 7470SOL    HW133872   1.577   1.881   4.362 -0.6998  1.4089  0.4926
 7470SOL    HW233873   1.453   1.836   4.410  2.0907  2.8606  1.3132
 7471SOL     OW33874   2.976   3.703   4.998 -0.3927  0.0664  0.6769
 7471SOL    HW133875   2.966   3.713   4.903  1.1733 -2.6556  0.2322
 7471SOL    HW233876   2.975   3.792   5.033 -0.5664  0.7667 -1.1109
 7472SOL     OW33877   3.387   2.901  17.004 -0.0111 -0.1421  0.1233
 7472SOL    HW133878   3.399   2.889  17.098 -3.9852 -0.1610  0.5936
 7472SOL    HW233879   3.311   2.959  16.996 -0.6060 -0.7692  1.2407
 7473SOL     OW33880   0.517   0.783   4.861  0.3246 -0.2772  0.0616
 7473SOL    HW133881   0.519   0.861   4.805  4.0465 -0.2206  0.2743
 7473SOL    HW233882   0.606   0.750   4.852  1.2126  2.0482  0.2629
 7474SOL     OW33883   3.671   3.309   4.000  0.1868 -0.4126 -0.4172
 7474SOL    HW133884   3.660   3.401   4.027 -0.0738 -0.1830 -1.3230
 7474SOL    HW233885   3.738   3.312   3.931  0.5346  0.3484 -0.0509
 7475SOL     OW33886   0.057   4.223   7.621 -0.0867  0.3432  0.2817
 7475SOL    HW133887   0.009   4.262   7.548 -0.1369 -3.2706 -1.6465
 7475SOL    HW233888   0.138   4.199   7.575 -0.3715  0.0621 -0.0710
 7476SOL     OW33889   3.696   4.081   1.747  0.1067  0.7659 -0.0544
 7476SOL    HW133890   3.786   4.053   1.759 -0.0326 -0.3437 -1.6045
 7476SOL    HW233891   3.672   4.121   1.831 -0.3422  1.8134 -0.6790
 7477SOL     OW33892   3.875   1.659   3.674 -0.5404 -0.4286  0.3611
 7477SOL    HW133893   3.922   1.639   3.593 -0.2728  0.4006  0.3079
 7477SOL    HW233894   3.877   1.754   3.658 -2.3521 -0.4644 -0.0154
 7478SOL     OW33895   0.593   3.794   2.971 -0.0067 -0.2405  0.3443
 7478SOL    HW133896   0.650   3.737   2.920 -0.0134  0.3457 -0.3088
 7478SOL    HW233897   0.526   3.803   2.903 -0.7459  1.5620  1.3089
 7479SOL     OW33898   2.607   0.008  15.552 -0.3232 -0.5663  0.6605
 7479SOL    HW133899   2.673   0.056  15.602  0.8873 -0.6910 -0.8254
 7479SOL    HW233900   2.550   0.081  15.529 -0.5543 -0.7707  0.5744
 7480SOL     OW33901   1.384   3.353   5.070 -0.1004  0.3232 -0.0186
 7480SOL    HW133902   1.304   3.378   5.116  1.5497  2.8509  1.4481
 7480SOL    HW233903   1.382   3.413   4.995 -2.0380  0.8090  0.4242
 7481SOL     OW33904   2.036   4.267   4.130  0.2115 -0.5491 -0.0519
 7481SOL    HW133905   2.050   4.181   4.169 -0.6504 -1.5675 -1.9932
 7481SOL    HW233906   2.051   4.242   4.039  2.3875  0.8893 -0.0796
 7482SOL     OW33907   2.790   1.412   7.890  0.3249  0.0963  0.6283
 7482SOL    HW133908   2.812   1.357   7.966  0.4981 -0.0926  0.4421
 7482SOL    HW233909   2.695   1.406   7.890  0.2309  1.8356 -1.0723
 7483SOL     OW33910   2.170   2.703   9.333  0.1774 -0.2584 -0.2901
 7483SOL    HW133911   2.238   2.699   9.399 -1.1859 -0.2033  1.1091
 7483SOL    HW233912   2.101   2.680   9.395  0.3594  0.2624  0.1021
 7484SOL     OW33913   4.031   3.718   2.524 -0.0806 -0.0340  0.1725
 7484SOL    HW133914   3.996   3.764   2.600  0.4691 -0.3842  0.6305
 7484SOL    HW233915   4.060   3.633   2.556 -0.9617  0.4417  2.2273
 7485SOL     OW33916   4.117   1.483  15.990 -0.0445 -1.3885  0.2924
 7485SOL    HW133917   4.103   1.554  15.928 -0.2367 -1.9453 -0.3041
 7485SOL    HW233918   4.181   1.527  16.047  0.8428  0.6830 -2.3146
 7486SOL     OW33919   0.785   4.536  15.487  0.2184  0.5687  0.1090
 7486SOL    HW133920   0.880   4.542  15.477  0.0050  2.3040 -0.8994
 7486SOL    HW233921   0.771   4.442  15.476 -0.1863  0.9707 -2.8521
 7487SOL     OW33922   0.566   2.725  11.607 -0.3963 -0.0310  0.7442
 7487SOL    HW133923   0.589   2.799  11.663  0.6982 -0.8042  1.3377
 7487SOL    HW233924   0.550   2.782  11.533  0.9716  1.6468  1.7420
 7488SOL     OW33925   3.232   0.033   9.107  0.1691 -0.1691 -0.2718
 7488SOL    HW133926   3.285   0.056   9.184  0.0649  3.8512 -1.4135
 7488SOL    HW233927   3.298   4.721   9.050 -0.3577 -0.2120 -0.8472
 7489SOL     OW33928   3.602   4.311   4.685  0.4840 -0.4484  0.2863
 7489SOL    HW133929   3.561   4.232   4.721  2.1624 -0.6908  1.6726
 7489SOL    HW233930   3.614   4.369   4.761 -2.0020 -0.8746  1.0050
 7490SOL     OW33931   4.090   2.255   7.871 -0.2406 -0.0434 -0.3805
 7490SOL    HW133932   4.064   2.317   7.938 -1.6379 -2.0047  0.9037
 7490SOL    HW233933   4.169   2.223   7.915  0.0843  0.1236 -0.8374
 7491SOL     OW33934   4.567   2.794   4.618 -0.2287 -0.1943 -0.2150
 7491SOL    HW133935   4.599   2.782   4.529  0.8252  1.1593 -0.0127
 7491SOL    HW233936   4.519   2.712   4.632 -0.3764  0.1045  1.0424
 7492SOL     OW33937   4.648   1.849   1.528  0.4712 -0.2716  0.3125
 7492SOL    HW133938   4.647   1.770   1.582  1.0308 -1.2595 -1.0999
 7492SOL    HW233939   4.602   1.917   1.577  1.5455  0.9587 -0.3745
 7493SOL     OW33940   3.441   1.084   1.625  0.5831 -0.2361 -0.0774
 7493SOL    HW133941   3.450   1.083   1.720  0.1957  3.3911 -0.0008
 7493SOL    HW233942   3.347   1.093   1.613  0.8719  1.7437 -0.7774
 7494SOL     OW33943   2.735   1.910   8.281 -0.5789 -0.6100  0.1722
 7494SOL    HW133944   2.699   1.998   8.291  0.4419 -0.0777 -0.8627
 7494SOL    HW233945   2.658   1.855   8.267  0.1606 -1.4274 -0.7111
 7495SOL     OW33946   4.097   1.214   0.312  0.1145  0.4023 -0.3023
 7495SOL    HW133947   4.008   1.247   0.297 -0.5069 -0.8308  0.6287
 7495SOL    HW233948   4.075   1.122   0.329  1.1724 -0.1009 -1.6092
 7496SOL     OW33949   4.561   1.685   3.427 -0.0572 -0.2203  0.1055
 7496SOL    HW133950   4.554   1.777   3.402  0.5800 -0.2790 -0.2999
 7496SOL    HW233951   4.471   1.658   3.445 -0.0404 -0.6516 -0.4864
 7497SOL     OW33952   3.247   3.971   5.558 -0.0359  0.2297  0.1270
 7497SOL    HW133953   3.285   3.948   5.473  1.7321 -1.3370  1.3344
 7497SOL    HW233954   3.177   3.912   5.586 -1.7293  1.0075 -2.4400
 7498SOL     OW33955   3.248   2.160   6.732  0.2989 -0.4946 -0.2399
 7498SOL    HW133956   3.296   2.213   6.668  1.2428  1.1012  1.7673
 7498SOL    HW233957   3.290   2.189   6.813 -0.5969  0.6899 -0.1991
 7499SOL     OW33958   3.326   3.094   4.486  0.0473 -0.2834 -0.1627
 7499SOL    HW133959   3.307   3.138   4.403 -0.5987  0.4204  0.3553
 7499SOL    HW233960   3.243   3.085   4.534  0.3985 -1.0466  0.2898
 7500SOL     OW33961   1.426   1.749  10.669  0.0894  0.0387  0.0485
 7500SOL    HW133962   1.387   1.691  10.603 -0.6454  0.4578  0.1110
 7500SOL    HW233963   1.351   1.773  10.724 -1.0177 -0.0589 -1.4139
 7501SOL     OW33964   4.430   0.616   1.386  0.2962  0.1540 -0.0350
 7501SOL    HW133965   4.471   0.569   1.314 -1.0055  0.1019 -0.7409
 7501SOL    HW233966   4.359   0.670   1.352  1.1238  2.3099  1.6487
 7502SOL     OW33967   1.276   3.128  11.845  0.5342 -0.6594 -0.2756
 7502SOL    HW133968   1.193   3.082  11.834  0.7827 -1.4269  1.0269
 7502SOL    HW233969   1.297   3.152  11.755 -3.7352 -0.3569 -1.2181
 7503SOL     OW33970   1.274   2.495  15.092 -0.2989 -0.0937 -0.3043
 7503SOL    HW133971   1.351   2.488  15.148  0.7428  2.3851 -1.4400
 7503SOL    HW233972   1.216   2.432  15.135 -0.6055  0.1162 -0.4056
 7504SOL     OW33973   1.395   0.988   4.277  0.4079 -0.3918  0.0994
 7504SOL    HW133974   1.440   0.965   4.196 -2.2455  0.5464 -1.6236
 7504SOL    HW233975   1.433   1.076   4.281  3.2927 -1.5951 -0.5425
 7505SOL     OW33976   0.795   1.585   7.111  0.2885  0.0908 -0.1187
 7505SOL    HW133977   0.868   1.538   7.071  0.8274  0.9419 -0.1366
 7505SOL    HW233978   0.721   1.526   7.093  1.5599 -1.3341 -0.6568
 7506SOL     OW33979   2.392   1.645  14.940 -0.1350 -0.2594  0.8856
 7506SOL    HW133980   2.444   1.684  15.011 -0.0250  0.3036  0.4918
 7506SOL    HW233981   2.383   1.723  14.886 -1.4532 -1.9547 -1.3341
 7507SOL     OW33982   1.934   3.451   5.467 -0.1708 -0.1889  0.1883
 7507SOL    HW133983   1.903   3.381   5.409  0.0703  0.2037 -0.4259
 7507SOL    HW233984   2.020   3.425   5.500 -0.0032  1.8054  1.3079
 7508SOL     OW33985   1.864   2.897   3.399  0.1062 -0.2106  0.2408
 7508SOL    HW133986   1.960   2.902   3.397 -0.0091  2.0688  1.6017
 7508SOL    HW233987   1.846   2.803   3.390  0.2528 -0.3152  1.1083
 7509SOL     OW33988   0.953   2.906   2.586  0.1396  0.2249 -0.4770
 7509SOL    HW133989   0.898   2.828   2.585  2.0329 -1.0564 -4.2509
 7509SOL    HW233990   0.896   2.982   2.575  1.0356  1.1466  1.2272
 7510SOL     OW33991   4.453   0.051   7.210  0.6072 -0.1720 -0.1214
 7510SOL    HW133992   4.374   0.102   7.228  0.1963 -1.3512  1.4929
 7510SOL    HW233993   4.506   0.119   7.170 -2.6313  2.4659  0.1247
 7511SOL     OW33994   3.639   0.075   8.643 -0.2633  0.9803 -0.0341
 7511SOL    HW133995   3.683   0.042   8.565 -0.9903  0.5989 -0.2847
 7511SOL    HW233996   3.553   0.034   8.632  1.5364 -2.9695  1.0640
 7512SOL     OW33997   3.893   2.556   4.855  0.2052  0.4719 -0.0287
 7512SOL    HW133998   3.895   2.651   4.867 -0.2866  0.4102  0.5640
 7512SOL    HW233999   3.977   2.531   4.815 -0.8206 -0.6569 -1.4774
 7513SOL     OW34000   1.616   1.556   4.304  0.1522 -0.1151  0.2713
 7513SOL    HW134001   1.554   1.627   4.286  0.8919  0.6679  0.7828
 7513SOL    HW234002   1.680   1.563   4.233 -0.9897  1.0605 -0.6482
 7514SOL     OW34003   2.148   4.554   4.275  0.0018 -0.3306  0.0592
 7514SOL    HW134004   2.122   4.629   4.222  1.4265  1.6301  2.1690
 7514SOL    HW234005   2.111   4.476   4.233 -0.6150 -1.0039  1.8311
 7515SOL     OW34006   4.128   0.973  14.348  0.8283  0.1301 -0.2802
 7515SOL    HW134007   4.159   0.913  14.281  1.8676  0.7966 -0.3983
 7515SOL    HW234008   4.132   0.923  14.430 -0.4577 -1.5679 -1.2834
 7516SOL     OW34009   0.522   2.904  11.413  0.2890  0.2800  0.4473
 7516SOL    HW134010   0.439   2.878  11.373  1.5807 -1.4320 -1.1322
 7516SOL    HW234011   0.524   2.999  11.398 -0.1331  0.3259  0.6864
 7517SOL     OW34012   2.266   3.896   0.570  0.9054 -0.3741 -0.7280
 7517SOL    HW134013   2.330   3.899   0.642  0.6539  0.6572 -0.5548
 7517SOL    HW234014   2.236   3.986   0.571  0.7302 -0.4528  2.5314
 7518SOL     OW34015   0.394   3.770   3.667  0.0339  0.0542 -0.8780
 7518SOL    HW134016   0.368   3.693   3.718 -0.8892  0.3070 -0.9550
 7518SOL    HW234017   0.444   3.733   3.594 -1.1418 -1.9893 -0.6553
 7519SOL     OW34018   4.242   1.760   4.187  0.0349  0.0495 -0.1849
 7519SOL    HW134019   4.268   1.843   4.228 -0.5390  0.4599 -0.6592
 7519SOL    HW234020   4.152   1.779   4.160  0.3658 -0.4189 -1.5696
 7520SOL     OW34021   1.179   3.840  17.458  0.5675 -0.3812  0.4191
 7520SOL    HW134022   1.269   3.839  17.489  1.0809  1.1858 -1.0313
 7520SOL    HW234023   1.177   3.763  17.401  1.4185 -1.9785  2.5357
 7521SOL     OW34024   1.668   0.824   6.900 -0.4062  0.1128 -0.0115
 7521SOL    HW134025   1.711   0.903   6.932  0.9727 -0.1596 -1.1807
 7521SOL    HW234026   1.580   0.824   6.938 -0.8703  1.3744 -1.0977
 7522SOL     OW34027   4.405   4.201   5.252  0.5124  0.6781 -0.5495
 7522SOL    HW134028   4.449   4.126   5.212  0.4016  0.8007 -0.9029
 7522SOL    HW234029   4.429   4.272   5.192 -2.3354  0.9275 -1.4158
 7523SOL     OW34030   0.464   0.575  15.356  0.2153  0.1682  0.2324
 7523SOL    HW134031   0.427   0.621  15.281 -1.8616 -0.1858  1.0260
 7523SOL    HW234032   0.509   0.648  15.398  2.5862 -0.5307 -1.1074
 7524SOL     OW34033   0.215   0.691   5.504 -1.4373  0.1383 -0.1511
 7524SOL    HW134034   0.226   0.778   5.543  1.8197 -1.5761  2.7100
 7524SOL    HW234035   0.286   0.642   5.546  0.8370  1.3587 -2.5526
 7525SOL     OW34036   0.443   1.241  16.904  0.1902  0.1813 -0.4773
 7525SOL    HW134037   0.433   1.310  16.969 -2.4198  0.6002 -1.3267
 7525SOL    HW234038   0.534   1.255  16.877  0.1483  3.3779  1.0846
 7526SOL     OW34039   0.873   4.336  11.004  0.3431  0.3106 -0.1465
 7526SOL    HW134040   0.905   4.318  10.915  1.6416  0.6133  0.2540
 7526SOL    HW234041   0.932   4.281  11.055 -0.0012 -0.8921 -1.0601
 7527SOL     OW34042   1.551   2.064  14.883 -0.0602 -0.2797 -0.1581
 7527SOL    HW134043   1.513   2.121  14.816 -0.7565  0.4950  0.8921
 7527SOL    HW234044   1.635   2.108  14.894 -1.6324  2.9012 -0.9404
 7528SOL     OW34045   0.949   2.083   7.474  0.2782 -1.1793  0.0827
 7528SOL    HW134046   0.860   2.050   7.461 -0.8517  0.9684  2.4542
 7528SOL    HW234047   0.980   2.095   7.384 -1.5349 -0.3251 -0.4283
 7529SOL     OW34048   0.498   3.723  17.101  0.2216  0.1414  0.1096
 7529SOL    HW134049   0.469   3.660  17.035 -2.2630 -0.8218  2.0756
 7529SOL    HW234050   0.427   3.787  17.107 -0.5798 -0.7248 -0.2091
 7530SOL     OW34051   0.167   1.808   7.587 -0.2523 -0.0972  0.0830
 7530SOL    HW134052   0.073   1.789   7.596 -0.3910  1.2675  1.5785
 7530SOL    HW234053   0.190   1.754   7.511  0.5383  1.1718 -0.5830
 7531SOL     OW34054   3.307   2.461   3.614 -0.3483 -0.1716  0.0440
 7531SOL    HW134055   3.271   2.525   3.675  0.5290  0.0046  0.3837
 7531SOL    HW234056   3.355   2.403   3.674  0.1486 -0.4764 -0.6445
 7532SOL     OW34057   4.159   0.809  10.585  0.4485  0.3035 -0.5585
 7532SOL    HW134058   4.161   0.722  10.544  1.6244 -0.9488  2.1445
 7532SOL    HW234059   4.249   0.812  10.618  0.5198 -0.2438 -0.6986
 7533SOL     OW34060   3.903   1.286  11.311  0.2987 -0.3544  0.4861
 7533SOL    HW134061   3.871   1.343  11.241 -0.9240 -0.5873  0.8391
 7533SOL    HW234062   3.904   1.345  11.386  2.3739  0.1950  0.0010
 7534SOL     OW34063   1.068   2.070  12.744 -0.6400 -0.0949 -0.1772
 7534SOL    HW134064   1.127   2.004  12.779  0.0771 -1.0664 -3.1992
 7534SOL    HW234065   1.122   2.102  12.672  1.1084 -1.9552  0.3142
 7535SOL     OW34066   3.718   2.052   7.511  0.3319  0.1241 -0.0400
 7535SOL    HW134067   3.709   2.125   7.448  0.9711  0.5562  0.3675
 7535SOL    HW234068   3.756   2.100   7.585 -1.1371  1.6029 -0.2411
 7536SOL     OW34069   0.812   1.015   7.927 -0.1224 -0.4493  0.4707
 7536SOL    HW134070   0.754   1.090   7.939 -0.9666 -1.0386  0.0626
 7536SOL    HW234071   0.828   1.014   7.833  1.1835  2.2470  0.6511
 7537SOL     OW34072   4.304   4.197   6.378 -0.7320 -0.1217 -0.3960
 7537SOL    HW134073   4.314   4.168   6.287  3.1972  0.3241 -0.0964
 7537SOL    HW234074   4.216   4.231   6.362 -1.2946 -0.4990  1.8626
 7538SOL     OW34075   1.118   3.556  16.758  0.1339 -0.5226  0.2251
 7538SOL    HW134076   1.119   3.650  16.779 -1.6798 -0.6144  0.6594
 7538SOL    HW234077   1.041   3.554  16.702  1.7606  2.2468 -2.1833
 7539SOL     OW34078   2.923   0.240   2.846 -0.7138 -0.5967 -0.3284
 7539SOL    HW134079   2.929   0.326   2.890  0.8452 -0.5402 -0.6764
 7539SOL    HW234080   2.893   0.262   2.758 -0.8555 -1.6082 -0.5292
 7540SOL     OW34081   2.197   0.929   2.354  0.6792 -0.2987  0.1676
 7540SOL    HW134082   2.239   1.013   2.371  0.2574 -0.2017  0.7176
 7540SOL    HW234083   2.213   0.887   2.438 -0.1781  0.8452  0.8927
 7541SOL     OW34084   2.403   2.425  16.305 -0.3608  0.2124  0.0953
 7541SOL    HW134085   2.340   2.477  16.256  0.8523  1.2464 -0.3800
 7541SOL    HW234086   2.383   2.337  16.273 -2.1225  1.1981 -1.5580
 7542SOL     OW34087   4.308   3.664   4.549 -0.2090  0.3170  0.2211
 7542SOL    HW134088   4.364   3.738   4.527  0.9261  0.1929  2.6589
 7542SOL    HW234089   4.286   3.685   4.640 -0.5657 -0.1498  0.2449
 7543SOL     OW34090   1.555   3.817   0.717 -0.0092 -0.1851 -0.1971
 7543SOL    HW134091   1.526   3.869   0.642 -2.8550  0.8827  1.6751
 7543SOL    HW234092   1.563   3.733   0.671  0.2408 -2.3185  3.7932
 7544SOL     OW34093   3.859   1.906  12.196 -0.6924  0.1965 -0.0785
 7544SOL    HW134094   3.817   1.832  12.240  0.0312 -1.7990 -2.7489
 7544SOL    HW234095   3.951   1.885  12.213 -1.2959 -1.4286  1.2195
 7545SOL     OW34096   1.591   0.137   5.598  0.1903 -0.0186 -0.5952
 7545SOL    HW134097   1.573   0.044   5.602  1.8974 -0.3355 -0.0644
 7545SOL    HW234098   1.541   0.165   5.675  0.3028  1.5552 -1.0803
 7546SOL     OW34099   1.256   2.438   4.779  0.2023 -0.4807  0.0972
 7546SOL    HW134100   1.266   2.533   4.770  1.8097 -0.7850 -1.3184
 7546SOL    HW234101   1.275   2.423   4.871  0.9529 -2.3412 -0.3557
 7547SOL     OW34102   1.107   3.943   5.082 -0.3117 -0.1213  0.4727
 7547SOL    HW134103   1.147   3.873   5.030 -0.4691  1.3606 -1.6459
 7547SOL    HW234104   1.176   3.967   5.144 -2.2118  1.2877  2.0629
 7548SOL     OW34105   1.639   4.469   5.761 -0.1637 -0.0610 -0.1809
 7548SOL    HW134106   1.581   4.513   5.699  0.8945  1.0205 -0.4045
 7548SOL    HW234107   1.719   4.493   5.714  0.4726  0.7704  1.3074
 7549SOL     OW34108   3.586   4.029   8.212 -0.0450  0.3322 -0.3426
 7549SOL    HW134109   3.524   4.045   8.283 -0.3407  0.1949 -0.5677
 7549SOL    HW234110   3.543   3.968   8.152 -2.2089 -0.5391  2.1286
 7550SOL     OW34111   0.419   3.656   2.230 -0.3212 -0.3409 -0.1092
 7550SOL    HW134112   0.489   3.646   2.165 -0.5233  0.9549 -0.5134
 7550SOL    HW234113   0.339   3.653   2.178 -1.1883  2.8112  1.0661
 7551SOL     OW34114   0.004   0.066  17.488 -0.0311 -0.2548  0.1560
 7551SOL    HW134115   4.685   0.056  17.572 -0.0821  2.2872  0.4450
 7551SOL    HW234116   4.678   0.139  17.453  2.1363  2.7437  3.3082
 7552SOL     OW34117   0.123   4.723   5.540 -0.1384 -0.0421  0.0489
 7552SOL    HW134118   0.112   4.692   5.450 -0.3919 -3.8048  1.3939
 7552SOL    HW234119   0.206   0.040   5.518 -1.1707  0.5866 -2.6714
 7553SOL     OW34120   0.955   3.928  12.300 -0.4887  0.7891 -0.0191
 7553SOL    HW134121   0.893   3.931  12.373 -1.4532 -1.3185 -0.7721
 7553SOL    HW234122   0.903   3.861  12.255  1.2955 -2.1573  2.3408
 7554SOL     OW34123   1.270   1.495   0.326 -0.2955 -0.2429 -1.1020
 7554SOL    HW134124   1.362   1.511   0.304  0.1614 -0.8434  0.3925
 7554SOL    HW234125   1.263   1.409   0.286 -1.0740  0.1636 -1.8582
 7555SOL     OW34126   0.784   2.429  12.944 -0.2697  0.4752  0.3684
 7555SOL    HW134127   0.698   2.452  12.910 -0.3853  0.6491  0.7789
 7555SOL    HW234128   0.816   2.368  12.878 -0.6214 -1.2800  1.8057
 7556SOL     OW34129   1.941   1.686   4.678 -0.1148  0.5025 -0.4717
 7556SOL    HW134130   1.847   1.684   4.658 -0.3792  1.4680  0.6956
 7556SOL    HW234131   1.941   1.775   4.712 -0.0903  1.0070 -1.7703
 7557SOL     OW34132   0.751   1.242  15.942 -0.2460 -0.2941 -0.2705
 7557SOL    HW134133   0.761   1.154  15.979 -1.4707 -0.4404 -0.2820
 7557SOL    HW234134   0.796   1.238  15.857  2.3893  0.8137  1.0932
 7558SOL     OW34135   1.031   2.636   4.570 -0.0971  0.3490  0.1652
 7558SOL    HW134136   0.996   2.557   4.529  0.3358  0.5440 -0.5775
 7558SOL    HW234137   1.062   2.686   4.495  2.5784 -1.5900 -0.0147
 7559SOL     OW34138   2.150   4.664   9.437 -0.3827 -0.0190  0.2134
 7559SOL    HW134139   2.089   0.006   9.408  0.2767  0.2485 -0.5751
 7559SOL    HW234140   2.105   4.647   9.519 -3.2019 -0.6767 -1.4653
 7560SOL     OW34141   2.891   4.563   8.791 -0.2650  0.0563  0.1649
 7560SOL    HW134142   2.806   4.578   8.750 -1.6177 -2.0246  2.2249
 7560SOL    HW234143   2.872   4.575   8.884  1.9795  0.5606  0.5666
 7561SOL     OW34144   0.105   0.458   2.117  0.0508  0.2245 -0.5089
 7561SOL    HW134145   0.019   0.416   2.109  0.7645 -1.5667  1.0590
 7561SOL    HW234146   0.126   0.416   2.200  1.0260  2.8302  0.5430
 7562SOL     OW34147   2.114   2.907   9.627  1.4228  0.4883  0.1700
 7562SOL    HW134148   2.059   2.876   9.555  0.5608 -0.9517  1.4419
 7562SOL    HW234149   2.072   2.989   9.651  1.0082  0.0264  0.9989
 7563SOL     OW34150   1.132   1.463   8.560 -0.0437  0.0971 -0.3943
 7563SOL    HW134151   1.072   1.429   8.494  0.8581  0.1946 -1.2651
 7563SOL    HW234152   1.168   1.541   8.517  1.2250  0.1134  0.6939
 7564SOL     OW34153   1.829   0.664   8.161  0.7842  0.3762  0.0972
 7564SOL    HW134154   1.752   0.613   8.185  1.6595 -1.1401 -0.3703
 7564SOL    HW234155   1.874   0.607   8.100  0.4724  1.5878 -1.2862
 7565SOL     OW34156   2.435   1.939   8.621 -0.1397 -0.2375  0.0080
 7565SOL    HW134157   2.480   1.987   8.691  0.4906  0.2491 -0.7431
 7565SOL    HW234158   2.392   2.014   8.581  2.2757  0.2614 -1.6112
 7566SOL     OW34159   3.973   3.714   7.189 -0.3921  0.4430  0.1306
 7566SOL    HW134160   3.906   3.762   7.139  0.5348 -0.2965 -1.8380
 7566SOL    HW234161   3.938   3.721   7.278 -1.9934 -1.2664 -0.3401
 7567SOL     OW34162   4.346   1.366   7.889  0.5376 -0.3008 -0.2013
 7567SOL    HW134163   4.356   1.291   7.947 -0.7797 -1.2128 -1.1396
 7567SOL    HW234164   4.432   1.407   7.895 -0.0649  0.8011  0.9963
 7568SOL     OW34165   4.582   3.644   4.286 -0.7195  0.1814 -0.4494
 7568SOL    HW134166   4.518   3.664   4.218 -1.6186  2.9454  1.2010
 7568SOL    HW234167   4.669   3.668   4.254  0.0825  1.1186  2.4512
 7569SOL     OW34168   4.718   1.509   5.919 -0.5555 -0.0103  0.3233
 7569SOL    HW134169   4.665   1.472   5.989 -0.9734 -1.3731 -0.7138
 7569SOL    HW234170   4.661   1.501   5.842  1.6747  0.6491 -1.4068
 7570SOL     OW34171   2.115   0.824   9.281 -0.2994 -0.1681 -0.1391
 7570SOL    HW134172   2.179   0.879   9.236 -0.0602 -0.6396 -0.3728
 7570SOL    HW234173   2.105   0.749   9.222 -0.8083 -0.1538 -0.0760
 7571SOL     OW34174   3.923   0.750   6.434 -0.1203  0.5868  0.1453
 7571SOL    HW134175   3.989   0.684   6.457 -0.9946  0.4029  2.0938
 7571SOL    HW234176   3.962   0.828   6.473  0.0645  1.2386 -1.3681
 7572SOL     OW34177   0.417   2.470   7.050 -0.0059  0.0271  0.7228
 7572SOL    HW134178   0.345   2.422   7.010  1.5282 -3.2195  1.8584
 7572SOL    HW234179   0.480   2.449   6.981  0.0103 -0.0925  0.7728
 7573SOL     OW34180   3.652   2.703   6.391  0.0824  0.2996 -0.6667
 7573SOL    HW134181   3.739   2.735   6.367  0.3064  0.7473  0.7608
 7573SOL    HW234182   3.612   2.700   6.304 -2.3829  1.2713  0.4557
 7574SOL     OW34183   0.053   0.862   0.873  0.4439  0.3073  0.4315
 7574SOL    HW134184   0.015   0.860   0.785  0.6925 -2.2817  0.3900
 7574SOL    HW234185   4.708   0.815   0.917 -2.0887  2.1727 -1.6395
 7575SOL     OW34186   3.939   1.803  11.797 -0.4466  0.0403 -0.1776
 7575SOL    HW134187   3.977   1.880  11.840 -1.4761  0.7979 -0.6295
 7575SOL    HW234188   3.991   1.727  11.822  0.2885  0.4916 -0.3224
 7576SOL     OW34189   1.690   0.890   4.406  0.6331  0.1581 -0.2219
 7576SOL    HW134190   1.623   0.954   4.428  0.1805  0.3365 -2.1531
 7576SOL    HW234191   1.708   0.851   4.492 -0.6666 -0.9107 -0.4331
 7577SOL     OW34192   3.372   0.391  11.530 -0.3197 -0.0515 -0.1904
 7577SOL    HW134193   3.318   0.470  11.532 -0.4501 -0.1224 -1.3594
 7577SOL    HW234194   3.384   0.370  11.623 -0.0585  0.4620 -0.1084
 7578SOL     OW34195   0.199   2.107  10.216 -0.3029  0.4076 -0.0298
 7578SOL    HW134196   0.277   2.062  10.184 -1.1727 -0.6920 -0.5874
 7578SOL    HW234197   0.132   2.043  10.192  1.2096 -1.6922  1.3134
 7579SOL     OW34198   4.434   0.168   8.723  0.3472  0.0621 -0.6829
 7579SOL    HW134199   4.465   0.257   8.739 -0.5931 -0.2931  3.0206
 7579SOL    HW234200   4.385   0.148   8.803 -0.2606  1.7836 -0.6207
 7580SOL     OW34201   0.483   0.295   3.757  0.3957  0.3147  0.1962
 7580SOL    HW134202   0.545   0.319   3.688  0.8965  1.5549  1.0967
 7580SOL    HW234203   0.475   0.203   3.731 -1.9921  0.3677  0.6760
 7581SOL     OW34204   2.958   3.907   1.092 -0.0824 -0.7392  0.4547
 7581SOL    HW134205   2.865   3.925   1.077 -0.3427 -1.7708  0.8227
 7581SOL    HW234206   2.973   3.927   1.184 -3.3845 -0.6219  0.9459
 7582SOL     OW34207   2.630   3.163   0.241  0.9944 -0.3515  0.2668
 7582SOL    HW134208   2.710   3.135   0.197  0.9666 -0.4688  0.2908
 7582SOL    HW234209   2.675   3.197   0.319  0.2023 -1.3574  1.1569
 7583SOL     OW34210   0.082   4.253   2.428 -0.2367 -0.0528 -0.5669
 7583SOL    HW134211   0.078   4.349   2.426  2.0917  0.0829  2.0367
 7583SOL    HW234212   0.007   4.228   2.374  0.1858 -0.5462 -0.9286
 7584SOL     OW34213   2.473   3.199   3.234 -0.1666 -0.5278 -0.2833
 7584SOL    HW134214   2.557   3.174   3.197 -0.7350  0.1680 -2.0644
 7584SOL    HW234215   2.437   3.282   3.201  0.1437  0.0047  0.7211
 7585SOL     OW34216   1.940   0.898  17.099  0.6754  0.2174  0.5911
 7585SOL    HW134217   1.858   0.897  17.049  1.5628  0.2262 -0.8775
 7585SOL    HW234218   1.948   0.994  17.101 -1.5878  0.4301 -1.1422
 7586SOL     OW34219   1.024   3.268   0.590 -1.0219 -0.0446 -0.0277
 7586SOL    HW134220   0.964   3.197   0.613  0.6603 -1.1271  0.9764
 7586SOL    HW234221   1.003   3.343   0.645  0.2164 -0.5415  1.1263
 7587SOL     OW34222   1.674   3.830   6.197 -0.2708  0.5447 -0.4210
 7587SOL    HW134223   1.735   3.792   6.134  1.2007  1.0028  0.7359
 7587SOL    HW234224   1.659   3.914   6.155 -1.7032  0.9511  0.9078
 7588SOL     OW34225   4.695   1.713   4.477 -0.1880  0.3030  0.0243
 7588SOL    HW134226   0.033   1.700   4.407 -0.6269 -0.2915 -0.2649
 7588SOL    HW234227   4.718   1.799   4.512 -1.1076  0.2674  0.7048
 7589SOL     OW34228   3.379   2.077  15.099  0.0962 -0.6425 -0.0657
 7589SOL    HW134229   3.313   2.011  15.114 -1.6029  0.9242 -0.6652
 7589SOL    HW234230   3.431   2.062  15.178  0.0118 -0.7742 -0.0364
 7590SOL     OW34231   3.476   2.125   3.486 -0.1557 -0.3820 -0.5583
 7590SOL    HW134232   3.498   2.137   3.393  1.8064 -0.0537 -0.0540
 7590SOL    HW234233   3.399   2.069   3.473  0.1266 -0.5710 -1.4431
 7591SOL     OW34234   3.586   4.717  12.963  0.3028 -0.1827 -0.5964
 7591SOL    HW134235   3.678   0.017  12.975  0.3415 -0.3443 -0.5433
 7591SOL    HW234236   3.544   0.076  12.951 -1.4764 -1.0727 -0.6815
 7592SOL     OW34237   0.152   3.882   7.481 -0.0581  0.0639 -0.2217
 7592SOL    HW134238   0.235   3.835   7.483  1.2224  2.2194 -2.9959
 7592SOL    HW234239   0.149   3.889   7.385  0.3945 -2.4085 -0.4250
 7593SOL     OW34240   2.126   0.625   7.729  0.1649 -0.0676  0.1505
 7593SOL    HW134241   2.189   0.666   7.789  1.6339 -0.1678 -1.3208
 7593SOL    HW234242   2.156   0.671   7.651 -0.4675  0.8927  0.4716
 7594SOL     OW34243   3.897   4.413   1.764 -0.1047  0.4663  0.3882
 7594SOL    HW134244   3.968   4.477   1.769 -1.0191  1.6147 -1.3649
 7594SOL    HW234245   3.939   4.340   1.718  1.2041  1.1340  0.5279
 7595SOL     OW34246   0.727   4.038   3.380  0.0051 -0.0349  0.3609
 7595SOL    HW134247   0.763   3.952   3.362  0.4043  0.2921 -0.3971
 7595SOL    HW234248   0.633   4.017   3.385 -0.5349  2.0296 -0.7114
 7596SOL     OW34249   2.471   2.000  14.392  0.3811  0.2923  0.1270
 7596SOL    HW134250   2.402   2.053  14.352  0.8057  0.6339 -0.1487
 7596SOL    HW234251   2.438   1.913  14.370  0.6365  0.1276  0.3946
 7597SOL     OW34252   1.288   1.774   5.381  0.3399 -0.2617 -0.4270
 7597SOL    HW134253   1.310   1.795   5.472 -1.2135 -1.3448  0.1986
 7597SOL    HW234254   1.278   1.865   5.352  0.1808  0.6444  2.5033
 7598SOL     OW34255   0.067   0.687   7.788 -0.6645  0.0483 -0.3296
 7598SOL    HW134256   0.041   0.595   7.797 -1.7554  0.2849 -1.0939
 7598SOL    HW234257   0.020   0.726   7.861 -0.1480  0.9576 -0.4725
 7599SOL     OW34258   2.990   3.658  15.048  0.2560 -0.5371 -0.6062
 7599SOL    HW134259   2.961   3.585  14.993 -2.2408 -0.8073  1.0955
 7599SOL    HW234260   3.055   3.704  14.994 -0.0848 -0.9119 -1.3306
 7600SOL     OW34261   3.519   1.988   9.171 -0.5913 -0.5611 -0.7817
 7600SOL    HW134262   3.526   1.955   9.261  0.2972  4.3991  0.9296
 7600SOL    HW234263   3.536   2.081   9.179  0.0599 -0.4816 -3.1477
 7601SOL     OW34264   4.471   1.151   9.768  0.3689 -0.4683 -0.2136
 7601SOL    HW134265   4.502   1.151   9.858  3.1218  0.5266 -1.1367
 7601SOL    HW234266   4.538   1.197   9.716  1.2940 -2.0088 -0.3767
 7602SOL     OW34267   3.610   2.720   3.387  0.5685 -0.3505  0.6190
 7602SOL    HW134268   3.521   2.718   3.423  0.3700  0.3618  0.1784
 7602SOL    HW234269   3.633   2.628   3.381 -0.0460 -0.5425  1.2427
 7603SOL     OW34270   2.771   3.504  16.437 -0.1491 -0.4734  0.0232
 7603SOL    HW134271   2.680   3.534  16.438  0.3624  1.0736  1.0015
 7603SOL    HW234272   2.804   3.586  16.400  0.2442 -0.5646  0.1714
 7604SOL     OW34273   1.863   3.578   2.408 -0.3931  0.0109  0.2803
 7604SOL    HW134274   1.896   3.614   2.326 -2.2150 -0.3089 -0.5856
 7604SOL    HW234275   1.934   3.518   2.430 -0.6185  0.6046  2.6385
 7605SOL     OW34276   0.682   0.007   4.581 -0.3652  0.0126 -0.0090
 7605SOL    HW134277   0.676   0.059   4.662  0.4434 -0.8492  0.6150
 7605SOL    HW234278   0.608   4.673   4.585  0.8665 -1.5939 -1.2414
 7606SOL     OW34279   2.254   0.799  10.874 -0.0292 -0.1837 -0.4229
 7606SOL    HW134280   2.343   0.779  10.902 -0.2915 -1.3551 -0.4082
 7606SOL    HW234281   2.243   0.730  10.808 -0.2104 -0.5547 -0.0068
 7607SOL     OW34282   0.833   3.464  16.988  0.4485 -0.2195 -0.1317
 7607SOL    HW134283   0.756   3.446  16.934 -0.0098  1.0969  0.0795
 7607SOL    HW234284   0.797   3.431  17.071 -0.8780 -0.3656 -0.7704
 7608SOL     OW34285   4.315   0.824   7.155 -0.2249  0.1275  0.2107
 7608SOL    HW134286   4.321   0.913   7.189 -0.8072  0.0479  0.5350
 7608SOL    HW234287   4.219   0.821   7.152 -0.1599 -0.4900 -1.4921
 7609SOL     OW34288   0.580   1.051  15.255 -0.1459  0.2801  0.0622
 7609SOL    HW134289   0.640   1.030  15.184  0.2448  2.3423 -0.2305
 7609SOL    HW234290   0.550   1.138  15.229  1.0224  0.5202 -0.4838
 7610SOL     OW34291   4.000   1.119  10.779 -0.0686  0.3980  0.5475
 7610SOL    HW134292   3.970   1.034  10.745  1.3831 -0.3357  1.0725
 7610SOL    HW234293   3.929   1.138  10.840 -1.1641 -1.8301 -0.0385
 7611SOL     OW34294   2.642   2.411   8.301  1.3670  0.6079 -0.0854
 7611SOL    HW134295   2.701   2.336   8.297 -0.1430 -0.5392 -0.6040
 7611SOL    HW234296   2.672   2.458   8.379  0.4095 -0.9622  1.2039
 7612SOL     OW34297   2.144   1.515   1.722 -0.0830 -0.1092  0.7649
 7612SOL    HW134298   2.195   1.590   1.751  0.6824  0.3783 -1.7989
 7612SOL    HW234299   2.126   1.465   1.802  0.8947 -2.3892 -0.4364
 7613SOL     OW34300   4.585   4.718   6.870 -0.2658 -0.0772 -0.3051
 7613SOL    HW134301   4.495   4.722   6.838 -1.1221 -3.1989  1.6519
 7613SOL    HW234302   4.583   0.068   6.928 -1.0103  0.1920 -0.6775
 7614SOL     OW34303   3.664   4.335   7.306 -0.4176  0.6035  0.3028
 7614SOL    HW134304   3.626   4.423   7.308 -0.3200  0.6195  1.5666
 7614SOL    HW234305   3.681   4.314   7.214  1.7854  0.0857  0.8262
 7615SOL     OW34306   4.311   0.936   7.433  0.7474  0.0535  0.7453
 7615SOL    HW134307   4.346   0.850   7.409  0.9549 -0.2406  2.0920
 7615SOL    HW234308   4.239   0.912   7.492  0.1814 -0.9279 -0.3253
 7616SOL     OW34309   3.866   2.257  16.844  0.2256 -0.1813  0.0248
 7616SOL    HW134310   3.791   2.305  16.809  1.6661  2.4040  0.4593
 7616SOL    HW234311   3.941   2.306  16.809 -0.0661  0.4204  0.2431
 7617SOL     OW34312   1.415   3.083   5.128 -0.1247 -0.2592 -0.0733
 7617SOL    HW134313   1.326   3.082   5.164 -1.0796 -0.8428 -2.4179
 7617SOL    HW234314   1.409   3.170   5.088 -1.5367 -0.4923 -0.3625
 7618SOL     OW34315   2.042   0.975   7.183 -0.4274  0.1905 -0.2650
 7618SOL    HW134316   2.118   1.029   7.208 -0.4513 -0.1750  0.5954
 7618SOL    HW234317   2.039   0.900   7.242 -1.6829 -1.5450 -2.5782
 7619SOL     OW34318   0.898   1.758   1.677 -0.1236  0.0932 -0.0991
 7619SOL    HW134319   0.985   1.745   1.714  0.9595 -0.5271 -2.8598
 7619SOL    HW234320   0.886   1.692   1.608  1.6819  0.0366 -0.3628
 7620SOL     OW34321   4.075   3.234   6.355 -0.4143  0.1462  0.1452
 7620SOL    HW134322   4.166   3.222   6.330 -0.1582 -0.4800  1.3800
 7620SOL    HW234323   4.059   3.321   6.319 -1.6532 -0.8988 -1.7935
 7621SOL     OW34324   4.222   1.519   4.411 -0.0143 -0.0308  0.0161
 7621SOL    HW134325   4.252   1.610   4.402  2.2261 -0.5165  2.5405
 7621SOL    HW234326   4.288   1.468   4.365 -0.2786  0.1196 -0.5343
 7622SOL     OW34327   3.611   4.161   2.209  0.0417  0.1093 -0.1679
 7622SOL    HW134328   3.595   4.247   2.249  0.0012 -0.4889  1.1077
 7622SOL    HW234329   3.526   4.119   2.198 -0.0200  0.2654 -0.3006
 7623SOL     OW34330   0.214   0.885   7.696  0.7092 -0.6819 -0.0620
 7623SOL    HW134331   0.148   0.951   7.718  1.1960 -0.2463  0.0984
 7623SOL    HW234332   0.160   0.808   7.712  0.6775 -1.1039 -2.2528
 7624SOL     OW34333   4.161   0.269   2.379 -0.1292 -0.0292 -0.0373
 7624SOL    HW134334   4.071   0.266   2.412 -1.6037  2.4183 -3.8009
 7624SOL    HW234335   4.172   0.189   2.328  0.1248  0.0843 -0.1635
 7625SOL     OW34336   3.560   1.423  15.251 -0.2686  0.0789  0.3609
 7625SOL    HW134337   3.642   1.467  15.230 -1.2808  3.7028  3.9133
 7625SOL    HW234338   3.530   1.478  15.323  1.5215 -0.9175  1.8666
 7626SOL     OW34339   2.297   4.103   3.534 -0.1165  0.1440  0.4526
 7626SOL    HW134340   2.257   4.190   3.537 -0.2281  0.1461 -1.0089
 7626SOL    HW234341   2.246   4.059   3.602 -2.2759 -1.0025 -1.9009
 7627SOL     OW34342   3.767   4.152   8.530 -0.4790 -0.2960 -0.0495
 7627SOL    HW134343   3.695   4.209   8.554  2.5400  3.6560 -0.2786
 7627SOL    HW234344   3.765   4.089   8.601 -2.2644 -0.2113 -0.0423
 7628SOL     OW34345   3.826   2.376  15.951  0.5172 -0.0729 -0.5197
 7628SOL    HW134346   3.798   2.290  15.982  1.8619 -0.6058 -0.7577
 7628SOL    HW234347   3.769   2.427  16.008  1.7499  1.5576 -0.7490
 7629SOL     OW34348   2.632   0.598   1.426 -0.1740 -0.6050  0.8983
 7629SOL    HW134349   2.558   0.654   1.448  0.7197  0.9783 -0.0854
 7629SOL    HW234350   2.693   0.640   1.487 -0.2648  1.5792 -0.5022
 7630SOL     OW34351   2.626   4.582   1.673 -0.5608  0.2414 -0.1852
 7630SOL    HW134352   2.551   4.522   1.674 -1.4892  1.4213  0.4892
 7630SOL    HW234353   2.686   4.543   1.737 -0.6515 -0.4852 -0.5491
 7631SOL     OW34354   2.784   3.014   6.909 -0.5581 -0.3008 -0.2186
 7631SOL    HW134355   2.770   2.920   6.920  0.8631 -0.3747  0.8874
 7631SOL    HW234356   2.773   3.027   6.815 -1.9647  0.7181  0.0898
 7632SOL     OW34357   0.421   4.419   8.035  0.4709 -0.5863  0.0201
 7632SOL    HW134358   0.326   4.415   8.045  0.8112 -0.7009  3.1640
 7632SOL    HW234359   0.437   4.511   8.052 -0.8399 -0.7890  2.2767
 7633SOL     OW34360   4.678   4.551   3.548  0.0972 -0.1909 -0.2985
 7633SOL    HW134361   0.018   4.506   3.601  0.0099  1.7967  1.4818
 7633SOL    HW234362   4.609   4.555   3.614  0.4090 -0.3595  0.0409
 7634SOL     OW34363   2.921   3.955   6.068 -0.3861 -0.0314  0.4822
 7634SOL    HW134364   2.848   4.012   6.043  0.6444  1.0592 -0.0982
 7634SOL    HW234365   2.971   3.977   5.989  1.5935 -4.2539  0.5771
 7635SOL     OW34366   2.654   0.522   4.137  0.9220 -0.0913  0.0980
 7635SOL    HW134367   2.662   0.441   4.086  1.0533  1.7637 -2.8260
 7635SOL    HW234368   2.666   0.479   4.222  0.7434 -1.3156 -0.4920
 7636SOL     OW34369   2.836   3.422  10.986  0.1951 -0.2556 -0.3339
 7636SOL    HW134370   2.878   3.337  11.001 -1.9143 -1.2218  0.0130
 7636SOL    HW234371   2.801   3.445  11.072  0.5637 -0.1390 -0.2146
 7637SOL     OW34372   1.122   1.822   6.266  0.0807 -0.1010  0.0659
 7637SOL    HW134373   1.201   1.841   6.215  0.9436  1.2963  1.9367
 7637SOL    HW234374   1.128   1.733   6.298  0.9011  0.2792  0.9578
 7638SOL     OW34375   0.850   1.313   7.298 -0.0671 -0.1987 -0.1234
 7638SOL    HW134376   0.792   1.364   7.243  0.5038  1.3557  0.6937
 7638SOL    HW234377   0.901   1.373   7.353 -1.3367 -0.4216  1.3147
 7639SOL     OW34378   4.074   3.156   6.011  0.2866 -0.7523  0.4482
 7639SOL    HW134379   4.059   3.213   6.086  0.5802 -1.6683  1.2070
 7639SOL    HW234380   4.130   3.201   5.949 -1.1133  1.3564  0.7018
 7640SOL     OW34381   2.392   2.725   9.945  0.2126  0.0890 -0.0766
 7640SOL    HW134382   2.477   2.760   9.969  0.0680  0.5453 -0.2214
 7640SOL    HW234383   2.349   2.744  10.029 -2.3130  0.5670 -1.4755
 7641SOL     OW34384   1.054   1.894   0.780  0.4904 -0.0995 -0.3119
 7641SOL    HW134385   1.027   1.887   0.689  2.1657  0.6412 -0.8743
 7641SOL    HW234386   0.988   1.835   0.815 -1.1333 -0.1161 -3.4404
 7642SOL     OW34387   0.581   0.889   0.914  0.4394 -0.5607  0.5816
 7642SOL    HW134388   0.660   0.942   0.926  0.6686 -0.7115 -0.2150
 7642SOL    HW234389   0.547   0.915   0.828 -2.3979  1.8434  2.4354
 7643SOL     OW34390   4.299   3.653  12.791 -0.0376 -0.4254 -0.2763
 7643SOL    HW134391   4.218   3.699  12.769  0.0667 -0.3358 -0.4715
 7643SOL    HW234392   4.277   3.568  12.753  2.1494 -0.7645 -0.7890
 7644SOL     OW34393   2.994   4.633   1.264 -0.2822  0.0882 -0.6796
 7644SOL    HW134394   2.995   4.717   1.310 -0.0557 -0.0888 -0.3646
 7644SOL    HW234395   3.056   4.578   1.312  0.2719  2.0546  0.8748
 7645SOL     OW34396   4.420   0.369   5.614 -0.4357  0.0415  0.4066
 7645SOL    HW134397   4.506   0.328   5.623 -0.2962  0.1221 -0.5343
 7645SOL    HW234398   4.379   0.310   5.677 -0.8203  0.5062  0.5986
 7646SOL     OW34399   1.273   3.588   8.427 -0.4405 -0.3011  0.1933
 7646SOL    HW134400   1.352   3.640   8.440  0.2556 -0.3731 -3.8952
 7646SOL    HW234401   1.265   3.590   8.332 -0.1261  1.4250  0.1900
 7647SOL     OW34402   2.601   1.124   2.307  1.0316 -0.4744 -0.4246
 7647SOL    HW134403   2.622   1.156   2.395  1.3890 -0.3147 -0.5704
 7647SOL    HW234404   2.516   1.085   2.331  1.3404  0.0781  1.6187
 7648SOL     OW34405   3.350   2.018  13.902  0.8037 -0.5039 -0.3875
 7648SOL    HW134406   3.276   2.051  13.952  0.6645 -1.3966 -0.0031
 7648SOL    HW234407   3.378   1.933  13.935 -1.3724 -1.2504 -0.4795
 7649SOL     OW34408   4.187   0.147   3.416 -0.7900 -0.0762 -0.1865
 7649SOL    HW134409   4.194   0.238   3.387  2.8204 -1.4084 -3.4737
 7649SOL    HW234410   4.276   0.112   3.414 -1.1446 -1.0580  1.4520
 7650SOL     OW34411   2.508   0.807   2.193  0.1520  0.1971 -0.3581
 7650SOL    HW134412   2.544   0.721   2.170  1.1697  0.7368 -0.7936
 7650SOL    HW234413   2.414   0.788   2.198  0.4788 -1.3882 -0.1239
 7651SOL     OW34414   1.489   1.069   5.361  0.1040  0.4064 -0.1456
 7651SOL    HW134415   1.456   1.061   5.271  0.1854  1.6929 -0.3011
 7651SOL    HW234416   1.541   0.991   5.376 -0.5198  0.0438  0.1404
 7652SOL     OW34417   2.532   1.247   8.820 -0.2839 -0.5074  0.2789
 7652SOL    HW134418   2.531   1.222   8.913 -0.4235  1.9650  0.9471
 7652SOL    HW234419   2.448   1.213   8.788 -0.6941 -0.7183  1.5622
 7653SOL     OW34420   3.187   0.437  10.363 -0.0648  0.2256  0.6868
 7653SOL    HW134421   3.277   0.470  10.371  0.8313 -1.9708 -0.7123
 7653SOL    HW234422   3.194   0.347  10.395 -1.8939 -0.0376  0.3220
 7654SOL     OW34423   3.124   0.525   2.699  0.5870  0.0496 -0.5195
 7654SOL    HW134424   3.062   0.487   2.636 -0.1398  0.2289  0.0962
 7654SOL    HW234425   3.142   0.610   2.659  0.2291  0.5451  0.3769
 7655SOL     OW34426   4.463   1.799   8.504  0.0722 -0.0499 -0.6379
 7655SOL    HW134427   4.391   1.848   8.465  0.9051  0.3586 -1.6710
 7655SOL    HW234428   4.514   1.774   8.426  0.6272 -1.3254  0.1330
 7656SOL     OW34429   2.815   3.180   4.562  0.4918  0.1259 -0.5494
 7656SOL    HW134430   2.746   3.150   4.622  2.7954 -1.2690  1.4022
 7656SOL    HW234431   2.846   3.256   4.611 -0.2752  0.5150 -0.6689
 7657SOL     OW34432   3.687   3.426  16.088 -0.2431  0.0496 -0.0935
 7657SOL    HW134433   3.627   3.486  16.044  0.4431  0.1287 -0.9236
 7657SOL    HW234434   3.641   3.411  16.171  1.3897 -2.0198  0.4344
 7658SOL     OW34435   1.341   2.546  16.915  0.6027 -0.3826  0.5523
 7658SOL    HW134436   1.412   2.498  16.872  1.1250  0.7751  0.1281
 7658SOL    HW234437   1.344   2.618  16.852  1.6492 -1.3437 -0.4856
 7659SOL     OW34438   4.671   4.652  15.226 -0.5310 -0.7651 -0.6728
 7659SOL    HW134439   4.722   4.658  15.307  0.7677 -0.8052 -1.5001
 7659SOL    HW234440   4.590   4.612  15.257 -0.4522 -0.6325 -0.2802
 7660SOL     OW34441   4.184   2.937   3.118 -0.1864  0.2968 -0.4268
 7660SOL    HW134442   4.201   3.002   3.186 -1.1204 -0.5898  0.6611
 7660SOL    HW234443   4.183   2.996   3.042 -2.2009  0.2116 -0.4537
 7661SOL     OW34444   1.088   3.441   6.611  0.1517 -0.1120  0.4706
 7661SOL    HW134445   1.068   3.443   6.705 -3.6182  2.8741 -0.3884
 7661SOL    HW234446   1.115   3.532   6.599  1.6601 -0.3149  2.3812
 7662SOL     OW34447   1.273   4.680   5.193 -0.1253 -0.0850  0.4872
 7662SOL    HW134448   1.289   4.607   5.253 -1.1714 -1.1044 -0.4923
 7662SOL    HW234449   1.336   4.667   5.123  0.4797  0.7527  0.8701
 7663SOL     OW34450   1.452   1.978   8.769 -0.2103  0.3883  0.5517
 7663SOL    HW134451   1.485   1.917   8.834 -1.1183 -0.5843  0.1027
 7663SOL    HW234452   1.532   2.003   8.723 -0.6554  1.4554  0.3696
 7664SOL     OW34453   2.562   1.949   6.231  0.0637 -0.0157  0.4560
 7664SOL    HW134454   2.561   2.027   6.175 -0.4443 -0.4851 -0.1844
 7664SOL    HW234455   2.502   1.975   6.301 -0.1763  2.4005 -0.6330
 7665SOL     OW34456   1.415   0.337   9.360 -0.1485  0.2519 -0.1971
 7665SOL    HW134457   1.368   0.417   9.382 -0.5998  0.3395 -1.4700
 7665SOL    HW234458   1.424   0.359   9.267  2.6800  1.8712  0.4619
 7666SOL     OW34459   1.359   3.427  12.618 -0.2178  0.2345 -0.2262
 7666SOL    HW134460   1.281   3.453  12.570 -0.7809 -1.2994 -0.1255
 7666SOL    HW234461   1.428   3.444  12.553 -0.1695  1.0021  0.0267
 7667SOL     OW34462   3.403   2.913  11.640 -0.5523  0.8096 -1.0436
 7667SOL    HW134463   3.458   2.991  11.632  0.1448  0.2787 -1.3927
 7667SOL    HW234464   3.318   2.957  11.649 -0.2619  0.8641  1.4471
 7668SOL     OW34465   2.727   0.300  11.222 -0.0333  0.0858  0.4159
 7668SOL    HW134466   2.696   0.390  11.232  1.0598  0.5643 -0.4055
 7668SOL    HW234467   2.729   0.265  11.311  3.1100 -2.9347 -0.8365
 7669SOL     OW34468   1.934   2.941   5.296 -0.1629  0.2077  0.1299
 7669SOL    HW134469   1.918   3.022   5.344  1.8611  0.8759 -0.3468
 7669SOL    HW234470   2.022   2.957   5.262 -1.3856  2.5575 -1.9149
 7670SOL     OW34471   1.679   1.067  16.995 -0.0278  0.1600 -0.0667
 7670SOL    HW134472   1.672   1.089  17.088  1.2847 -0.0994  0.0981
 7670SOL    HW234473   1.683   1.154  16.956  0.9263  0.7553  1.3792
 7671SOL     OW34474   2.744   1.018  14.048 -0.0486  0.3890 -0.0906
 7671SOL    HW134475   2.696   0.974  14.118  0.0591 -1.8046 -1.4030
 7671SOL    HW234476   2.689   1.003  13.971 -2.1234  1.8830  1.1252
 7672SOL     OW34477   2.795   4.678  13.400 -0.2857 -0.2386 -0.2744
 7672SOL    HW134478   2.711   4.639  13.376 -0.1100 -1.7149  1.5101
 7672SOL    HW234479   2.771   4.724  13.481 -0.9265  0.0824 -0.6444
 7673SOL     OW34480   3.048   3.495   6.958  0.0059  0.3875 -0.7614
 7673SOL    HW134481   3.073   3.583   6.986 -0.1506 -0.3094  1.5591
 7673SOL    HW234482   2.958   3.497   6.992  0.8277  3.1204  1.2561
 7674SOL     OW34483   1.583   4.708   8.503  0.0168  0.4180  0.0512
 7674SOL    HW134484   1.602   4.689   8.411 -0.9047 -1.2431  0.1963
 7674SOL    HW234485   1.668   4.723   8.545 -0.2990  1.6703  0.2532
 7675SOL     OW34486   2.942   0.825   4.682  0.4956 -0.2420  0.4572
 7675SOL    HW134487   2.968   0.737   4.655 -0.8573 -0.6541  0.4984
 7675SOL    HW234488   2.849   0.829   4.658  0.7151  1.7201 -0.0089
 7676SOL     OW34489   3.262   4.493  10.844  0.4980 -0.2934 -0.2895
 7676SOL    HW134490   3.316   4.565  10.813 -0.2965 -1.5925 -4.7218
 7676SOL    HW234491   3.248   4.528  10.932  1.1965 -0.4041 -0.1308
 7677SOL     OW34492   1.658   2.908   3.579 -0.2983  0.1981  0.0727
 7677SOL    HW134493   1.717   2.899   3.654 -1.3524 -2.8432  0.5294
 7677SOL    HW234494   1.727   2.911   3.512 -0.8833 -0.7705 -0.5825
 7678SOL     OW34495   2.247   1.112   7.290 -0.1568 -0.0867 -0.8969
 7678SOL    HW134496   2.204   1.111   7.376 -1.9523 -0.5135 -1.8166
 7678SOL    HW234497   2.330   1.160   7.302 -1.0464  0.7772  1.8507
 7679SOL     OW34498   4.686   0.271   5.173 -1.0332 -0.3038 -0.8833
 7679SOL    HW134499   0.044   0.294   5.134 -0.4249 -2.1135 -0.6470
 7679SOL    HW234500   4.703   0.293   5.265 -0.8418  0.7830 -1.1767
 7680SOL     OW34501   2.599   3.795   6.251 -0.1500  0.4925 -0.5839
 7680SOL    HW134502   2.685   3.774   6.287  0.8788 -0.6696 -3.7564
 7680SOL    HW234503   2.583   3.886   6.275 -0.5385  0.2655  0.0403
 7681SOL     OW34504   1.902   4.200  15.112 -0.0942 -0.1063  0.1118
 7681SOL    HW134505   1.954   4.130  15.151 -0.8035 -0.8580 -0.3213
 7681SOL    HW234506   1.924   4.269  15.176 -0.1342 -0.3733  0.4112
 7682SOL     OW34507   0.183   2.415  15.796  0.0339  0.5228  0.0744
 7682SOL    HW134508   0.139   2.449  15.718  1.8796  2.8133  0.0220
 7682SOL    HW234509   0.164   2.486  15.858  2.6681  0.6454  0.7731
 7683SOL     OW34510   2.933   0.300   8.180 -0.8372 -0.9309 -0.4091
 7683SOL    HW134511   2.952   0.380   8.130  0.8092 -1.2811 -0.3601
 7683SOL    HW234512   2.859   0.257   8.138 -0.8812 -1.2609  0.0070
 7684SOL     OW34513   4.524   4.626   7.807  0.3502  0.7840 -0.2764
 7684SOL    HW134514   4.477   4.544   7.791 -1.3732  1.5602  0.7409
 7684SOL    HW234515   4.609   4.584   7.807  0.5995  1.2847  0.0450
 7685SOL     OW34516   2.793   2.172   8.248  0.0621 -0.2028 -0.5644
 7685SOL    HW134517   2.881   2.159   8.212 -0.0049 -2.6773  0.1312
 7685SOL    HW234518   2.753   2.180   8.162 -2.3056  0.1250  0.5634
 7686SOL     OW34519   1.838   0.519   7.503  0.5514  0.1284  0.1248
 7686SOL    HW134520   1.839   0.488   7.594 -2.6409 -2.6810 -0.7924
 7686SOL    HW234521   1.744   0.535   7.494  0.8447  1.4838 -0.4881
 7687SOL     OW34522   2.719   2.676   7.854  0.3617 -0.1906 -0.8112
 7687SOL    HW134523   2.778   2.693   7.781 -0.4646  1.6022 -1.0625
 7687SOL    HW234524   2.652   2.626   7.809 -1.9037  1.2397  0.9407
 7688SOL     OW34525   4.521   1.900   1.095 -0.1857 -0.8433  0.0333
 7688SOL    HW134526   4.432   1.932   1.079  0.6220  0.2486 -2.3095
 7688SOL    HW234527   4.499   1.858   1.178 -2.0140  1.3252  0.6748
 7689SOL     OW34528   2.449   3.761  13.869 -0.1187 -0.0575 -0.2942
 7689SOL    HW134529   2.538   3.747  13.839  0.1738  0.2767  0.4029
 7689SOL    HW234530   2.466   3.805  13.953  0.6593  0.0700 -0.5172
 7690SOL     OW34531   2.816   2.667  13.591  0.0141 -0.4825 -0.1142
 7690SOL    HW134532   2.755   2.645  13.661 -1.3818  1.5097 -0.7031
 7690SOL    HW234533   2.895   2.623  13.622  0.9304  0.5469 -0.9828
 7691SOL     OW34534   0.557   0.875   9.693 -0.4537 -0.8560  0.0831
 7691SOL    HW134535   0.648   0.851   9.674 -0.1168  1.8281 -1.7612
 7691SOL    HW234536   0.558   0.853   9.786  2.1767  0.4211  0.3451
 7692SOL     OW34537   0.827   3.060   7.475  0.4767 -0.1411  0.4367
 7692SOL    HW134538   0.777   3.103   7.545 -0.0474  1.0933 -0.7024
 7692SOL    HW234539   0.754   3.002   7.450 -0.8380  2.1295 -0.9155
 7693SOL     OW34540   2.916   1.636   3.693 -0.1281  0.1026 -0.0726
 7693SOL    HW134541   3.001   1.595   3.708 -0.6872 -2.2604 -3.4482
 7693SOL    HW234542   2.876   1.636   3.780  2.9734  2.1220  1.3149
 7694SOL     OW34543   0.394   4.147   2.916 -0.3481 -0.2032 -0.5841
 7694SOL    HW134544   0.387   4.226   2.862  0.6076  1.3336  1.5127
 7694SOL    HW234545   0.464   4.107   2.866  0.1733 -0.6367  0.5077
 7695SOL     OW34546   3.764   4.663   3.312  0.3638 -0.0639 -0.4923
 7695SOL    HW134547   3.784   4.721   3.238  1.5154 -0.7264 -0.7088
 7695SOL    HW234548   3.841   4.605   3.312  0.1209 -0.3833 -0.4005
 7696SOL     OW34549   2.832   1.480   5.910 -0.4550  1.0339  0.2729
 7696SOL    HW134550   2.763   1.518   5.964 -0.1138  0.8166  0.8630
 7696SOL    HW234551   2.778   1.456   5.835  0.2122 -1.8254  0.7096
 7697SOL     OW34552   0.071   2.228  15.340 -0.1455 -0.3017  0.4091
 7697SOL    HW134553   0.145   2.185  15.383  0.8310 -1.8958 -2.8668
 7697SOL    HW234554   0.013   2.244  15.415  0.3024 -2.1742  1.1657
 7698SOL     OW34555   1.616   0.207   6.630  0.5995  0.2102 -0.1313
 7698SOL    HW134556   1.692   0.264   6.644  1.3183 -0.6814 -0.3999
 7698SOL    HW234557   1.546   0.268   6.653 -2.4615 -2.9839 -1.0565
 7699SOL     OW34558   3.911   3.649   0.316  0.1899 -0.3671 -0.6990
 7699SOL    HW134559   3.880   3.586   0.382  2.8343 -2.2078 -1.2179
 7699SOL    HW234560   3.999   3.617   0.298 -0.0904 -1.0393 -0.8902
 7700SOL     OW34561   0.925   2.659   8.301 -0.5603  0.2916 -0.1672
 7700SOL    HW134562   0.991   2.726   8.317 -1.3501  1.8685 -3.4986
 7700SOL    HW234563   0.901   2.692   8.214  0.6691  1.7879  0.0593
 7701SOL     OW34564   4.219   1.020   2.745 -0.2356 -0.3946  0.0718
 7701SOL    HW134565   4.255   0.948   2.798  0.6321 -1.1020 -1.4983
 7701SOL    HW234566   4.287   1.039   2.681  0.3783  1.6062  1.2903
 7702SOL     OW34567   3.063   0.573   4.597 -0.2643 -0.5533  0.7198
 7702SOL    HW134568   3.055   0.485   4.562 -1.3696  0.6672 -2.0822
 7702SOL    HW234569   3.148   0.558   4.640  0.0918  1.0607  0.5726
 7703SOL     OW34570   0.648   2.763   5.483 -0.5134 -0.4264  0.0201
 7703SOL    HW134571   0.668   2.837   5.541 -0.3927  0.2795 -0.9119
 7703SOL    HW234572   0.731   2.720   5.465 -0.0980  0.0907  0.7176
 7704SOL     OW34573   2.591   1.448   4.722 -0.4161 -0.0380 -0.6360
 7704SOL    HW134574   2.636   1.516   4.773  0.6255 -2.0097  1.0670
 7704SOL    HW234575   2.643   1.430   4.644 -0.3696 -0.0662 -0.5988
 7705SOL     OW34576   4.651   3.578  12.374  0.0173 -0.2683  0.1097
 7705SOL    HW134577   4.581   3.538  12.323 -0.0116  0.5708 -0.5083
 7705SOL    HW234578   4.593   3.608  12.444  0.4102 -2.8341  1.5188
 7706SOL     OW34579   3.358   2.926   8.063 -0.5980  0.1687 -0.1743
 7706SOL    HW134580   3.363   2.987   7.989 -1.1008  1.5328  0.9156
 7706SOL    HW234581   3.269   2.952   8.087 -0.0666  0.7330  1.1869
 7707SOL     OW34582   2.300   1.540   8.319  0.9424 -0.2902  0.7014
 7707SOL    HW134583   2.286   1.509   8.408 -2.1468  1.2738  0.7741
 7707SOL    HW234584   2.350   1.466   8.285 -1.0220 -0.7099 -1.2626
 7708SOL     OW34585   0.439   1.062   4.009  0.0171 -0.5491  0.4066
 7708SOL    HW134586   0.482   1.096   4.087  0.9705 -0.5538 -0.1094
 7708SOL    HW234587   0.383   0.993   4.044 -0.4778 -0.6351 -0.5444
 7709SOL     OW34588   3.429   1.311   9.101  0.2354  0.0921  0.1764
 7709SOL    HW134589   3.450   1.348   9.187  1.3380  0.2411 -0.1519
 7709SOL    HW234590   3.418   1.218   9.124 -0.2641  1.0206  3.7565
 7710SOL     OW34591   4.155   4.510  16.900 -0.2287  1.0931 -0.4733
 7710SOL    HW134592   4.237   4.511  16.949  0.3514  1.2167 -1.4747
 7710SOL    HW234593   4.127   4.418  16.905  0.3467  1.0626  2.4179
 7711SOL     OW34594   1.176   3.713   6.710  0.3435  0.3091 -0.2829
 7711SOL    HW134595   1.240   3.779   6.682 -1.1683  1.3633 -1.2534
 7711SOL    HW234596   1.218   3.688   6.792  1.2990  0.2758 -0.7735
 7712SOL     OW34597   1.227   3.643   9.212 -0.1711 -0.0422  0.0601
 7712SOL    HW134598   1.170   3.695   9.156  0.5880 -0.0036 -0.6794
 7712SOL    HW234599   1.253   3.581   9.144  0.8581  0.2389  0.1963
 7713SOL     OW34600   0.659   3.218   2.882 -0.5117 -0.3231  0.0057
 7713SOL    HW134601   0.634   3.260   2.799  0.1575  0.8542  0.4011
 7713SOL    HW234602   0.570   3.211   2.916 -0.4687 -0.6973  0.0342
 7714SOL     OW34603   4.704   1.624  17.213  0.1538 -0.0298  0.0393
 7714SOL    HW134604   4.713   1.549  17.271 -0.8063  0.0075  0.2390
 7714SOL    HW234605   0.056   1.676  17.231  0.3534 -0.3990  0.2435
 7715SOL     OW34606   4.284   3.371   4.901 -0.3685  0.8616  0.3538
 7715SOL    HW134607   4.342   3.310   4.946 -0.6837  0.7271  0.5826
 7715SOL    HW234608   4.308   3.459   4.929  1.3267  1.4077 -2.8017
 7716SOL     OW34609   2.044   4.116  14.304 -0.4855  0.3184 -0.0891
 7716SOL    HW134610   2.018   4.201  14.340 -2.5218 -1.5328  2.7604
 7716SOL    HW234611   2.048   4.073  14.389  2.4473  0.1274 -0.3024
 7717SOL     OW34612   3.659   0.370  11.156 -0.0077 -0.2144 -0.2789
 7717SOL    HW134613   3.745   0.371  11.113 -0.3458  2.4053 -0.8580
 7717SOL    HW234614   3.627   0.459  11.141  0.2787  0.1137  1.0512
 7718SOL     OW34615   4.339   1.750   3.627  0.0770 -0.3224  0.2440
 7718SOL    HW134616   4.316   1.823   3.569 -2.8038 -2.4920 -1.3779
 7718SOL    HW234617   4.365   1.787   3.711  1.0252  0.5727 -0.4539
 7719SOL     OW34618   0.158   2.378  10.229  0.3855 -0.5117 -0.0570
 7719SOL    HW134619   0.168   2.283  10.222 -0.0653 -0.5127 -0.6863
 7719SOL    HW234620   0.247   2.410  10.216 -0.5981  1.9271 -0.8499
 7720SOL     OW34621   0.115   1.920  17.301 -0.0474  0.2606 -0.1147
 7720SOL    HW134622   0.098   1.948  17.391  1.0162 -1.8204  0.7195
 7720SOL    HW234623   0.178   1.850  17.319  2.2399  2.2624 -0.3275
 7721SOL     OW34624   2.512   2.158   8.773 -0.0718  0.1417  0.0121
 7721SOL    HW134625   2.599   2.196   8.760  0.8549 -0.4977  4.2501
 7721SOL    HW234626   2.529   2.116   8.858 -0.2536  0.6404  0.2957
 7722SOL     OW34627   0.470   0.344   7.091 -0.3064  0.5447 -0.3949
 7722SOL    HW134628   0.497   0.257   7.122 -0.7127  0.4038 -0.4342
 7722SOL    HW234629   0.440   0.366   7.180 -1.9878 -0.6401 -0.6661
 7723SOL     OW34630   2.403   2.798   1.842 -0.6038  0.1844  0.4960
 7723SOL    HW134631   2.375   2.803   1.933  0.3396 -0.4755  0.8155
 7723SOL    HW234632   2.326   2.821   1.788 -1.6871 -1.5672  1.2916
 7724SOL     OW34633   3.107   3.815   6.602  0.1349  0.3204 -0.4726
 7724SOL    HW134634   3.167   3.817   6.677 -1.3846 -0.2469  0.7468
 7724SOL    HW234635   3.158   3.871   6.544  0.7337  2.1902  1.8369
 7725SOL     OW34636   4.276   1.105   5.758  0.5096 -0.3496  0.1688
 7725SOL    HW134637   4.243   1.023   5.795 -0.7213  0.2374  0.3700
 7725SOL    HW234638   4.277   1.073   5.668 -0.1305  0.3305 -0.0792
 7726SOL     OW34639   0.409   4.688   9.849 -0.3933  0.2574  0.3631
 7726SOL    HW134640   0.454   4.662   9.929 -1.1014 -0.9137  0.3805
 7726SOL    HW234641   0.442   0.048   9.825  0.3182  0.0955  0.7563
 7727SOL     OW34642   3.628   0.154   1.849  0.3604 -0.9139 -0.4665
 7727SOL    HW134643   3.600   0.082   1.905 -0.8337 -0.5577 -0.6033
 7727SOL    HW234644   3.584   0.137   1.766 -1.3483  1.0743  0.0419
 7728SOL     OW34645   0.845   3.194   5.334  0.4349  0.5113  0.8522
 7728SOL    HW134646   0.905   3.129   5.371 -0.7411 -0.1695  1.5667
 7728SOL    HW234647   0.796   3.134   5.279  1.3611  0.8331 -0.3185
 7729SOL     OW34648   0.657   4.171  12.365 -0.8000  0.0934 -0.1837
 7729SOL    HW134649   0.644   4.077  12.354  0.8453 -0.4366  2.5092
 7729SOL    HW234650   0.573   4.205  12.332 -2.5735 -2.0818  2.0902
 7730SOL     OW34651   1.377   0.713   4.668 -0.6636  0.4060  0.0293
 7730SOL    HW134652   1.395   0.761   4.587  0.4931 -0.0716  0.0145
 7730SOL    HW234653   1.393   0.622   4.644 -2.4296 -0.0301  0.4951
 7731SOL     OW34654   1.235   4.348   1.953  0.0827 -0.0297  0.2112
 7731SOL    HW134655   1.263   4.414   2.015  3.2088 -0.6062 -0.5748
 7731SOL    HW234656   1.324   4.314   1.941 -0.9573 -2.6047 -0.3787
 7732SOL     OW34657   1.897   2.483   0.664 -0.2766  0.0488 -0.4222
 7732SOL    HW134658   1.817   2.435   0.684 -0.1226  0.6087  1.5239
 7732SOL    HW234659   1.893   2.516   0.574  0.3491  2.3108  0.3700
 7733SOL     OW34660   4.114   2.686   3.525 -0.0248 -0.3577  0.2828
 7733SOL    HW134661   4.059   2.664   3.600 -0.4195 -1.0216 -0.2040
 7733SOL    HW234662   4.156   2.603   3.502  1.8765  0.5613  0.4413
 7734SOL     OW34663   0.198   2.091   0.112  0.3383  0.2343 -0.7514
 7734SOL    HW134664   0.121   2.130   0.154  1.1547  2.9343 -1.7552
 7734SOL    HW234665   0.180   1.998   0.100 -1.3743  0.9464 -3.7168
 7735SOL     OW34666   1.794   4.126   2.838  0.5309  0.1689 -0.4105
 7735SOL    HW134667   1.798   4.127   2.742 -1.2477 -1.2824 -0.4993
 7735SOL    HW234668   1.701   4.150   2.847 -0.0040 -1.8948 -0.4244
 7736SOL     OW34669   1.629   2.530   7.513  0.0012 -0.1295 -0.0306
 7736SOL    HW134670   1.577   2.518   7.593  2.6441  2.9498  2.1086
 7736SOL    HW234671   1.551   2.546   7.460  1.6995  0.8430 -2.2162
 7737SOL     OW34672   1.062   1.131   3.004 -0.0322  0.1011  0.4629
 7737SOL    HW134673   1.014   1.072   3.063 -1.3317 -1.0547 -1.7484
 7737SOL    HW234674   1.138   1.149   3.059  0.5287  0.2099 -0.3483
 7738SOL     OW34675   4.049   3.188   9.859 -0.0382 -0.1081  0.4765
 7738SOL    HW134676   4.090   3.163   9.776 -0.1299 -3.1698  1.3427
 7738SOL    HW234677   3.975   3.238   9.824 -1.0740 -0.1084  2.7041
 7739SOL     OW34678   1.912   2.216  16.632  0.7118 -0.6443 -0.3614
 7739SOL    HW134679   1.977   2.253  16.572  0.1893  1.3178  0.2667
 7739SOL    HW234680   1.846   2.285  16.639  1.0757 -0.3972  0.5318
 7740SOL     OW34681   1.440   2.365   6.350 -0.1324  0.0300  0.4310
 7740SOL    HW134682   1.469   2.455   6.336  0.9185 -0.1283  1.6280
 7740SOL    HW234683   1.522   2.324   6.321 -1.7443 -2.0738 -1.1893
 7741SOL     OW34684   0.900   3.141   4.776 -0.3990 -0.3398 -0.2048
 7741SOL    HW134685   0.959   3.090   4.721 -0.4558 -0.3549 -0.2522
 7741SOL    HW234686   0.932   3.122   4.864 -2.6326  0.5490  0.8044
 7742SOL     OW34687   3.080   2.544   9.374 -0.1297  0.0286  0.4122
 7742SOL    HW134688   3.133   2.491   9.433  0.2701  0.4901  0.4663
 7742SOL    HW234689   3.090   2.626   9.421  1.0458  0.6057 -0.8534
 7743SOL     OW34690   4.103   2.410   7.616  0.4641 -0.4697  0.0605
 7743SOL    HW134691   4.072   2.340   7.558 -1.3394  2.5236 -2.5638
 7743SOL    HW234692   4.098   2.364   7.700 -0.7198  2.1923  1.4696
 7744SOL     OW34693   3.583   2.863   2.797  0.2689  0.3373 -0.1323
 7744SOL    HW134694   3.500   2.826   2.830  0.0910  0.2223 -0.7076
 7744SOL    HW234695   3.574   2.831   2.707  0.0132  0.3574 -0.1150
 7745SOL     OW34696   3.512   4.047   2.483  0.5947  0.0531 -0.4305
 7745SOL    HW134697   3.587   4.106   2.477  0.5092  0.1507 -0.5417
 7745SOL    HW234698   3.556   3.979   2.534  0.5796 -1.9023 -3.0248
 7746SOL     OW34699   2.910   3.595   5.791 -0.3959 -0.4999 -0.3251
 7746SOL    HW134700   2.916   3.500   5.806  0.4954 -0.2614  0.7586
 7746SOL    HW234701   2.892   3.642   5.872  1.1785  3.2609 -2.1652
 7747SOL     OW34702   4.429   0.965   6.406  0.0264  0.2268  0.3711
 7747SOL    HW134703   4.354   0.996   6.456 -0.9823 -0.2970 -0.8277
 7747SOL    HW234704   4.397   0.887   6.360 -0.2772 -0.0350  1.0342
 7748SOL     OW34705   1.336   3.218   5.513  0.0569 -0.3614  0.5247
 7748SOL    HW134706   1.311   3.268   5.590  2.6039  0.2383  0.9452
 7748SOL    HW234707   1.431   3.221   5.527  0.1013 -1.5717  0.5077
 7749SOL     OW34708   0.530   3.589   4.247  0.2808 -0.0332 -0.0939
 7749SOL    HW134709   0.495   3.502   4.268  1.1127 -0.3436 -0.0082
 7749SOL    HW234710   0.455   3.644   4.269  0.0894  0.7966 -2.7679
 7750SOL     OW34711   1.413   4.452  15.848 -0.4546 -0.0907  0.5079
 7750SOL    HW134712   1.374   4.370  15.879 -0.7090 -0.6837 -1.4078
 7750SOL    HW234713   1.455   4.433  15.765 -1.1710  2.4549 -0.4433
 7751SOL     OW34714   1.784   0.977   6.255  0.1528 -0.8161 -0.2819
 7751SOL    HW134715   1.817   0.921   6.325  1.6787 -1.5555 -1.5900
 7751SOL    HW234716   1.754   1.062   6.289  1.4697 -0.7556  0.7361
 7752SOL     OW34717   0.872   0.438   6.177 -0.1088 -0.1776  0.3487
 7752SOL    HW134718   0.778   0.425   6.164  0.4250 -0.0741 -3.5481
 7752SOL    HW234719   0.877   0.396   6.262  1.5837  1.2861  0.9845
 7753SOL     OW34720   2.339   1.442  16.704 -0.2328  0.1712 -0.3137
 7753SOL    HW134721   2.262   1.442  16.761 -0.2130  0.1699 -0.2869
 7753SOL    HW234722   2.353   1.347  16.702  2.0797  0.4703  1.3939
 7754SOL     OW34723   1.694   2.637   3.825 -0.2338 -0.1675  0.4224
 7754SOL    HW134724   1.724   2.564   3.771 -1.5689 -0.3963 -0.0066
 7754SOL    HW234725   1.747   2.620   3.903  0.4422 -0.9484 -0.2151
 7755SOL     OW34726   2.138   3.752   2.456  0.0835 -0.3732  0.1500
 7755SOL    HW134727   2.165   3.736   2.366  0.5102  1.1618 -0.0037
 7755SOL    HW234728   2.225   3.782   2.480  0.0538 -0.0758 -0.1017
 7756SOL     OW34729   3.712   4.292   3.964  0.1665 -0.2257 -0.0538
 7756SOL    HW134730   3.770   4.220   3.940 -0.3581 -1.5314  2.6145
 7756SOL    HW234731   3.738   4.354   3.896 -0.6860 -1.9920 -2.0345
 7757SOL     OW34732   3.070   3.639   0.626  0.5353  0.1483  0.2258
 7757SOL    HW134733   3.034   3.707   0.683  3.5895  1.7649  0.2115
 7757SOL    HW234734   3.124   3.696   0.571  1.1443 -1.2543 -0.6285
 7758SOL     OW34735   3.827   0.913  15.924 -0.4064  0.1001 -0.0549
 7758SOL    HW134736   3.765   0.851  15.886 -0.0091  0.5355 -1.4055
 7758SOL    HW234737   3.832   0.995  15.876 -1.9021 -0.4148 -1.0856
 7759SOL     OW34738   3.927   4.695   7.348  0.0999 -0.0695 -0.1634
 7759SOL    HW134739   3.833   4.687   7.334 -0.0292  1.3842 -0.1361
 7759SOL    HW234740   3.949   0.053   7.308  1.4072 -1.5132 -2.4792
 7760SOL     OW34741   0.075   3.223  16.134  0.1527 -0.4206 -0.2795
 7760SOL    HW134742   0.078   3.274  16.215 -2.1820 -0.9174  0.1250
 7760SOL    HW234743   0.141   3.160  16.161 -1.9180 -2.0968  0.8956
 7761SOL     OW34744   0.377   0.145   4.941 -0.6653 -0.2039  0.2431
 7761SOL    HW134745   0.311   0.077   4.926 -0.4300 -0.4102  0.1600
 7761SOL    HW234746   0.381   0.194   4.859  0.2625  0.6411  0.7885
 7762SOL     OW34747   4.134   2.553   7.189 -0.3252  0.3941  0.6920
 7762SOL    HW134748   4.128   2.576   7.282  1.6785 -0.3187  0.9982
 7762SOL    HW234749   4.212   2.497   7.183  0.2864  1.1797  1.1866
 7763SOL     OW34750   0.617   3.008   1.616 -0.2329  0.1911 -0.2751
 7763SOL    HW134751   0.543   2.980   1.670  0.3745 -0.8919  0.0043
 7763SOL    HW234752   0.621   3.103   1.622  2.7971  0.0206  0.3264
 7764SOL     OW34753   2.484   1.745   8.256 -0.1455 -0.1330 -0.5233
 7764SOL    HW134754   2.417   1.680   8.276  0.2247  0.2828  1.9805
 7764SOL    HW234755   2.505   1.773   8.345 -0.2281 -1.2297 -0.1563
 7765SOL     OW34756   0.494   3.151   5.514 -0.0778 -0.9290 -0.5120
 7765SOL    HW134757   0.473   3.201   5.436 -0.8334 -0.0433  0.2547
 7765SOL    HW234758   0.584   3.176   5.534 -0.0265 -1.6880  0.2383
 7766SOL     OW34759   3.783   1.591   9.695 -0.1937 -0.5443  0.5971
 7766SOL    HW134760   3.802   1.624   9.783 -0.6580 -1.0144  0.8736
 7766SOL    HW234761   3.857   1.626   9.645  0.9761 -0.3425  2.4504
 7767SOL     OW34762   3.648   2.860   3.963  0.0231 -0.3272 -0.4024
 7767SOL    HW134763   3.664   2.827   4.051  2.1743  1.6474 -0.0583
 7767SOL    HW234764   3.712   2.815   3.908  0.8147  0.9494 -0.5495
 7768SOL     OW34765   4.557   4.455   2.546  0.4038 -0.5855 -0.2170
 7768SOL    HW134766   4.538   4.374   2.499 -0.2086  0.6252 -2.0752
 7768SOL    HW234767   4.590   4.502   2.469 -2.9603 -0.1138 -1.3622
 7769SOL     OW34768   1.397   0.040   8.161 -0.9689 -0.1335  0.6593
 7769SOL    HW134769   1.457   4.695   8.138 -1.8842 -0.7213  0.1175
 7769SOL    HW234770   1.337   0.041   8.087 -0.5327  2.8033  0.3625
 7770SOL     OW34771   4.389   0.054   4.425  0.1608  0.1320 -0.2555
 7770SOL    HW134772   4.300   0.030   4.451 -0.1452  3.6576  2.0258
 7770SOL    HW234773   4.364   0.093   4.341 -1.7306  1.5870  0.9711
 7771SOL     OW34774   1.847   3.456  15.871 -0.5645  0.1989 -0.5298
 7771SOL    HW134775   1.868   3.430  15.781 -0.2357 -1.9827  0.1755
 7771SOL    HW234776   1.902   3.392  15.916  0.9790  1.5091 -0.5212
 7772SOL     OW34777   3.280   1.672   3.822  0.2068 -0.1533 -0.1484
 7772SOL    HW134778   3.235   1.588   3.811 -2.2056  1.2928 -1.1601
 7772SOL    HW234779   3.220   1.722   3.877  3.0317  3.3562 -0.2368
 7773SOL     OW34780   3.470   3.548   1.454 -0.2166  0.3667  0.4342
 7773SOL    HW134781   3.465   3.453   1.447  1.1135  0.2653  0.9117
 7773SOL    HW234782   3.563   3.552   1.433 -0.3032 -1.9145 -0.3850
 7774SOL     OW34783   2.676   3.426   7.511  0.1144 -0.2129 -0.0364
 7774SOL    HW134784   2.734   3.370   7.563  0.4992  0.0987 -0.1363
 7774SOL    HW234785   2.601   3.432   7.571 -0.4844  2.4604 -1.0737
 7775SOL     OW34786   0.378   2.974   0.670 -0.0588 -0.4586 -0.0164
 7775SOL    HW134787   0.327   2.979   0.589 -0.4224  0.1684  0.2567
 7775SOL    HW234788   0.465   2.947   0.640  0.5341  1.0938  0.3380
 7776SOL     OW34789   1.099   2.316  15.206 -0.0245  0.2540 -0.0526
 7776SOL    HW134790   1.130   2.341  15.293 -0.7243 -1.5936  0.7279
 7776SOL    HW234791   1.083   2.222  15.209 -0.8196  0.5146  2.8883
 7777SOL     OW34792   1.214   0.325  12.577  0.0716  0.0216  0.3373
 7777SOL    HW134793   1.261   0.408  12.570  2.1629 -1.1159  0.8735
 7777SOL    HW234794   1.130   0.346  12.617  0.3960 -2.2069  2.1814
 7778SOL     OW34795   4.147   1.121   1.573  0.6923 -0.0704  0.2342
 7778SOL    HW134796   4.240   1.134   1.593  0.3494  1.8294  0.6387
 7778SOL    HW234797   4.157   1.047   1.514  0.6883  1.0076 -1.1429
 7779SOL     OW34798   3.375   2.305  10.272  0.0441 -0.2147 -1.1194
 7779SOL    HW134799   3.381   2.336  10.363 -1.7576 -0.6921 -0.8519
 7779SOL    HW234800   3.283   2.282  10.279  0.1527 -0.7823 -1.5353
 7780SOL     OW34801   2.717   2.922   7.969 -0.9889 -0.1591 -0.5315
 7780SOL    HW134802   2.788   2.966   7.922 -0.0922 -1.3945 -0.3045
 7780SOL    HW234803   2.714   2.838   7.923  1.1894  0.5788 -2.0378
 7781SOL     OW34804   1.770   1.603  10.600 -0.7399  0.0481  0.3044
 7781SOL    HW134805   1.823   1.524  10.589  0.2742  0.6681  0.8057
 7781SOL    HW234806   1.678   1.576  10.588 -0.7520  0.8775 -1.4546
 7782SOL     OW34807   3.719   3.951   0.945 -0.4025 -0.1820 -0.4222
 7782SOL    HW134808   3.632   3.929   0.911  0.6452 -1.9947 -1.9399
 7782SOL    HW234809   3.711   3.920   1.035  0.3060  1.2295  0.1204
 7783SOL     OW34810   0.171   1.479   1.842 -0.2866 -0.1143 -0.2985
 7783SOL    HW134811   0.200   1.398   1.883  0.5989  0.1626 -0.3682
 7783SOL    HW234812   0.248   1.530   1.870 -1.2156  2.0085 -1.5544
 7784SOL     OW34813   2.104   2.272  16.420 -0.0506 -0.4865 -0.5399
 7784SOL    HW134814   2.041   2.253  16.350 -0.4459  2.4591 -0.9741
 7784SOL    HW234815   2.174   2.208  16.406 -1.9059 -2.2873 -1.7859
 7785SOL     OW34816   1.027   4.372   3.605 -0.3514 -0.1746  0.7548
 7785SOL    HW134817   1.061   4.314   3.674  0.8367 -0.6230 -0.2027
 7785SOL    HW234818   0.951   4.317   3.588 -0.6069  0.6981 -0.9303
 7786SOL     OW34819   0.495   1.093   5.081 -0.3554  0.4282  0.2488
 7786SOL    HW134820   0.467   1.001   5.076 -0.8184  0.5481  0.5863
 7786SOL    HW234821   0.415   1.145   5.068  0.9904  2.4994  0.2764
 7787SOL     OW34822   3.278   3.753  13.630  0.1215 -0.2022  0.3958
 7787SOL    HW134823   3.233   3.681  13.586 -1.6100  0.5880  0.8739
 7787SOL    HW234824   3.362   3.712  13.651 -0.7452 -2.3319 -0.3687
 7788SOL     OW34825   0.587   1.731   7.211 -0.3751 -0.5128 -0.5210
 7788SOL    HW134826   0.651   1.666   7.181  0.2500 -0.5691  0.9264
 7788SOL    HW234827   0.506   1.691   7.179 -0.8951 -0.0458  0.2211
 7789SOL     OW34828   4.005   1.874   8.794 -0.1516  0.8713  0.6621
 7789SOL    HW134829   4.021   1.942   8.729  3.8226  0.1601  0.8521
 7789SOL    HW234830   4.058   1.913   8.864  1.6779  3.0047 -1.9223
 7790SOL     OW34831   1.879   3.411   7.652 -1.0075  0.2384 -0.2579
 7790SOL    HW134832   1.858   3.429   7.560  0.8169 -0.5103 -0.8141
 7790SOL    HW234833   1.952   3.472   7.662 -2.8829  2.3540  0.6200
 7791SOL     OW34834   0.547   1.140  13.660  0.4100 -0.0638 -0.1514
 7791SOL    HW134835   0.523   1.218  13.611 -0.1155  0.2895  0.6756
 7791SOL    HW234836   0.532   1.169  13.750 -1.3970  3.2378 -1.5269
 7792SOL     OW34837   2.203   4.344   8.634  1.2358  0.3905 -0.2078
 7792SOL    HW134838   2.158   4.272   8.679 -0.3801  1.5798  0.1016
 7792SOL    HW234839   2.148   4.420   8.655  0.9187  0.3045 -0.7132
 7793SOL     OW34840   1.225   2.615   3.221  0.5233 -0.1052 -0.0183
 7793SOL    HW134841   1.290   2.546   3.212 -2.3416 -2.6523 -0.9877
 7793SOL    HW234842   1.160   2.590   3.156  0.3100  0.1830  0.0811
 7794SOL     OW34843   3.264   0.169  15.204 -0.2022  0.0917  0.1007
 7794SOL    HW134844   3.262   0.164  15.300  1.5400  2.0539  0.2331
 7794SOL    HW234845   3.359   0.173  15.193 -0.2702 -0.2594 -0.6021
 7795SOL     OW34846   4.131   1.854  15.309 -0.4347  0.1148  0.2184
 7795SOL    HW134847   4.171   1.809  15.383 -0.4574 -0.1333  0.0792
 7795SOL    HW234848   4.202   1.860  15.244 -0.5064  0.2241  0.1491
 7796SOL     OW34849   2.716   0.445   6.123 -0.3219  0.0388  0.3386
 7796SOL    HW134850   2.808   0.418   6.124  0.4126  2.4155 -1.1812
 7796SOL    HW234851   2.708   0.468   6.216 -0.4378  0.8086  0.1372
 7797SOL     OW34852   1.485   1.758   4.846  0.1574 -0.5968  0.2253
 7797SOL    HW134853   1.396   1.747   4.878 -0.2939 -0.2893 -0.8897
 7797SOL    HW234854   1.520   1.672   4.869  0.1889 -0.5737  0.2629
 7798SOL     OW34855   1.187   0.230   6.968 -0.0027  0.2331 -0.1348
 7798SOL    HW134856   1.236   0.168   6.913 -0.3126  0.8356 -1.0832
 7798SOL    HW234857   1.240   0.308   6.951 -0.6850  0.5638 -0.7363
 7799SOL     OW34858   1.014   1.004  10.388 -0.0249 -0.9284  0.5183
 7799SOL    HW134859   1.022   1.080  10.446 -0.3679  0.3494 -1.0924
 7799SOL    HW234860   1.019   1.040  10.299  1.8038  0.4539  1.1772
 7800SOL     OW34861   0.699   3.485   3.084  0.1678 -0.2703 -0.0988
 7800SOL    HW134862   0.671   3.413   3.027 -0.4246 -1.7880  2.1190
 7800SOL    HW234863   0.729   3.541   3.013  0.3272  0.0780  0.2438
 7801SOL     OW34864   0.553   2.099   8.261 -0.2959 -0.3044  0.2357
 7801SOL    HW134865   0.542   2.069   8.170 -0.8524  0.8671 -0.0906
 7801SOL    HW234866   0.580   2.191   8.253 -1.3272  0.0024  0.1473
 7802SOL     OW34867   0.682   0.979  16.276 -0.0697  0.0608  0.1009
 7802SOL    HW134868   0.696   0.959  16.183 -3.2347 -2.6609  0.2196
 7802SOL    HW234869   0.729   1.061  16.291  1.1246 -0.5201 -0.4611
 7803SOL     OW34870   3.268   2.557   2.571 -0.1835 -0.0582  0.4584
 7803SOL    HW134871   3.175   2.570   2.551  0.2747  0.6006 -1.2982
 7803SOL    HW234872   3.258   2.500   2.647  0.9015 -0.2889  0.4246
 7804SOL     OW34873   1.308   0.189  15.053  0.3310 -0.3604  0.3141
 7804SOL    HW134874   1.387   0.158  15.009  2.1183  0.5615  2.8542
 7804SOL    HW234875   1.267   0.238  14.982  0.0322 -1.7279 -0.4355
 7805SOL     OW34876   4.326   2.814   0.432 -0.6112  0.2543  0.2259
 7805SOL    HW134877   4.317   2.905   0.406  0.6099  1.0398  2.5138
 7805SOL    HW234878   4.359   2.824   0.521  0.4851 -1.1827 -0.0127
 7806SOL     OW34879   3.028   0.512   8.032 -0.1644 -0.2713  0.8506
 7806SOL    HW134880   2.983   0.588   8.069 -0.8063  0.5151 -1.5510
 7806SOL    HW234881   3.117   0.526   8.064  0.0059 -0.3123  0.4020
 7807SOL     OW34882   1.549   2.555   1.516 -0.4794 -0.3061  0.1515
 7807SOL    HW134883   1.564   2.470   1.476  3.6087 -0.1742  1.4201
 7807SOL    HW234884   1.484   2.591   1.456  1.6029  1.5760 -0.9687
 7808SOL     OW34885   1.246   1.653   3.233  0.1904 -0.5583  0.2653
 7808SOL    HW134886   1.278   1.572   3.274 -1.2604 -1.0663  0.3862
 7808SOL    HW234887   1.244   1.720   3.300  0.4207  2.0954 -2.3943
 7809SOL     OW34888   0.439   0.161  17.448 -0.2079 -0.1038  0.1794
 7809SOL    HW134889   0.392   0.242  17.427  1.4531  0.8978  0.3373
 7809SOL    HW234890   0.371   0.096  17.428 -0.6125  0.8045 -1.4377
 7810SOL     OW34891   2.269   2.695   6.427  0.6780 -0.4468 -0.2104
 7810SOL    HW134892   2.210   2.768   6.411  1.4966  0.4629  0.9930
 7810SOL    HW234893   2.211   2.621   6.443  0.4373 -0.2244 -0.0686
 7811SOL     OW34894   1.921   4.171  17.272  0.1801 -0.7672  0.2609
 7811SOL    HW134895   1.931   4.086  17.228 -1.1447 -0.3660 -0.8454
 7811SOL    HW234896   1.838   4.159  17.319 -0.3331 -0.8729 -0.6716
 7812SOL     OW34897   4.554   0.042   6.287  0.3102 -0.2752  0.3571
 7812SOL    HW134898   4.480   0.097   6.264  0.5080 -0.3310 -0.4368
 7812SOL    HW234899   4.568   0.050   6.381  0.0081  0.2251  0.3557
 7813SOL     OW34900   2.539   0.721   9.762  0.0027  0.2530  0.4191
 7813SOL    HW134901   2.550   0.641   9.710  2.8731  0.6767  0.3905
 7813SOL    HW234902   2.455   0.747   9.724  0.0696 -0.7507 -0.4339
 7814SOL     OW34903   2.808   4.336   0.316 -0.7908 -0.0723 -0.3405
 7814SOL    HW134904   2.742   4.288   0.267 -0.6659 -0.3567 -0.2304
 7814SOL    HW234905   2.825   4.413   0.263  1.2434  0.1918  0.6936
 7815SOL     OW34906   4.310   1.690   6.837  0.1134 -0.5787 -0.4883
 7815SOL    HW134907   4.294   1.649   6.922  0.2430 -0.2607 -0.3084
 7815SOL    HW234908   4.350   1.622   6.783 -0.3472 -1.0765 -0.1945
 7816SOL     OW34909   1.995   2.437   8.025  0.4232 -0.2490  0.6092
 7816SOL    HW134910   2.054   2.396   8.088 -0.2484  0.4220  1.6766
 7816SOL    HW234911   2.027   2.389   7.948  0.6323  0.8165  0.0336
 7817SOL     OW34912   4.462   3.137  14.804 -0.1714  0.4585 -0.7091
 7817SOL    HW134913   4.415   3.054  14.808  0.2364  0.2903  0.7807
 7817SOL    HW234914   4.547   3.114  14.766 -0.3485  0.4272 -1.0851
 7818SOL     OW34915   0.900   1.802  13.931  0.0989 -0.0595  0.1459
 7818SOL    HW134916   0.849   1.803  14.012  1.4228 -0.7625  0.9776
 7818SOL    HW234917   0.965   1.869  13.954 -0.3828  0.4676 -0.0385
 7819SOL     OW34918   2.290   1.284   4.227 -0.0047 -0.0552  0.4093
 7819SOL    HW134919   2.270   1.228   4.152  1.2299  0.3600 -0.2277
 7819SOL    HW234920   2.210   1.335   4.242  1.9759  2.8024  1.1796
 7820SOL     OW34921   0.745   2.334  16.599  0.2507  0.1075  0.5722
 7820SOL    HW134922   0.743   2.257  16.541 -1.0917 -1.6954  3.0204
 7820SOL    HW234923   0.743   2.403  16.533  1.7557  1.7469  2.2517
 7821SOL     OW34924   3.641   2.534   6.862  0.0560 -0.0801 -0.7366
 7821SOL    HW134925   3.604   2.543   6.774  0.6894  0.1333 -0.9861
 7821SOL    HW234926   3.565   2.544   6.919  0.0111  0.0798 -0.8235
 7822SOL     OW34927   4.586   4.630   5.849 -0.2888  0.3109  0.3934
 7822SOL    HW134928   4.583   4.595   5.759  1.0042 -0.8288  0.8076
 7822SOL    HW234929   4.509   4.588   5.889  0.4977 -2.1035 -0.5979
 7823SOL     OW34930   4.419   2.635   5.880 -0.4270 -0.1109 -0.1893
 7823SOL    HW134931   4.421   2.549   5.922  0.3082 -0.5749 -1.1962
 7823SOL    HW234932   4.372   2.613   5.799 -0.5734  3.7701 -1.1292
 7824SOL     OW34933   2.628   3.000  15.512 -0.3883  0.4017 -0.2290
 7824SOL    HW134934   2.576   2.920  15.524 -2.4799  1.6291 -0.9939
 7824SOL    HW234935   2.707   2.975  15.559 -0.9678 -1.0141 -0.0154
 7825SOL     OW34936   4.612   3.543   2.487  0.3337 -0.1722  0.7995
 7825SOL    HW134937   4.610   3.476   2.418  0.9921  1.6271 -0.9440
 7825SOL    HW234938   4.667   3.612   2.451  1.1381 -1.6368 -0.8053
 7826SOL     OW34939   4.513   4.016   5.065 -0.1064 -1.2632 -0.4951
 7826SOL    HW134940   4.557   4.068   4.998 -0.6897  0.0186  0.1056
 7826SOL    HW234941   4.587   3.960   5.089 -0.6276 -0.6464  2.6057
 7827SOL     OW34942   1.936   3.558   8.494  0.2884  0.1197 -0.5763
 7827SOL    HW134943   1.868   3.496   8.520  1.1467 -2.2873 -4.0426
 7827SOL    HW234944   2.013   3.510   8.525 -1.7163 -1.2862  2.1850
 7828SOL     OW34945   0.827   4.273   4.402 -0.7263 -0.3384 -0.8933
 7828SOL    HW134946   0.854   4.209   4.336  1.6866 -1.0525  0.7858
 7828SOL    HW234947   0.901   4.329   4.426 -0.9280  0.4188 -2.0325
 7829SOL     OW34948   3.660   3.752   9.564  0.7503 -0.6159  0.2205
 7829SOL    HW134949   3.661   3.671   9.616 -1.2726 -0.8276 -0.0854
 7829SOL    HW234950   3.607   3.798   9.628  1.7647  1.0604 -0.1500
 7830SOL     OW34951   4.254   1.835  17.117 -0.4414 -0.5614  0.5419
 7830SOL    HW134952   4.265   1.841  17.212 -0.3412 -0.6696  0.5374
 7830SOL    HW234953   4.318   1.766  17.102  0.0779  0.5820 -2.4352
 7831SOL     OW34954   3.312   0.976   5.540 -0.1744  0.5870 -0.2631
 7831SOL    HW134955   3.363   1.050   5.509  1.5813 -1.0105 -1.1538
 7831SOL    HW234956   3.249   0.947   5.475  1.1805  0.6446 -1.5876
 7832SOL     OW34957   0.368   1.191   5.454 -0.3289 -0.0878  0.2951
 7832SOL    HW134958   0.381   1.174   5.548 -0.6565  0.9689  0.5251
 7832SOL    HW234959   0.384   1.107   5.411 -0.5146  0.6015 -1.1194
 7833SOL     OW34960   3.693   4.402   9.413  0.7293  0.1817 -0.1466
 7833SOL    HW134961   3.709   4.385   9.320 -0.2066  0.5698 -0.3771
 7833SOL    HW234962   3.748   4.336   9.456  1.9951  1.5220  0.2658
 7834SOL     OW34963   0.328   2.768  14.978  0.3292 -0.1663  0.5049
 7834SOL    HW134964   0.386   2.740  15.049  0.6234 -1.5921 -0.2901
 7834SOL    HW234965   0.397   2.809  14.924 -0.7903  1.8469  0.6133
 7835SOL     OW34966   2.656   3.603   8.010 -0.1487  0.3277  0.2471
 7835SOL    HW134967   2.650   3.517   7.967  3.4445  0.7949 -1.2448
 7835SOL    HW234968   2.730   3.648   7.970 -0.3808  0.5827  0.1072
 7836SOL     OW34969   0.309   2.560   5.113  0.0527 -0.5471  0.3976
 7836SOL    HW134970   0.327   2.592   5.202 -0.4183 -3.0073  1.3624
 7836SOL    HW234971   0.315   2.465   5.124 -0.9421 -0.5036  1.3784
 7837SOL     OW34972   0.583   3.007   4.578 -0.1988 -0.0796  0.8324
 7837SOL    HW134973   0.651   2.957   4.532  1.2354  1.6733  1.0579
 7837SOL    HW234974   0.615   2.994   4.667  2.4562  2.4840  0.2449
 7838SOL     OW34975   1.842   3.926   2.277  0.2868  0.2057  0.5005
 7838SOL    HW134976   1.875   3.851   2.228  0.6108 -0.6957  2.0758
 7838SOL    HW234977   1.766   3.941   2.220 -0.9441  1.5283  2.4703
 7839SOL     OW34978   4.253   3.917   5.092  0.3996  0.1278 -0.2223
 7839SOL    HW134979   4.345   3.946   5.091  0.3556  0.1008 -3.5668
 7839SOL    HW234980   4.234   3.880   5.006 -1.7815  1.9173 -0.5189
 7840SOL     OW34981   3.075   3.112   3.485 -0.2332 -0.8325 -0.2711
 7840SOL    HW134982   3.120   3.145   3.407 -0.2224 -0.3999 -0.0847
 7840SOL    HW234983   3.083   3.017   3.474 -0.0070 -1.1083  2.1367
 7841SOL     OW34984   0.841   2.236   3.475  0.2204 -0.1968  0.1731
 7841SOL    HW134985   0.848   2.172   3.546 -0.5135  1.3363  1.6312
 7841SOL    HW234986   0.782   2.194   3.413  0.8343  1.0521 -1.2487
 7842SOL     OW34987   1.103   1.552   1.626  0.2423 -0.2848  0.5132
 7842SOL    HW134988   1.058   1.569   1.543  1.2697  0.7400  0.1618
 7842SOL    HW234989   1.075   1.465   1.655  1.4199  0.5000  3.9779
 7843SOL     OW34990   3.882   3.009   0.870 -0.6042  0.0528  0.0218
 7843SOL    HW134991   3.809   3.051   0.916  0.1754  0.0464  1.2386
 7843SOL    HW234992   3.909   2.932   0.918  0.0966 -0.6281 -1.4637
 7844SOL     OW34993   3.690   1.042   3.682  0.2525 -0.0933  0.1551
 7844SOL    HW134994   3.743   1.102   3.630  0.6801  0.6282  1.4244
 7844SOL    HW234995   3.612   1.035   3.627 -1.5406  0.6632  2.6201
 7845SOL     OW34996   3.585   3.890   1.411 -0.3510 -0.1543  0.1485
 7845SOL    HW134997   3.499   3.913   1.446 -1.8940 -3.9593 -1.1482
 7845SOL    HW234998   3.634   3.831   1.468  0.0993  0.1884  0.1139
 7846SOL     OW34999   4.047   1.698   3.150 -0.1790 -0.6226 -0.0363
 7846SOL    HW135000   3.952   1.708   3.139 -0.1764 -0.0741  0.4299
 7846SOL    HW235001   4.075   1.764   3.087 -0.8354 -1.1043 -0.8338
 7847SOL     OW35002   2.410   4.381   4.846  0.1905  0.4938  0.0904
 7847SOL    HW135003   2.436   4.437   4.919  0.0799  0.4169  0.1895
 7847SOL    HW235004   2.403   4.435   4.768 -0.1409 -0.6854 -0.6885
 7848SOL     OW35005   0.916   1.220   6.608  0.7095  0.0748  0.0315
 7848SOL    HW135006   0.939   1.205   6.699  0.0752 -0.7495  0.0579
 7848SOL    HW235007   0.830   1.254   6.633  2.2972  3.8606  0.3562
 7849SOL     OW35008   0.736   2.362   2.020  0.0773  0.2988 -0.2244
 7849SOL    HW135009   0.821   2.406   2.026 -0.0072  0.2544  1.3533
 7849SOL    HW235010   0.675   2.430   2.050 -0.0119 -0.3742  1.1417
 7850SOL     OW35011   3.040   1.832   1.620  0.5041  0.1744  0.0772
 7850SOL    HW135012   3.061   1.849   1.712  0.6483  0.5192 -0.0200
 7850SOL    HW235013   3.096   1.894   1.574 -1.0247  1.1182 -0.4793
 7851SOL     OW35014   3.090   2.434  11.702 -0.2389  0.7360  0.2250
 7851SOL    HW135015   3.008   2.453  11.658 -0.8367 -1.9719  0.2065
 7851SOL    HW235016   3.127   2.520  11.682 -1.6723  0.9169 -1.5836
 7852SOL     OW35017   3.646   3.814   8.448  0.1265 -0.0903 -0.0432
 7852SOL    HW135018   3.556   3.828   8.478  0.5642  0.3619  1.0341
 7852SOL    HW235019   3.677   3.904   8.441 -2.1385  0.7409  0.5495
 7853SOL     OW35020   0.359   1.430  15.468 -0.0779  0.3078  0.5237
 7853SOL    HW135021   0.347   1.340  15.438  0.1130 -0.3868  2.5365
 7853SOL    HW235022   0.454   1.439  15.467 -0.1306  1.0019  2.4344
 7854SOL     OW35023   3.017   1.128   5.655  0.0576  0.0855 -0.4088
 7854SOL    HW135024   2.930   1.153   5.624 -0.6730 -0.1395  1.4271
 7854SOL    HW235025   3.024   1.130   5.751  1.5588 -1.6838 -0.4920
 7855SOL     OW35026   2.487   1.765   5.787 -0.5577 -0.3945  0.4756
 7855SOL    HW135027   2.554   1.829   5.762 -0.2254 -0.3172  1.5685
 7855SOL    HW235028   2.528   1.709   5.853  0.0562  0.1927  0.5927
 7856SOL     OW35029   4.448   2.224   4.545  0.9503  0.7075  0.3941
 7856SOL    HW135030   4.393   2.252   4.472 -1.6319 -1.5980  1.4212
 7856SOL    HW235031   4.381   2.198   4.609  0.0381 -0.5274 -1.0379
 7857SOL     OW35032   2.252   0.708   5.083  0.7828 -0.4997 -0.3971
 7857SOL    HW135033   2.312   0.782   5.084  0.8057 -0.5211 -0.0364
 7857SOL    HW235034   2.254   0.687   5.177 -1.0035 -0.2135 -0.2878
 7858SOL     OW35035   2.558   3.652   2.316 -0.2196 -0.1106 -0.1217
 7858SOL    HW135036   2.604   3.718   2.265 -0.8583  1.2937  1.1332
 7858SOL    HW235037   2.566   3.580   2.253 -1.2762  0.8087 -1.2847
 7859SOL     OW35038   1.571   2.312   1.410  0.3516 -0.4966  0.2691
 7859SOL    HW135039   1.519   2.332   1.333  1.9105  2.4909 -0.0214
 7859SOL    HW235040   1.549   2.220   1.426  2.1654 -1.4424 -2.7265
 7860SOL     OW35041   4.306   1.951   2.355 -0.4044  0.4633  0.4129
 7860SOL    HW135042   4.314   1.882   2.422 -0.5026  0.9341  0.9078
 7860SOL    HW235043   4.381   2.007   2.375 -0.5537  0.9802 -0.4873
 7861SOL     OW35044   1.274   3.599  17.282 -0.3754  0.0582 -0.1691
 7861SOL    HW135045   1.344   3.657  17.251 -1.4862  2.2762  1.4478
 7861SOL    HW235046   1.305   3.513  17.252 -1.5243 -0.7651  1.0368
 7862SOL     OW35047   0.548   2.074   5.828 -0.0040 -0.0666  0.5365
 7862SOL    HW135048   0.574   2.067   5.920  0.5103 -1.6880  0.2681
 7862SOL    HW235049   0.576   2.164   5.808 -0.3877  0.4243  2.2393
 7863SOL     OW35050   0.912   3.284   1.781  0.1347  0.1747  0.2946
 7863SOL    HW135051   0.954   3.248   1.859 -1.1416 -0.4094  0.7211
 7863SOL    HW235052   0.974   3.259   1.712  0.2998  2.5635 -0.4102
 7864SOL     OW35053   2.548   4.310   6.921  0.0328 -0.0561 -0.2404
 7864SOL    HW135054   2.531   4.226   6.879 -1.2352 -0.1937  0.5329
 7864SOL    HW235055   2.529   4.376   6.855 -0.2017  0.1015 -0.0188
 7865SOL     OW35056   2.471   0.265   5.837 -0.2022  0.5109 -0.4369
 7865SOL    HW135057   2.473   0.258   5.933 -0.3914 -1.5962 -0.6055
 7865SOL    HW235058   2.432   0.353   5.835  1.1950  1.1555  0.3462
 7866SOL     OW35059   1.201   2.005   3.367 -0.1126  0.0672 -0.1827
 7866SOL    HW135060   1.229   2.068   3.300 -1.6177  2.7069  1.6576
 7866SOL    HW235061   1.115   1.974   3.338 -0.5659  0.4295  0.7788
 7867SOL     OW35062   2.870   3.285   7.643  1.0425  0.0569  0.3006
 7867SOL    HW135063   2.824   3.205   7.667  0.9856 -0.2772 -0.9104
 7867SOL    HW235064   2.959   3.260   7.668  1.1438  0.9876  0.8835
 7868SOL     OW35065   3.638   1.623   9.189 -0.2697 -0.5630  0.4673
 7868SOL    HW135066   3.640   1.678   9.110  2.5916 -2.1648 -0.5721
 7868SOL    HW235067   3.697   1.673   9.245 -2.4268 -0.3710  2.5597
 7869SOL     OW35068   2.116   0.206   3.943 -0.9762 -0.0708 -0.0668
 7869SOL    HW135069   2.076   0.291   3.959  0.5070  0.9333 -1.7289
 7869SOL    HW235070   2.097   0.199   3.849  2.6344 -2.1308 -0.6442
 7870SOL     OW35071   3.495   4.212  17.052  0.0561 -0.1793 -0.2127
 7870SOL    HW135072   3.477   4.203  16.958  3.4899 -0.2009 -0.8505
 7870SOL    HW235073   3.426   4.273  17.079  0.6466 -0.0483  0.9909
 7871SOL     OW35074   0.945   3.774   1.751 -0.1864 -0.1677 -0.1725
 7871SOL    HW135075   0.976   3.861   1.777 -1.9104  1.2166 -2.7457
 7871SOL    HW235076   1.002   3.733   1.686 -0.1067  0.1960 -0.3334
 7872SOL     OW35077   4.446   1.469   2.089  1.1123  0.3201 -0.1204
 7872SOL    HW135078   4.520   1.524   2.064  0.9192  1.0484  0.9439
 7872SOL    HW235079   4.394   1.460   2.009  1.4141 -1.1600 -0.1552
 7873SOL     OW35080   2.202   3.550  15.241 -0.4612 -0.4645 -0.0484
 7873SOL    HW135081   2.276   3.599  15.206 -0.1885 -1.6617 -1.1355
 7873SOL    HW235082   2.252   3.470  15.257  1.8517  0.2919 -3.6359
 7874SOL     OW35083   1.306   2.892   9.254 -0.4283 -0.1793 -0.3795
 7874SOL    HW135084   1.359   2.924   9.327 -0.3406 -2.0167  0.3708
 7874SOL    HW235085   1.293   2.970   9.200 -2.1627  0.3288  0.7436
 7875SOL     OW35086   0.846   3.532   4.571  0.0741 -0.0165 -0.3107
 7875SOL    HW135087   0.827   3.520   4.478  2.1131  1.9046 -0.9465
 7875SOL    HW235088   0.796   3.455   4.600 -0.8161  1.4016  1.9514
 7876SOL     OW35089   3.380   1.923   1.810  0.0069 -0.1376  0.5339
 7876SOL    HW135090   3.340   1.857   1.753  0.1078 -2.1993  2.8430
 7876SOL    HW235091   3.464   1.929   1.765 -1.2903  1.3920 -1.6723
 7877SOL     OW35092   4.286   0.622   7.757  0.5547  0.4450  0.1907
 7877SOL    HW135093   4.357   0.679   7.787  1.2883 -0.6491  0.5058
 7877SOL    HW235094   4.224   0.695   7.754  1.2486  1.0389  0.4152
 7878SOL     OW35095   0.816   0.644   7.367 -0.3637  0.3706 -0.5620
 7878SOL    HW135096   0.735   0.601   7.340 -0.4681 -0.1452  0.5662
 7878SOL    HW235097   0.786   0.713   7.425 -0.5983  0.6732 -1.0398
 7879SOL     OW35098   3.167   1.892   2.909  0.3823 -0.6183  0.2480
 7879SOL    HW135099   3.080   1.865   2.938 -0.7770  2.2354 -0.5324
 7879SOL    HW235100   3.193   1.937   2.989  0.6264  0.3552 -0.3755
 7880SOL     OW35101   1.741   4.646  12.314  0.1798 -0.1482  0.2861
 7880SOL    HW135102   1.808   4.585  12.283  0.0026  0.3235 -1.0227
 7880SOL    HW235103   1.722   4.689  12.230  2.4158  0.4188  0.0833
 7881SOL     OW35104   4.011   3.236   3.458 -0.0033 -0.0220  0.0680
 7881SOL    HW135105   3.949   3.244   3.385 -0.3155  0.6059  0.3991
 7881SOL    HW235106   4.035   3.144   3.450  0.2172  0.1533 -1.2951
 7882SOL     OW35107   1.685   1.259  17.509  0.3236  0.2881 -0.6882
 7882SOL    HW135108   1.740   1.334  17.532  0.7547 -0.7573  1.7138
 7882SOL    HW235109   1.615   1.273  17.571  0.3947 -3.0816  0.1812
 7883SOL     OW35110   0.578   1.477   1.735  0.6407  0.4668 -0.1681
 7883SOL    HW135111   0.655   1.435   1.696  0.5428 -1.5473  1.7689
 7883SOL    HW235112   0.518   1.408   1.707 -1.5363  2.7366 -1.0989
 7884SOL     OW35113   2.133   3.791  10.098  0.2093 -0.3266  0.2497
 7884SOL    HW135114   2.083   3.837  10.166 -1.5129 -0.8448 -0.6780
 7884SOL    HW235115   2.223   3.797  10.130  0.0034 -0.3126  0.8290
 7885SOL     OW35116   1.085   1.974   8.061  0.0784 -0.1013  0.2008
 7885SOL    HW135117   1.144   2.048   8.073 -1.1102  0.6512  1.4850
 7885SOL    HW235118   1.009   2.018   8.023  1.0297  2.5623  1.3880
 7886SOL     OW35119   1.459   2.235   2.389  0.1638  0.3591 -0.2101
 7886SOL    HW135120   1.466   2.322   2.428  0.7701  0.5638 -0.7826
 7886SOL    HW235121   1.552   2.221   2.371 -0.3593 -2.4121 -0.7248
 7887SOL     OW35122   4.392   3.318   1.514 -0.3840  0.4677  0.4202
 7887SOL    HW135123   4.385   3.405   1.554 -2.4310  0.5879 -0.2032
 7887SOL    HW235124   4.484   3.318   1.488 -1.1305 -0.2030 -2.2175
 7888SOL     OW35125   1.610   3.588  17.372 -0.2578  0.4140 -0.0810
 7888SOL    HW135126   1.540   3.546  17.423  1.1453  0.1984  1.6690
 7888SOL    HW235127   1.652   3.647  17.433 -3.4656  1.1356  1.4236
 7889SOL     OW35128   3.754   2.630  16.473 -0.6528 -0.7668 -0.0493
 7889SOL    HW135129   3.709   2.632  16.389  2.3677  1.8520 -1.6036
 7889SOL    HW235130   3.818   2.696  16.446 -2.0822  0.4464 -0.5067
 7890SOL     OW35131   1.232   4.584   6.638 -0.2407  0.1643  0.4987
 7890SOL    HW135132   1.298   4.515   6.635 -0.2197  0.1647  0.9587
 7890SOL    HW235133   1.152   4.536   6.661 -0.0938 -0.6957 -0.7523
 7891SOL     OW35134   4.098   2.462   2.472  0.6093 -0.1930 -0.4844
 7891SOL    HW135135   4.024   2.484   2.529  0.3060 -0.8936 -0.6142
 7891SOL    HW235136   4.067   2.416   2.395  0.3381 -1.2308  0.2507
 7892SOL     OW35137   4.619   2.808   0.027 -0.2387  0.5045  0.1070
 7892SOL    HW135138   4.542   2.773   0.072 -0.1756 -0.1020 -0.2629
 7892SOL    HW235139   4.584   2.802  17.643 -0.7658 -1.0655  0.4176
 7893SOL     OW35140   3.486   1.670   5.024  0.0783 -0.1218 -0.4886
 7893SOL    HW135141   3.557   1.727   5.054  1.0538 -0.2496 -2.5705
 7893SOL    HW235142   3.419   1.737   5.009 -2.3668 -2.6846 -0.9892
 7894SOL     OW35143   2.493   1.709  15.967  0.7535  0.6543  0.2236
 7894SOL    HW135144   2.526   1.730  15.880  2.1511 -0.3187  0.5078
 7894SOL    HW235145   2.403   1.741  15.959 -0.0552 -1.2587  1.7555
 7895SOL     OW35146   0.697   3.286   4.174 -0.2033  0.2008 -0.0957
 7895SOL    HW135147   0.714   3.200   4.213  0.9572  0.5741  0.2217
 7895SOL    HW235148   0.602   3.291   4.177 -0.1475  1.2221 -0.3319
 7896SOL     OW35149   0.660   0.737   5.656 -0.2933 -0.1501  0.5032
 7896SOL    HW135150   0.613   0.675   5.599 -1.4506  1.0937  0.1062
 7896SOL    HW235151   0.734   0.684   5.686  0.4270 -0.0215 -1.0426
 7897SOL     OW35152   4.370   1.924   3.286  0.2965 -0.0156 -0.2098
 7897SOL    HW135153   4.397   2.014   3.269  0.2984 -0.3256 -1.8740
 7897SOL    HW235154   4.319   1.943   3.365 -0.8057 -1.6860 -0.5075
 7898SOL     OW35155   1.997   0.464   2.928 -0.2582  0.8150 -0.0806
 7898SOL    HW135156   1.970   0.551   2.897  1.1952  0.7690 -1.4704
 7898SOL    HW235157   2.054   0.436   2.857 -0.6357 -0.7688  0.2462
 7899SOL     OW35158   3.864   2.552   0.558  0.0719 -0.5731 -0.7053
 7899SOL    HW135159   3.829   2.532   0.645  1.2925  2.0794  0.4104
 7899SOL    HW235160   3.833   2.643   0.566  2.6864  0.1868  1.0325
 7900SOL     OW35161   3.199   3.671   1.384 -0.3646 -0.3080 -0.4503
 7900SOL    HW135162   3.143   3.738   1.422 -0.1310  0.9677 -2.3599
 7900SOL    HW235163   3.276   3.678   1.440 -0.6986 -1.8515  0.2152
 7901SOL     OW35164   4.432   0.779  16.241  0.7696  0.8808  0.3098
 7901SOL    HW135165   4.515   0.767  16.286  0.0824 -1.0247  1.0412
 7901SOL    HW235166   4.379   0.798  16.318  0.6767 -0.2288  0.5164
 7902SOL     OW35167   0.083   2.758   5.915  0.2745  0.0266  0.0554
 7902SOL    HW135168   0.153   2.764   5.981  0.5354  0.3255 -0.2507
 7902SOL    HW235169   0.011   2.713   5.958  1.2958 -1.6911 -0.0157
 7903SOL     OW35170   3.219   1.371   2.539 -0.0527 -0.0548 -0.2228
 7903SOL    HW135171   3.197   1.463   2.556  1.2139  0.0062  1.0017
 7903SOL    HW235172   3.304   1.380   2.497  0.2192  0.1467  0.3848
 7904SOL     OW35173   3.361   3.124   6.788  0.0119 -0.3371  0.4087
 7904SOL    HW135174   3.318   3.103   6.705 -0.7986  1.3521  0.3972
 7904SOL    HW235175   3.364   3.039   6.833  0.9911 -1.0669 -1.0744
 7905SOL     OW35176   2.737   3.864   5.254 -0.0338 -0.1741 -0.2841
 7905SOL    HW135177   2.741   3.957   5.273 -0.3659 -0.1969 -0.1038
 7905SOL    HW235178   2.816   3.847   5.202  1.3413 -0.7209  1.9991
 7906SOL     OW35179   1.880   3.142   5.501  0.1102 -0.1645 -0.1628
 7906SOL    HW135180   1.933   3.217   5.528  0.8075 -0.0664 -1.7563
 7906SOL    HW235181   1.891   3.080   5.573  2.2335 -1.3607 -1.5076
 7907SOL     OW35182   4.093   0.532  15.828 -0.5262  0.0397 -0.2991
 7907SOL    HW135183   4.133   0.617  15.807  1.0572 -0.9163 -1.1633
 7907SOL    HW235184   4.033   0.549  15.901 -0.0175 -1.2947  0.4397
 7908SOL     OW35185   0.183   3.764   9.002  0.0220  0.8624  0.1709
 7908SOL    HW135186   0.194   3.685   8.950  1.6297  1.9712 -1.1921
 7908SOL    HW235187   0.104   3.753   9.054  0.0214  0.8646  0.1705
 7909SOL     OW35188   1.858   0.904  16.194  0.2886 -0.7332 -0.2919
 7909SOL    HW135189   1.856   0.996  16.219 -2.3772 -0.8954  0.0537
 7909SOL    HW235190   1.885   0.901  16.102  0.4642 -2.3150 -0.1954
 7910SOL     OW35191   1.205   1.769   4.810  0.4081 -0.2157  0.5623
 7910SOL    HW135192   1.124   1.802   4.849  0.7492  0.8897  0.3465
 7910SOL    HW235193   1.181   1.708   4.741  1.0547 -0.1676  0.2926
 7911SOL     OW35194   2.136   0.903   4.316  0.3079 -0.6218  0.2230
 7911SOL    HW135195   2.051   0.863   4.331 -0.9804  1.9386 -0.1130
 7911SOL    HW235196   2.168   0.844   4.248  1.4394  1.0085 -0.6650
 7912SOL     OW35197   2.400   3.690   6.495  0.9122 -0.5350 -0.5130
 7912SOL    HW135198   2.328   3.710   6.436 -0.9026 -2.1135  1.1656
 7912SOL    HW235199   2.430   3.780   6.483 -0.9739  0.3037  1.0939
 7913SOL     OW35200   0.938   2.060   2.551 -0.4726  0.1228 -0.3889
 7913SOL    HW135201   0.889   2.117   2.491  0.9984 -1.8944 -3.5109
 7913SOL    HW235202   0.940   1.980   2.498 -0.1492  1.1428 -1.9375
 7914SOL     OW35203   3.822   4.305   3.375 -0.2473  0.3004 -0.3340
 7914SOL    HW135204   3.754   4.307   3.308 -1.9959  0.0318  1.4355
 7914SOL    HW235205   3.804   4.218   3.410  1.5867  0.6800  1.5721
 7915SOL     OW35206   0.395   3.626  13.966  0.8172  0.1793 -0.7611
 7915SOL    HW135207   0.425   3.557  13.907  1.5562 -2.4189  2.6341
 7915SOL    HW235208   0.384   3.581  14.050 -1.5425  2.0346 -0.0793
 7916SOL     OW35209   3.960   0.095   2.922 -0.6062  0.5798  0.2437
 7916SOL    HW135210   3.901   0.022   2.940 -0.4216 -0.1792 -2.3298
 7916SOL    HW235211   3.976   0.079   2.829 -0.1116  2.0328  0.0757
 7917SOL     OW35212   0.532   2.901   2.456 -0.2971 -0.7532  0.1317
 7917SOL    HW135213   0.565   2.972   2.402  0.8393 -1.2783  0.1086
 7917SOL    HW235214   0.465   2.864   2.399 -0.1549  0.6202 -0.9041
 7918SOL     OW35215   4.537   2.585  17.125  0.1551 -0.0331  0.2601
 7918SOL    HW135216   4.498   2.633  17.198  0.0209 -0.2287  0.3186
 7918SOL    HW235217   4.555   2.499  17.164  0.5724 -0.6019 -1.1658
 7919SOL     OW35218   1.744   3.288   7.853  0.1924  0.0703  0.0645
 7919SOL    HW135219   1.676   3.253   7.795  1.1081 -0.7777 -0.4963
 7919SOL    HW235220   1.791   3.351   7.799  1.0106 -1.3782 -0.9385
 7920SOL     OW35221   0.180   1.075   0.978  0.3422 -0.5502 -0.4539
 7920SOL    HW135222   0.106   1.135   0.966  1.6702  1.0327 -0.7361
 7920SOL    HW235223   0.134   0.995   0.954 -1.2539 -0.1591  1.2173
 7921SOL     OW35224   3.454   4.583  12.765  0.8111  0.8049  0.0840
 7921SOL    HW135225   3.489   4.641  12.832  0.4815  2.0723 -0.8299
 7921SOL    HW235226   3.414   4.650  12.710  1.8303  2.6498  1.6042
 7922SOL     OW35227   2.138   0.633   4.835 -0.4841  0.0153 -0.4065
 7922SOL    HW135228   2.212   0.632   4.774 -0.2932  0.4656 -0.1826
 7922SOL    HW235229   2.180   0.664   4.915  1.2502  0.1350 -1.3527
 7923SOL     OW35230   2.098   3.317   4.676 -0.8471  0.1445  0.6977
 7923SOL    HW135231   2.137   3.313   4.588 -1.2361 -1.3254  0.5913
 7923SOL    HW235232   2.014   3.272   4.664 -0.2331 -0.5964 -0.9219
 7924SOL     OW35233   4.687   3.399  10.253  0.3938 -0.0115 -0.5735
 7924SOL    HW135234   4.684   3.325  10.314 -2.5125  0.5870  0.0156
 7924SOL    HW235235   4.636   3.379  10.175 -0.1431  0.1403 -0.2615
 7925SOL     OW35236   4.055   0.004   3.243 -0.1810  0.0221  0.2068
 7925SOL    HW135237   4.045   0.058   3.164 -1.2318 -2.9603 -1.6820
 7925SOL    HW235238   4.104   0.061   3.303  1.0061 -0.1130 -0.6286
 7926SOL     OW35239   0.382   1.539   6.001 -0.5663 -0.0281  0.4847
 7926SOL    HW135240   0.343   1.603   5.942  2.0323  0.1893 -0.9552
 7926SOL    HW235241   0.321   1.466   5.989 -0.0009 -0.0855 -2.0219
 7927SOL     OW35242   1.384   1.709  12.761 -0.2793  0.0490  0.0502
 7927SOL    HW135243   1.305   1.696  12.709  0.4858  1.0174 -1.3569
 7927SOL    HW235244   1.366   1.670  12.847  0.8956  1.5401  0.9722
 7928SOL     OW35245   1.521   3.346  17.540  0.3523  0.6015 -0.5778
 7928SOL    HW135246   1.500   3.429  17.583 -1.7423 -1.6057  2.6890
 7928SOL    HW235247   1.439   3.300  17.556  1.1327 -0.9302 -0.9662
 7929SOL     OW35248   1.276   3.218   3.477  1.2920 -0.0988 -0.0488
 7929SOL    HW135249   1.279   3.311   3.453 -0.9478 -0.3759 -1.4628
 7929SOL    HW235250   1.293   3.167   3.398 -0.9533 -1.7569  0.5437
 7930SOL     OW35251   0.030   2.038   6.630 -0.5630 -0.0507 -0.1505
 7930SOL    HW135252   0.013   2.047   6.536 -0.0554  0.2923 -0.2082
 7930SOL    HW235253   0.105   1.979   6.628 -0.7801 -0.2961 -1.2543
 7931SOL     OW35254   1.561   4.639   6.234  0.0384  0.8734  0.0054
 7931SOL    HW135255   1.572   0.007   6.244 -0.8406  1.0886 -1.0304
 7931SOL    HW235256   1.492   4.625   6.298 -2.6317  0.5638 -2.9229
 7932SOL     OW35257   1.567   2.903   7.589 -0.1196 -0.0398 -0.1088
 7932SOL    HW135258   1.574   2.833   7.654 -2.4992 -0.7985 -0.6555
 7932SOL    HW235259   1.615   2.869   7.514  0.2740 -1.2146  0.6673
 7933SOL     OW35260   0.782   3.136  16.844  0.0194 -0.0042  0.0028
 7933SOL    HW135261   0.735   3.183  16.775 -0.4348 -1.2483 -0.5340
 7933SOL    HW235262   0.750   3.174  16.925  0.7018 -0.1158  0.3235
 7934SOL     OW35263   2.422   1.355   3.710 -0.1366 -0.3393  0.6270
 7934SOL    HW135264   2.442   1.276   3.760 -0.8943 -2.6238 -2.6691
 7934SOL    HW235265   2.326   1.358   3.711 -0.0365  1.9133  1.3761
 7935SOL     OW35266   4.637   2.735  15.681 -0.8586 -0.2727  0.0005
 7935SOL    HW135267   4.654   2.825  15.655 -0.9412 -0.6471 -1.3339
 7935SOL    HW235268   4.603   2.753  15.768 -1.0426 -1.2401  0.1330
 7936SOL     OW35269   3.257   0.141   5.764  0.0177 -0.1901  0.0584
 7936SOL    HW135270   3.171   0.182   5.763  0.1825  0.1798  0.8645
 7936SOL    HW235271   3.313   0.215   5.741 -0.8039 -0.4693 -2.8199
 7937SOL     OW35272   0.290   0.673   5.938  0.2785  0.0582 -0.4525
 7937SOL    HW135273   0.318   0.603   5.997 -0.0273 -0.3211 -0.7595
 7937SOL    HW235274   0.371   0.715   5.909  0.8405 -1.0082 -0.4213
 7938SOL     OW35275   3.932   2.328  14.514  0.0610  0.3729 -0.0130
 7938SOL    HW135276   3.977   2.272  14.577 -0.8462  0.6666  0.8834
 7938SOL    HW235277   3.845   2.331  14.552  0.4483  0.9844  0.8389
 7939SOL     OW35278   4.632   4.062   7.185  0.6366  0.3235  0.1567
 7939SOL    HW135279   4.664   4.110   7.108 -1.5456 -0.7750 -1.4489
 7939SOL    HW235280   4.567   4.126   7.216  1.8018  1.0120  1.1652
 7940SOL     OW35281   1.110   3.782   8.999  0.1952  0.0687 -0.0060
 7940SOL    HW135282   1.142   3.871   9.018  1.5011 -0.4527  0.2363
 7940SOL    HW235283   1.047   3.807   8.932 -0.6299  2.9378  1.7981
 7941SOL     OW35284   1.643   1.182   9.206 -0.0067 -0.2174 -0.3239
 7941SOL    HW135285   1.669   1.234   9.130  1.9412  1.0203  1.2010
 7941SOL    HW235286   1.660   1.095   9.170  0.2060  0.3933 -1.6905
 7942SOL     OW35287   2.556   2.212   5.839  0.1815 -0.4087 -0.5453
 7942SOL    HW135288   2.604   2.268   5.899 -1.0350  0.2956 -0.2583
 7942SOL    HW235289   2.635   2.165   5.809  0.8638 -0.2296  0.9539
 7943SOL     OW35290   4.314   0.638  10.002  0.2123 -0.2620  0.0101
 7943SOL    HW135291   4.258   0.579  10.053  1.9927 -1.1686  0.9200
 7943SOL    HW235292   4.242   0.677   9.952 -2.6584  0.0570  4.3572
 7944SOL     OW35293   3.534   3.535   3.772 -0.3768  0.4173  0.4866
 7944SOL    HW135294   3.527   3.518   3.678  2.3142  4.8058 -0.5087
 7944SOL    HW235295   3.568   3.624   3.775  0.3557  0.1578 -0.1213
 7945SOL     OW35296   0.024   2.865   8.140  0.1218 -0.2194  0.0635
 7945SOL    HW135297   0.085   2.931   8.171 -1.1698  0.7076  0.6207
 7945SOL    HW235298   0.034   2.880   8.046 -0.4213  1.5092  0.2791
 7946SOL     OW35299   2.334   2.205   8.593  0.4289 -0.0075 -0.2694
 7946SOL    HW135300   2.415   2.215   8.643 -0.3544 -0.6598  1.1163
 7946SOL    HW235301   2.272   2.249   8.651 -0.9778  0.2731 -1.9769
 7947SOL     OW35302   0.529   2.170   1.746 -0.8581  0.2134 -0.0941
 7947SOL    HW135303   0.537   2.100   1.811 -1.8148  1.3629  1.2479
 7947SOL    HW235304   0.435   2.184   1.739 -0.9315 -0.4026 -0.3874
 7948SOL     OW35305   1.837   4.407   1.691 -0.5355  0.3623  0.2224
 7948SOL    HW135306   1.887   4.327   1.673  0.6277  0.9321  0.8786
 7948SOL    HW235307   1.764   4.378   1.637 -0.2671  2.0829 -1.0872
 7949SOL     OW35308   1.229   2.394  14.826 -0.0568 -0.0732  0.0935
 7949SOL    HW135309   1.214   2.395  14.920  0.5993  0.8087  0.1806
 7949SOL    HW235310   1.138   2.407  14.799  0.3421  2.4076 -0.0591
 7950SOL     OW35311   2.438   0.515   5.286 -0.0463 -0.5122 -0.0272
 7950SOL    HW135312   2.471   0.476   5.366  0.8376  0.2825 -0.0034
 7950SOL    HW235313   2.449   0.434   5.237 -0.6603  0.2789 -1.5040
 7951SOL     OW35314   4.713   2.922   1.313 -0.3414 -0.0056  0.3508
 7951SOL    HW135315   0.046   2.941   1.240  0.6641  0.4275  1.2918
 7951SOL    HW235316   0.031   2.951   1.392 -0.1652  1.7711 -0.4126
 7952SOL     OW35317   3.221   0.689   8.816 -0.1198 -0.2011 -0.6786
 7952SOL    HW135318   3.143   0.638   8.839 -1.4968  1.4513 -1.6491
 7952SOL    HW235319   3.204   0.768   8.868 -3.5591 -0.9273 -0.6943
 7953SOL     OW35320   3.247   3.421   4.204 -0.4703  0.1478  0.2760
 7953SOL    HW135321   3.266   3.327   4.199 -1.6650 -0.0720 -0.1490
 7953SOL    HW235322   3.173   3.425   4.144  0.7214  0.5622 -1.1373
 7954SOL     OW35323   0.198   2.430   0.269  0.3848 -0.4001 -0.0922
 7954SOL    HW135324   0.122   2.416   0.213  0.0838 -3.8318  1.1426
 7954SOL    HW235325   0.261   2.360   0.251  1.5462  0.5921  0.1628
 7955SOL     OW35326   1.434   1.359   9.640  0.3490 -0.1027  0.1231
 7955SOL    HW135327   1.452   1.388   9.551  0.8919  1.9428  0.9100
 7955SOL    HW235328   1.353   1.311   9.624  0.4831  0.4854 -2.2572
 7956SOL     OW35329   3.105   4.213   4.926  0.0888  0.0587 -1.1351
 7956SOL    HW135330   3.041   4.279   4.900  0.5386  0.5916 -0.8982
 7956SOL    HW235331   3.129   4.186   4.837 -2.5841  0.3662 -1.9324
 7957SOL     OW35332   0.083   2.590   0.041 -0.3157 -0.1016 -0.0235
 7957SOL    HW135333   0.105   2.670  17.697 -0.8779  0.6942  1.0336
 7957SOL    HW235334   0.017   2.625   0.101  1.2357 -0.1385  1.7042
 7958SOL     OW35335   2.592   2.437   5.479 -0.2559  0.3099 -0.4695
 7958SOL    HW135336   2.514   2.447   5.424 -1.1303 -0.0911  0.7022
 7958SOL    HW235337   2.655   2.431   5.407  0.0707 -0.3694 -0.1333
 7959SOL     OW35338   3.157   1.381   8.585  0.3551 -0.4419 -0.4001
 7959SOL    HW135339   3.206   1.345   8.659 -0.4350 -0.4613  0.1129
 7959SOL    HW235340   3.080   1.326   8.586 -0.4933  0.7529  0.4675
 7960SOL     OW35341   2.475   0.959  11.435  0.3288 -0.0118  0.0362
 7960SOL    HW135342   2.532   0.925  11.504 -1.3207 -3.0083 -0.0984
 7960SOL    HW235343   2.399   0.987  11.485  0.4025 -0.9951  0.7048
 7961SOL     OW35344   2.144   3.434   8.601 -0.0666 -0.3686 -0.5583
 7961SOL    HW135345   2.165   3.396   8.686  1.8410  1.7503 -0.1062
 7961SOL    HW235346   2.222   3.485   8.582  0.5557 -0.7287  1.1026
 7962SOL     OW35347   4.007   3.520   4.989 -0.3729  0.3738 -0.3573
 7962SOL    HW135348   3.980   3.565   4.909 -0.2970 -0.7646 -1.0181
 7962SOL    HW235349   4.010   3.430   4.958 -1.2279  0.5491 -0.9362
 7963SOL     OW35350   2.846   2.309  13.640 -0.2075  0.6922  0.0103
 7963SOL    HW135351   2.913   2.243  13.655 -0.8174  0.4678  1.7364
 7963SOL    HW235352   2.768   2.261  13.666 -0.4108  0.2507 -1.4192
 7964SOL     OW35353   4.192   0.896   0.950 -0.3532  0.3158 -0.1053
 7964SOL    HW135354   4.185   0.828   0.884 -3.1963 -1.2777  1.8689
 7964SOL    HW235355   4.285   0.918   0.943 -0.0759 -1.5585 -2.1656
 7965SOL     OW35356   3.392   1.589   9.476 -0.0508 -0.4896  0.1227
 7965SOL    HW135357   3.420   1.530   9.546 -0.2448 -0.5062  0.1851
 7965SOL    HW235358   3.374   1.675   9.514  0.7930 -1.2039  2.1304
 7966SOL     OW35359   1.575   2.754   6.591  0.0161  0.4737 -0.1124
 7966SOL    HW135360   1.480   2.767   6.599  0.1584  0.5111  1.5100
 7966SOL    HW235361   1.610   2.838   6.621 -0.7915  0.7728  0.0004
 7967SOL     OW35362   3.832   3.056   5.446 -0.3983  0.3718  0.1156
 7967SOL    HW135363   3.747   3.075   5.408 -1.0906  0.7661  1.8334
 7967SOL    HW235364   3.865   3.143   5.469 -0.0023  0.3362 -0.3215
 7968SOL     OW35365   2.154   1.494   5.834  0.0303 -0.0293  0.5374
 7968SOL    HW135366   2.175   1.587   5.832 -1.1503  0.3129  4.1079
 7968SOL    HW235367   2.059   1.500   5.824  0.1349 -0.6028 -0.7390
 7969SOL     OW35368   0.384   4.384   4.429  0.3883  0.3680 -0.1308
 7969SOL    HW135369   0.465   4.376   4.379 -0.1147 -1.2519 -0.6908
 7969SOL    HW235370   0.409   4.370   4.520  1.0465 -3.8334 -0.9659
 7970SOL     OW35371   4.364   1.349   5.225  0.5219 -0.5604 -0.2628
 7970SOL    HW135372   4.391   1.366   5.315  2.5897 -0.8956 -0.8250
 7970SOL    HW235373   4.269   1.338   5.230  0.4602  0.5086  0.7893
 7971SOL     OW35374   0.619   4.284   5.263  0.3512 -0.0181 -0.5213
 7971SOL    HW135375   0.539   4.241   5.293  1.4515 -0.5249  1.6962
 7971SOL    HW235376   0.595   4.308   5.174 -2.8589 -2.4927 -0.3231
 7972SOL     OW35377   4.655   3.641   2.054  0.2695 -0.6757 -0.6814
 7972SOL    HW135378   4.663   3.549   2.082  4.0672  0.6885  2.7356
 7972SOL    HW235379   4.579   3.632   1.997  0.2588 -0.0652 -0.7624
 7973SOL     OW35380   1.834   2.049   5.142 -0.4040  0.4962  0.2039
 7973SOL    HW135381   1.788   1.967   5.123  0.0682  0.5546 -1.2111
 7973SOL    HW235382   1.830   2.087   5.054 -0.1891  0.7292  0.2969
 7974SOL     OW35383   3.074   0.936  12.870  0.1396  0.0744 -0.0557
 7974SOL    HW135384   3.119   0.871  12.816 -1.1002 -0.8801  0.0752
 7974SOL    HW235385   3.151   0.967  12.918  1.8321 -3.0374 -0.7415
 7975SOL     OW35386   4.402   1.194  17.465  0.7305  0.0452  0.1383
 7975SOL    HW135387   4.469   1.144  17.419  1.2712 -0.2692  1.2762
 7975SOL    HW235388   4.319   1.181  17.418 -0.7711  0.6680  2.6010
 7976SOL     OW35389   1.985   3.481   7.957 -0.2180 -0.4172 -0.4509
 7976SOL    HW135390   2.034   3.512   8.033 -0.5632 -1.1437  0.0670
 7976SOL    HW235391   1.983   3.386   7.969 -2.7584 -0.9522 -5.0075
 7977SOL     OW35392   1.164   2.475   4.155  0.4826  0.0869  0.4273
 7977SOL    HW135393   1.122   2.558   4.132 -1.6242 -1.0592  0.1318
 7977SOL    HW235394   1.125   2.446   4.237 -1.4080 -1.0715 -0.8824
 7978SOL     OW35395   1.088   0.859  12.387 -0.4611  0.3607 -0.3066
 7978SOL    HW135396   1.061   0.911  12.311  0.1351 -0.6862 -1.2257
 7978SOL    HW235397   1.064   0.920  12.457 -1.3190  0.0708 -0.3425
 7979SOL     OW35398   4.671   0.472  13.921 -0.2007 -0.2216 -0.0567
 7979SOL    HW135399   0.010   0.478  13.851  0.9355  0.4853  1.0671
 7979SOL    HW235400   4.589   0.490  13.874  0.0200 -0.2407 -0.4479
 7980SOL     OW35401   3.299   4.329   7.100 -0.8181  0.3791 -0.2824
 7980SOL    HW135402   3.298   4.344   7.006  0.4486 -2.8710 -0.8386
 7980SOL    HW235403   3.210   4.296   7.114 -1.5603  1.9059 -1.4364
 7981SOL     OW35404   1.302   2.507   8.895 -0.0824 -0.0933 -0.3500
 7981SOL    HW135405   1.372   2.545   8.947  0.5456  0.5221 -1.6352
 7981SOL    HW235406   1.285   2.419   8.929 -0.3769  0.4569  0.9279
 7982SOL     OW35407   4.620   1.932   1.858  0.2668 -0.3411  0.5557
 7982SOL    HW135408   4.539   1.980   1.844 -0.4192 -1.8427 -0.6598
 7982SOL    HW235409   4.586   1.843   1.847 -0.4654  0.0847 -0.5759
 7983SOL     OW35410   2.067   4.346  17.088 -0.0048 -0.4519 -0.0539
 7983SOL    HW135411   2.104   4.417  17.140 -0.4499 -2.5903  3.1464
 7983SOL    HW235412   2.012   4.290  17.143  1.3293 -0.5324  1.1891
 7984SOL     OW35413   3.951   3.983   5.584  0.1382  0.1490  0.1362
 7984SOL    HW135414   3.897   4.029   5.520  1.1837  2.6019  1.0080
 7984SOL    HW235415   3.880   3.952   5.640 -0.9877  0.6477 -1.0168
 7985SOL     OW35416   1.669   1.508   8.202  0.2657 -0.3441  0.1089
 7985SOL    HW135417   1.683   1.526   8.109 -2.1873  0.4720 -0.1170
 7985SOL    HW235418   1.634   1.419   8.197  1.1100 -0.5956 -1.4226
 7986SOL     OW35419   2.781   1.501  15.143  0.1297 -0.2620  0.2221
 7986SOL    HW135420   2.788   1.589  15.105 -3.3735 -0.1868 -0.2553
 7986SOL    HW235421   2.782   1.448  15.064  0.4748  0.1249 -0.0369
 7987SOL     OW35422   1.192   1.205   2.668 -0.1293 -0.2027 -0.0120
 7987SOL    HW135423   1.285   1.192   2.654  0.2720 -0.1265  2.7290
 7987SOL    HW235424   1.160   1.117   2.689 -0.7627 -0.0092 -0.1474
 7988SOL     OW35425   4.257   1.712  11.995 -0.0158  0.6083  0.2383
 7988SOL    HW135426   4.237   1.659  11.917 -0.6540  0.0247  0.7954
 7988SOL    HW235427   4.319   1.776  11.960 -0.5365  2.0956  2.0679
 7989SOL     OW35428   0.148   4.172   0.939 -0.2548  0.0478  0.4196
 7989SOL    HW135429   0.179   4.187   0.849 -1.3064 -1.0064 -0.1212
 7989SOL    HW235430   0.100   4.254   0.944 -0.3339  0.0063  0.3408
 7990SOL     OW35431   2.564   3.385   4.093 -0.4658 -0.3018  0.1823
 7990SOL    HW135432   2.592   3.472   4.066 -0.3774  0.0546  1.4474
 7990SOL    HW235433   2.613   3.373   4.174 -0.7689  1.9339  0.6976
 7991SOL     OW35434   4.165   4.439   8.679 -0.1232  0.0833 -0.0218
 7991SOL    HW135435   4.157   4.415   8.772  2.0986 -0.6323 -0.0187
 7991SOL    HW235436   4.210   4.522   8.692  0.0387  0.3433 -2.2620
 7992SOL     OW35437   4.289   4.440  14.937  0.0845 -0.7706 -0.0420
 7992SOL    HW135438   4.315   4.384  15.011 -0.3992  1.7867  2.0689
 7992SOL    HW235439   4.371   4.468  14.896 -1.1063  1.8248 -0.6557
 7993SOL     OW35440   4.629   0.235   4.798  0.7877 -0.1128  0.1402
 7993SOL    HW135441   4.579   0.269   4.723  1.5694  0.9783  0.1068
 7993SOL    HW235442   4.632   0.310   4.858 -1.8900  0.7046 -0.7364
 7994SOL     OW35443   3.828   2.413   3.717 -0.3407 -0.0354  0.4820
 7994SOL    HW135444   3.773   2.340   3.688  0.6922  0.0367 -1.6330
 7994SOL    HW235445   3.916   2.377   3.729 -0.5083 -0.4611  0.4228
 7995SOL     OW35446   3.705   4.623   9.890  0.6043  0.2595  0.3736
 7995SOL    HW135447   3.695   4.608   9.796 -1.2150 -0.4107  0.6778
 7995SOL    HW235448   3.741   4.712   9.890  0.6215  0.2535  0.5789
 7996SOL     OW35449   3.503   1.907   1.334  0.0962 -0.1561 -0.3875
 7996SOL    HW135450   3.538   1.925   1.421 -1.7190 -1.5947  0.6514
 7996SOL    HW235451   3.579   1.923   1.279  0.9533 -1.4760  0.4255
 7997SOL     OW35452   1.244   2.831   8.141 -0.0803 -0.0030 -0.0294
 7997SOL    HW135453   1.227   2.737   8.135  0.1544 -0.2290  3.0068
 7997SOL    HW235454   1.194   2.856   8.219  1.1759 -0.6368  0.9696
 7998SOL     OW35455   3.188   3.283   7.142  0.0735  0.4081 -0.5014
 7998SOL    HW135456   3.183   3.375   7.116  2.1385  0.7355  0.2563
 7998SOL    HW235457   3.096   3.265   7.162 -0.1182  1.2743 -0.6064
 7999SOL     OW35458   0.379   4.424   3.965  0.3478  0.6188  0.1128
 7999SOL    HW135459   0.394   4.384   3.879  0.6063 -1.4178  1.0982
 7999SOL    HW235460   0.439   4.370   4.018  1.8754 -1.3574 -3.6275
 8000SOL     OW35461   1.839   4.688  12.572 -0.7467  0.0109 -0.0892
 8000SOL    HW135462   1.786   0.026  12.621 -2.1962 -0.6189 -0.8305
 8000SOL    HW235463   1.790   4.687  12.489  1.2897 -1.5567 -1.2722
 8001SOL     OW35464   4.537   4.433  17.307 -0.7409 -0.1536 -0.3815
 8001SOL    HW135465   4.513   4.341  17.295  1.7134 -0.8626  0.1996
 8001SOL    HW235466   4.476   4.465  17.374 -0.2555 -0.7769  0.3678
 8002SOL     OW35467   3.254   0.122  10.248  0.1311  0.1368 -0.2786
 8002SOL    HW135468   3.286   0.039  10.282 -2.4263  0.0373  1.9010
 8002SOL    HW235469   3.163   0.122  10.277 -0.9454 -1.2248 -3.5685
 8003SOL     OW35470   0.111   1.213   4.767 -0.0157  0.1507  0.1030
 8003SOL    HW135471   0.113   1.199   4.862  1.2839 -0.3247  0.0109
 8003SOL    HW235472   0.205   1.216   4.746  0.2510 -1.9881  1.0004
 8004SOL     OW35473   4.428   0.123   5.119  0.8112 -0.0759  0.1959
 8004SOL    HW135474   4.506   0.167   5.153  0.5113 -0.1981  1.0310
 8004SOL    HW235475   4.440   0.034   5.154  0.5450 -0.2577 -0.1718
 8005SOL     OW35476   3.385   2.149   8.110 -0.0163 -0.2982 -0.0221
 8005SOL    HW135477   3.351   2.059   8.114 -1.9302  0.4030 -0.8158
 8005SOL    HW235478   3.457   2.136   8.048 -0.2053  0.5069 -0.3945
 8006SOL     OW35479   1.034   4.576   6.984 -1.0775 -0.3959 -0.0719
 8006SOL    HW135480   1.019   4.595   7.077 -3.3757 -0.9418 -0.3341
 8006SOL    HW235481   1.100   4.507   6.989 -1.4405 -0.8721 -1.6206
 8007SOL     OW35482   0.773   0.960   4.209  0.4237 -0.1363 -0.1872
 8007SOL    HW135483   0.754   1.029   4.145  0.5893 -1.6090 -1.8523
 8007SOL    HW235484   0.770   1.013   4.288 -0.8204  0.7440 -0.8232
 8008SOL     OW35485   0.800   1.759   4.336  0.0305  0.4049  0.5560
 8008SOL    HW135486   0.787   1.730   4.246 -0.8377 -1.4888  1.2841
 8008SOL    HW235487   0.844   1.681   4.371  1.1922  1.2681  1.0270
 8009SOL     OW35488   3.899   2.432   3.214 -0.2603 -0.4723  0.2788
 8009SOL    HW135489   3.854   2.356   3.176  1.2155 -1.1411 -0.1164
 8009SOL    HW235490   3.843   2.439   3.292  0.5359 -1.1084  0.9001
 8010SOL     OW35491   3.428   4.527   7.268 -0.4413 -0.3289  0.4070
 8010SOL    HW135492   3.423   4.464   7.196  0.9588  0.6190 -0.5123
 8010SOL    HW235493   3.337   4.536   7.298 -0.0136  1.1416  1.2574
 8011SOL     OW35494   0.275   3.976   4.699 -0.1306  0.6902 -0.1899
 8011SOL    HW135495   0.328   3.900   4.722  0.0843  0.4339 -1.5467
 8011SOL    HW235496   0.339   4.045   4.682  0.2959 -0.3620 -2.8322
 8012SOL     OW35497   3.042   1.061   7.072  0.0058  0.3237  0.1796
 8012SOL    HW135498   2.983   1.110   7.015  2.7093  2.5951 -0.6684
 8012SOL    HW235499   3.117   1.120   7.071  0.0636  0.2723  1.7549
 8013SOL     OW35500   1.573   2.254   9.891 -0.3812 -0.1020  0.5679
 8013SOL    HW135501   1.650   2.270   9.946  0.0317 -2.1559  0.5764
 8013SOL    HW235502   1.506   2.233   9.956  0.0465  0.9937  1.3642
 8014SOL     OW35503   1.203   4.398  15.628 -0.1328  0.2975 -0.6815
 8014SOL    HW135504   1.142   4.358  15.690  0.6698  0.7657  0.4000
 8014SOL    HW235505   1.183   4.490  15.642  1.1512  0.3441  0.8124
 8015SOL     OW35506   1.793   1.977   3.867  0.0609 -0.7232 -0.2581
 8015SOL    HW135507   1.758   1.985   3.778  2.8894 -0.8467 -1.3817
 8015SOL    HW235508   1.714   1.953   3.915 -0.2871 -0.7497 -0.8339
 8016SOL     OW35509   3.654   4.635   2.771 -0.6296 -0.1600  0.1187
 8016SOL    HW135510   3.727   4.581   2.803 -1.4211 -2.7911 -2.5936
 8016SOL    HW235511   3.614   4.670   2.850  1.9175 -0.0122  1.3430
 8017SOL     OW35512   4.639   0.132   4.020  0.3124 -0.0843 -1.0246
 8017SOL    HW135513   4.615   0.052   4.067 -0.5019  0.6932 -0.1008
 8017SOL    HW235514   4.630   0.103   3.930  0.9962 -1.0969 -0.7640
 8018SOL     OW35515   3.070   1.239   9.586  1.1127  0.4881  0.4262
 8018SOL    HW135516   3.047   1.328   9.614 -0.4378  0.0147  0.6128
 8018SOL    HW235517   3.140   1.212   9.645 -1.8583 -0.9286  3.2593
 8019SOL     OW35518   0.552   2.473  13.679  0.4018 -0.2390 -0.0482
 8019SOL    HW135519   0.577   2.432  13.596  0.0247  0.2664 -0.4172
 8019SOL    HW235520   0.624   2.536  13.685 -0.7676  1.2852 -1.9999
 8020SOL     OW35521   3.159   3.778   2.565 -0.2057  0.5315  0.6578
 8020SOL    HW135522   3.197   3.731   2.640  0.3725  1.3536  0.8826
 8020SOL    HW235523   3.074   3.736   2.560  0.7883 -1.3186 -0.8468
 8021SOL     OW35524   1.108   2.693   3.902 -0.1101 -0.3559 -0.3561
 8021SOL    HW135525   1.176   2.762   3.904 -0.2013 -0.3323  1.5840
 8021SOL    HW235526   1.163   2.620   3.875  0.1128 -0.6223  0.8296
 8022SOL     OW35527   3.581   0.224   6.563  0.3329  0.0180  0.3400
 8022SOL    HW135528   3.527   0.302   6.560  1.0543  0.5037  0.0589
 8022SOL    HW235529   3.641   0.233   6.637  0.9713 -0.8979 -0.0554
 8023SOL     OW35530   3.726   1.197   8.436 -0.4812 -0.1903  0.4227
 8023SOL    HW135531   3.762   1.283   8.460 -1.4629  0.4858 -0.4844
 8023SOL    HW235532   3.649   1.202   8.494  0.3716 -2.7069  1.7311
 8024SOL     OW35533   0.695   1.361   3.964  0.6433  0.3188 -0.1591
 8024SOL    HW135534   0.780   1.317   3.973 -1.1382 -3.0182  0.5389
 8024SOL    HW235535   0.630   1.298   3.996  1.3871 -1.6283 -2.4952
 8025SOL     OW35536   3.417   3.768   7.065 -0.2285  0.3852 -0.5991
 8025SOL    HW135537   3.421   3.862   7.080  0.8390 -0.2426  2.9473
 8025SOL    HW235538   3.330   3.748   7.101 -0.2421 -0.1743 -0.9476
 8026SOL     OW35539   4.518   0.473  14.849  0.3395  0.0286 -0.2797
 8026SOL    HW135540   4.442   0.479  14.907  0.2026 -1.1136 -0.3348
 8026SOL    HW235541   4.571   0.543  14.888  0.6064 -0.4069  0.1431
 8027SOL     OW35542   4.090   1.338  12.493 -0.5968 -0.0135 -0.1754
 8027SOL    HW135543   4.127   1.263  12.540 -0.0277  0.5184  0.2242
 8027SOL    HW235544   4.035   1.295  12.428 -0.0815 -2.8327  1.2317
 8028SOL     OW35545   0.432   0.057   2.506 -0.0140 -0.3909 -0.0626
 8028SOL    HW135546   0.430   0.153   2.516  0.7709 -0.4498  0.6501
 8028SOL    HW235547   0.480   0.051   2.423  0.7614  0.3471  0.3243
 8029SOL     OW35548   1.047   3.028   7.208 -0.8867 -0.6203 -0.4427
 8029SOL    HW135549   1.041   2.965   7.280  1.0667 -0.5604 -0.2318
 8029SOL    HW235550   0.977   3.091   7.227  0.0201  0.8250 -1.8553
 8030SOL     OW35551   0.450   2.438   5.615  0.5685 -0.0504 -0.2598
 8030SOL    HW135552   0.540   2.452   5.588  0.8359  0.2143  0.7738
 8030SOL    HW235553   0.439   2.343   5.617 -3.6656  0.4016 -0.2021
 8031SOL     OW35554   2.543   3.591  14.941 -0.0225 -0.1401  0.1208
 8031SOL    HW135555   2.508   3.632  14.862  1.5976 -0.1204 -0.5841
 8031SOL    HW235556   2.502   3.504  14.938 -0.2995  0.0176 -0.6236
 8032SOL     OW35557   2.630   2.684   0.745 -0.5486  0.0898  0.3891
 8032SOL    HW135558   2.678   2.711   0.823 -3.4444 -0.4021  2.3764
 8032SOL    HW235559   2.622   2.591   0.766  1.5693 -0.0928  0.3302
 8033SOL     OW35560   3.625   4.521   1.738  0.1448  0.7332 -0.4114
 8033SOL    HW135561   3.715   4.490   1.743 -0.4177 -0.7116  0.6776
 8033SOL    HW235562   3.611   4.575   1.815 -3.4125  1.1573 -1.3703
 8034SOL     OW35563   4.558   2.151  15.089  0.7994  0.4715 -0.2887
 8034SOL    HW135564   4.636   2.147  15.033  0.0095  1.2731 -1.4505
 8034SOL    HW235565   4.503   2.221  15.053 -1.7831 -1.4365 -0.0378
 8035SOL     OW35566   0.875   2.940  10.642  0.2449  0.3042  0.5164
 8035SOL    HW135567   0.934   2.936  10.567 -0.8210  0.2897 -0.3236
 8035SOL    HW235568   0.931   2.893  10.703  0.4318  0.7944  0.7188
 8036SOL     OW35569   1.769   1.776  15.079 -0.1020 -0.1179 -0.5749
 8036SOL    HW135570   1.821   1.803  15.003  2.0100 -1.3310  0.4660
 8036SOL    HW235571   1.816   1.818  15.150 -1.5417  0.2239  0.1691
 8037SOL     OW35572   3.273   1.281  11.939  0.2253  0.6970  0.1082
 8037SOL    HW135573   3.217   1.259  12.014 -0.0329  0.8787 -0.0333
 8037SOL    HW235574   3.219   1.282  11.860  2.2552  0.3816 -1.2503
 8038SOL     OW35575   3.364   0.845   0.730 -0.1394  0.1205 -0.4611
 8038SOL    HW135576   3.387   0.903   0.804 -0.2432  1.5582 -1.5562
 8038SOL    HW235577   3.443   0.839   0.677 -0.4854  1.9912 -1.1945
 8039SOL     OW35578   3.881   2.311   2.735 -0.1388 -0.5657 -0.2190
 8039SOL    HW135579   3.926   2.288   2.654 -1.0476 -0.0148 -0.8752
 8039SOL    HW235580   3.803   2.259   2.719 -1.6285  1.5066  0.3102
 8040SOL     OW35581   4.480   3.592  17.560  0.3822 -0.1317 -0.0909
 8040SOL    HW135582   4.412   3.577  17.495  1.2863  1.8362 -1.4979
 8040SOL    HW235583   4.525   3.508  17.571 -1.1026 -0.9669 -0.4910
 8041SOL     OW35584   2.499   1.609  10.599 -0.1518  0.4422 -0.3897
 8041SOL    HW135585   2.467   1.558  10.673 -2.1473 -0.9789 -2.2095
 8041SOL    HW235586   2.451   1.555  10.535 -0.7223  1.5150 -0.8560
 8042SOL     OW35587   4.313   1.735   9.781  0.2127  0.1354 -0.0840
 8042SOL    HW135588   4.344   1.796   9.714 -0.9652 -0.4776 -1.1937
 8042SOL    HW235589   4.220   1.757   9.791 -0.2471 -1.4734 -0.7660
 8043SOL     OW35590   1.696   2.313  13.989 -0.0448  0.4505 -0.2249
 8043SOL    HW135591   1.763   2.246  13.973  0.8015  1.3470 -0.4107
 8043SOL    HW235592   1.679   2.349  13.902  0.5729  0.0148 -0.5358
 8044SOL     OW35593   3.792   0.840   6.825  0.0395 -0.4160  0.0781
 8044SOL    HW135594   3.857   0.908   6.805 -3.1479  2.5125 -0.2968
 8044SOL    HW235595   3.728   0.875   6.764 -0.6953 -1.7614  0.0759
 8045SOL     OW35596   4.570   3.112   2.173 -0.0367 -0.2465  0.1599
 8045SOL    HW135597   4.599   3.201   2.151  0.8967 -0.6290 -0.1399
 8045SOL    HW235598   4.520   3.125   2.253  0.3976  0.5033  0.3063
 8046SOL     OW35599   1.328   4.677   4.277 -0.1344 -0.1712  0.5043
 8046SOL    HW135600   1.404   4.678   4.335  1.7491 -0.1716 -1.9778
 8046SOL    HW235601   1.293   4.589   4.287 -0.7570  0.2655  2.1637
 8047SOL     OW35602   3.446   0.557   9.754 -0.0991 -0.4423 -0.0999
 8047SOL    HW135603   3.482   0.485   9.702  0.0873 -0.2257 -0.2727
 8047SOL    HW235604   3.515   0.621   9.738  0.3663 -1.5036 -2.3032
 8048SOL     OW35605   3.381   2.659   6.869 -0.4123  0.3745 -0.5136
 8048SOL    HW135606   3.433   2.738   6.852  0.8713  0.4501  3.8125
 8048SOL    HW235607   3.320   2.650   6.796  1.1408  1.0083 -1.8926
 8049SOL     OW35608   0.889   4.647   5.810 -0.0949  0.0515 -0.6188
 8049SOL    HW135609   0.894   4.655   5.715  2.0049 -2.4824 -0.7441
 8049SOL    HW235610   0.945   4.717   5.843  0.7379 -0.5106 -0.8316
 8050SOL     OW35611   4.662   0.763   8.005 -0.2763  0.3537 -0.2110
 8050SOL    HW135612   4.695   0.844   8.044 -0.3704  0.5991 -0.6454
 8050SOL    HW235613   4.623   0.721   8.082  1.0243 -0.4618  0.0012
 8051SOL     OW35614   0.370   2.469   7.947  0.0208 -0.4146  0.0045
 8051SOL    HW135615   0.412   2.435   7.868 -0.4564 -1.6099  0.2646
 8051SOL    HW235616   0.286   2.427   7.929 -0.9200  1.4418  0.0936
 8052SOL     OW35617   2.603   3.935  15.209 -0.1623  0.2084  0.0535
 8052SOL    HW135618   2.664   3.894  15.149 -1.2374 -1.6553  0.2400
 8052SOL    HW235619   2.570   4.003  15.150  1.1612  0.5662 -0.2691
 8053SOL     OW35620   4.014   3.891   6.522  0.1650 -0.0656 -0.4840
 8053SOL    HW135621   4.050   3.803   6.529  0.1881 -0.0559 -0.4787
 8053SOL    HW235622   4.094   3.942   6.507  0.9510 -0.3674  2.7052
 8054SOL     OW35623   0.766   3.748   6.441  0.2101 -0.1935  0.8723
 8054SOL    HW135624   0.716   3.666   6.441 -0.1394  0.0232 -2.4167
 8054SOL    HW235625   0.820   3.726   6.517 -0.2114 -2.2285  0.5922
 8055SOL     OW35626   2.384   3.455   3.432  0.3791 -0.6395 -0.5361
 8055SOL    HW135627   2.434   3.525   3.474 -1.6198 -0.7503  2.0291
 8055SOL    HW235628   2.420   3.468   3.345  1.6885 -2.2008 -0.2441
 8056SOL     OW35629   3.427   3.311   8.565  0.4558 -0.1104 -0.0080
 8056SOL    HW135630   3.363   3.341   8.630 -0.2258  0.6546 -1.0495
 8056SOL    HW235631   3.367   3.278   8.499 -2.3903  0.8854  2.0773
 8057SOL     OW35632   3.825   2.064   9.406 -0.1352  0.1778 -0.1372
 8057SOL    HW135633   3.868   2.082   9.323  1.4162  0.6353  0.7800
 8057SOL    HW235634   3.768   2.141   9.415  1.8486  1.4321  1.7186
 8058SOL     OW35635   1.416   1.849   2.168  0.3707  0.1354  0.2662
 8058SOL    HW135636   1.414   1.892   2.254 -1.4447 -1.6596  1.1268
 8058SOL    HW235637   1.465   1.771   2.191 -1.5594 -0.9939  0.5457
 8059SOL     OW35638   1.761   2.824   6.952  0.4035  0.7218  0.3553
 8059SOL    HW135639   1.736   2.765   7.024  1.3774  0.6713  0.6427
 8059SOL    HW235640   1.709   2.900   6.978  1.8838  0.8879  2.8369
 8060SOL     OW35641   0.720   3.470   7.645 -0.5980  0.0047  0.1823
 8060SOL    HW135642   0.740   3.419   7.724 -0.6437  1.0093  0.8493
 8060SOL    HW235643   0.788   3.440   7.585  0.7469 -0.8622  2.1416
 8061SOL     OW35644   1.965   4.293   6.039 -0.2224 -0.5118 -0.1660
 8061SOL    HW135645   1.973   4.197   6.045  2.7526 -0.2715 -0.4978
 8061SOL    HW235646   1.889   4.291   6.097  0.1534  2.3266  0.4030
 8062SOL     OW35647   2.292   1.660   5.609  0.0642 -0.3447 -0.3430
 8062SOL    HW135648   2.251   1.745   5.594 -0.4436 -0.8735 -1.9725
 8062SOL    HW235649   2.369   1.688   5.659 -1.2555  0.9334  0.9796
 8063SOL     OW35650   0.427   3.222   4.199 -0.0249  0.4051 -0.4512
 8063SOL    HW135651   0.416   3.195   4.107 -1.4547  1.0768 -0.4847
 8063SOL    HW235652   0.356   3.286   4.206 -0.7684 -0.5564  0.8709
 8064SOL     OW35653   2.146   3.318   0.769 -0.1858 -0.3937 -0.0906
 8064SOL    HW135654   2.063   3.352   0.736  0.0122  0.5451  0.3683
 8064SOL    HW235655   2.182   3.403   0.796  1.0664  0.0638 -3.2469
 8065SOL     OW35656   0.612   1.859  15.001  0.0128  0.3659  0.6576
 8065SOL    HW135657   0.610   1.876  14.907 -1.1502 -0.2740  0.5674
 8065SOL    HW235658   0.707   1.865  15.011  0.1099  0.5955 -0.4473
 8066SOL     OW35659   2.397   3.610   2.663  0.4660  0.3225 -0.0939
 8066SOL    HW135660   2.317   3.560   2.678  1.2913 -1.2512 -0.9169
 8066SOL    HW235661   2.403   3.665   2.740 -1.3779  1.4033 -0.7366
 8067SOL     OW35662   0.572   3.780   7.282 -0.6654 -0.1314  0.2606
 8067SOL    HW135663   0.597   3.871   7.270  0.1163 -0.2521  0.9803
 8067SOL    HW235664   0.505   3.761   7.216  0.6558  0.1929 -1.1673
 8068SOL     OW35665   3.488   2.514   4.772  0.2697  0.7632 -0.0366
 8068SOL    HW135666   3.479   2.425   4.807  1.4053 -0.1881 -2.1617
 8068SOL    HW235667   3.431   2.562   4.831  0.4267 -1.9060  2.2608
 8069SOL     OW35668   2.412   2.936  14.773  0.2805  0.2373  0.0705
 8069SOL    HW135669   2.454   2.900  14.694 -2.4986 -0.2007 -1.2065
 8069SOL    HW235670   2.451   3.023  14.784 -0.3360  0.3238  1.5796
 8070SOL     OW35671   1.803   3.488   7.388 -0.2508 -0.8053 -0.0632
 8070SOL    HW135672   1.845   3.574   7.384 -0.9583 -0.4630 -0.1033
 8070SOL    HW235673   1.779   3.473   7.297 -1.5837  1.2538 -0.0594
 8071SOL     OW35674   0.049   0.621  17.410  0.1851  0.5966  0.4532
 8071SOL    HW135675   0.024   0.547  17.354 -1.5160  0.2625  1.6433
 8071SOL    HW235676   0.029   0.591  17.498 -1.5678  0.9092  0.1623
 8072SOL     OW35677   4.640   4.697  11.604  0.2117  0.0515 -0.1001
 8072SOL    HW135678   4.566   4.654  11.647 -1.5456  2.2588 -0.9472
 8072SOL    HW235679   4.704   4.628  11.621  2.3601  1.4950 -2.5091
 8073SOL     OW35680   1.367   3.724  13.416  0.1662  0.4382  0.0566
 8073SOL    HW135681   1.440   3.716  13.354 -0.2159 -1.2321 -0.1859
 8073SOL    HW235682   1.287   3.735  13.365  1.6147 -1.1522 -2.5648
 8074SOL     OW35683   1.276   1.612   2.946  0.2644  0.2925  0.5605
 8074SOL    HW135684   1.253   1.639   3.035  0.1382  0.9364  0.3346
 8074SOL    HW235685   1.194   1.581   2.907 -0.2932  3.6009 -0.8395
 8075SOL     OW35686   0.988   1.890   9.977 -0.2430 -0.4245 -0.3961
 8075SOL    HW135687   1.061   1.938   9.936  0.8087 -0.8363  0.9885
 8075SOL    HW235688   0.976   1.823   9.910  1.8006 -1.0754 -0.1131
 8076SOL     OW35689   3.277   4.385   4.053  0.2510 -0.2284  0.0538
 8076SOL    HW135690   3.355   4.405   4.103 -0.0793 -1.1933  0.9583
 8076SOL    HW235691   3.318   4.337   3.981 -0.3193  1.2143 -1.2355
 8077SOL     OW35692   4.724   3.075   7.725  0.0340 -0.6357  0.3404
 8077SOL    HW135693   4.715   3.054   7.632 -1.0942  2.3825 -0.2313
 8077SOL    HW235694   4.716   3.170   7.721  1.6570 -0.4161  2.5726
 8078SOL     OW35695   1.250   4.574   5.647 -0.1028 -0.0877 -0.2780
 8078SOL    HW135696   1.299   4.511   5.595 -0.0338  0.6892 -1.1731
 8078SOL    HW235697   1.233   4.519   5.723 -0.6354 -0.9528 -1.0255
 8079SOL     OW35698   4.267   2.244   9.208 -0.3090 -0.0048 -0.0546
 8079SOL    HW135699   4.289   2.272   9.120  0.1384  1.4731  0.5374
 8079SOL    HW235700   4.340   2.289   9.250  1.6604 -2.7136 -0.6002
 8080SOL     OW35701   4.096   4.213   5.118 -0.0755  0.4726 -0.2123
 8080SOL    HW135702   4.163   4.147   5.104  0.2579  0.2892  2.2056
 8080SOL    HW235703   4.076   4.265   5.040 -0.9964 -0.6830 -0.7503
 8081SOL     OW35704   2.159   3.352   6.137 -0.3501 -0.4746 -0.3352
 8081SOL    HW135705   2.181   3.384   6.225 -0.2161  2.3182 -1.4008
 8081SOL    HW235706   2.177   3.423   6.076 -1.1039  0.5142  0.6021
 8082SOL     OW35707   0.911   2.746   6.059 -0.1380 -0.1189 -0.0957
 8082SOL    HW135708   0.906   2.696   6.141 -1.1184  2.3623  1.3273
 8082SOL    HW235709   0.820   2.740   6.030 -0.4545  1.0436  0.6797
 8083SOL     OW35710   1.313   1.320  15.154 -0.2754 -0.6466 -0.4686
 8083SOL    HW135711   1.278   1.267  15.082 -0.8561  0.4354 -0.9787
 8083SOL    HW235712   1.233   1.364  15.180  0.2903  0.2828 -0.3311
 8084SOL     OW35713   0.408   1.596   1.911  0.4432  0.1021  0.1300
 8084SOL    HW135714   0.447   1.565   1.829  4.3484  3.9660  0.5664
 8084SOL    HW235715   0.382   1.686   1.893  2.2470  1.0648  2.3707
 8085SOL     OW35716   4.399   3.207   5.515  0.3839 -0.0962 -0.3405
 8085SOL    HW135717   4.429   3.265   5.585  1.1362 -0.1795 -0.5982
 8085SOL    HW235718   4.479   3.201   5.463 -0.9502 -0.3450 -2.3719
 8086SOL     OW35719   2.257   4.336   7.285  0.2505 -0.6364 -0.0282
 8086SOL    HW135720   2.183   4.368   7.336  0.4060  0.1541 -0.2837
 8086SOL    HW235721   2.320   4.408   7.298 -0.5605  0.3052 -1.2718
 8087SOL     OW35722   4.634   2.725   6.507 -0.6884 -0.5004  0.5826
 8087SOL    HW135723   4.702   2.665   6.537  0.6652  1.8696  2.1700
 8087SOL    HW235724   4.585   2.693   6.430 -0.1247 -3.4682  1.4428
 8088SOL     OW35725   3.011   1.515   9.583  0.2941  0.6396  0.4508
 8088SOL    HW135726   3.019   1.568   9.662  3.3836  0.7932  0.0394
 8088SOL    HW235727   3.052   1.562   9.510  1.2736  0.7305  1.0559
 8089SOL     OW35728   4.626   4.386   4.339 -0.7333 -0.2927  0.2642
 8089SOL    HW135729   4.651   4.401   4.430  1.7679  1.7088 -0.7523
 8089SOL    HW235730   4.667   4.300   4.324 -1.0820 -0.2425 -0.9967
 8090SOL     OW35731   2.195   0.224   8.297 -0.4368  0.5003 -0.3390
 8090SOL    HW135732   2.276   0.264   8.330 -0.9266  1.9863 -0.9249
 8090SOL    HW235733   2.234   0.161   8.237  0.2334  1.7903 -1.2750
 8091SOL     OW35734   0.171   3.773   8.631  0.3032  0.4890  0.3947
 8091SOL    HW135735   0.080   3.776   8.659 -0.1798 -0.9757 -1.0210
 8091SOL    HW235736   0.201   3.862   8.614  3.4280 -0.8363 -1.1278
 8092SOL     OW35737   1.151   3.687   5.881  0.1664 -0.4359  0.3654
 8092SOL    HW135738   1.185   3.600   5.902  1.3403  0.8166  3.6364
 8092SOL    HW235739   1.213   3.707   5.812 -0.0484 -0.0950  0.2669
 8093SOL     OW35740   2.200   3.927   4.667 -0.2801 -0.0454  0.2690
 8093SOL    HW135741   2.114   3.969   4.667 -1.0345 -1.5703  0.9662
 8093SOL    HW235742   2.208   3.926   4.762 -0.1565 -0.5523  0.2531
 8094SOL     OW35743   1.792   2.640   3.446  0.3009 -0.2212 -0.1191
 8094SOL    HW135744   1.815   2.551   3.470 -0.8594 -0.3968  0.3445
 8094SOL    HW235745   1.697   2.630   3.449  0.5540 -1.9678  1.9958
 8095SOL     OW35746   2.764   2.759   0.988  0.4837 -0.2591 -0.2722
 8095SOL    HW135747   2.783   2.785   1.078 -0.5622 -1.4741  0.2963
 8095SOL    HW235748   2.853   2.734   0.964  0.9349 -0.5693  1.8085
 8096SOL     OW35749   2.403   3.829   7.954 -0.2261 -0.0054  0.0146
 8096SOL    HW135750   2.482   3.809   8.003 -0.2468 -2.1636 -0.8237
 8096SOL    HW235751   2.444   3.897   7.900 -0.7563  1.4513  1.4599
 8097SOL     OW35752   1.531   1.586   0.318  0.3508 -0.0988 -0.3418
 8097SOL    HW135753   1.604   1.530   0.294  0.9210  1.8778 -3.1094
 8097SOL    HW235754   1.565   1.605   0.406 -0.0439  0.0599 -0.2237
 8098SOL     OW35755   4.596   0.457   7.625  0.6000 -0.1711  0.2779
 8098SOL    HW135756   4.637   0.453   7.711  3.0504  0.5299 -0.8704
 8098SOL    HW235757   4.515   0.415   7.653  0.7473 -0.8176 -0.2811
 8099SOL     OW35758   4.241   1.029   3.760  0.3990  0.1893  0.2807
 8099SOL    HW135759   4.189   0.955   3.794  1.7073 -0.7697  0.1790
 8099SOL    HW235760   4.187   1.093   3.714 -1.0744 -0.6777  0.7948
 8100SOL     OW35761   0.438   2.474   2.969 -0.0967  0.0466  0.1549
 8100SOL    HW135762   0.437   2.392   2.920 -1.6419  0.7235 -0.9525
 8100SOL    HW235763   0.498   2.452   3.041  0.7521  1.2866 -0.1669
 8101SOL     OW35764   0.335   4.335  14.171 -0.2932 -0.6405 -0.3574
 8101SOL    HW135765   0.261   4.285  14.137  1.6291 -2.9849 -1.1591
 8101SOL    HW235766   0.310   4.418  14.131 -0.4690  0.5182  2.1556
 8102SOL     OW35767   2.405   0.269  10.145  0.1618  0.9185 -0.2907
 8102SOL    HW135768   2.442   0.339  10.092  0.9557  1.2728  0.7418
 8102SOL    HW235769   2.423   0.296  10.235  0.6251 -0.0196 -0.1004
 8103SOL     OW35770   1.536   3.030   9.386 -0.3158  0.4642 -0.0390
 8103SOL    HW135771   1.495   3.103   9.434  2.8350  2.1236  0.1166
 8103SOL    HW235772   1.594   3.078   9.327 -3.0086  0.7138 -2.4852
 8104SOL     OW35773   0.002   2.026   1.316 -0.2478 -0.2922  0.0164
 8104SOL    HW135774   0.095   2.030   1.296 -0.2645  1.3730  0.3011
 8104SOL    HW235775   4.720   1.943   1.364 -0.8863 -1.0543 -1.4103
 8105SOL     OW35776   3.288   1.863   6.756 -0.0248  0.2262  0.1596
 8105SOL    HW135777   3.305   1.957   6.750  2.5737 -0.2822 -0.2815
 8105SOL    HW235778   3.201   1.850   6.719 -0.3937  0.4649  0.9306
 8106SOL     OW35779   3.809   1.808   8.059  0.0495 -0.6492  0.1731
 8106SOL    HW135780   3.885   1.866   8.064 -0.2285 -0.3332  0.7947
 8106SOL    HW235781   3.813   1.792   7.965  2.1151  1.2641 -0.0529
 8107SOL     OW35782   2.978   0.009   3.918 -0.5533 -0.0115  0.1168
 8107SOL    HW135783   3.071   4.721   3.898 -0.1584  2.1604  0.3812
 8107SOL    HW235784   2.930   4.698   3.844  1.5149 -3.1501  0.3226
 8108SOL     OW35785   1.770   4.057  13.222  0.2228 -0.1958 -0.0567
 8108SOL    HW135786   1.847   4.077  13.169  0.5186 -0.4189  0.2933
 8108SOL    HW235787   1.716   4.001  13.167 -1.1809  0.0960  1.0004
 8109SOL     OW35788   4.215   3.658   9.467 -0.3832 -0.4833 -1.1480
 8109SOL    HW135789   4.212   3.564   9.486 -1.7528 -0.2748 -0.3566
 8109SOL    HW235790   4.122   3.677   9.453  0.2582  2.2300 -1.5331
 8110SOL     OW35791   2.426   0.091  15.121 -0.0340 -0.2458  0.2606
 8110SOL    HW135792   2.481   0.130  15.053  0.5439 -2.2867 -0.4152
 8110SOL    HW235793   2.486   0.044  15.178 -0.2905 -0.2308  0.5411
 8111SOL     OW35794   2.359   1.754   3.105  0.1814 -0.7190  0.1769
 8111SOL    HW135795   2.399   1.689   3.048 -0.3493 -0.8132 -0.0922
 8111SOL    HW235796   2.345   1.699   3.183  1.6166  1.1999  1.7856
 8112SOL     OW35797   1.209   0.807   4.319  0.0657  0.8082  0.9554
 8112SOL    HW135798   1.295   0.828   4.281  0.2233 -1.1665  0.2103
 8112SOL    HW235799   1.166   0.860   4.252  0.0025  0.5225  0.7708
 8113SOL     OW35800   0.587   3.521   8.638  0.3107  0.0647 -0.3280
 8113SOL    HW135801   0.628   3.450   8.589  0.7111  0.8493 -1.1362
 8113SOL    HW235802   0.653   3.524   8.707  0.3186 -3.3222 -0.1799
 8114SOL     OW35803   1.590   0.382   3.327  0.5414 -0.7607  0.1637
 8114SOL    HW135804   1.555   0.329   3.398  0.2816  1.0525  1.3756
 8114SOL    HW235805   1.680   0.400   3.354 -0.1981  2.5538  0.4894
 8115SOL     OW35806   2.872   0.477   7.316  0.6685  0.2702  0.4291
 8115SOL    HW135807   2.851   0.521   7.399 -0.6093  1.1133 -0.3408
 8115SOL    HW235808   2.960   0.512   7.306  0.7739 -0.1609 -0.1325
 8116SOL     OW35809   4.021   2.038   4.993  0.5282 -0.1309  0.1253
 8116SOL    HW135810   4.090   2.003   5.050  2.3870  0.0354 -2.0269
 8116SOL    HW235811   4.010   2.127   5.027 -1.1073  0.6180 -2.3323
 8117SOL     OW35812   0.952   2.918   3.305  0.4222  0.6401 -0.1665
 8117SOL    HW135813   0.913   2.904   3.219  0.2593  0.6310 -0.0914
 8117SOL    HW235814   1.044   2.895   3.296  0.0979 -0.4701 -0.6330
 8118SOL     OW35815   3.668   4.613   9.583  0.2747  0.0994  0.4216
 8118SOL    HW135816   3.656   4.533   9.532 -0.7628  0.1193  0.6256
 8118SOL    HW235817   3.748   4.650   9.545  0.3314  0.1796  0.6184
 8119SOL     OW35818   3.039   0.096   6.760  0.3546  0.0652 -0.3725
 8119SOL    HW135819   2.956   0.102   6.712 -0.6220 -2.0013  1.0291
 8119SOL    HW235820   3.015   0.121   6.849  1.4667  1.6515 -0.5302
 8120SOL     OW35821   2.005   1.073   3.181 -0.2735 -0.0853  0.3474
 8120SOL    HW135822   1.974   1.103   3.267 -0.0474 -3.0078  1.4521
 8120SOL    HW235823   2.081   1.131   3.172  1.2948 -1.9192  1.7086
 8121SOL     OW35824   0.691   0.767   4.596 -0.1058  0.4296  0.0343
 8121SOL    HW135825   0.702   0.769   4.501  0.2463 -0.8756  0.0497
 8121SOL    HW235826   0.777   0.798   4.622 -0.5933  0.2833  1.7915
 8122SOL     OW35827   4.586   0.361   2.205  0.0696 -0.3541  0.4444
 8122SOL    HW135828   4.645   0.285   2.202 -1.1058 -1.2772  1.2894
 8122SOL    HW235829   4.504   0.321   2.176  0.1567  0.4607 -0.9207
 8123SOL     OW35830   0.251   1.982  13.245  0.0570 -0.0605 -0.3186
 8123SOL    HW135831   0.195   1.944  13.313  1.7290  0.5897  1.4340
 8123SOL    HW235832   0.308   2.030  13.305  0.3417  1.1327 -1.5386
 8124SOL     OW35833   1.839   3.766  14.296  0.4892  0.5209  0.2309
 8124SOL    HW135834   1.745   3.761  14.313  0.7706 -0.6956  1.4309
 8124SOL    HW235835   1.873   3.726  14.376  0.3056  1.2735  0.6890
 8125SOL     OW35836   1.088   0.949   3.773 -0.0506 -0.1484 -0.4681
 8125SOL    HW135837   1.026   0.883   3.802 -0.6295 -0.5327 -2.5226
 8125SOL    HW235838   1.165   0.898   3.750  0.4542 -0.3685  1.7218
 8126SOL     OW35839   0.361   0.139   3.026  0.8347  0.2721  0.2280
 8126SOL    HW135840   0.361   0.072   2.958 -0.3354  0.4086  0.0977
 8126SOL    HW235841   0.308   0.092   3.091 -0.2442  2.5695  0.9856
 8127SOL     OW35842   4.395   2.125   7.827 -0.1158  0.2562  0.4637
 8127SOL    HW135843   4.397   2.194   7.760  0.3672  0.3988  0.6233
 8127SOL    HW235844   4.462   2.155   7.889  0.9700 -1.3569  0.0686
 8128SOL     OW35845   0.425   2.150  16.075 -0.5494  0.0250 -0.1003
 8128SOL    HW135846   0.333   2.174  16.088 -1.4451 -2.7359 -1.3252
 8128SOL    HW235847   0.418   2.083  16.143  0.0987  0.1293  0.0660
 8129SOL     OW35848   1.187   0.628  12.452 -0.3316 -0.2872 -0.3304
 8129SOL    HW135849   1.138   0.709  12.445  0.5455  0.0954 -2.1182
 8129SOL    HW235850   1.145   0.580  12.380 -1.9640 -0.4693  0.7427
 8130SOL     OW35851   4.697   2.522   6.031 -0.5127  0.6879  0.1957
 8130SOL    HW135852   4.628   2.457   6.042 -0.9813  1.0583 -0.4683
 8130SOL    HW235853   4.673   2.583   6.100  2.0850 -1.2432  2.7878
 8131SOL     OW35854   4.287   1.183   2.483  0.0024 -0.7326  0.1332
 8131SOL    HW135855   4.349   1.253   2.504  0.1029 -0.6599 -0.3893
 8131SOL    HW235856   4.306   1.170   2.390  1.3953 -2.4397  0.6656
 8132SOL     OW35857   0.758   1.399   1.553 -0.4520 -0.5939 -0.0226
 8132SOL    HW135858   0.803   1.317   1.533  1.4394  1.2468 -3.1662
 8132SOL    HW235859   0.678   1.387   1.501 -1.1669 -0.9116  1.1471
 8133SOL     OW35860   4.152   3.629  15.372 -0.5424 -0.1010 -0.0123
 8133SOL    HW135861   4.088   3.628  15.442  1.9045  2.9839  2.2786
 8133SOL    HW235862   4.098   3.669  15.305 -2.1333 -0.2123  1.2120
 8134SOL     OW35863   0.918   1.727   2.123 -0.5355  0.2631  0.7814
 8134SOL    HW135864   0.973   1.694   2.052  0.3922 -0.0584  1.6505
 8134SOL    HW235865   0.856   1.789   2.086 -0.4036  0.4864  0.9391
 8135SOL     OW35866   2.425   2.998   9.764  0.5988  0.2844  0.6506
 8135SOL    HW135867   2.453   3.005   9.855 -0.9897  1.4225  1.0394
 8135SOL    HW235868   2.503   3.012   9.710 -0.3988  0.0294 -0.8739
 8136SOL     OW35869   4.058   1.753   6.753 -0.4094 -0.3181 -0.5003
 8136SOL    HW135870   4.152   1.742   6.769 -0.3499  0.6996 -0.1481
 8136SOL    HW235871   4.043   1.694   6.679  0.4952  0.2078 -1.1027
 8137SOL     OW35872   4.095   1.278   4.003 -0.3840  0.4065  0.4607
 8137SOL    HW135873   4.047   1.210   3.955 -0.6276 -0.9470  2.6300
 8137SOL    HW235874   4.098   1.246   4.093  0.0120 -0.2268  0.2191
 8138SOL     OW35875   0.794   3.638  10.226 -0.4690  0.3682 -0.0514
 8138SOL    HW135876   0.789   3.581  10.303  1.9472  0.8866  0.4864
 8138SOL    HW235877   0.853   3.705  10.261  1.0809 -1.2886  0.5125
 8139SOL     OW35878   1.959   0.144  12.094 -0.2474 -0.7300 -0.6443
 8139SOL    HW135879   1.868   0.127  12.070 -0.9555 -0.9543  2.2062
 8139SOL    HW235880   1.989   0.109  12.010  0.3867 -0.4301 -0.5441
 8140SOL     OW35881   3.682   1.414   3.674  0.3112 -0.5102  0.0500
 8140SOL    HW135882   3.732   1.485   3.634  0.8722 -0.0714  1.5439
 8140SOL    HW235883   3.666   1.347   3.607  0.0704  1.5706 -1.9633
 8141SOL     OW35884   4.595   0.631  17.686 -0.5134  0.2049  0.7792
 8141SOL    HW135885   4.636   0.647   0.067  0.6664 -0.2839  0.3152
 8141SOL    HW235886   4.592   0.722  17.657  2.3397  0.2175  0.5298
 8142SOL     OW35887   1.329   1.849   3.923 -0.4124  0.2640  0.1468
 8142SOL    HW135888   1.423   1.855   3.907 -0.7865 -0.4445 -2.2113
 8142SOL    HW235889   1.308   1.792   3.850 -2.6452  1.7522 -0.3920
 8143SOL     OW35890   3.196   1.680   6.407  0.2087 -0.3773  0.4355
 8143SOL    HW135891   3.277   1.636   6.379 -0.3303 -1.8611  1.2297
 8143SOL    HW235892   3.162   1.619   6.472 -1.8046 -0.7619 -0.9908
 8144SOL     OW35893   1.437   4.665   3.865 -0.4488 -0.1944 -0.1705
 8144SOL    HW135894   1.368   4.599   3.873  1.4045 -2.1570 -0.6957
 8144SOL    HW235895   1.396   0.008   3.812  1.0382 -0.5898 -1.8192
 8145SOL     OW35896   0.560   0.487   7.610 -0.3188 -0.3021 -0.3910
 8145SOL    HW135897   0.482   0.459   7.659 -0.9932  0.4034 -1.0581
 8145SOL    HW235898   0.580   0.548   7.680 -1.5463  0.9731 -1.1452
 8146SOL     OW35899   0.809   3.479  13.571 -0.0333  0.1625  0.5578
 8146SOL    HW135900   0.781   3.393  13.540  0.3200 -0.1583  1.1337
 8146SOL    HW235901   0.725   3.521  13.593 -0.4044  1.7510 -3.7882
 8147SOL     OW35902   1.432   1.642   0.059 -0.5280  0.3534 -0.2922
 8147SOL    HW135903   1.372   1.711   0.089  0.5146  0.5175  1.4633
 8147SOL    HW235904   1.458   1.605   0.144 -2.4276  0.3813  0.3091
 8148SOL     OW35905   3.744   0.828   4.338 -0.4695  0.1337  0.2069
 8148SOL    HW135906   3.817   0.787   4.293  0.0942  1.5734 -0.1690
 8148SOL    HW235907   3.726   0.895   4.271  0.1298 -0.6577 -0.7429
 8149SOL     OW35908   3.191   2.378   8.174 -0.0113 -0.3486 -0.1571
 8149SOL    HW135909   3.257   2.313   8.149 -0.0693 -1.5296  2.8004
 8149SOL    HW235910   3.164   2.341   8.258  3.6849  0.7163  1.5321
 8150SOL     OW35911   2.538   0.049   4.603 -0.2720 -0.5422  0.7374
 8150SOL    HW135912   2.606   4.725   4.649  1.4123  1.7042  0.6799
 8150SOL    HW235913   2.486   0.081   4.677  0.1680  1.7848  0.0503
 8151SOL     OW35914   1.932   2.209   5.877 -0.2682  0.7269 -0.2235
 8151SOL    HW135915   1.841   2.230   5.897 -0.5596 -0.5500 -0.1803
 8151SOL    HW235916   1.942   2.261   5.797  1.0008 -0.9970 -1.1902
 8152SOL     OW35917   2.204   4.503  17.528  0.2884  0.4551  0.2390
 8152SOL    HW135918   2.195   4.552  17.610 -0.1078 -0.0423  0.4915
 8152SOL    HW235919   2.180   4.414  17.552  0.9158 -0.0956 -1.1907
 8153SOL     OW35920   1.739   1.589  13.864  0.1415  0.2952 -0.3337
 8153SOL    HW135921   1.665   1.645  13.840  0.0469  0.1900 -0.2888
 8153SOL    HW235922   1.719   1.589  13.958 -0.3916 -0.5408 -0.4439
 8154SOL     OW35923   3.656   1.905   5.085 -0.7034  0.0355  0.2161
 8154SOL    HW135924   3.694   1.990   5.061 -2.3884  1.0972  1.3346
 8154SOL    HW235925   3.730   1.849   5.107  0.0750  1.0422  0.1679
 8155SOL     OW35926   0.299   2.066   6.427  0.2376 -0.3629  0.2805
 8155SOL    HW135927   0.393   2.077   6.442  0.5759 -3.1458  0.2759
 8155SOL    HW235928   0.291   2.134   6.360  0.3347  0.0376  0.6790
 8156SOL     OW35929   4.080   2.500   5.798 -0.6370 -0.1755  0.2048
 8156SOL    HW135930   4.098   2.586   5.835 -2.4311  0.1397  0.3521
 8156SOL    HW235931   4.157   2.478   5.747  0.3389 -0.8747  1.9816
 8157SOL     OW35932   2.022   2.262   8.396  0.2916 -0.6753  0.7003
 8157SOL    HW135933   1.969   2.240   8.473  0.8994 -0.3254  1.2150
 8157SOL    HW235934   2.056   2.348   8.421  1.2761 -0.9871  0.4241
 8158SOL     OW35935   2.183   3.761   4.287  0.3436  0.0687 -0.3799
 8158SOL    HW135936   2.104   3.708   4.274  0.3779 -0.2453  0.7029
 8158SOL    HW235937   2.207   3.726   4.373  2.2802  2.9185  0.2255
 8159SOL     OW35938   0.316   0.755   3.121  0.1761  0.2141 -0.4529
 8159SOL    HW135939   0.281   0.822   3.179  1.9680  0.1878  0.6612
 8159SOL    HW235940   0.409   0.776   3.132  0.1432 -0.0805  0.3792
 8160SOL     OW35941   3.573   3.982   5.954 -0.2743  0.3034  0.1338
 8160SOL    HW135942   3.610   3.933   6.027 -2.1906 -0.0161  0.9012
 8160SOL    HW235943   3.571   4.073   5.983  0.0462  0.2591  0.2863
 8161SOL     OW35944   4.527   0.431   8.761  0.1986 -0.3136 -0.0193
 8161SOL    HW135945   4.557   0.414   8.850  5.2485  3.5722 -0.9774
 8161SOL    HW235946   4.518   0.526   8.760 -0.9024 -0.4127  0.3551
 8162SOL     OW35947   2.194   3.039   4.760  0.3877 -0.2159 -0.6548
 8162SOL    HW135948   2.119   3.001   4.715 -1.5581  0.8082  1.7548
 8162SOL    HW235949   2.175   3.133   4.758  1.1115 -0.0889 -1.8452
 8163SOL     OW35950   2.670   3.055   8.220 -0.1337 -0.0838  0.2241
 8163SOL    HW135951   2.577   3.062   8.202  0.5194  2.0346 -2.2780
 8163SOL    HW235952   2.669   3.125   8.286  2.1757 -1.2723  1.5246
 8164SOL     OW35953   1.122   0.541   0.778  0.2271  0.5187 -0.4402
 8164SOL    HW135954   1.205   0.501   0.804  1.0955  2.2812 -0.4883
 8164SOL    HW235955   1.122   0.518   0.685  0.2779 -1.1142 -0.0443
 8165SOL     OW35956   0.812   1.128  15.427 -0.5894 -0.2091  0.7027
 8165SOL    HW135957   0.727   1.099  15.393 -0.2382  1.7760 -1.8880
 8165SOL    HW235958   0.846   1.173  15.350 -1.1617 -1.1314 -0.0990
 8166SOL     OW35959   4.657   0.869   0.354 -0.2291 -0.1819 -0.1577
 8166SOL    HW135960   0.001   0.823   0.309  1.4140  1.7850  0.3852
 8166SOL    HW235961   4.663   0.958   0.320 -1.1535  0.6897  1.9628
 8167SOL     OW35962   2.940   0.508   7.760  0.5879  0.4399 -0.2744
 8167SOL    HW135963   2.979   0.506   7.847 -1.8292 -0.2205  0.7951
 8167SOL    HW235964   3.008   0.486   7.696  1.1990 -0.8070  0.8284
 8168SOL     OW35965   4.359   1.837  15.112 -0.1529 -0.5504 -0.2632
 8168SOL    HW135966   4.365   1.866  15.021 -2.6126  0.5966 -0.0701
 8168SOL    HW235967   4.452   1.830  15.133 -0.3225  0.6087  0.8932
 8169SOL     OW35968   4.683   0.986  15.532  0.2750  0.3120 -0.1915
 8169SOL    HW135969   4.622   1.033  15.476  0.2422  1.0958  0.5026
 8169SOL    HW235970   4.676   1.023  15.620  0.8163  1.1769 -0.5060
 8170SOL     OW35971   4.513   2.610  17.408  0.0648  0.0821  0.4914
 8170SOL    HW135972   4.457   2.634  17.482  2.7844  0.7107  2.3478
 8170SOL    HW235973   4.566   2.536  17.436 -1.3560 -1.7377 -1.6910
 8171SOL     OW35974   1.744   4.572   6.008  0.6597  0.5196 -0.3512
 8171SOL    HW135975   1.679   4.588   6.077 -0.3347 -3.7602 -0.2630
 8171SOL    HW235976   1.692   4.533   5.937 -0.3392  1.0123  0.1160
 8172SOL     OW35977   1.718   1.682   5.731  0.0967  0.3334 -0.2564
 8172SOL    HW135978   1.720   1.758   5.789  1.7444 -0.5530  0.8275
 8172SOL    HW235979   1.796   1.698   5.678 -0.7540 -0.6442 -1.8111
 8173SOL     OW35980   0.024   2.228  12.794  0.2894 -0.0882 -0.6220
 8173SOL    HW135981   4.708   2.276  12.865 -1.4658  0.9802 -2.4193
 8173SOL    HW235982   4.680   2.213  12.731 -2.0775 -1.3807  2.3227
 8174SOL     OW35983   1.065   2.063   6.355  0.4232 -1.0088 -0.0963
 8174SOL    HW135984   1.143   2.097   6.310 -1.4077  1.6871 -1.1981
 8174SOL    HW235985   1.060   1.976   6.317 -0.4617 -0.3945 -1.3777
 8175SOL     OW35986   3.089   0.534  17.346 -0.1885  0.2561 -0.4825
 8175SOL    HW135987   3.005   0.490  17.361  0.4742 -0.7624  0.2539
 8175SOL    HW235988   3.119   0.533  17.437 -1.6133  1.2899 -0.0057
 8176SOL     OW35989   1.128   2.432   5.630 -0.0142 -0.0224 -0.8506
 8176SOL    HW135990   1.093   2.349   5.661 -0.7422  1.3063  1.8843
 8176SOL    HW235991   1.111   2.476   5.714 -0.2090 -4.0282  1.2028
 8177SOL     OW35992   2.627   3.822   1.971 -0.1835  0.3278 -0.1141
 8177SOL    HW135993   2.673   3.795   2.050 -0.9636 -2.6330 -0.6693
 8177SOL    HW235994   2.659   3.755   1.910 -0.3412 -0.0178  0.1820
 8178SOL     OW35995   3.187   4.538  16.346 -0.1746  0.6330  0.1368
 8178SOL    HW135996   3.241   4.610  16.379  1.6261 -1.0642  0.8719
 8178SOL    HW235997   3.097   4.558  16.373 -0.8808 -2.7939  0.4131
 8179SOL     OW35998   3.382   4.461   4.950 -0.2902 -0.2420  0.4697
 8179SOL    HW135999   3.474   4.440   4.962  0.0761  1.3066  0.3515
 8179SOL    HW236000   3.347   4.400   5.014 -1.7511 -0.8934 -0.9360
 8180SOL     OW36001   3.425   4.701  10.794 -0.3993 -0.3464 -0.1846
 8180SOL    HW136002   3.463   4.718  10.708  2.1710 -1.1384  0.7904
 8180SOL    HW236003   3.422   0.064  10.829  0.4578 -0.5219  0.3325
 8181SOL     OW36004   2.424   0.706   6.475  0.2828  0.4932  0.0244
 8181SOL    HW136005   2.363   0.757   6.529 -1.0394 -1.0898  0.0414
 8181SOL    HW236006   2.419   0.749   6.390  2.2189 -2.6750 -1.6912
 8182SOL     OW36007   2.964   2.279   6.704 -0.1336 -0.2668 -0.3899
 8182SOL    HW136008   3.054   2.247   6.712  0.3032  1.0677  0.0829
 8182SOL    HW236009   2.918   2.204   6.666 -0.4796  0.2383 -0.9540
 8183SOL     OW36010   1.461   4.706  13.464  0.5256 -0.0912  0.5574
 8183SOL    HW136011   1.536   0.023  13.423  0.2713 -1.4510 -1.3364
 8183SOL    HW236012   1.469   0.034  13.542 -1.0557  0.8153  0.1079
 8184SOL     OW36013   2.954   2.236   9.140  0.0463  0.2159  0.3184
 8184SOL    HW136014   3.044   2.208   9.154  0.2022  0.6905  0.2912
 8184SOL    HW236015   2.900   2.158   9.141 -0.0204  0.2610  0.2703
 8185SOL     OW36016   0.635   1.002  14.467  0.3147 -0.2387  1.0192
 8185SOL    HW136017   0.586   0.921  14.481 -0.8595  0.2691 -0.2756
 8185SOL    HW236018   0.612   1.046  14.549  0.9642  4.3692 -1.3164
 8186SOL     OW36019   4.415   1.523  12.929  0.2616 -0.0225  0.1612
 8186SOL    HW136020   4.457   1.537  12.845  0.2803 -0.1801  0.1434
 8186SOL    HW236021   4.376   1.608  12.946  0.9276  0.4694 -0.7554
 8187SOL     OW36022   1.587   2.849   2.443  0.2933  0.7096 -0.0800
 8187SOL    HW136023   1.680   2.825   2.452 -0.0169  0.6229  2.6466
 8187SOL    HW236024   1.568   2.849   2.349 -0.3720  0.6413  0.0594
 8188SOL     OW36025   4.269   2.548  12.230  0.7395 -0.1086  0.3683
 8188SOL    HW136026   4.236   2.476  12.285  0.6909  1.3448  2.2553
 8188SOL    HW236027   4.360   2.549  12.260  0.6825 -0.1630  0.5425
 8189SOL     OW36028   0.725   3.725   6.948  0.1377 -0.0266 -0.2382
 8189SOL    HW136029   0.635   3.697   6.936  0.0175  0.4177 -0.3472
 8189SOL    HW236030   0.730   3.809   6.904  1.1683  2.0648  3.8458
 8190SOL     OW36031   3.887   1.745   5.101 -0.0131 -0.0519  0.1268
 8190SOL    HW136032   3.935   1.719   5.180 -1.1507 -1.1624  0.4488
 8190SOL    HW236033   3.937   1.687   5.043  0.6036 -0.3573  0.9565
 8191SOL     OW36034   0.429   0.753   3.480 -0.3025  0.1509  0.0432
 8191SOL    HW136035   0.485   0.791   3.548  0.2618  1.5930 -1.2399
 8191SOL    HW236036   0.391   0.676   3.524  0.8823 -1.7208 -2.2011
 8192SOL     OW36037   2.614   2.311   2.978 -0.5390 -0.2188  0.4334
 8192SOL    HW136038   2.586   2.354   3.059  5.5260  1.7797  1.3964
 8192SOL    HW236039   2.535   2.314   2.924  0.1672  1.0282 -0.5119
 8193SOL     OW36040   1.552   4.010  15.785 -0.4054  0.3905  0.1537
 8193SOL    HW136041   1.588   3.980  15.702 -1.8593  0.3784 -0.4632
 8193SOL    HW236042   1.470   4.049  15.756  1.2536  2.4052 -1.8716
 8194SOL     OW36043   3.094   1.676   9.361  0.2335  0.6608 -0.7238
 8194SOL    HW136044   3.109   1.595   9.313 -0.7523 -1.1699  2.0990
 8194SOL    HW236045   3.176   1.721   9.340  0.4088  1.2199  1.1120
 8195SOL     OW36046   1.971   1.067   7.572  0.8077 -0.5244 -0.0858
 8195SOL    HW136047   1.913   0.999   7.606  0.3347 -1.3080 -2.4745
 8195SOL    HW236048   1.955   1.141   7.631  1.1143 -2.1758  2.0667
 8196SOL     OW36049   0.852   0.769  15.304 -0.1228 -0.2084 -0.1730
 8196SOL    HW136050   0.769   0.779  15.350  1.6576  1.3626  2.6514
 8196SOL    HW236051   0.812   0.715  15.235  0.7109 -1.3054  0.1986
 8197SOL     OW36052   2.811   2.793   4.861 -0.3407  0.5874  0.3436
 8197SOL    HW136053   2.855   2.825   4.783 -4.3009  1.7916 -1.3854
 8197SOL    HW236054   2.796   2.862   4.925 -2.0996 -0.0416  0.6001
 8198SOL     OW36055   4.020   1.109  10.353 -0.1798  0.2860  0.6796
 8198SOL    HW136056   3.998   1.185  10.407  0.2797  0.3612  0.7639
 8198SOL    HW236057   4.107   1.134  10.320 -0.0092 -0.7010  0.3829
 8199SOL     OW36058   0.648   2.059   4.163 -0.3555 -0.8459  0.1389
 8199SOL    HW136059   0.603   1.976   4.179 -3.0430  0.6430  0.3543
 8199SOL    HW236060   0.601   2.119   4.221 -3.1692 -1.2936 -1.6761
 8200SOL     OW36061   4.575   0.461  10.625  0.1455 -1.3943 -0.6002
 8200SOL    HW136062   4.560   0.404  10.701  0.3018  0.3702  0.7515
 8200SOL    HW236063   4.483   0.476  10.605 -0.1670 -1.3997  0.7807
 8201SOL     OW36064   1.197   0.550  16.050 -0.4448 -0.0389 -0.0253
 8201SOL    HW136065   1.155   0.525  16.133 -1.4322 -0.7410 -0.7446
 8201SOL    HW236066   1.178   0.467  16.006  3.2203 -1.3044  0.7254
 8202SOL     OW36067   2.197   3.252   4.044  0.3380  0.3115 -0.3915
 8202SOL    HW136068   2.242   3.265   3.960  2.3041 -3.8182  0.0099
 8202SOL    HW236069   2.228   3.333   4.086  3.7785 -1.3541  0.2668
 8203SOL     OW36070   1.983   1.607   0.070 -0.1274 -0.4445  0.0724
 8203SOL    HW136071   1.968   1.660   0.148  2.2054  0.6958 -0.2567
 8203SOL    HW236072   2.071   1.575   0.090 -0.2321 -0.0998  1.1012
 8204SOL     OW36073   2.393   0.618  17.135  0.6442  0.0843 -0.4605
 8204SOL    HW136074   2.393   0.688  17.199 -0.4394 -2.1657  2.0116
 8204SOL    HW236075   2.486   0.601  17.121  0.9303  0.7018  0.7212
 8205SOL     OW36076   3.173   3.466   3.126 -0.4712 -0.3804 -0.1390
 8205SOL    HW136077   3.128   3.419   3.055 -3.1787 -1.0089  2.0037
 8205SOL    HW236078   3.178   3.396   3.192  3.3582 -0.0747 -0.0936
 8206SOL     OW36079   3.742   3.453  11.830 -0.2810  0.0549  0.5146
 8206SOL    HW136080   3.687   3.401  11.889 -1.7314  1.0369  0.0306
 8206SOL    HW236081   3.818   3.450  11.888 -0.9304  2.2126  1.5068
 8207SOL     OW36082   1.479   4.478   7.366 -0.1701 -0.0336  0.2714
 8207SOL    HW136083   1.487   4.394   7.320  1.7165 -0.6680  1.7333
 8207SOL    HW236084   1.456   4.524   7.286 -0.3565 -1.6734 -0.6128
 8208SOL     OW36085   4.379   0.459   8.309 -0.3485 -0.1123  0.2796
 8208SOL    HW136086   4.391   0.544   8.350 -2.7187  0.4483 -0.1717
 8208SOL    HW236087   4.287   0.445   8.334 -0.4059 -1.0826 -0.4418
 8209SOL     OW36088   3.598   2.204  14.991  0.0811 -0.4137  0.5217
 8209SOL    HW136089   3.538   2.159  15.051 -2.2429 -0.4490 -1.8170
 8209SOL    HW236090   3.537   2.258  14.941  0.6668 -1.1857 -1.0262
 8210SOL     OW36091   1.506   0.524   5.215 -0.0629  0.0637 -0.2092
 8210SOL    HW136092   1.480   0.436   5.241 -2.1372  1.6516  3.0791
 8210SOL    HW236093   1.501   0.576   5.295  0.9390  1.2286 -0.9050
 8211SOL     OW36094   1.689   3.276  12.510 -0.0937 -0.1001  0.2181
 8211SOL    HW136095   1.768   3.288  12.458 -1.4944  1.2820 -1.5865
 8211SOL    HW236096   1.625   3.316  12.451  0.9137 -1.0223 -1.5059
 8212SOL     OW36097   3.617   4.514  17.535  0.3384  0.2704 -0.5195
 8212SOL    HW136098   3.654   4.497  17.621 -1.4142 -2.2638 -0.2740
 8212SOL    HW236099   3.657   4.446  17.481  1.4011  0.1859  0.3870
 8213SOL     OW36100   1.076   1.832   2.714 -0.1682 -0.2466 -0.4568
 8213SOL    HW136101   1.065   1.763   2.780 -2.2186  1.6698  1.2151
 8213SOL    HW236102   0.991   1.874   2.727 -0.1567 -0.0506 -1.0435
 8214SOL     OW36103   0.162   1.112   8.301 -0.6237 -0.1144  1.0673
 8214SOL    HW136104   0.217   1.170   8.354  1.3549  0.3895 -1.5626
 8214SOL    HW236105   0.087   1.168   8.281 -0.6669 -0.2881  0.7425
 8215SOL     OW36106   3.494   3.992   9.043 -0.7191  0.1962  0.2621
 8215SOL    HW136107   3.425   3.980   9.108 -1.7915 -1.3976 -1.1720
 8215SOL    HW236108   3.556   3.920   9.053  1.9267  2.3716 -0.6601
 8216SOL     OW36109   2.136   3.178  10.083  0.0880  0.1502 -0.4488
 8216SOL    HW136110   2.226   3.202  10.062 -0.0351 -0.8843 -2.2045
 8216SOL    HW236111   2.143   3.163  10.178  1.4091  1.0651 -0.4099
 8217SOL     OW36112   3.191   3.257   8.131  0.2295 -0.0234  0.4176
 8217SOL    HW136113   3.158   3.169   8.150 -1.5645  0.8127  1.2443
 8217SOL    HW236114   3.137   3.273   8.053 -0.8102  0.6025  1.2671
 8218SOL     OW36115   3.867   0.360  14.568  0.3797  0.5046  0.5726
 8218SOL    HW136116   3.940   0.299  14.560 -0.8307 -1.0026  0.8333
 8218SOL    HW236117   3.894   0.423  14.501  0.3164 -0.1343 -0.0534
 8219SOL     OW36118   2.777   0.326   7.837 -0.6400 -0.0141 -0.4328
 8219SOL    HW136119   2.797   0.419   7.828 -2.5758  0.5359  1.1311
 8219SOL    HW236120   2.840   0.279   7.781 -0.2185 -0.5233  0.4640
 8220SOL     OW36121   0.058   1.350   6.291  0.0023  0.2288  0.0457
 8220SOL    HW136122   0.016   1.264   6.293 -2.5007  1.4836  0.3737
 8220SOL    HW236123   4.707   1.407   6.294  0.8621  1.2582  2.2302
 8221SOL     OW36124   3.043   1.588  10.487  0.0946  0.3678  0.0865
 8221SOL    HW136125   3.061   1.681  10.504  0.9120  0.3272 -0.5463
 8221SOL    HW236126   3.125   1.558  10.448 -0.3288 -1.1607  0.4082
 8222SOL     OW36127   4.603   3.031   6.747  0.3342  0.1970 -0.2210
 8222SOL    HW136128   4.525   3.083   6.762  0.9536  1.1371 -0.2671
 8222SOL    HW236129   4.568   2.943   6.764 -1.5575  0.8748 -0.6771
 8223SOL     OW36130   4.098   0.486   2.027  0.4041 -0.0453  0.2170
 8223SOL    HW136131   4.107   0.401   1.983 -0.2146 -0.7665  1.4566
 8223SOL    HW236132   4.159   0.484   2.101  0.9827 -2.3744 -0.3239
 8224SOL     OW36133   3.688   4.176   7.996  0.1105  0.3087  0.5965
 8224SOL    HW136134   3.658   4.125   8.071 -0.4724 -1.2070 -0.6533
 8224SOL    HW236135   3.615   4.236   7.987 -0.6810 -0.8173 -0.4636
 8225SOL     OW36136   2.099   1.943  16.154  0.0340  0.4885  0.1763
 8225SOL    HW136137   2.036   1.902  16.213  0.5010 -1.3365 -0.5882
 8225SOL    HW236138   2.185   1.909  16.179 -0.6781 -0.4945  1.3156
 8226SOL     OW36139   2.178   1.485   0.236 -0.5780 -0.4797 -0.1287
 8226SOL    HW136140   2.264   1.452   0.209 -1.8332 -2.2580 -2.0160
 8226SOL    HW236141   2.135   1.410   0.277 -2.7795  0.1862 -1.2445
 8227SOL     OW36142   0.985   2.286   5.257  0.3484 -0.5409 -0.1413
 8227SOL    HW136143   0.937   2.262   5.178  0.4617  2.7348 -1.2160
 8227SOL    HW236144   1.005   2.199   5.289 -0.2473 -1.9784 -3.6443
 8228SOL     OW36145   3.876   3.438   9.523  0.1794  0.0874  0.4311
 8228SOL    HW136146   3.839   3.476   9.444  1.2382 -2.0841 -1.0920
 8228SOL    HW236147   3.971   3.448   9.515  0.2628 -0.5948  0.5553
 8229SOL     OW36148   4.718   2.962  16.783  0.4027  0.4264  0.1724
 8229SOL    HW136149   4.725   2.868  16.765  2.3717  0.1501  2.5069
 8229SOL    HW236150   0.006   2.970  16.877 -0.9765 -2.6982  0.6254
 8230SOL     OW36151   3.489   1.418  10.962  0.1171 -0.7377  0.2111
 8230SOL    HW136152   3.423   1.430  11.030 -2.0014 -1.6916 -1.6736
 8230SOL    HW236153   3.558   1.372  11.009  0.8087  0.5380  0.4613
 8231SOL     OW36154   2.054   3.474  11.729  0.1843 -0.0487 -0.1018
 8231SOL    HW136155   2.098   3.448  11.648 -0.5266  0.0920 -0.5317
 8231SOL    HW236156   2.016   3.556  11.696 -0.6947  0.0628  1.1969
 8232SOL     OW36157   3.946   0.705   1.970  0.1477 -0.2373  0.3517
 8232SOL    HW136158   3.989   0.636   2.019 -0.6877 -0.2204  1.1112
 8232SOL    HW236159   3.966   0.682   1.879 -1.6624  1.5111 -0.5087
 8233SOL     OW36160   1.185   0.927   2.232  0.6309 -0.1867  0.0310
 8233SOL    HW136161   1.237   0.880   2.297  0.0589  1.6524  1.8248
 8233SOL    HW236162   1.178   0.874   2.153  2.1736  0.5851 -0.6327
 8234SOL     OW36163   4.642   2.560   3.447 -0.3637 -0.5132  0.0833
 8234SOL    HW136164   4.591   2.576   3.526 -0.4652 -0.7335  0.0633
 8234SOL    HW236165   4.583   2.544   3.374  1.5559 -2.4643 -1.0487
 8235SOL     OW36166   4.381   3.758   0.071  0.5975  0.1487  0.8799
 8235SOL    HW136167   4.403   3.708  17.698 -0.4702 -0.2379  0.8220
 8235SOL    HW236168   4.468   3.766   0.110  1.1817 -0.3979 -0.3289
 8236SOL     OW36169   0.998   3.089   6.949 -0.0113  0.0365 -0.4602
 8236SOL    HW136170   1.059   3.040   6.894  1.3679  3.9153 -2.3446
 8236SOL    HW236171   1.033   3.064   7.034 -0.4972  0.6013 -0.0929
 8237SOL     OW36172   0.413   3.709   5.466  0.2073  0.0943 -0.2215
 8237SOL    HW136173   0.329   3.731   5.425 -0.6982  0.0763  1.6574
 8237SOL    HW236174   0.395   3.749   5.551 -1.3417 -0.5841 -0.2223
 8238SOL     OW36175   2.892   0.228   9.950 -0.5974  0.2272 -0.1645
 8238SOL    HW136176   2.923   0.155  10.004  0.5020  0.9829  0.2240
 8238SOL    HW236177   2.893   0.197   9.859  0.3365  0.2075 -0.1439
 8239SOL     OW36178   2.805   2.449   1.154 -0.0822  0.0053  0.0869
 8239SOL    HW136179   2.844   2.517   1.098  1.9758 -0.5293  0.8446
 8239SOL    HW236180   2.853   2.376   1.114 -1.3435 -1.7285  1.7841
 8240SOL     OW36181   0.742   2.518   7.999 -0.1584 -0.0344 -0.1885
 8240SOL    HW136182   0.806   2.587   8.016 -1.7133  1.1739  0.8027
 8240SOL    HW236183   0.707   2.536   7.912 -0.5939  1.4382  0.2937
 8241SOL     OW36184   4.145   0.966   9.001 -0.0029  0.0256 -0.1626
 8241SOL    HW136185   4.162   1.046   9.050  0.8357  1.5849 -2.9514
 8241SOL    HW236186   4.132   0.901   9.070 -0.0183 -0.3691 -0.5374
 8242SOL     OW36187   3.871   4.126  13.703  0.0473  0.5623 -0.2839
 8242SOL    HW136188   3.910   4.178  13.773  1.0912 -1.8556  0.9090
 8242SOL    HW236189   3.874   4.186  13.628 -2.8671 -0.9482 -1.5767
 8243SOL     OW36190   0.962   2.606  17.297 -0.2654 -0.0329 -0.4064
 8243SOL    HW136191   0.936   2.598  17.389 -1.4268  0.5393 -0.6974
 8243SOL    HW236192   0.883   2.578  17.251 -0.0606  0.0571 -0.8111
 8244SOL     OW36193   3.137   0.724   2.513  0.4595  0.3077  0.2461
 8244SOL    HW136194   3.044   0.726   2.534  0.1091 -1.2761 -1.1265
 8244SOL    HW236195   3.146   0.818   2.497  2.3393  0.1911  0.6113
 8245SOL     OW36196   1.857   0.854   1.288 -0.3944 -0.4447 -0.5028
 8245SOL    HW136197   1.932   0.862   1.348 -1.0007  0.2317  0.1672
 8245SOL    HW236198   1.790   0.896   1.341 -0.3197  0.3310 -1.0290
 8246SOL     OW36199   4.110   1.376   5.227  0.5706 -0.0034  0.2716
 8246SOL    HW136200   4.062   1.308   5.274  1.6329  1.0732  2.8984
 8246SOL    HW236201   4.048   1.449   5.218 -0.4530 -1.0694 -1.3990
 8247SOL     OW36202   4.614   0.708  10.714 -0.4394 -0.1704  0.3086
 8247SOL    HW136203   4.562   0.759  10.652 -0.3825  1.5653  1.6932
 8247SOL    HW236204   4.615   0.623  10.670  0.4218  0.0691 -0.1374
 8248SOL     OW36205   0.216   3.885   7.210 -0.4010 -0.6772  0.1669
 8248SOL    HW136206   0.218   3.926   7.124 -0.7722  0.5467  0.7356
 8248SOL    HW236207   0.246   3.800   7.178  2.6718  0.6345 -0.3720
 8249SOL     OW36208   1.456   2.725   3.724  0.5715 -0.5603 -0.5369
 8249SOL    HW136209   1.534   2.700   3.774 -0.0793 -2.2605 -0.3551
 8249SOL    HW236210   1.428   2.785   3.792 -1.0260  0.5206 -2.1465
 8250SOL     OW36211   2.371   3.243  13.697  0.6199  0.4658 -0.1356
 8250SOL    HW136212   2.395   3.158  13.660  0.9358  0.5639 -0.1618
 8250SOL    HW236213   2.405   3.305  13.632 -0.1323 -0.4702 -1.4137
 8251SOL     OW36214   0.059   0.851   7.275 -0.6555  0.5923 -0.1628
 8251SOL    HW136215   0.015   0.803   7.204  1.7030 -1.2719 -0.3385
 8251SOL    HW236216   0.000   0.835   7.349 -0.0872 -2.1828 -0.3318
 8252SOL     OW36217   1.401   3.832  12.686 -0.2266 -0.8684 -0.1300
 8252SOL    HW136218   1.317   3.848  12.730 -0.9426 -0.7550 -1.5567
 8252SOL    HW236219   1.398   3.873  12.600  0.3114  1.5746  0.9991
 8253SOL     OW36220   1.725   4.095   4.432  0.1005  0.1158  0.1544
 8253SOL    HW136221   1.665   4.028   4.400  0.1162  0.2083 -0.0672
 8253SOL    HW236222   1.809   4.049   4.432 -0.6140 -1.1679 -0.7560
 8254SOL     OW36223   1.910   3.203  14.509  0.4067  0.6904  0.3464
 8254SOL    HW136224   1.862   3.153  14.575  1.6300 -1.7394 -0.6292
 8254SOL    HW236225   1.927   3.139  14.440 -1.7176  0.9808 -0.4572
 8255SOL     OW36226   2.012   1.932   4.794  0.5356  0.0449 -0.3491
 8255SOL    HW136227   2.089   1.884   4.766  1.5124  2.1765 -1.3635
 8255SOL    HW236228   2.029   1.950   4.886  2.2656  0.1709 -0.6944
 8256SOL     OW36229   3.099   4.236   3.727 -0.0172  0.0105 -0.1503
 8256SOL    HW136230   3.064   4.284   3.802 -0.1819 -0.4908  0.0895
 8256SOL    HW236231   3.190   4.228   3.757 -0.9572 -0.1010  2.6178
 8257SOL     OW36232   3.167   3.182   4.702 -0.8161  0.3154  0.0434
 8257SOL    HW136233   3.169   3.247   4.773  0.4022 -0.4025  0.6522
 8257SOL    HW236234   3.104   3.228   4.646 -0.4109  0.6061 -0.1779
 8258SOL     OW36235   1.637   1.710   4.628 -0.7066  0.5832 -0.1580
 8258SOL    HW136236   1.542   1.724   4.623 -0.6876  0.5892 -0.5443
 8258SOL    HW236237   1.645   1.792   4.676  0.5478  0.5974 -0.3885
 8259SOL     OW36238   0.215   3.665   2.043 -0.1901 -0.8985 -0.0432
 8259SOL    HW136239   0.120   3.676   2.038 -0.0435  1.0767  1.2278
 8259SOL    HW236240   0.223   3.589   1.986  1.8480 -0.2071 -0.6933
 8260SOL     OW36241   0.778   4.443   3.931 -0.2539 -0.2282  0.4455
 8260SOL    HW136242   0.787   4.355   3.895  1.4337 -0.4825  1.4588
 8260SOL    HW236243   0.739   4.489   3.857 -0.4890 -2.2278 -0.6635
 8261SOL     OW36244   3.881   0.588   6.992  0.0375  0.2780  0.1629
 8261SOL    HW136245   3.943   0.643   7.039 -0.1850 -0.9479  1.8559
 8261SOL    HW236246   3.838   0.647   6.929 -0.4552 -0.3622 -0.1138
 8262SOL     OW36247   3.560   0.011   4.852 -0.2904  0.9851  0.8174
 8262SOL    HW136248   3.616   0.078   4.813 -0.8837  0.7706 -0.3904
 8262SOL    HW236249   3.503   4.723   4.777  3.0786  1.2514 -1.7681
 8263SOL     OW36250   3.525   3.187  13.205  0.3398 -0.4882 -0.4091
 8263SOL    HW136251   3.509   3.237  13.126 -0.1894 -0.5144 -0.3179
 8263SOL    HW236252   3.540   3.096  13.178 -1.0632 -1.1412  0.9781
 8264SOL     OW36253   0.979   0.686   8.164  0.5550 -0.4460  0.1744
 8264SOL    HW136254   0.952   0.599   8.195 -2.4206 -0.4716 -2.4694
 8264SOL    HW236255   1.069   0.698   8.194 -0.6000  3.6014  1.9726
 8265SOL     OW36256   0.102   2.406   6.853  0.1790  0.1802  0.2268
 8265SOL    HW136257   0.057   2.322   6.852 -0.8289  0.7291 -0.8279
 8265SOL    HW236258   0.178   2.389   6.798 -0.9262  2.1007 -1.8964
 8266SOL     OW36259   4.286   3.684   3.287 -0.5258  0.6304 -0.4285
 8266SOL    HW136260   4.261   3.689   3.379 -2.2466  2.3756 -0.9791
 8266SOL    HW236261   4.335   3.766   3.279  1.7039 -0.5786  1.2342
 8267SOL     OW36262   3.954   4.589  12.660 -0.7752 -0.0586 -0.1366
 8267SOL    HW136263   3.916   4.560  12.577 -1.5966  0.9334 -0.1190
 8267SOL    HW236264   3.886   4.552  12.716  0.5573 -0.4554  1.2192
 8268SOL     OW36265   3.349   3.652   7.374  0.2018  0.4559 -0.1856
 8268SOL    HW136266   3.261   3.615   7.371  0.8649 -1.1043 -0.1900
 8268SOL    HW236267   3.392   3.590   7.315 -1.6953 -1.0882  0.0473
 8269SOL     OW36268   3.769   1.654   4.828  0.3611  0.3093 -0.4769
 8269SOL    HW136269   3.840   1.714   4.807  0.7130  0.5538  1.4001
 8269SOL    HW236270   3.800   1.622   4.913 -0.8091  0.3561 -0.0284
 8270SOL     OW36271   2.155   4.491   7.036  0.2396  0.1419  0.3054
 8270SOL    HW136272   2.226   4.447   7.083 -0.5825 -2.2104 -0.6482
 8270SOL    HW236273   2.094   4.485   7.109  0.4525 -1.1922  0.3885
 8271SOL     OW36274   3.815   4.372   5.512  0.0492 -0.5462  0.4863
 8271SOL    HW136275   3.854   4.458   5.502  0.5928 -0.9060 -0.5309
 8271SOL    HW236276   3.842   4.345   5.600 -3.3821 -0.4816  1.5529
 8272SOL     OW36277   2.309   2.002   0.441 -0.0665 -0.2391  0.2566
 8272SOL    HW136278   2.395   1.985   0.402  0.5513 -0.3993  1.7001
 8272SOL    HW236279   2.265   1.917   0.438  0.4212 -0.3104 -4.0621
 8273SOL     OW36280   2.501   3.900   8.994  0.2573  0.0388 -0.2141
 8273SOL    HW136281   2.555   3.936   9.065 -1.9248 -1.6655  2.3028
 8273SOL    HW236282   2.443   3.843   9.043  0.9168  0.0666  0.5980
 8274SOL     OW36283   1.310   0.434  12.872  0.3049  0.1105  0.4891
 8274SOL    HW136284   1.223   0.419  12.835  1.0838 -1.9186 -0.5365
 8274SOL    HW236285   1.355   0.355  12.840  1.1758  0.8177 -0.0179
 8275SOL     OW36286   2.114   2.754   2.628  0.4661  0.5735 -0.0789
 8275SOL    HW136287   2.183   2.712   2.679 -0.7257  0.0960  1.1309
 8275SOL    HW236288   2.140   2.846   2.637  0.9389  0.4957 -0.5728
 8276SOL     OW36289   4.393   3.370   7.902  0.5611 -0.5609  0.7767
 8276SOL    HW136290   4.372   3.432   7.972  0.3964  0.2607 -0.0125
 8276SOL    HW236291   4.346   3.415   7.833 -2.3746 -1.9939  1.8640
 8277SOL     OW36292   0.396   2.991   4.026 -0.2409  0.1560 -0.5161
 8277SOL    HW136293   0.399   2.960   4.117  0.1314  0.5659 -0.3896
 8277SOL    HW236294   0.434   2.914   3.983  0.7502  1.4821 -2.0146
 8278SOL     OW36295   0.320   0.145   5.402 -0.4079 -0.0728  0.0673
 8278SOL    HW136296   0.393   0.136   5.463 -0.9368  1.5440  0.9284
 8278SOL    HW236297   0.356   0.123   5.316 -1.7539  1.2463 -0.8279
 8279SOL     OW36298   0.122   3.373   7.901  0.0013  0.0616 -0.0854
 8279SOL    HW136299   0.155   3.460   7.877 -0.9095  0.5020  0.2622
 8279SOL    HW236300   0.047   3.355   7.845  0.7934  0.6192 -1.3312
 8280SOL     OW36301   1.290   2.514   3.779 -0.2924  0.8736  0.0920
 8280SOL    HW136302   1.354   2.586   3.782  0.4954  0.1182  1.9993
 8280SOL    HW236303   1.353   2.444   3.761 -1.1943  0.2963 -0.7767
 8281SOL     OW36304   0.852   0.010   7.523  0.1154 -0.6732 -0.5145
 8281SOL    HW136305   0.930   4.680   7.525 -0.2823 -1.2186 -0.2777
 8281SOL    HW236306   0.866   0.071   7.595  0.7745  0.9159 -1.9803
 8282SOL     OW36307   2.440   0.156   3.610  0.2155  0.3229  0.1716
 8282SOL    HW136308   2.498   0.226   3.639  2.6193 -1.4080 -0.4726
 8282SOL    HW236309   2.383   0.198   3.545  1.2795  0.2872 -0.7942
 8283SOL     OW36310   3.168   4.551   9.677 -0.4259 -0.0794 -0.0355
 8283SOL    HW136311   3.078   4.526   9.656 -0.3340  0.6273 -1.2607
 8283SOL    HW236312   3.171   4.521   9.768  0.7599  0.0455 -0.0270
 8284SOL     OW36313   4.290   0.266   6.665 -0.8049 -0.0609  0.3623
 8284SOL    HW136314   4.365   0.326   6.669 -3.2818  3.0604  0.5609
 8284SOL    HW236315   4.255   0.287   6.579  0.2242 -0.9628 -0.2660
 8285SOL     OW36316   4.117   4.158   9.392 -0.4439 -0.5177  0.3709
 8285SOL    HW136317   4.162   4.076   9.371  1.9145  0.9583 -0.3174
 8285SOL    HW236318   4.065   4.128   9.466  0.1892  0.0689  1.0623
 8286SOL     OW36319   3.539   4.372   4.131 -0.3465  0.1993 -0.0228
 8286SOL    HW136320   3.596   4.346   4.059 -0.5601  2.0634 -0.8764
 8286SOL    HW236321   3.602   4.406   4.195 -1.3928  1.5562  0.2771
 8287SOL     OW36322   2.494   1.361  17.400 -0.2551  0.2833  0.0007
 8287SOL    HW136323   2.542   1.403  17.472  2.7289 -0.3594 -1.6419
 8287SOL    HW236324   2.540   1.391  17.322  0.3434 -1.0702 -0.1564
 8288SOL     OW36325   4.565   1.149   4.700 -0.3415 -0.1875 -0.3874
 8288SOL    HW136326   4.541   1.194   4.619  0.4483 -0.2678 -0.6686
 8288SOL    HW236327   4.658   1.171   4.704 -0.9116  1.7699  2.6823
 8289SOL     OW36328   4.425   4.709   2.566 -0.0228  0.1337 -0.4116
 8289SOL    HW136329   4.374   0.015   2.641  0.5208  0.3817 -0.1426
 8289SOL    HW236330   4.487   4.642   2.596  0.3175  0.6055 -0.0392
 8290SOL     OW36331   1.483   2.076   9.684  0.1052  0.1981 -0.1140
 8290SOL    HW136332   1.433   2.007   9.727  1.4482 -0.4833  0.3453
 8290SOL    HW236333   1.499   2.141   9.752 -0.8002 -1.4869  1.7133
 8291SOL     OW36334   3.857   0.858   3.769 -0.3546  0.2503 -0.3852
 8291SOL    HW136335   3.795   0.917   3.727  0.5260  1.5925  0.1968
 8291SOL    HW236336   3.796   0.789   3.798  0.0140  0.8969  1.9535
 8292SOL     OW36337   1.504   4.067   2.753 -0.0910  0.2728 -0.1379
 8292SOL    HW136338   1.413   4.094   2.764  0.8484  2.2356  2.8709
 8292SOL    HW236339   1.517   4.080   2.659 -2.9009 -1.1062 -0.7173
 8293SOL     OW36340   0.924   4.435  13.543  0.0649  0.4945  0.0775
 8293SOL    HW136341   0.881   4.505  13.495  0.2783  0.2936 -0.4041
 8293SOL    HW236342   1.014   4.441  13.513 -0.1026  0.1076 -0.4887
 8294SOL     OW36343   3.805   2.170   5.308  0.4991 -0.2388  0.3097
 8294SOL    HW136344   3.840   2.181   5.220  0.7701  0.1580  0.4670
 8294SOL    HW236345   3.748   2.247   5.314 -1.4024 -1.5139 -1.4938
 8295SOL     OW36346   0.701   0.861  11.995  0.4835  0.0685 -0.1233
 8295SOL    HW136347   0.623   0.916  11.998 -0.5835 -1.4799  0.7031
 8295SOL    HW236348   0.721   0.872  11.902 -0.5199 -2.5903 -0.6819
 8296SOL     OW36349   0.093   0.320   5.414 -0.5870  0.1905 -0.2967
 8296SOL    HW136350   0.112   0.387   5.480 -0.5591  1.3461 -1.4933
 8296SOL    HW236351   0.170   0.262   5.414 -1.2026 -0.6313 -2.6848
 8297SOL     OW36352   3.083   3.416   4.000 -0.1932  0.6822 -0.0642
 8297SOL    HW136353   2.992   3.389   4.008 -0.0546  0.3915  0.5103
 8297SOL    HW236354   3.099   3.460   3.917 -0.4820 -0.4277 -0.7073
 8298SOL     OW36355   4.431   0.961   4.450 -0.6464 -0.4938 -0.4891
 8298SOL    HW136356   4.514   0.912   4.451 -1.2993 -1.6322 -1.5412
 8298SOL    HW236357   4.369   0.900   4.490  0.5613 -0.6125  1.1979
 8299SOL     OW36358   0.666   2.929   5.723 -0.3715  0.1419  0.6068
 8299SOL    HW136359   0.695   3.001   5.668 -0.7517  0.5935  1.0003
 8299SOL    HW236360   0.725   2.933   5.799  0.7611 -2.1401 -0.1519
 8300SOL     OW36361   0.269   2.139   8.304  0.4283  0.0843 -0.3927
 8300SOL    HW136362   0.276   2.137   8.400 -2.0849  3.4233 -0.1077
 8300SOL    HW236363   0.357   2.105   8.292  0.6126  0.6558 -0.6691
 8301SOL     OW36364   0.738   1.626   8.531  0.2502  0.5483  0.5055
 8301SOL    HW136365   0.675   1.669   8.474  0.2525 -0.6599 -0.4027
 8301SOL    HW236366   0.819   1.655   8.490 -0.2820 -0.0126 -0.9412
 8302SOL     OW36367   4.046   4.139   2.819 -0.0058  0.0008 -0.6135
 8302SOL    HW136368   4.036   4.184   2.735 -0.2710 -0.2400 -0.7091
 8302SOL    HW236369   4.118   4.200   2.831  1.5197 -1.8088 -0.4983
 8303SOL     OW36370   4.238   0.740   4.464  0.2038 -0.2997 -0.0302
 8303SOL    HW136371   4.222   0.686   4.386 -0.1932  0.5500 -0.5379
 8303SOL    HW236372   4.225   0.678   4.536 -1.9235 -0.7561 -0.7939
 8304SOL     OW36373   2.111   0.781  14.750 -0.2775  0.1522  0.1293
 8304SOL    HW136374   2.029   0.798  14.705 -0.0022  1.1110 -0.0213
 8304SOL    HW236375   2.173   0.763  14.680  1.7959  0.1411  1.9455
 8305SOL     OW36376   2.126   3.224   9.159 -0.5536 -0.1653  0.0028
 8305SOL    HW136377   2.034   3.207   9.176 -1.2499  2.3838 -1.1983
 8305SOL    HW236378   2.134   3.243   9.065  1.7988  2.8974  0.8126
 8306SOL     OW36379   3.224   4.583   3.513  0.2081 -0.2215  0.5338
 8306SOL    HW136380   3.176   4.500   3.510  0.8834 -0.5272 -1.4880
 8306SOL    HW236381   3.281   4.565   3.438  0.7983  2.5868  0.3196
 8307SOL     OW36382   2.790   0.359   6.908 -0.0336 -0.2759  0.4151
 8307SOL    HW136383   2.824   0.272   6.933  2.7222  0.9938  1.0902
 8307SOL    HW236384   2.731   0.377   6.981 -2.2034 -1.6426 -0.9962
 8308SOL     OW36385   4.551   2.212   7.098  0.0964 -0.3009  0.3371
 8308SOL    HW136386   4.592   2.161   7.027  0.6654  1.9891 -1.0053
 8308SOL    HW236387   4.593   2.297   7.081  0.2855  0.1024  2.9531
 8309SOL     OW36388   1.317   2.105   2.050 -0.1574  0.1125 -0.6598
 8309SOL    HW136389   1.374   2.180   2.063 -0.2255 -0.0635  0.7061
 8309SOL    HW236390   1.370   2.026   2.042 -0.0288  0.0185  1.2034
 8310SOL     OW36391   4.350   1.033   6.664  0.9731 -0.0224 -0.1617
 8310SOL    HW136392   4.416   1.095   6.696  2.6806 -1.1593 -1.4647
 8310SOL    HW236393   4.412   0.962   6.644  0.4452 -0.3842 -0.5075
 8311SOL     OW36394   0.272   4.380   7.138  0.8555  0.2502  0.4930
 8311SOL    HW136395   0.358   4.412   7.111  1.3465 -0.7584  0.8319
 8311SOL    HW236396   0.302   4.296   7.175  1.6620  0.2583 -0.1499
 8312SOL     OW36397   0.916   4.391   5.643 -0.5370 -0.1705 -0.2377
 8312SOL    HW136398   0.902   4.324   5.709 -1.6178 -0.1652 -0.4507
 8312SOL    HW236399   0.998   4.430   5.673 -0.6921 -0.5572  0.6891
 8313SOL     OW36400   2.687   2.984  11.086  0.3650 -0.4200 -0.0864
 8313SOL    HW136401   2.641   2.982  11.170 -1.6043  0.8414 -1.1401
 8313SOL    HW236402   2.666   3.070  11.049 -1.6586 -0.6509  0.5176
 8314SOL     OW36403   3.322   4.635   8.384  0.6795 -0.0661  0.4516
 8314SOL    HW136404   3.324   4.700   8.455  1.5598  1.0686 -0.6128
 8314SOL    HW236405   3.352   4.690   8.312  0.0522 -0.9597 -0.4854
 8315SOL     OW36406   3.322   3.841   6.765 -0.8677 -0.4191  0.1614
 8315SOL    HW136407   3.333   3.790   6.845 -0.6079 -0.9181 -0.1936
 8315SOL    HW236408   3.345   3.931   6.784 -1.2596  0.0795 -1.6489
 8316SOL     OW36409   3.789   0.386   1.040 -0.5436 -0.1748  0.5722
 8316SOL    HW136410   3.736   0.382   0.959 -1.3764  0.7753  1.0713
 8316SOL    HW236411   3.800   0.479   1.061 -0.0194 -0.3987  1.2781
 8317SOL     OW36412   4.719   0.550  12.547 -0.7398  0.7797  0.4763
 8317SOL    HW136413   0.070   0.496  12.530 -0.7138  1.6624 -2.2674
 8317SOL    HW236414   4.696   0.576  12.457  0.8084 -2.6322 -0.8961
 8318SOL     OW36415   0.883   4.436   5.993 -0.5324 -0.0753  0.3778
 8318SOL    HW136416   0.898   4.482   6.075  1.2988  0.1982 -0.1032
 8318SOL    HW236417   0.889   4.499   5.920  1.6172 -1.9058 -1.0468
 8319SOL     OW36418   3.130   3.456   8.815 -0.8303  0.1099 -0.0992
 8319SOL    HW136419   3.051   3.420   8.774 -0.3271 -1.0493 -0.0575
 8319SOL    HW236420   3.108   3.442   8.908 -1.6833 -0.4345 -0.3762
 8320SOL     OW36421   4.443   2.158  15.343  0.0738 -0.1115  0.1757
 8320SOL    HW136422   4.514   2.188  15.401  1.0142  0.3500 -1.2060
 8320SOL    HW236423   4.491   2.146  15.261  1.5895  0.8102  0.9132
 8321SOL     OW36424   1.484   4.327   3.577 -0.3661  0.7099  0.4462
 8321SOL    HW136425   1.563   4.380   3.572  0.3309 -0.2085  1.7371
 8321SOL    HW236426   1.460   4.299   3.489 -0.2056 -0.1634  0.6850
 8322SOL     OW36427   0.787   0.800   9.566  0.0497 -0.0125 -0.5788
 8322SOL    HW136428   0.865   0.808   9.621  0.7404 -2.2621 -1.2255
 8322SOL    HW236429   0.829   0.849   9.495  2.2402 -0.5328  0.3833
 8323SOL     OW36430   0.185   4.128   3.804  0.0631  0.3786  0.4222
 8323SOL    HW136431   0.268   4.106   3.847 -0.3328  0.6412  1.3252
 8323SOL    HW236432   0.166   4.045   3.759  0.5117  1.3501 -1.5370
 8324SOL     OW36433   1.126   1.437   8.047 -0.0921  0.2846  0.3195
 8324SOL    HW136434   1.124   1.530   8.070 -0.8278  0.2915  0.2284
 8324SOL    HW236435   1.207   1.407   8.089  0.3224  1.2312  0.1934
 8325SOL     OW36436   1.574   0.950   9.085 -0.0363  0.3136  0.1103
 8325SOL    HW136437   1.657   0.909   9.063 -0.0677  0.4916 -0.3430
 8325SOL    HW236438   1.534   0.968   9.000 -1.5628 -1.2773  0.4809
 8326SOL     OW36439   1.714   2.785  12.923  0.1768  0.1888 -0.8022
 8326SOL    HW136440   1.678   2.703  12.890  1.9884 -1.6580  1.8374
 8326SOL    HW236441   1.658   2.847  12.875  0.9704  0.7076 -1.0632
 8327SOL     OW36442   3.384   2.418   8.894  0.2099  0.3789  0.0520
 8327SOL    HW136443   3.426   2.405   8.979  0.4624  0.8970  0.0106
 8327SOL    HW236444   3.416   2.505   8.868  2.7653 -0.7455 -0.5493
 8328SOL     OW36445   4.515   0.414   2.924 -0.3558 -0.5102 -0.3176
 8328SOL    HW136446   4.459   0.339   2.904 -0.5532 -0.5234  0.2876
 8328SOL    HW236447   4.604   0.380   2.914 -0.2185 -0.0732 -0.5699
 8329SOL     OW36448   4.165   4.129   8.887  0.4985  0.0136  0.6882
 8329SOL    HW136449   4.211   4.211   8.869  3.9076 -1.8799  0.7592
 8329SOL    HW236450   4.085   4.161   8.928  1.7407  1.9885  1.5506
 8330SOL     OW36451   4.008   0.711   5.856  0.1305 -0.0183  0.1081
 8330SOL    HW136452   3.972   0.790   5.817  0.2488 -1.0513 -2.1138
 8330SOL    HW236453   4.054   0.670   5.782 -0.0430 -0.7052  0.3769
 8331SOL     OW36454   3.878   3.294   0.952 -0.3098 -0.1375 -0.2525
 8331SOL    HW136455   3.911   3.327   0.868  1.1185 -3.5108 -1.0277
 8331SOL    HW236456   3.941   3.224   0.972 -0.3845  0.1632  1.0176
 8332SOL     OW36457   4.185   1.619   8.926  0.4194  0.3079 -0.4840
 8332SOL    HW136458   4.263   1.586   8.971 -0.3606 -1.9322 -0.7358
 8332SOL    HW236459   4.216   1.687   8.866  1.2591 -0.2011 -0.6280
 8333SOL     OW36460   4.516   4.074  10.993 -0.1275 -0.5329  0.3516
 8333SOL    HW136461   4.520   4.099  11.085 -1.4432  0.9592  0.0010
 8333SOL    HW236462   4.502   3.980  10.990 -0.3447 -0.5066  0.5807
 8334SOL     OW36463   2.691   0.371   1.720  1.3634  0.4461 -0.0402
 8334SOL    HW136464   2.745   0.379   1.798  1.4772 -0.3790 -0.0361
 8334SOL    HW236465   2.630   0.445   1.720 -1.8213 -2.2028 -0.1441
 8335SOL     OW36466   3.015   0.369   3.593  0.1040  0.0361  0.0806
 8335SOL    HW136467   3.109   0.377   3.612 -0.0528  2.3953 -0.1490
 8335SOL    HW236468   2.997   0.275   3.593 -0.1162  0.0797  0.8340
 8336SOL     OW36469   1.104   1.360   2.894 -0.3230 -0.4601  0.1454
 8336SOL    HW136470   1.077   1.282   2.942  0.2420 -0.6137  0.2222
 8336SOL    HW236471   1.117   1.317   2.809 -1.7004  1.1947 -0.9194
 8337SOL     OW36472   3.075   2.768   8.847 -0.0581  0.5194  0.2071
 8337SOL    HW136473   3.081   2.786   8.941  0.1932  2.0131 -0.0949
 8337SOL    HW236474   2.990   2.724   8.852  0.4078 -0.1653  2.3262
 8338SOL     OW36475   2.089   3.492   6.691  0.0171  0.1835 -0.0481
 8338SOL    HW136476   2.104   3.471   6.599  1.2369  1.7987 -0.2063
 8338SOL    HW236477   2.134   3.417   6.729 -1.1041  0.0071  0.9245
 8339SOL     OW36478   1.621   0.674   8.407 -0.0233 -0.3011 -0.4617
 8339SOL    HW136479   1.616   0.583   8.379 -0.3454 -0.3687 -0.1721
 8339SOL    HW236480   1.527   0.681   8.423  0.0096 -0.1167 -0.3497
 8340SOL     OW36481   0.946   1.645   0.776  0.4004 -0.0397  0.4623
 8340SOL    HW136482   0.929   1.601   0.859  1.5106 -2.9162 -0.8718
 8340SOL    HW236483   0.978   1.573   0.722 -0.5912 -0.0931 -0.0452
 8341SOL     OW36484   3.616   2.707   2.454 -0.0231  0.0185 -0.1718
 8341SOL    HW136485   3.541   2.732   2.508 -0.1960 -2.0510  0.5860
 8341SOL    HW236486   3.676   2.657   2.510 -0.0021  0.7577  0.4729
 8342SOL     OW36487   1.780   3.962   1.666  0.0255 -0.4055  0.1685
 8342SOL    HW136488   1.715   4.025   1.636 -0.9053 -1.4215  0.0285
 8342SOL    HW236489   1.843   4.027   1.697  1.1108 -1.9363  1.1865
 8343SOL     OW36490   1.975   1.753  13.322 -0.4280  0.6530  0.1693
 8343SOL    HW136491   1.931   1.838  13.313  0.4514  1.2290  1.3039
 8343SOL    HW236492   2.050   1.773  13.267  0.4151 -2.3684  0.2288
 8344SOL     OW36493   2.466   0.510  10.033 -0.5093  0.2119  0.3214
 8344SOL    HW136494   2.481   0.589   9.980 -0.4514 -0.4447 -0.6421
 8344SOL    HW236495   2.381   0.484   9.997 -0.1366  0.2652 -0.6131
 8345SOL     OW36496   4.433   3.685   0.629  0.7522 -0.0286  0.5162
 8345SOL    HW136497   4.442   3.733   0.546  0.2183 -1.0249 -0.1231
 8345SOL    HW236498   4.346   3.648   0.612  1.1077 -0.7599  0.2745
 8346SOL     OW36499   3.847   0.980   5.535  0.4426 -0.0749  0.9230
 8346SOL    HW136500   3.844   0.941   5.448 -2.4220 -2.0093  1.8933
 8346SOL    HW236501   3.764   1.027   5.540  0.8437  0.6542  0.8944
 8347SOL     OW36502   1.155   1.192   5.380  0.1005  0.5851 -0.5492
 8347SOL    HW136503   1.132   1.272   5.427  0.6325 -1.3659  2.9972
 8347SOL    HW236504   1.072   1.146   5.391 -0.4181  0.7358 -3.7576
 8348SOL     OW36505   4.415   1.676  13.481  0.4297 -0.0469 -0.1564
 8348SOL    HW136506   4.356   1.750  13.490  0.6913  0.5823 -3.6399
 8348SOL    HW236507   4.375   1.618  13.546 -0.5878  0.1280 -0.6137
 8349SOL     OW36508   1.854   1.555  16.119 -0.1058 -0.7824  0.3905
 8349SOL    HW136509   1.934   1.595  16.087 -1.7679  1.1000 -1.4386
 8349SOL    HW236510   1.844   1.499  16.043 -1.6551 -1.5153  1.1204
 8350SOL     OW36511   1.146   4.326   6.073  0.0761  0.3829  0.1870
 8350SOL    HW136512   1.157   4.353   6.164 -0.1062  0.6239  0.1370
 8350SOL    HW236513   1.064   4.280   6.086 -1.0742  1.9737 -1.3636
 8351SOL     OW36514   2.315   3.091   8.525 -0.5387  0.4666 -0.2318
 8351SOL    HW136515   2.302   3.174   8.479 -0.5122  0.5805 -0.0349
 8351SOL    HW236516   2.379   3.117   8.591  0.1361  0.1622 -0.7607
 8352SOL     OW36517   4.219   3.264   6.936  0.3803 -0.1537 -0.4802
 8352SOL    HW136518   4.264   3.195   6.888  1.3424 -0.4676  0.8720
 8352SOL    HW236519   4.206   3.340   6.880 -1.7658 -0.9128 -1.0265
 8353SOL     OW36520   0.604   0.605   2.577  0.2685  0.0627 -0.3717
 8353SOL    HW136521   0.596   0.534   2.642 -0.5854  0.8254  0.3530
 8353SOL    HW236522   0.543   0.671   2.609 -2.8006 -2.6615 -0.6403
 8354SOL     OW36523   0.537   0.978   4.673 -0.1327 -0.2641  0.5319
 8354SOL    HW136524   0.579   0.906   4.627 -0.5069  1.2815 -2.2231
 8354SOL    HW236525   0.613   1.036   4.674 -0.2629 -0.0841  0.1442
 8355SOL     OW36526   1.000   1.243   3.390 -0.4231 -0.1775 -0.0734
 8355SOL    HW136527   0.921   1.203   3.354 -1.1480  0.2009  1.0853
 8355SOL    HW236528   1.007   1.328   3.346  0.2618  0.4353  1.2074
 8356SOL     OW36529   4.685   1.826  12.057 -0.2648 -0.5959 -0.2819
 8356SOL    HW136530   0.027   1.774  12.015  1.0379  0.2325  0.8218
 8356SOL    HW236531   4.630   1.760  12.100  0.0767  0.3379  1.5445
 8357SOL     OW36532   1.232   4.036   8.986  0.3585 -0.1255 -0.0434
 8357SOL    HW136533   1.239   4.095   8.911  0.4527 -0.0771  0.0029
 8357SOL    HW236534   1.168   4.095   9.027  0.4168 -0.5493  0.6690
 8358SOL     OW36535   0.966   0.025   6.431 -0.3298  0.4373 -0.7497
 8358SOL    HW136536   1.035   0.035   6.496 -0.8332  0.2924 -0.1984
 8358SOL    HW236537   0.950   0.118   6.418  0.8768  0.5932 -1.0990
 8359SOL     OW36538   2.532   4.629   3.074  0.0439 -0.1541 -0.0720
 8359SOL    HW136539   2.624   4.623   3.048  0.9287  0.3599  2.8843
 8359SOL    HW236540   2.490   4.707   3.037  2.0405  1.1613  0.4774
 8360SOL     OW36541   4.205   4.258   8.489 -0.0484 -0.2104  0.4092
 8360SOL    HW136542   4.153   4.304   8.555 -1.5913 -2.7987  0.9717
 8360SOL    HW236543   4.151   4.272   8.411  1.0026  1.6264  0.0013
 8361SOL     OW36544   0.355   3.856   7.848  0.3573 -0.1356  0.8727
 8361SOL    HW136545   0.435   3.805   7.863 -1.7681 -4.6955 -3.3166
 8361SOL    HW236546   0.381   3.928   7.791 -1.0546 -0.1999  0.1449
 8362SOL     OW36547   1.572   3.060  13.088  0.1949 -0.6136  0.0128
 8362SOL    HW136548   1.522   3.035  13.010  0.1083 -1.2653  0.2725
 8362SOL    HW236549   1.517   3.132  13.118  2.2159  0.9200  0.0036
 8363SOL     OW36550   2.297   2.440   5.979  0.2109 -0.2208 -0.6006
 8363SOL    HW136551   2.351   2.491   6.039 -1.9671  0.7248  0.5262
 8363SOL    HW236552   2.360   2.406   5.914  1.6987  3.4181 -1.0829
 8364SOL     OW36553   0.239   4.070   2.634  0.1553 -0.1448 -0.0264
 8364SOL    HW136554   0.202   4.151   2.600  1.5710  0.3990 -0.2597
 8364SOL    HW236555   0.157   4.030   2.661  0.8755 -2.3509 -1.1045
 8365SOL     OW36556   1.036   0.144  12.217 -0.1888 -0.0728  0.4102
 8365SOL    HW136557   0.972   0.160  12.148 -1.3406  0.4635  1.5853
 8365SOL    HW236558   0.981   0.135  12.296 -2.3625 -1.4136 -1.2461
 8366SOL     OW36559   2.881   3.978   2.992 -0.3517  0.2061 -0.0882
 8366SOL    HW136560   2.837   3.895   3.011  0.7111 -0.4612 -0.5098
 8366SOL    HW236561   2.845   4.035   3.060  0.6484  0.2437  0.4097
 8367SOL     OW36562   2.750   3.666  15.718  0.3996 -0.1546  0.0930
 8367SOL    HW136563   2.795   3.582  15.703  0.0777 -0.7067  2.2178
 8367SOL    HW236564   2.779   3.716  15.642  0.7958  2.2244  1.8127
 8368SOL     OW36565   3.762   2.839   7.304  0.8175  0.2412  0.4955
 8368SOL    HW136566   3.733   2.895   7.376 -1.0948  0.6921 -0.6220
 8368SOL    HW236567   3.857   2.852   7.302  0.4904  2.5845  0.0786
 8369SOL     OW36568   2.948   3.290   7.263 -0.6297  0.1917  0.0750
 8369SOL    HW136569   2.868   3.256   7.223 -0.4633 -0.8139  0.6030
 8369SOL    HW236570   2.945   3.257   7.353  0.2178  1.0442  0.4082
 8370SOL     OW36571   1.321   4.331   2.552 -0.4395  0.3421 -0.1121
 8370SOL    HW136572   1.357   4.389   2.485 -0.4767  1.3927  0.7730
 8370SOL    HW236573   1.343   4.242   2.524  2.2325  0.1045  2.7020
 8371SOL     OW36574   2.581   2.401   0.768 -0.5685  0.6779 -0.8024
 8371SOL    HW136575   2.492   2.422   0.795 -1.3621 -2.9093 -0.5086
 8371SOL    HW236576   2.582   2.426   0.676  0.3493  0.6768 -0.7955
 8372SOL     OW36577   0.526   3.769   2.689 -0.5723  0.0346  0.3457
 8372SOL    HW136578   0.447   3.716   2.690  0.8731 -2.1470 -1.2020
 8372SOL    HW236579   0.582   3.711   2.637  1.1007  0.7655  1.3439
 8373SOL     OW36580   2.009   0.788   3.646  0.1234  0.1960 -0.2664
 8373SOL    HW136581   2.097   0.822   3.629 -0.7051  3.0401  1.0560
 8373SOL    HW236582   2.034   0.708   3.690  1.5051  1.8348  1.9276
 8374SOL     OW36583   3.978   3.148   7.392  0.0214 -0.7064  0.2046
 8374SOL    HW136584   3.903   3.103   7.431 -0.4915 -0.6168 -0.6830
 8374SOL    HW236585   4.045   3.119   7.454 -0.1877 -3.0438 -0.6606
 8375SOL     OW36586   3.714   1.484   5.859 -0.2259 -0.7678  0.2462
 8375SOL    HW136587   3.716   1.531   5.775 -0.1433 -0.7915  0.2354
 8375SOL    HW236588   3.625   1.449   5.853 -0.1803 -0.6044 -1.4653
 8376SOL     OW36589   2.601   4.368   8.577  0.3277 -0.4048  0.2321
 8376SOL    HW136590   2.556   4.324   8.650 -2.6370 -1.3961 -2.1613
 8376SOL    HW236591   2.659   4.295   8.556  1.5236  0.6177  0.0078
 8377SOL     OW36592   0.394   2.282   1.321  0.8747 -0.0271 -0.5665
 8377SOL    HW136593   0.300   2.297   1.330  1.2572  1.9340  0.1982
 8377SOL    HW236594   0.389   2.193   1.355  0.7364  0.0560 -0.3726
 8378SOL     OW36595   4.168   3.577   0.190  0.4756 -0.3612 -0.5252
 8378SOL    HW136596   4.241   3.639   0.184 -0.2481  0.6102  0.6861
 8378SOL    HW236597   4.211   3.504   0.234 -0.4697  0.4409  1.6780
 8379SOL     OW36598   0.593   0.099   8.918  0.0595  0.4604  0.7405
 8379SOL    HW136599   0.500   0.099   8.942  0.5159  1.6705  2.4876
 8379SOL    HW236600   0.621   0.186   8.946  2.2558  0.4609 -1.4741
 8380SOL     OW36601   4.044   3.529   3.389 -0.5608  0.2468  0.0265
 8380SOL    HW136602   4.028   3.442   3.426  0.7445  0.8604  2.0647
 8380SOL    HW236603   4.135   3.520   3.361 -0.5655  0.4205 -0.0476
 8381SOL     OW36604   1.860   2.915  13.830  0.2898 -0.2900  0.0051
 8381SOL    HW136605   1.898   3.003  13.833  0.8800 -0.4905 -1.2509
 8381SOL    HW236606   1.823   2.916  13.741 -1.2892  0.0075  0.6602
 8382SOL     OW36607   2.548   1.043   5.333  0.1196  0.5546 -0.7784
 8382SOL    HW136608   2.611   0.972   5.321  0.6074  0.9771 -0.7092
 8382SOL    HW236609   2.592   1.118   5.293  2.1008  1.2982  2.7710
 8383SOL     OW36610   0.758   1.329   2.407 -0.0701 -0.0675 -0.1546
 8383SOL    HW136611   0.770   1.329   2.312  0.8415 -1.1558 -0.0408
 8383SOL    HW236612   0.843   1.300   2.439  0.4597  1.6733  0.0113
 8384SOL     OW36613   4.314   2.183   5.986 -0.3344  0.1934 -0.2250
 8384SOL    HW136614   4.236   2.155   6.033 -0.5943  1.4597  0.0757
 8384SOL    HW236615   4.304   2.150   5.896 -2.3276  2.4296 -0.8255
 8385SOL     OW36616   3.415   1.788   6.983 -0.3142  0.0449 -0.0478
 8385SOL    HW136617   3.370   1.833   6.911 -0.0020  1.3167  0.5609
 8385SOL    HW236618   3.445   1.711   6.935  1.4166  0.7152 -0.0387
 8386SOL     OW36619   4.406   1.175   9.047  0.9117 -0.1017  0.4169
 8386SOL    HW136620   4.350   1.194   8.972  1.8391 -1.3631 -0.5810
 8386SOL    HW236621   4.395   1.256   9.098 -0.9403 -0.4373  0.5551
 8387SOL     OW36622   4.342   2.679   1.029 -0.2332  0.1941 -0.0911
 8387SOL    HW136623   4.436   2.696   1.024  0.2732 -3.0520 -1.2441
 8387SOL    HW236624   4.331   2.688   0.934  1.8077 -2.4851 -0.5841
 8388SOL     OW36625   3.006   0.151  10.361  0.0590  0.0147 -0.4772
 8388SOL    HW136626   2.955   0.110  10.430  0.3653 -0.4129 -0.5011
 8388SOL    HW236627   2.947   0.214  10.322  0.6117  0.5252 -0.4911
 8389SOL     OW36628   4.503   3.307   3.168 -0.3953  0.0302 -0.2709
 8389SOL    HW136629   4.543   3.220   3.163  2.2937  1.3033 -0.3568
 8389SOL    HW236630   4.524   3.332   3.258  1.6485  0.6171 -0.9141
 8390SOL     OW36631   0.234   2.884   3.074  0.1685  1.0479  1.2353
 8390SOL    HW136632   0.280   2.957   3.034 -1.9138  0.4346 -2.1995
 8390SOL    HW236633   0.157   2.877   3.018  0.8169  2.2158  0.2179
 8391SOL     OW36634   1.259   3.813   4.144  0.3348  0.4405 -0.6263
 8391SOL    HW136635   1.347   3.827   4.109  0.9775 -2.2777 -0.1021
 8391SOL    HW236636   1.244   3.730   4.098  0.1299  0.1261 -0.0024
 8392SOL     OW36637   4.478   4.383   3.351 -0.0548 -0.3659  0.2938
 8392SOL    HW136638   4.517   4.423   3.429  0.2957  1.3676 -0.7799
 8392SOL    HW236639   4.544   4.324   3.314  1.7557  0.4681  2.1625
 8393SOL     OW36640   2.128   3.861   1.903 -0.3879  0.0986 -0.3596
 8393SOL    HW136641   2.111   3.949   1.936 -0.1411 -0.3775  1.0140
 8393SOL    HW236642   2.209   3.834   1.945 -0.7368  2.0866  1.5824
 8394SOL     OW36643   0.608   1.571  14.685  0.0370  0.1687  0.2493
 8394SOL    HW136644   0.617   1.548  14.777  0.0051  0.4490  0.3230
 8394SOL    HW236645   0.573   1.496  14.637  0.7130  1.3205 -2.0551
 8395SOL     OW36646   2.460   2.605  12.476  0.0848 -0.4995 -0.2512
 8395SOL    HW136647   2.514   2.554  12.415  1.5159  0.8749 -0.1292
 8395SOL    HW236648   2.402   2.536  12.509 -2.4374  1.6787 -0.1315
 8396SOL     OW36649   0.850   3.642   7.182  0.1332 -0.1371  0.3946
 8396SOL    HW136650   0.798   3.568   7.150  0.9395 -0.2082 -0.7456
 8396SOL    HW236651   0.822   3.712   7.122 -2.0467 -0.3506  1.1534
 8397SOL     OW36652   1.059   0.400   2.582 -0.1654  0.1616 -0.2024
 8397SOL    HW136653   1.028   0.310   2.587 -1.2321  0.4771 -1.3773
 8397SOL    HW236654   1.118   0.394   2.658 -1.5926  0.7638  0.9441
 8398SOL     OW36655   3.681   1.561   2.214 -0.1966  0.2944 -0.6065
 8398SOL    HW136656   3.690   1.593   2.125  3.3055  0.6636 -0.1351
 8398SOL    HW236657   3.764   1.518   2.239 -0.5511 -0.5289 -0.8329
 8399SOL     OW36658   3.424   3.831   8.628  0.6106 -0.3858 -0.9077
 8399SOL    HW136659   3.412   3.761   8.691  4.2350 -0.2748 -0.0473
 8399SOL    HW236660   3.448   3.904   8.685  0.2639 -0.2164 -0.9786
 8400SOL     OW36661   1.523   0.433   7.593  0.0208 -0.3318  0.4077
 8400SOL    HW136662   1.444   0.382   7.572  0.6051 -1.1217  0.1390
 8400SOL    HW236663   1.509   0.512   7.541 -3.9408 -1.0580  0.3073
 8401SOL     OW36664   0.192   0.745   6.596  0.3560 -0.1654  0.1444
 8401SOL    HW136665   0.194   0.702   6.511  1.5574  0.9682 -0.3975
 8401SOL    HW236666   0.133   0.687   6.644 -0.3112 -0.6258 -1.2418
 8402SOL     OW36667   3.515   3.282  11.891  0.5297 -0.0889 -0.3020
 8402SOL    HW136668   3.498   3.193  11.923 -2.1637 -0.0515 -1.6313
 8402SOL    HW236669   3.528   3.255  11.800 -1.2219 -0.4672 -0.4464
 8403SOL     OW36670   0.264   4.614  16.602 -0.0539  0.2623  0.4834
 8403SOL    HW136671   0.318   4.553  16.552 -1.5707 -1.3002  0.7429
 8403SOL    HW236672   0.197   4.552  16.630  1.3919 -2.0990 -1.2624
 8404SOL     OW36673   4.682   2.471   2.280  0.1500  0.1109  0.3401
 8404SOL    HW136674   4.654   2.407   2.346  0.5707  0.7382  1.1239
 8404SOL    HW236675   4.599   2.515   2.262 -0.2556 -1.3168 -1.2980
 8405SOL     OW36676   3.095   1.130   5.919  0.0221  0.4659 -0.1245
 8405SOL    HW136677   3.095   1.071   5.994 -0.6001 -2.1459 -2.1456
 8405SOL    HW236678   3.025   1.189   5.946 -0.7501 -0.4593 -0.1232
 8406SOL     OW36679   0.778   3.090   8.972  0.1747  0.4337  0.1186
 8406SOL    HW136680   0.708   3.103   8.908  0.3296 -0.0935 -0.1630
 8406SOL    HW236681   0.812   3.004   8.948 -1.7871 -0.5601  0.9055
 8407SOL     OW36682   0.639   2.309  13.474 -0.1826 -0.0846 -0.1283
 8407SOL    HW136683   0.602   2.237  13.424 -0.7742 -0.2035  0.4754
 8407SOL    HW236684   0.730   2.283  13.463 -0.2648 -0.6795  0.5816
 8408SOL     OW36685   2.031   3.231   6.437  0.6587  0.5515  0.4253
 8408SOL    HW136686   2.088   3.167   6.395 -0.0259  0.6057 -0.6164
 8408SOL    HW236687   1.982   3.176   6.498  1.9322 -0.4721  0.5205
 8409SOL     OW36688   3.072   2.801   3.406  0.0372  0.2753 -0.1754
 8409SOL    HW136689   3.028   2.827   3.325 -0.5218  0.1819  0.0969
 8409SOL    HW236690   3.060   2.706   3.398  1.4059 -0.0525  1.6302
 8410SOL     OW36691   1.085   0.109   4.696  0.5428 -0.6949  0.1968
 8410SOL    HW136692   1.140   0.034   4.721  0.1167 -0.5190  1.6943
 8410SOL    HW236693   1.037   0.133   4.776  0.1858  0.5276 -0.3852
 8411SOL     OW36694   0.282   0.628  11.925 -0.4181 -0.0295 -0.2529
 8411SOL    HW136695   0.321   0.693  11.984 -0.2562  1.3500 -1.8781
 8411SOL    HW236696   0.327   0.549  11.954 -1.4049 -1.0226 -1.4174
 8412SOL     OW36697   1.607   1.844  12.817  0.2367  0.4647  0.1026
 8412SOL    HW136698   1.539   1.819  12.754 -0.2291  0.8432  0.4577
 8412SOL    HW236699   1.634   1.761  12.856  0.1729  0.7519  0.7610
 8413SOL     OW36700   0.301   0.966  15.184 -0.6094 -0.0488 -0.4294
 8413SOL    HW136701   0.299   0.873  15.163 -1.9927  0.1495 -1.2122
 8413SOL    HW236702   0.264   1.004  15.105  0.4614 -0.4502 -1.1198
 8414SOL     OW36703   3.310   2.594  11.935 -0.4826  0.1496  0.1105
 8414SOL    HW136704   3.404   2.597  11.923 -0.1760  0.4440  2.5049
 8414SOL    HW236705   3.287   2.683  11.961  0.2083  0.4086 -0.1945
 8415SOL     OW36706   1.791   3.580   9.298  0.7170  0.2630 -0.0656
 8415SOL    HW136707   1.723   3.645   9.316 -0.3473 -1.0151  0.5056
 8415SOL    HW236708   1.795   3.590   9.203  1.7089 -2.5892 -0.3433
 8416SOL     OW36709   3.928   0.006   9.487  0.1938 -0.8000 -0.7982
 8416SOL    HW136710   3.984   0.082   9.470 -2.1397  0.6985 -1.7913
 8416SOL    HW236711   3.967   4.680   9.558 -1.4065 -0.2644  0.4772
 8417SOL     OW36712   4.247   1.563   2.352 -0.1070  0.1937 -0.0781
 8417SOL    HW136713   4.302   1.635   2.383 -1.7757  1.9915 -1.2343
 8417SOL    HW236714   4.168   1.559   2.405  0.0163  0.3537  0.1172
 8418SOL     OW36715   1.526   3.798   2.806  0.4793  0.3082 -0.2462
 8418SOL    HW136716   1.533   3.892   2.790  1.8239 -0.4460 -4.1068
 8418SOL    HW236717   1.589   3.769   2.740 -0.2027 -2.5750  0.4012
 8419SOL     OW36718   2.978   1.003   2.838 -0.0102 -0.5832 -0.5486
 8419SOL    HW136719   2.900   1.051   2.809 -0.2504  0.3035  1.5087
 8419SOL    HW236720   3.052   1.052   2.803 -0.6849  0.8006 -0.0487
 8420SOL     OW36721   0.033   0.429   7.201 -0.0924  0.6592  0.0980
 8420SOL    HW136722   4.685   0.390   7.247  0.3281  0.5725  0.6951
 8420SOL    HW236723   0.106   0.431   7.263 -1.2612  0.7858  1.4591
 8421SOL     OW36724   4.659   4.006   8.388  0.1522  0.0135  0.2822
 8421SOL    HW136725   4.656   4.085   8.335  0.6624 -0.3765 -0.3185
 8421SOL    HW236726   4.582   4.028   8.440 -1.1797 -0.1995 -1.5923
 8422SOL     OW36727   0.669   1.140   6.000  0.1381  0.1221 -0.5354
 8422SOL    HW136728   0.600   1.123   5.936  0.5826 -0.1218 -0.9452
 8422SOL    HW236729   0.649   1.219   6.051  1.9385  0.4410 -0.3458
 8423SOL     OW36730   2.869   1.659   1.484 -0.8872 -0.2079 -0.3327
 8423SOL    HW136731   2.829   1.744   1.464 -0.2694  1.0268  3.6036
 8423SOL    HW236732   2.925   1.686   1.557 -1.0305  0.5169 -0.4823
 8424SOL     OW36733   3.864   4.158   7.785  0.2830 -1.0856  0.6662
 8424SOL    HW136734   3.907   4.241   7.803 -4.2715  1.1554  1.1758
 8424SOL    HW236735   3.794   4.136   7.846 -1.6866 -0.7436 -1.4637
 8425SOL     OW36736   4.643   1.125   6.447 -0.4489 -0.3750 -0.5562
 8425SOL    HW136737   4.556   1.086   6.438 -0.1906 -1.5393  2.0773
 8425SOL    HW236738   4.689   1.042   6.432 -1.3227 -1.0549  0.5729
 8426SOL     OW36739   3.654   0.994   6.632 -0.2998 -0.2024 -0.2416
 8426SOL    HW136740   3.652   0.939   6.554 -0.0196  0.9808 -1.0806
 8426SOL    HW236741   3.716   1.063   6.610  0.0174  0.0877  1.5527
 8427SOL     OW36742   3.138   0.721   0.814  0.1374  0.0458  0.5798
 8427SOL    HW136743   3.143   0.741   0.908 -0.3864  0.3226  0.5504
 8427SOL    HW236744   3.225   0.749   0.788  1.1107 -3.5051  0.0018
 8428SOL     OW36745   0.432   2.793   5.728 -0.0061 -0.1648  0.5246
 8428SOL    HW136746   0.499   2.746   5.677 -0.1942  0.1100  0.0207
 8428SOL    HW236747   0.484   2.867   5.759  0.8226 -0.1547 -0.8969
 8429SOL     OW36748   2.110   3.760   8.875  0.2384  0.0689 -0.0255
 8429SOL    HW136749   2.028   3.798   8.906 -0.5397 -1.0474 -0.7172
 8429SOL    HW236750   2.091   3.668   8.893 -0.2620  0.2075  0.1505
 8430SOL     OW36751   0.501   4.064   4.553 -0.5079  0.1089  0.3925
 8430SOL    HW136752   0.510   4.044   4.460  1.4948  1.7165  0.2400
 8430SOL    HW236753   0.586   4.045   4.593 -1.0883 -0.4909  1.3527
 8431SOL     OW36754   1.588   0.337   4.132  0.2797 -0.5096  0.3623
 8431SOL    HW136755   1.502   0.375   4.151  0.5942  0.7943 -0.7873
 8431SOL    HW236756   1.647   0.397   4.177  0.9721 -1.1358  0.2664
 8432SOL     OW36757   4.439   2.535   2.892  0.2129 -0.2321 -0.4109
 8432SOL    HW136758   4.501   2.562   2.824  0.6544 -1.6092 -0.5731
 8432SOL    HW236759   4.386   2.614   2.899  2.1232  1.1596 -2.0502
 8433SOL     OW36760   2.411   3.180   3.681 -0.1824  0.1599  0.1577
 8433SOL    HW136761   2.492   3.229   3.666  1.1824 -1.0693  3.6410
 8433SOL    HW236762   2.343   3.233   3.638 -0.3197 -0.9569 -1.0054
 8434SOL     OW36763   4.245   2.694   1.274  0.4191 -0.0952  0.1874
 8434SOL    HW136764   4.191   2.770   1.251  2.1322  0.9710 -0.2592
 8434SOL    HW236765   4.291   2.691   1.190  0.9506 -1.2148  0.5128
 8435SOL     OW36766   0.507   0.471  13.448  0.0402  0.0376 -0.4803
 8435SOL    HW136767   0.565   0.547  13.435  0.5355 -0.4649 -1.2749
 8435SOL    HW236768   0.567   0.411  13.493 -0.7107  0.5404  1.1626
 8436SOL     OW36769   1.196   2.059   6.798 -0.4984 -0.0424  0.9626
 8436SOL    HW136770   1.243   1.994   6.745  0.4559  1.3743  0.0704
 8436SOL    HW236771   1.107   2.049   6.766  0.6025 -2.6943 -1.2634
 8437SOL     OW36772   4.252   2.898   1.745  0.0491  0.1112 -0.2961
 8437SOL    HW136773   4.310   2.943   1.807 -0.2306 -0.1173  0.1355
 8437SOL    HW236774   4.280   2.917   1.656 -1.1679  0.6769 -0.5654
 8438SOL     OW36775   2.886   2.792   7.652  0.3551 -0.1947  0.5445
 8438SOL    HW136776   2.803   2.800   7.604  0.3657 -2.4331  0.1646
 8438SOL    HW236777   2.958   2.782   7.590  0.3597 -0.4478  0.5933
 8439SOL     OW36778   1.759   3.731   2.614 -0.3400  0.1515  0.2331
 8439SOL    HW136779   1.791   3.692   2.695 -1.0873  0.0151  0.4704
 8439SOL    HW236780   1.816   3.698   2.545  0.2932  3.2945 -0.7571
 8440SOL     OW36781   3.465   1.922   2.073  0.2486 -0.2480 -0.1634
 8440SOL    HW136782   3.427   2.010   2.071 -3.4804 -1.8453 -0.6738
 8440SOL    HW236783   3.458   1.898   1.981  3.2508  1.6000 -0.8594
 8441SOL     OW36784   4.631   4.626   8.475  0.2733  0.0055  0.0562
 8441SOL    HW136785   4.547   4.609   8.433  0.8591 -1.7692 -0.4154
 8441SOL    HW236786   4.593   4.643   8.561 -0.5145 -0.2542 -0.2356
 8442SOL     OW36787   1.070   2.374   3.391  0.5999  0.4859  0.0157
 8442SOL    HW136788   1.004   2.313   3.425  0.1310  0.8397 -0.2640
 8442SOL    HW236789   1.091   2.425   3.468  1.4934  1.0010 -0.5804
 8443SOL     OW36790   2.457   1.175  12.661 -0.3485 -0.0281 -0.1258
 8443SOL    HW136791   2.485   1.267  12.665  2.9702 -1.1007  1.7160
 8443SOL    HW236792   2.506   1.163  12.580  0.4660 -2.6574  0.7614
 8444SOL     OW36793   1.547   3.814   2.382  0.1321 -0.6970 -0.2223
 8444SOL    HW136794   1.627   3.778   2.421 -0.4842  0.5086  2.1735
 8444SOL    HW236795   1.566   3.788   2.292  1.4822  1.3889 -0.5407
 8445SOL     OW36796   3.672   2.752   7.643  0.0072 -0.3444  0.6340
 8445SOL    HW136797   3.598   2.759   7.702  0.2975  0.1492  0.9375
 8445SOL    HW236798   3.743   2.736   7.704 -0.7768 -0.3954  1.5245
 8446SOL     OW36799   2.207   0.668   1.695  0.0929 -0.5358  0.4619
 8446SOL    HW136800   2.144   0.618   1.747  1.1426 -1.9876  0.3537
 8446SOL    HW236801   2.218   0.742   1.753 -0.3896 -0.6521  0.7040
 8447SOL     OW36802   3.702   3.640   2.096 -0.0846  0.5763  0.4374
 8447SOL    HW136803   3.687   3.678   2.182 -0.8178  2.3384 -0.4716
 8447SOL    HW236804   3.740   3.555   2.120  0.3436  0.4730 -0.5757
 8448SOL     OW36805   1.413   4.333   4.931 -0.6207  0.1539 -0.4836
 8448SOL    HW136806   1.351   4.269   4.895  0.5151 -1.6023  0.6942
 8448SOL    HW236807   1.369   4.412   4.961 -0.3200  1.2575 -2.8929
 8449SOL     OW36808   2.730   1.957   2.257 -0.2826 -0.1849  0.1611
 8449SOL    HW136809   2.757   1.869   2.231  1.5225 -0.0862  1.7556
 8449SOL    HW236810   2.801   2.009   2.219  0.1850  0.0068  1.2854
 8450SOL     OW36811   2.780   3.028   0.872 -0.3327 -0.0453  0.7936
 8450SOL    HW136812   2.855   3.059   0.924 -0.8624  0.8484  1.0236
 8450SOL    HW236813   2.752   2.944   0.909  0.2769 -1.0291 -0.9845
 8451SOL     OW36814   0.189   0.333   5.050 -0.0474  0.1062 -0.5071
 8451SOL    HW136815   0.259   0.354   5.113  1.5994 -0.7943 -2.0424
 8451SOL    HW236816   0.215   0.248   5.013  1.5580 -0.1908  1.2576
 8452SOL     OW36817   3.414   2.508   9.227 -0.0418  0.3293  0.3680
 8452SOL    HW136818   3.334   2.471   9.191  1.1682 -1.0082 -0.9625
 8452SOL    HW236819   3.401   2.601   9.209 -1.5064 -0.3683 -2.1239
 8453SOL     OW36820   4.429   3.926   4.171 -1.0756 -0.8371 -0.3762
 8453SOL    HW136821   4.496   3.983   4.132 -2.0762 -0.0483 -0.9341
 8453SOL    HW236822   4.441   3.848   4.116 -0.3231  0.7172 -2.4358
 8454SOL     OW36823   2.868   0.342   3.949  0.0121 -0.1701  0.5517
 8454SOL    HW136824   2.808   0.391   3.893  1.4169  1.9641  0.9022
 8454SOL    HW236825   2.878   0.260   3.901  0.0186  0.1629 -0.0194
 8455SOL     OW36826   1.867   1.011  11.641 -0.3014  0.1807 -0.2094
 8455SOL    HW136827   1.926   1.009  11.717 -1.0824 -2.0381  0.3362
 8455SOL    HW236828   1.917   1.012  11.559  0.0926 -1.7855  0.0019
 8456SOL     OW36829   4.495   1.686   4.123 -0.4685  0.0145 -0.1253
 8456SOL    HW136830   4.408   1.724   4.133 -0.5670  0.0809 -1.2519
 8456SOL    HW236831   4.552   1.762   4.134 -0.4240  0.0539 -0.6417
 8457SOL     OW36832   0.450   0.334   1.051 -0.3408  0.3355 -0.2883
 8457SOL    HW136833   0.516   0.267   1.036  1.6668  2.0276  0.9673
 8457SOL    HW236834   0.462   0.355   1.143 -3.2197 -3.7686  1.0058
 8458SOL     OW36835   0.808   4.606   5.555  0.2296 -0.5629 -0.1293
 8458SOL    HW136836   0.819   4.513   5.572 -1.5288 -1.2137 -2.5837
 8458SOL    HW236837   0.869   4.614   5.481  0.7875 -1.5472  0.2262
 8459SOL     OW36838   4.393   2.607   4.690 -0.4894 -0.5062 -0.0242
 8459SOL    HW136839   4.356   2.567   4.769  1.6100 -1.1874  0.6037
 8459SOL    HW236840   4.346   2.690   4.691 -1.1651 -0.8858  0.9613
 8460SOL     OW36841   3.137   4.080  10.040  0.2367 -0.1422  0.8819
 8460SOL    HW136842   3.146   4.147   9.972 -1.7945  0.0584  0.8073
 8460SOL    HW236843   3.110   4.132  10.116 -0.0495 -1.8706  1.9384
 8461SOL     OW36844   2.323   2.084   5.822  0.1836 -0.2280  0.1555
 8461SOL    HW136845   2.268   2.102   5.898  0.0770 -1.2256  0.3121
 8461SOL    HW236846   2.407   2.119   5.853  0.0937  0.6747 -0.6463
 8462SOL     OW36847   3.420   0.692  10.139 -0.1910  0.2474  0.3770
 8462SOL    HW136848   3.435   0.776  10.096  0.8447  1.0865  2.3743
 8462SOL    HW236849   3.352   0.703  10.205 -0.2724 -0.4896  0.4066
 8463SOL     OW36850   0.396   4.138  11.960  0.2244  0.6430  0.4268
 8463SOL    HW136851   0.365   4.068  11.902  1.5785  0.5811 -0.2426
 8463SOL    HW236852   0.404   4.096  12.045 -0.1376  0.7760  0.5235
 8464SOL     OW36853   2.218   3.047  14.000 -0.5968 -0.1533 -0.0936
 8464SOL    HW136854   2.253   3.124  14.044  1.2564 -1.2378  0.3690
 8464SOL    HW236855   2.151   3.083  13.943  0.6429  1.5232 -0.4724
 8465SOL     OW36856   1.927   3.290   5.203  0.1305  0.2521 -0.0339
 8465SOL    HW136857   1.943   3.200   5.176 -0.4161 -0.2761  1.4281
 8465SOL    HW236858   2.012   3.320   5.236  0.8761  0.1817 -1.8728
 8466SOL     OW36859   1.081   0.458   8.572  0.1408  0.5284 -0.4190
 8466SOL    HW136860   1.066   0.497   8.658  2.3315 -0.6181  0.4654
 8466SOL    HW236861   1.057   0.369   8.599  1.0842 -0.1252 -1.7286
 8467SOL     OW36862   1.062   2.012   5.898  0.0273  0.2604  0.4896
 8467SOL    HW136863   0.980   1.962   5.895 -0.2086  0.6532  0.4832
 8467SOL    HW236864   1.120   1.949   5.855 -0.9208 -0.5202  0.3388
 8468SOL     OW36865   3.222   4.009   1.311  0.3968 -0.3914 -0.6946
 8468SOL    HW136866   3.253   3.984   1.398 -0.3333  0.8664 -0.0747
 8468SOL    HW236867   3.171   4.090   1.320 -0.1421 -0.8248  0.1028
 8469SOL     OW36868   2.577   1.669   1.877  0.7418 -0.3358 -0.0603
 8469SOL    HW136869   2.619   1.623   1.805 -0.4765  0.5575 -1.3509
 8469SOL    HW236870   2.606   1.759   1.861 -1.8282  0.3273 -1.0170
 8470SOL     OW36871   2.127   1.862   2.817  0.3103  0.1667 -0.1593
 8470SOL    HW136872   2.139   1.873   2.911 -2.7287  1.3217  0.0785
 8470SOL    HW236873   2.130   1.951   2.781  0.4118  0.7111  1.1885
 8471SOL     OW36874   1.562   3.543  16.841  0.2267 -0.0875 -0.3306
 8471SOL    HW136875   1.629   3.501  16.896  0.6657  1.3137  0.1881
 8471SOL    HW236876   1.520   3.464  16.805 -0.0069  0.4244 -1.1707
 8472SOL     OW36877   2.072   2.608   7.724 -0.4102 -0.0286 -0.4666
 8472SOL    HW136878   2.015   2.684   7.737  0.6403  0.8483 -0.9500
 8472SOL    HW236879   2.155   2.633   7.765 -0.6637 -0.0776  0.0712
 8473SOL     OW36880   3.518   1.749  15.090 -0.8035  0.4990  0.3648
 8473SOL    HW136881   3.598   1.792  15.062 -0.0590 -1.0799  0.0597
 8473SOL    HW236882   3.502   1.787  15.176  2.2609  2.2273  0.1720
 8474SOL     OW36883   4.387   1.726   3.087  0.2690 -0.9317 -0.3418
 8474SOL    HW136884   4.409   1.759   3.000 -1.7778  0.5644 -0.2890
 8474SOL    HW236885   4.394   1.802   3.144  0.8786 -0.5124 -0.9873
 8475SOL     OW36886   4.547   0.123  15.049 -0.1886 -0.0846 -0.1049
 8475SOL    HW136887   4.595   0.141  14.968 -0.9558  1.6954 -0.1484
 8475SOL    HW236888   4.616   0.075  15.095 -0.9745  1.1685  2.3643
 8476SOL     OW36889   3.105   1.511  10.864 -0.2260 -0.1169  0.5367
 8476SOL    HW136890   3.191   1.541  10.832 -0.3420 -1.1879 -0.8097
 8476SOL    HW236891   3.131   1.505  10.956  1.6030 -0.6770 -0.0100
 8477SOL     OW36892   2.071   2.600   3.039 -0.4882 -0.1244 -0.2311
 8477SOL    HW136893   2.120   2.629   2.962 -1.5664 -1.2447 -1.3465
 8477SOL    HW236894   1.989   2.573   2.998  0.4318 -0.7900 -1.6445
 8478SOL     OW36895   3.096   4.325   5.822 -0.1050 -0.3334 -0.1773
 8478SOL    HW136896   3.021   4.376   5.850  0.6430  1.7741 -2.0348
 8478SOL    HW236897   3.097   4.330   5.726  0.0492 -0.7567 -0.1988
 8479SOL     OW36898   3.120   2.229  16.648 -0.1485  0.1605 -0.0977
 8479SOL    HW136899   3.067   2.235  16.568 -0.8522  0.6028  0.4030
 8479SOL    HW236900   3.110   2.316  16.685 -1.4539 -0.0483  0.0434
 8480SOL     OW36901   0.658   2.500   0.935  0.3583  0.1135  0.9771
 8480SOL    HW136902   0.749   2.471   0.925 -0.2038 -1.1438 -0.6739
 8480SOL    HW236903   0.603   2.421   0.944 -2.4080  2.1165  1.6009
 8481SOL     OW36904   4.076   4.633   1.806  0.6480 -0.0333  0.0165
 8481SOL    HW136905   4.043   4.723   1.801  0.6780 -0.0098  0.2554
 8481SOL    HW236906   4.170   4.650   1.795  0.0769  1.8788 -1.8706
 8482SOL     OW36907   2.606   0.054   2.755 -0.0023  0.4174 -0.5340
 8482SOL    HW136908   2.588   0.110   2.831  1.9875  0.7831 -0.3397
 8482SOL    HW236909   2.604   0.119   2.686 -0.0250  0.7607 -0.2103
 8483SOL     OW36910   0.179   2.355  14.668 -0.7463  0.3760 -0.0111
 8483SOL    HW136911   0.090   2.363  14.633 -1.3628  1.7259  1.8660
 8483SOL    HW236912   0.164   2.351  14.762 -0.3603 -1.3229 -0.0201
 8484SOL     OW36913   0.334   0.177  10.434 -0.1891 -0.5401 -0.2711
 8484SOL    HW136914   0.248   0.160  10.396  0.4087 -0.6979 -1.5707
 8484SOL    HW236915   0.307   0.251  10.489 -0.1123  0.1786 -1.1864
 8485SOL     OW36916   4.185   2.679   2.340 -0.1721 -0.2125 -0.0692
 8485SOL    HW136917   4.117   2.739   2.370  0.0681  0.0652 -0.0867
 8485SOL    HW236918   4.174   2.600   2.394  1.3151 -1.0741 -1.0031
 8486SOL     OW36919   2.921   0.365   2.594 -0.2257  0.3010 -0.4045
 8486SOL    HW136920   2.992   0.306   2.565 -2.3879 -2.2707 -0.4506
 8486SOL    HW236921   2.864   0.372   2.518 -0.9438  1.5127  0.2622
 8487SOL     OW36922   3.594   0.864   4.570  0.3375  0.3351  0.6239
 8487SOL    HW136923   3.658   0.886   4.638 -0.1936  0.1569  1.1768
 8487SOL    HW236924   3.648   0.849   4.493 -0.7932  0.2741 -0.1543
 8488SOL     OW36925   3.349   2.863   9.778 -0.0193 -0.8283  0.0463
 8488SOL    HW136926   3.311   2.948   9.757  1.0546 -0.5613 -0.8148
 8488SOL    HW236927   3.437   2.883   9.745  0.2326 -0.1785  1.1072
 8489SOL     OW36928   4.594   1.049  10.403 -0.7220  0.5958  0.1181
 8489SOL    HW136929   4.563   1.063  10.492  0.3234  0.2963  0.5261
 8489SOL    HW236930   4.535   0.976  10.385 -0.1404 -0.1175  1.1309
 8490SOL     OW36931   0.692   0.064  17.480 -0.6267 -0.0964 -0.0395
 8490SOL    HW136932   0.607   0.107  17.477 -1.8996 -2.3673  3.8862
 8490SOL    HW236933   0.740   0.126  17.424 -0.2726  0.7782  1.2183
 8491SOL     OW36934   1.076   2.854   6.505 -0.0239 -0.4317  0.3760
 8491SOL    HW136935   1.137   2.909   6.457 -1.5720 -1.2417 -2.5378
 8491SOL    HW236936   1.094   2.888   6.592  0.4626 -0.0403  0.1235
 8492SOL     OW36937   3.365   2.328   8.601  0.0983 -0.0165  0.0361
 8492SOL    HW136938   3.435   2.368   8.549  2.5998 -0.2996  3.1913
 8492SOL    HW236939   3.405   2.247   8.632  1.2169  0.4126 -0.3062
 8493SOL     OW36940   2.774   4.055   3.558 -0.2735 -0.3843 -0.5807
 8493SOL    HW136941   2.704   4.104   3.515  0.0248  1.4943  1.0443
 8493SOL    HW236942   2.741   4.043   3.647  1.7510 -1.7082 -0.0032
 8494SOL     OW36943   3.768   0.599  11.951  0.1055 -0.0224 -0.1216
 8494SOL    HW136944   3.775   0.545  12.030 -2.8736  3.3790  2.4755
 8494SOL    HW236945   3.675   0.592  11.931  0.1407  0.3125 -0.4071
 8495SOL     OW36946   3.725   2.564   7.999 -0.4505  0.7389 -0.2605
 8495SOL    HW136947   3.719   2.610   8.083  1.0506 -1.2835  0.9494
 8495SOL    HW236948   3.682   2.480   8.009  2.3285 -0.7518 -0.8450
 8496SOL     OW36949   1.439   1.799  16.594  0.9140  0.4175  0.3186
 8496SOL    HW136950   1.357   1.848  16.584  1.5535  1.6064  0.9398
 8496SOL    HW236951   1.443   1.775  16.502 -1.2656 -1.4890  0.7000
 8497SOL     OW36952   2.874   2.490   7.505  0.3365  0.5476  0.5940
 8497SOL    HW136953   2.904   2.421   7.446  0.7199  0.7161  0.5871
 8497SOL    HW236954   2.953   2.536   7.534  2.1684 -0.7917 -2.2912
 8498SOL     OW36955   3.328   3.652   8.781  0.1877  0.0520  0.0760
 8498SOL    HW136956   3.287   3.570   8.807 -2.7174  1.1201 -1.1101
 8498SOL    HW236957   3.260   3.685   8.722 -0.3940  1.6353  1.6346
 8499SOL     OW36958   1.893   1.469  13.332  0.0135  0.0753  0.3676
 8499SOL    HW136959   1.859   1.454  13.243 -2.3708  2.3938  0.8942
 8499SOL    HW236960   1.893   1.564  13.339 -2.6007  0.0763  0.5040
 8500SOL     OW36961   3.892   2.390   4.359 -0.5055  0.6585 -0.0736
 8500SOL    HW136962   3.817   2.332   4.365 -0.5267  0.6458 -0.4877
 8500SOL    HW236963   3.893   2.400   4.264  4.3991 -2.0401 -0.3128
 8501SOL     OW36964   4.418   1.393   0.404 -0.2426 -0.2030  0.4251
 8501SOL    HW136965   4.391   1.359   0.489 -0.4895  0.9364  0.8002
 8501SOL    HW236966   4.335   1.439   0.391  0.8025  1.3439 -0.8795
 8502SOL     OW36967   4.126   2.926   0.052  0.3894  0.3380  0.4805
 8502SOL    HW136968   4.117   2.856   0.116  2.5560  0.1813  0.6029
 8502SOL    HW236969   4.177   2.986   0.107  0.6185 -0.4333  1.1073
 8503SOL     OW36970   3.837   0.145   9.900  0.9165 -0.1565  0.0809
 8503SOL    HW136971   3.889   0.197   9.838 -1.8806  0.1931 -1.9653
 8503SOL    HW236972   3.909   0.125   9.960  0.3808  1.9471  1.4123
 8504SOL     OW36973   0.070   4.518   6.842  0.0042 -0.4707 -0.1021
 8504SOL    HW136974   0.010   4.592   6.852 -1.6246 -1.6164 -1.4840
 8504SOL    HW236975   0.008   4.449   6.819  0.9727 -1.8865  1.5475
 8505SOL     OW36976   1.409   1.437   4.483 -0.0826  0.2797  0.2844
 8505SOL    HW136977   1.483   1.473   4.433  0.8870 -1.9797  0.0798
 8505SOL    HW236978   1.394   1.514   4.537  1.0448  2.0319 -1.9191
 8506SOL     OW36979   4.614   2.189  17.597  0.3467 -0.3628 -0.5319
 8506SOL    HW136980   4.700   2.145  17.601  0.3246 -0.2125  1.4259
 8506SOL    HW236981   4.560   2.121  17.557 -4.3525  1.2589  3.1834
 8507SOL     OW36982   3.222   0.002   0.619  0.1601  0.2410  0.2362
 8507SOL    HW136983   3.151   4.717   0.556 -0.5854  0.9319  0.9577
 8507SOL    HW236984   3.169   4.704   0.695 -0.6158 -2.1416 -1.0451
 8508SOL     OW36985   0.639   2.737  12.029 -0.3340  0.5070  0.1158
 8508SOL    HW136986   0.591   2.727  12.111 -0.8632  1.6320 -0.0640
 8508SOL    HW236987   0.641   2.832  12.020  3.1418  0.1373 -3.1332
 8509SOL     OW36988   2.131   1.488  16.882  0.3076 -0.2259  0.3297
 8509SOL    HW136989   2.056   1.524  16.835 -0.5351 -1.6009  0.6004
 8509SOL    HW236990   2.103   1.515  16.970  0.1368  0.2223  0.1339
 8510SOL     OW36991   1.841   1.439   5.186  0.2782 -0.1805  0.0030
 8510SOL    HW136992   1.906   1.431   5.116 -1.4358  2.6791 -1.9090
 8510SOL    HW236993   1.854   1.513   5.246  1.1085 -0.2098 -0.1371
 8511SOL     OW36994   3.546   4.249   6.024  0.1921 -0.4479  0.3689
 8511SOL    HW136995   3.468   4.289   5.986  0.8648  0.3457 -0.1855
 8511SOL    HW236996   3.601   4.326   6.039 -0.3707 -0.5326  3.0014
 8512SOL     OW36997   3.970   1.584   5.320  0.2572 -0.6402  0.5429
 8512SOL    HW136998   4.000   1.520   5.386  0.6036  0.6424  1.6312
 8512SOL    HW236999   3.951   1.657   5.379  0.6878 -0.4112  0.3914
 8513SOL     OW37000   2.818   1.227  14.207 -0.4606 -0.5582  0.3197
 8513SOL    HW137001   2.774   1.186  14.133 -2.3602  0.5553  0.8252
 8513SOL    HW237002   2.890   1.164  14.212 -1.8246 -2.0381  1.3896
 8514SOL     OW37003   2.991   2.544   4.628  0.0251  0.7642 -0.2386
 8514SOL    HW137004   3.068   2.599   4.611  0.2443  1.2665  2.3467
 8514SOL    HW237005   2.924   2.610   4.608  0.2536  0.8373 -0.7498
 8515SOL     OW37006   2.206   3.312   5.389 -0.5899 -0.2067  0.3995
 8515SOL    HW137007   2.254   3.229   5.389  0.1762  0.2513 -0.3809
 8515SOL    HW237008   2.265   3.376   5.351 -2.0496  1.9731  1.8257
 8516SOL     OW37009   1.451   0.111   9.064 -0.3146 -0.0485  0.4444
 8516SOL    HW137010   1.541   0.103   9.097 -0.0945  0.3438 -0.0540
 8516SOL    HW237011   1.413   0.026   9.083  0.5186 -0.6388 -0.5670
 8517SOL     OW37012   3.487   4.669   1.957 -0.0164 -0.9290  0.1217
 8517SOL    HW137013   3.405   4.707   1.988 -0.3652 -0.0683 -1.9022
 8517SOL    HW237014   3.527   4.646   2.041  0.2832 -0.5894  0.0735
 8518SOL     OW37015   0.748   2.966   8.226  0.0896 -0.5546  0.2405
 8518SOL    HW137016   0.711   2.878   8.226 -0.7067 -0.2261  0.0770
 8518SOL    HW237017   0.776   2.965   8.317  0.2305 -0.2324  0.2019
 8519SOL     OW37018   0.764   1.572   3.801  0.0696 -0.5316  0.1821
 8519SOL    HW137019   0.840   1.536   3.756  1.1504  1.6851  0.2060
 8519SOL    HW237020   0.734   1.498   3.853  2.4452 -0.7692  1.1971
 8520SOL     OW37021   3.232   1.193   0.324  0.6445  0.3565  0.9074
 8520SOL    HW137022   3.221   1.133   0.250 -1.9775  1.0691  0.7025
 8520SOL    HW237023   3.262   1.126   0.385  0.2608  1.7857  2.6424
 8521SOL     OW37024   4.448   3.973   9.512  0.3517 -0.0468 -0.0622
 8521SOL    HW137025   4.453   4.060   9.552  3.2251 -0.1354 -0.2753
 8521SOL    HW237026   4.405   3.926   9.584 -0.0825  0.4394  0.0031
 8522SOL     OW37027   4.566   4.259   6.974  0.1921  0.5894  0.0644
 8522SOL    HW137028   4.587   4.342   7.017 -0.5047  0.8562 -0.1020
 8522SOL    HW237029   4.473   4.280   6.963 -0.0827 -0.3291  0.6524
 8523SOL     OW37030   2.832   2.119  13.974 -0.0873 -0.8646  0.4776
 8523SOL    HW137031   2.783   2.068  14.038  0.1675 -2.7834 -0.8691
 8523SOL    HW237032   2.857   2.052  13.911 -0.2776  0.5840 -1.1425
 8524SOL     OW37033   1.911   1.112  10.006 -0.0574 -0.9478  0.0633
 8524SOL    HW137034   1.834   1.140   9.958 -1.3594 -3.3535  0.7509
 8524SOL    HW237035   1.935   1.031   9.961 -1.5200 -1.4293  0.1378
 8525SOL     OW37036   0.639   3.393   3.353  0.2510  0.4691 -0.0191
 8525SOL    HW137037   0.725   3.405   3.394  1.5581 -2.4222 -1.9232
 8525SOL    HW237038   0.657   3.407   3.260  0.0681 -0.6341 -0.2258
 8526SOL     OW37039   3.358   0.928  14.725 -0.0737 -0.7753 -0.3963
 8526SOL    HW137040   3.365   0.960  14.815  0.8525 -1.9839 -0.0409
 8526SOL    HW237041   3.343   1.015  14.689  2.6575 -0.0732  0.2042
 8527SOL     OW37042   3.587   0.477   4.852 -0.2252  0.6193  0.7983
 8527SOL    HW137043   3.504   0.522   4.866  0.4655  1.4541  2.1444
 8527SOL    HW237044   3.588   0.413   4.922 -0.1530 -0.9965 -0.6743
 8528SOL     OW37045   1.178   2.442   2.223 -0.2447  0.0171  0.6228
 8528SOL    HW137046   1.246   2.483   2.169  0.2859 -2.2159 -0.4149
 8528SOL    HW237047   1.100   2.460   2.171 -1.0380 -0.5935  1.6008
 8529SOL     OW37048   3.501   4.080   9.456 -0.5058  0.7326 -0.1692
 8529SOL    HW137049   3.516   4.025   9.533 -0.4023 -0.4280 -1.0216
 8529SOL    HW237050   3.489   4.017   9.385  1.6675 -0.2316  0.3144
 8530SOL     OW37051   3.134   2.244   8.407 -0.3001 -0.2610 -0.0708
 8530SOL    HW137052   3.209   2.250   8.467  0.3239  2.1613 -1.0965
 8530SOL    HW237053   3.138   2.149   8.393  5.9600 -0.0361  0.2434
 8531SOL     OW37054   1.226   0.958  11.818  0.1843 -0.1062  0.1786
 8531SOL    HW137055   1.169   1.034  11.831 -0.9233 -1.0480  0.8568
 8531SOL    HW237056   1.181   0.922  11.741  2.4236  1.7540 -2.0141
 8532SOL     OW37057   3.693   1.069  10.014 -0.1015  0.0357  0.0052
 8532SOL    HW137058   3.729   1.019  10.087  2.6703  1.6512 -0.2750
 8532SOL    HW237059   3.754   1.135   9.982 -0.4935  0.1472 -0.5192
 8533SOL     OW37060   0.860   2.027   4.427 -0.1763  0.5268 -0.2276
 8533SOL    HW137061   0.765   2.023   4.414 -0.0970 -0.4902 -0.4858
 8533SOL    HW237062   0.876   1.933   4.415 -0.7913  0.2667  0.9344
 8534SOL     OW37063   3.746   0.903  17.319 -0.3369 -0.5663 -0.1136
 8534SOL    HW137064   3.696   0.902  17.237 -0.3486  0.6634 -0.1245
 8534SOL    HW237065   3.742   0.993  17.351 -0.6034 -0.9855  1.0530
 8535SOL     OW37066   1.469   4.137  17.632 -0.1457  0.0348 -0.6103
 8535SOL    HW137067   1.407   4.209  17.620  0.7007  1.0068  0.8745
 8535SOL    HW237068   1.495   4.144   0.018  0.5466 -1.5743 -0.6858
 8536SOL     OW37069   1.299   3.050   7.134  0.6142  0.0403  0.1694
 8536SOL    HW137070   1.315   2.961   7.165 -0.2462  0.0069  0.5079
 8536SOL    HW237071   1.210   3.061   7.167  1.1025  0.0501  1.4835
 8537SOL     OW37072   3.300   0.425   4.686 -0.0746  0.9514  0.5673
 8537SOL    HW137073   3.284   0.367   4.761  0.3667 -0.6743 -0.5822
 8537SOL    HW237074   3.390   0.408   4.658 -0.3093  0.2080  0.2439
 8538SOL     OW37075   2.843   2.919   5.460  0.1308 -0.3979  0.6485
 8538SOL    HW137076   2.915   2.857   5.473  0.3119 -0.2137  0.5135
 8538SOL    HW237077   2.879   3.006   5.443  0.7365 -1.1776 -1.9809
 8539SOL     OW37078   0.954   1.705  15.329 -0.2241  0.1801  0.5398
 8539SOL    HW137079   0.903   1.629  15.356 -1.5410  0.8686  0.0285
 8539SOL    HW237080   0.974   1.680  15.239 -2.6729 -2.1380  0.6230
 8540SOL     OW37081   2.458   1.944   4.894 -0.2663 -0.2978 -0.0795
 8540SOL    HW137082   2.519   2.013   4.921  1.4068 -0.6595 -2.8918
 8540SOL    HW237083   2.459   1.889   4.972 -2.9070  0.9351  0.8356
 8541SOL     OW37084   4.027   2.339   9.578  0.1230  0.4402 -0.4855
 8541SOL    HW137085   3.972   2.343   9.499  0.6058 -1.7501 -0.9483
 8541SOL    HW237086   3.999   2.421   9.618  0.6461  0.7087 -0.6725
 8542SOL     OW37087   3.454   1.735   8.939  0.0210 -0.4382  0.0801
 8542SOL    HW137088   3.495   1.822   8.944 -1.9557  0.4879  0.5102
 8542SOL    HW237089   3.518   1.682   8.892  1.9518  0.6529  1.4808
 8543SOL     OW37090   3.497   2.555   8.503 -0.1041  0.0936 -0.4510
 8543SOL    HW137091   3.427   2.618   8.488 -0.8236 -0.5160  0.4220
 8543SOL    HW237092   3.538   2.597   8.578  0.6606  0.0175 -0.8196
 8544SOL     OW37093   2.141   4.657   3.950 -0.5750  0.4958 -0.5224
 8544SOL    HW137094   2.089   4.607   4.012 -0.7485 -0.3161 -1.3236
 8544SOL    HW237095   2.130   0.024   3.970 -1.4842  0.4427 -0.7686
 8545SOL     OW37096   1.777   2.965   4.880  0.1637  0.1973 -0.2577
 8545SOL    HW137097   1.799   2.913   4.957 -0.7234 -0.6204 -0.5510
 8545SOL    HW237098   1.682   2.967   4.880  0.1648  0.1233  0.1740
 8546SOL     OW37099   3.500   1.973   6.057  0.2017  0.2225 -0.0556
 8546SOL    HW137100   3.534   1.999   5.971 -3.2934  1.4039 -1.0769
 8546SOL    HW237101   3.566   2.001   6.120  0.4852 -1.5732  0.4324
 8547SOL     OW37102   3.777   3.174  15.744 -0.2600  0.1905 -0.1814
 8547SOL    HW137103   3.824   3.091  15.755 -1.1506  0.0469  2.6351
 8547SOL    HW237104   3.716   3.165  15.671 -0.3583  0.3465 -0.1176
 8548SOL     OW37105   1.480   2.881   1.139  0.4917  0.5293  0.2943
 8548SOL    HW137106   1.401   2.932   1.120  0.1988  0.7032  2.0194
 8548SOL    HW237107   1.515   2.930   1.213 -1.8812  1.4640  0.7989
 8549SOL     OW37108   2.544   3.698   3.462  0.3551  0.7058 -0.6675
 8549SOL    HW137109   2.598   3.690   3.541 -0.0583 -0.7042 -0.5319
 8549SOL    HW237110   2.573   3.783   3.431 -0.7615  1.3028 -0.0749
 8550SOL     OW37111   3.003   1.637   8.109 -0.1719 -0.2373  0.2161
 8550SOL    HW137112   3.070   1.569   8.118  1.2723  1.0638 -0.7182
 8550SOL    HW237113   2.943   1.584   8.058  1.1209 -0.4631 -1.0693
 8551SOL     OW37114   3.396   3.315   7.782  0.2456 -0.3026  0.5928
 8551SOL    HW137115   3.469   3.366   7.816 -0.7555  0.8132  1.0940
 8551SOL    HW237116   3.334   3.388   7.775  0.3151 -0.4473 -1.3537
 8552SOL     OW37117   3.395   2.319   3.815 -0.5473  0.8318 -0.2614
 8552SOL    HW137118   3.461   2.258   3.848 -2.2337 -1.0811 -0.4071
 8552SOL    HW237119   3.315   2.267   3.815  0.6318 -0.9991 -0.5804
 8553SOL     OW37120   4.026   0.685   3.225 -0.0976  0.0126  0.3538
 8553SOL    HW137121   4.014   0.647   3.139 -0.7506 -2.1339  1.3883
 8553SOL    HW237122   4.008   0.778   3.208 -0.0372 -0.0109  0.1602
 8554SOL     OW37123   0.152   2.187   3.053 -0.4306 -0.0832  0.2207
 8554SOL    HW137124   0.102   2.113   3.019  0.4596  0.3272 -1.9714
 8554SOL    HW237125   0.097   2.257   3.017 -0.9795 -0.2375  0.7466
 8555SOL     OW37126   0.175   0.444   5.643  0.1541 -0.3833 -0.5519
 8555SOL    HW137127   0.247   0.390   5.674  0.0774  0.6494  1.4241
 8555SOL    HW237128   0.122   0.457   5.722  2.8920  1.5611  0.9720
 8556SOL     OW37129   1.979   1.330   2.957 -0.4995  0.1809 -0.4224
 8556SOL    HW137130   2.034   1.266   2.912 -0.1631 -1.0813  1.7697
 8556SOL    HW237131   2.006   1.415   2.922  1.9439 -0.1466  0.6593
 8557SOL     OW37132   3.406   1.252   9.591  0.2288 -0.2752  0.3139
 8557SOL    HW137133   3.349   1.234   9.666 -2.4793 -1.8850 -2.1159
 8557SOL    HW237134   3.468   1.313   9.631 -1.8327  0.3808  2.5109
 8558SOL     OW37135   4.396   4.520   4.309  0.2316  0.0630 -0.5329
 8558SOL    HW137136   4.390   4.591   4.373  0.1684  1.3639 -1.9828
 8558SOL    HW237137   4.488   4.494   4.304 -0.5374 -3.0518  1.4915
 8559SOL     OW37138   1.545   0.570   7.354 -0.0151 -0.3293 -0.4132
 8559SOL    HW137139   1.465   0.561   7.303 -0.2550  0.1660 -0.1348
 8559SOL    HW237140   1.609   0.523   7.302 -0.3817 -0.0042 -1.1635
 8560SOL     OW37141   1.803   2.569   0.393 -0.1495  0.5873  0.1012
 8560SOL    HW137142   1.746   2.645   0.407 -1.0233 -0.2604  1.1679
 8560SOL    HW237143   1.853   2.588   0.314  0.3799  1.5573  0.6751
 8561SOL     OW37144   4.294   0.778   8.367 -0.4533 -0.3619  0.1583
 8561SOL    HW137145   4.205   0.792   8.336 -1.0041  0.7348  2.2306
 8561SOL    HW237146   4.284   0.736   8.453 -0.5872 -3.9346 -1.5709
 8562SOL     OW37147   2.875   4.454   7.298 -0.0210  0.3685  0.0583
 8562SOL    HW137148   2.824   4.392   7.245  0.2138  1.6428 -1.6609
 8562SOL    HW237149   2.877   4.421   7.388 -0.7206  1.4961  0.4820
 8563SOL     OW37150   0.069   3.366   6.467  0.0569  0.0577  0.6141
 8563SOL    HW137151   4.704   3.338   6.452  0.4294 -1.3893  1.0801
 8563SOL    HW237152   0.073   3.369   6.562  0.3840  1.4708  0.5563
 8564SOL     OW37153   4.164   3.395   9.542  0.1129  0.2905  0.1802
 8564SOL    HW137154   4.211   3.423   9.621  0.9852  1.4104 -0.7361
 8564SOL    HW237155   4.183   3.302   9.553  0.0123  0.2929  0.3614
 8565SOL     OW37156   1.760   2.502  15.656  0.1636 -0.0446  0.1533
 8565SOL    HW137157   1.830   2.554  15.695 -1.8908  3.1319 -0.3713
 8565SOL    HW237158   1.807   2.438  15.603 -0.3692  0.7608 -1.2958
 8566SOL     OW37159   2.634   3.844   8.753  0.4077 -0.4854 -0.0758
 8566SOL    HW137160   2.628   3.750   8.769 -0.6380 -0.3278  0.4147
 8566SOL    HW237161   2.610   3.873   8.841 -2.5060  0.3775 -1.1455
 8567SOL     OW37162   4.603   1.556   6.461 -0.1019  0.2732 -0.1687
 8567SOL    HW137163   4.538   1.592   6.400  1.0929 -0.3196 -1.7802
 8567SOL    HW237164   4.668   1.624   6.480 -1.2386  1.0270  1.0226
 8568SOL     OW37165   3.097   1.815  10.984  0.1358 -0.5988 -0.3104
 8568SOL    HW137166   3.040   1.766  10.925  1.1214 -0.4710 -1.3668
 8568SOL    HW237167   3.122   1.747  11.047  0.2057 -0.5940 -0.3323
 8569SOL     OW37168   3.176   1.985   6.460 -0.2164  0.3757  0.4194
 8569SOL    HW137169   3.169   2.000   6.554 -3.1871 -0.7700  0.3829
 8569SOL    HW237170   3.155   1.892   6.460  1.1123  0.0481 -1.6613
 8570SOL     OW37171   2.382   1.618   6.118 -0.3151 -0.4246 -0.3424
 8570SOL    HW137172   2.296   1.656   6.104 -0.4864 -0.2897  1.0733
 8570SOL    HW237173   2.382   1.588   6.209  1.0446  0.4194 -0.0442
 8571SOL     OW37174   0.067   2.366   5.657 -0.1960 -0.4750 -0.2103
 8571SOL    HW137175   0.026   2.451   5.675  1.0658  0.0368  0.2370
 8571SOL    HW237176   0.158   2.394   5.663  0.0181 -1.0436 -0.8661
 8572SOL     OW37177   2.002   0.929   2.171 -0.5396 -0.2700  0.1243
 8572SOL    HW137178   2.027   0.871   2.100 -0.8852  0.3169 -0.4772
 8572SOL    HW237179   2.064   0.919   2.243  0.0622  3.8152  0.1880
 8573SOL     OW37180   2.680   4.588   2.323  0.6579 -0.7049 -0.1445
 8573SOL    HW137181   2.750   4.653   2.335  0.6595 -1.0035  1.5044
 8573SOL    HW237182   2.736   4.511   2.327  2.4807  0.5202 -1.7874
 8574SOL     OW37183   3.844   1.965  17.466  0.1023  0.2590 -0.1011
 8574SOL    HW137184   3.853   1.981  17.373  0.5660 -2.6690 -0.5545
 8574SOL    HW237185   3.749   1.958  17.478  0.3019 -1.2824  0.6156
 8575SOL     OW37186   2.210   2.781  14.871 -0.3451  0.8618  0.5376
 8575SOL    HW137187   2.212   2.817  14.959 -0.5975 -0.3854  1.0463
 8575SOL    HW237188   2.270   2.836  14.820 -1.4930 -0.0247 -1.7925
 8576SOL     OW37189   2.817   2.560   5.282  0.2772  0.0038 -0.5015
 8576SOL    HW137190   2.800   2.487   5.223 -1.7809  0.5882 -0.6359
 8576SOL    HW237191   2.903   2.591   5.256  0.5131  0.2834  0.5995
 8577SOL     OW37192   1.094   4.285   3.908  0.3002  0.2624  0.0935
 8577SOL    HW137193   1.032   4.251   3.974 -1.7199 -0.3736 -2.1183
 8577SOL    HW237194   1.096   4.221   3.836 -1.3115  0.9438 -0.5570
 8578SOL     OW37195   2.469   2.952  14.410 -0.4445  0.2114  1.0547
 8578SOL    HW137196   2.451   2.919  14.322  0.5573  0.4111  0.7662
 8578SOL    HW237197   2.560   2.929  14.427 -0.4296 -0.2798  0.3101
 8579SOL     OW37198   0.162   2.688  15.926  0.0535 -0.0264  0.4119
 8579SOL    HW137199   0.068   2.683  15.945 -0.2553 -2.4270 -1.7463
 8579SOL    HW237200   0.165   2.757  15.859  0.7728  0.2886  0.7759
 8580SOL     OW37201   2.986   2.069  13.701 -0.4589  0.1758 -0.1615
 8580SOL    HW137202   3.010   1.982  13.735  0.6044  0.0957 -1.1201
 8580SOL    HW237203   3.070   2.104  13.673  0.1335 -1.4563 -0.4626
 8581SOL     OW37204   0.888   4.518   1.124  0.3673  0.0918 -0.1727
 8581SOL    HW137205   0.870   4.449   1.187  1.2464  0.9622  1.0401
 8581SOL    HW237206   0.968   4.560   1.156  0.4709  0.2187 -0.5941
 8582SOL     OW37207   3.128   2.410   4.317  0.0888  0.6551 -0.7217
 8582SOL    HW137208   3.160   2.416   4.227  0.9315  0.1642 -0.4547
 8582SOL    HW237209   3.199   2.364   4.362 -1.2291 -0.2433  0.4081
 8583SOL     OW37210   3.453   0.567   6.793  0.4150 -0.3210 -0.1773
 8583SOL    HW137211   3.440   0.650   6.839 -0.7003  0.3165 -1.6195
 8583SOL    HW237212   3.426   0.592   6.704  0.6271 -1.6601 -0.6143
 8584SOL     OW37213   0.770   0.399  12.578 -0.4437 -0.0305 -0.7564
 8584SOL    HW137214   0.759   0.479  12.630 -0.8866 -0.6255  0.0547
 8584SOL    HW237215   0.832   0.348  12.630  0.2054  1.1892 -0.3148
 8585SOL     OW37216   0.551   1.417   5.470 -0.1908 -0.0155  0.7827
 8585SOL    HW137217   0.570   1.392   5.380 -0.8861 -2.1358  1.2178
 8585SOL    HW237218   0.543   1.331   5.511  1.0247 -0.4073  0.1987
 8586SOL     OW37219   3.413   1.811   7.807 -0.1614 -0.6915  0.3372
 8586SOL    HW137220   3.504   1.837   7.819 -1.0357  2.2950  0.4154
 8586SOL    HW237221   3.392   1.821   7.714  1.5054 -0.1486  0.0266
 8587SOL     OW37222   0.291   0.943   3.749  0.4534 -0.2487 -0.4610
 8587SOL    HW137223   0.225   0.968   3.813 -0.4166 -2.0109 -0.6653
 8587SOL    HW237224   0.267   1.011   3.685 -0.4450 -0.5185 -0.4095
 8588SOL     OW37225   1.708   2.069   2.684  0.0137  0.3268 -0.2210
 8588SOL    HW137226   1.735   2.155   2.654  2.0646  0.2443  1.3919
 8588SOL    HW237227   1.636   2.106   2.735 -1.4066 -1.8344 -0.6205
 8589SOL     OW37228   2.555   0.473  10.580 -0.3415  0.1803 -0.2855
 8589SOL    HW137229   2.526   0.408  10.516 -3.0278 -0.8004  1.9296
 8589SOL    HW237230   2.606   0.419  10.640 -0.5623 -0.8098 -0.9886
 8590SOL     OW37231   1.465   2.420   8.062 -0.3688 -0.1454 -0.0872
 8590SOL    HW137232   1.489   2.328   8.074  0.9964  0.2422  0.2028
 8590SOL    HW237233   1.370   2.420   8.059 -0.3318  2.8741 -0.7841
 8591SOL     OW37234   2.863   4.167  16.349  0.5798 -0.1373  0.7744
 8591SOL    HW137235   2.851   4.259  16.326  2.0651  0.1169  0.9735
 8591SOL    HW237236   2.957   4.164  16.333  0.4013  0.9819 -0.4384
 8592SOL     OW37237   4.018   4.347   8.287 -0.0406 -0.4837  0.7013
 8592SOL    HW137238   3.931   4.307   8.286 -0.1512 -0.2484  0.8530
 8592SOL    HW237239   4.040   4.336   8.195  1.0906 -1.8221  1.1211
 8593SOL     OW37240   4.722   1.726   2.228 -0.2689 -0.2047  0.1843
 8593SOL    HW137241   4.720   1.679   2.144 -1.0722  0.7731 -0.3460
 8593SOL    HW237242   4.645   1.780   2.210  1.0698  1.5147 -0.3725
 8594SOL     OW37243   1.357   1.486   7.463 -0.2763  0.1039 -0.3108
 8594SOL    HW137244   1.421   1.419   7.437 -1.4802 -1.7584  1.5269
 8594SOL    HW237245   1.344   1.538   7.383  1.9264  0.7292 -0.2569
 8595SOL     OW37246   1.767   4.677   9.019  0.5678 -0.5548 -0.2125
 8595SOL    HW137247   1.759   4.642   9.107  0.9217  2.3331  0.9631
 8595SOL    HW237248   1.785   0.045   9.021 -2.3925  0.0293 -1.2272
 8596SOL     OW37249   4.691   3.970   3.236 -0.2591 -0.3216 -0.2739
 8596SOL    HW137250   4.643   3.920   3.302  0.9518 -2.5640 -1.0578
 8596SOL    HW237251   4.648   3.931   3.159  1.0199  1.6855 -1.9807
 8597SOL     OW37252   4.436   1.648   6.234  0.5444 -0.3942 -0.5466
 8597SOL    HW137253   4.445   1.736   6.197  2.7276 -0.4343 -0.1103
 8597SOL    HW237254   4.341   1.646   6.225  0.5767 -1.2973 -0.6477
 8598SOL     OW37255   2.132   1.005   7.968 -0.0151  0.0022  0.2094
 8598SOL    HW137256   2.217   1.048   7.952  0.0931  0.0909  1.0264
 8598SOL    HW237257   2.157   0.920   7.932  0.6182  0.4196 -0.3420
 8599SOL     OW37258   2.274   4.690   8.230 -0.2518  0.1584  0.4480
 8599SOL    HW137259   2.300   4.631   8.301  0.2516  0.1051  0.2205
 8599SOL    HW237260   2.181   4.672   8.216  0.0724 -1.3076  0.1450
 8600SOL     OW37261   3.477   2.922   5.964  0.3519  0.3321  0.2724
 8600SOL    HW137262   3.519   3.008   5.968  1.4402 -0.2565  1.4296
 8600SOL    HW237263   3.485   2.901   5.871 -0.4204 -0.7392  0.4406
 8601SOL     OW37264   4.642   1.987   3.043 -0.4671  0.0900 -0.0390
 8601SOL    HW137265   4.691   1.905   3.035  1.3537  1.1918 -0.1519
 8601SOL    HW237266   4.584   1.976   2.967  1.1392 -2.1503 -0.9433
 8602SOL     OW37267   0.423   4.232   1.889  0.0038  0.6037  0.7317
 8602SOL    HW137268   0.474   4.164   1.932 -0.8083 -0.7471 -0.4105
 8602SOL    HW237269   0.443   4.313   1.935  0.5722  0.5023  0.6603
 8603SOL     OW37270   1.241   2.593   0.564  0.0397 -0.3444 -0.1718
 8603SOL    HW137271   1.224   2.499   0.567 -1.4412 -0.0069  1.9993
 8603SOL    HW237272   1.181   2.621   0.496  0.9568  1.2471 -0.3274
 8604SOL     OW37273   0.764   4.392   7.215 -0.0321 -0.2819  0.5409
 8604SOL    HW137274   0.732   4.422   7.300  3.3489  2.2187  0.9602
 8604SOL    HW237275   0.679   4.407   7.174  0.8656 -2.4819 -2.0918
 8605SOL     OW37276   4.037   0.983  17.687  0.6547 -0.2725  0.1882
 8605SOL    HW137277   3.943   0.982  17.704  1.0129  0.6583  2.1704
 8605SOL    HW237278   4.069   0.902   0.022  0.3553 -0.9312 -0.9170
 8606SOL     OW37279   1.435   2.117   0.428  0.0265  0.4487 -0.8204
 8606SOL    HW137280   1.505   2.171   0.465 -0.6012 -0.3952  1.5877
 8606SOL    HW237281   1.468   2.119   0.338 -1.1841 -0.6861 -1.2945
 8607SOL     OW37282   2.848   3.488  10.708 -0.8665  0.2693  0.7166
 8607SOL    HW137283   2.824   3.477  10.800  1.3018 -1.1973  1.1103
 8607SOL    HW237284   2.872   3.579  10.694 -0.7405 -0.0947 -1.4133
 8608SOL     OW37285   1.616   3.882  16.477 -0.3992  0.5259 -0.1437
 8608SOL    HW137286   1.609   3.886  16.573 -1.3247  0.4457 -0.2067
 8608SOL    HW237287   1.534   3.843  16.446 -0.2084 -1.6109  2.0424
 8609SOL     OW37288   1.429   2.112  16.710  0.0514 -0.0213  0.2615
 8609SOL    HW137289   1.431   2.025  16.751 -2.9743  0.0039  0.5214
 8609SOL    HW237290   1.342   2.105  16.670 -0.1840  1.1390  0.5791
 8610SOL     OW37291   3.952   3.739   6.767 -0.2342 -0.4927 -0.2515
 8610SOL    HW137292   3.871   3.690   6.758 -0.9577  0.7717 -0.5520
 8610SOL    HW237293   3.930   3.821   6.723 -1.0171 -0.1977  0.6774
 8611SOL     OW37294   2.598   3.155   7.039  0.5238 -0.6626 -0.0337
 8611SOL    HW137295   2.665   3.105   6.991  2.6922  1.4553  0.8073
 8611SOL    HW237296   2.658   3.193   7.102 -1.0597  0.9524  0.4942
 8612SOL     OW37297   4.312   1.592  16.171  0.0450 -0.2003  0.4589
 8612SOL    HW137298   4.235   1.638  16.206  0.2966 -0.5048  1.4008
 8612SOL    HW237299   4.372   1.652  16.216  1.0485  0.3007 -1.5532
 8613SOL     OW37300   2.000   0.389   8.474 -0.1782  0.2480  0.4308
 8613SOL    HW137301   2.051   0.344   8.406  0.5038  0.4617  0.7963
 8613SOL    HW237302   1.919   0.340   8.459 -0.9593  1.3792  0.9325
 8614SOL     OW37303   2.176   2.049   8.003 -0.3447 -0.1600  0.5129
 8614SOL    HW137304   2.149   2.061   8.094 -0.4288  1.4587  0.2698
 8614SOL    HW237305   2.122   1.971   7.990 -1.5365  0.8901 -0.8493
 8615SOL     OW37306   3.804   1.823   8.990 -0.1848  0.1552 -0.1130
 8615SOL    HW137307   3.868   1.874   8.940  2.1929 -2.4164  0.3264
 8615SOL    HW237308   3.839   1.736   8.973 -1.1473 -0.2904  0.1735
 8616SOL     OW37309   2.244   0.737   6.013  0.4101  0.6195  0.0059
 8616SOL    HW137310   2.202   0.811   5.969 -0.5045  1.6660  2.6033
 8616SOL    HW237311   2.264   0.678   5.941 -1.8796  0.2999 -0.3744
 8617SOL     OW37312   1.198   0.187  14.609  0.5721 -0.0257  0.2380
 8617SOL    HW137313   1.128   0.245  14.580  0.7782  0.0306 -0.1490
 8617SOL    HW237314   1.275   0.215  14.559 -0.8680  3.4522 -0.0226
 8618SOL     OW37315   4.406   0.543  14.200 -0.1773 -1.0295  0.2970
 8618SOL    HW137316   4.410   0.516  14.109  1.2100  2.1764 -0.5884
 8618SOL    HW237317   4.491   0.583  14.217 -0.7239  0.4661 -0.5947
 8619SOL     OW37318   4.693   4.240   3.201  0.5492  0.2002 -0.0221
 8619SOL    HW137319   4.710   4.222   3.108  0.9818 -1.2653  0.3592
 8619SOL    HW237320   4.685   4.150   3.229  0.0167  0.9178  2.0789
 8620SOL     OW37321   0.457   0.237  13.278 -0.0773  0.0718 -0.6347
 8620SOL    HW137322   0.431   0.307  13.338 -1.3591 -0.6558 -0.3593
 8620SOL    HW237323   0.381   0.230  13.220 -0.5614  0.4303 -0.0440
 8621SOL     OW37324   1.693   0.243   8.708  0.3380 -0.0039 -0.1921
 8621SOL    HW137325   1.716   0.152   8.687  3.4886  1.0999 -1.5634
 8621SOL    HW237326   1.709   0.282   8.622 -1.1803  0.2569 -0.3467
 8622SOL     OW37327   2.528   0.898   1.220 -0.2403 -0.5702 -0.5317
 8622SOL    HW137328   2.499   0.843   1.292 -0.7602 -3.5566 -3.0385
 8622SOL    HW237329   2.453   0.882   1.162 -0.3837 -2.9368  0.3198
 8623SOL     OW37330   2.671   0.463   2.801  0.4673 -0.3297 -0.3405
 8623SOL    HW137331   2.612   0.537   2.785  1.9335  1.0771  0.6896
 8623SOL    HW237332   2.727   0.459   2.723  1.5052 -0.3869  0.4134
 8624SOL     OW37333   3.801   4.051   4.937  0.1262  0.2650 -0.4132
 8624SOL    HW137334   3.809   3.956   4.948 -2.9323 -0.0438 -0.9533
 8624SOL    HW237335   3.869   4.080   4.876  0.0337  0.3664 -0.4674
 8625SOL     OW37336   3.192   3.144  17.302 -0.2565  0.8984 -0.1993
 8625SOL    HW137337   3.179   3.076  17.367 -0.6246  0.2370 -0.9632
 8625SOL    HW237338   3.287   3.144  17.294 -0.2937 -1.2210 -0.6141
 8626SOL     OW37339   4.666   3.958   5.528 -0.3753  0.1130  0.5725
 8626SOL    HW137340   4.681   3.923   5.615  0.0808 -0.7427  0.1499
 8626SOL    HW237341   4.579   3.918   5.518 -0.4952  0.6795 -0.6547
 8627SOL     OW37342   3.851   3.666   4.823  0.2756  0.7446 -0.5396
 8627SOL    HW137343   3.780   3.697   4.767 -0.6010 -1.7189 -0.8020
 8627SOL    HW237344   3.824   3.676   4.914  0.4113  1.9177 -0.6310
 8628SOL     OW37345   1.653   2.383   0.734 -0.0423  0.0423 -0.6613
 8628SOL    HW137346   1.625   2.300   0.770 -0.4856  1.3575  2.0204
 8628SOL    HW237347   1.611   2.443   0.796  0.7628 -0.1198  0.0325
 8629SOL     OW37348   1.931   0.094   9.301  0.0172 -0.0949 -0.3356
 8629SOL    HW137349   1.906   0.183   9.326 -0.5491 -0.8440  1.7725
 8629SOL    HW237350   2.002   0.110   9.239  0.1535  1.0211  0.1155
 8630SOL     OW37351   3.439   3.484   3.116 -0.0123 -0.6120 -0.3753
 8630SOL    HW137352   3.343   3.491   3.114 -0.0189 -0.6752 -0.2560
 8630SOL    HW237353   3.457   3.427   3.190  0.0855  0.3253  0.3176
 8631SOL     OW37354   0.338   0.765   0.872  0.0292 -0.2765  0.5339
 8631SOL    HW137355   0.272   0.834   0.861 -1.7390 -2.1637 -0.8522
 8631SOL    HW237356   0.425   0.802   0.884  0.7606 -1.1515 -2.1167
 8632SOL     OW37357   4.406   2.947  11.881 -1.0058  0.4485  0.0652
 8632SOL    HW137358   4.360   2.922  11.961 -0.1894 -0.2287  0.3180
 8632SOL    HW237359   4.356   2.895  11.819  1.4430 -1.2981 -0.4482
 8633SOL     OW37360   4.072   4.327   7.993  0.0359  0.9150  0.2056
 8633SOL    HW137361   4.154   4.375   7.982 -0.4409  1.2373 -1.9353
 8633SOL    HW237362   4.020   4.388   7.941 -1.7230  1.0514  2.1356
 8634SOL     OW37363   0.740   1.926   8.409  0.5560  0.1392  0.0429
 8634SOL    HW137364   0.817   1.978   8.435 -0.0144  0.4456  1.1078
 8634SOL    HW237365   0.699   1.994   8.356 -0.5389  1.9036  3.1753
 8635SOL     OW37366   4.253   3.281   1.243 -0.2186  0.3071  0.3674
 8635SOL    HW137367   4.329   3.256   1.191 -1.6327 -0.1215 -1.5010
 8635SOL    HW237368   4.301   3.303   1.322  0.0818  0.6598  0.0899
 8636SOL     OW37369   2.673   1.179   2.563 -0.2874  0.0619 -0.2805
 8636SOL    HW137370   2.759   1.163   2.601  0.1238 -0.7691 -1.5458
 8636SOL    HW237371   2.670   1.275   2.569 -2.8349 -0.0717  0.2807
 8637SOL     OW37372   3.885   4.240   6.554  0.1843 -0.4299 -0.4532
 8637SOL    HW137373   3.887   4.192   6.636  1.7299 -0.4772 -0.5187
 8637SOL    HW237374   3.888   4.328   6.592 -0.1004  0.2216 -1.9321
 8638SOL     OW37375   2.937   1.557   6.777  0.9485 -0.0857 -0.1461
 8638SOL    HW137376   2.982   1.473   6.786  2.6788  0.7979 -0.6197
 8638SOL    HW237377   2.870   1.539   6.710 -1.4982  3.8722  1.2104
 8639SOL     OW37378   1.855   1.662  11.395  0.2160 -0.7555  0.3887
 8639SOL    HW137379   1.800   1.634  11.468  2.8568 -0.1252  2.5870
 8639SOL    HW237380   1.785   1.686  11.334  2.6395 -0.0980 -2.1809
 8640SOL     OW37381   0.183   3.637   3.464 -0.2462  0.2353 -0.5934
 8640SOL    HW137382   0.274   3.661   3.479 -0.6808  0.6957  1.3696
 8640SOL    HW237383   0.185   3.586   3.383 -0.9561 -0.2998 -0.2745
 8641SOL     OW37384   0.698   4.591  10.805 -0.1086  0.2549  0.1863
 8641SOL    HW137385   0.650   4.662  10.846  0.0974 -0.0553  0.9655
 8641SOL    HW237386   0.676   4.611  10.714  1.6158 -0.4290 -0.3919
 8642SOL     OW37387   2.688   1.448   2.456 -0.2093  0.1028  0.3859
 8642SOL    HW137388   2.677   1.539   2.483  2.4287  1.0475 -1.6476
 8642SOL    HW237389   2.781   1.438   2.432 -0.8923 -0.9315 -1.8502
 8643SOL     OW37390   1.638   1.233  12.232  0.5238  0.2084 -0.1613
 8643SOL    HW137391   1.683   1.162  12.277 -1.5638 -1.0947 -0.1268
 8643SOL    HW237392   1.582   1.182  12.172  0.5378  3.6478 -3.0896
 8644SOL     OW37393   4.285   0.393   6.377  0.0267 -0.8031  0.2841
 8644SOL    HW137394   4.241   0.411   6.293 -1.8728 -1.8185  1.0574
 8644SOL    HW237395   4.289   0.298   6.369  2.0812 -0.8086  1.5288
 8645SOL     OW37396   0.942   1.180   6.899 -0.2396 -0.5236 -0.1054
 8645SOL    HW137397   0.929   1.132   6.981 -0.9244  0.1470  0.1820
 8645SOL    HW237398   0.957   1.271   6.926 -2.6996 -0.1349 -0.0380
 8646SOL     OW37399   3.074   2.054   9.464 -0.2689 -0.6623  0.2982
 8646SOL    HW137400   3.026   2.107   9.528  2.2432  1.0955  0.7507
 8646SOL    HW237401   3.018   1.982   9.435  0.1272 -0.4007 -1.1155
 8647SOL     OW37402   3.578   4.286  12.795 -0.2166  0.8529  0.6432
 8647SOL    HW137403   3.570   4.238  12.713 -2.1396  1.4674  0.4750
 8647SOL    HW237404   3.533   4.227  12.855 -2.5063  0.5631 -1.3570
 8648SOL     OW37405   2.986   1.880   3.578 -0.6446 -0.3360  0.5513
 8648SOL    HW137406   2.923   1.919   3.638 -1.0283  0.8925 -0.6412
 8648SOL    HW237407   2.986   1.788   3.604 -1.9004  0.1770  2.3597
 8649SOL     OW37408   2.928   1.608  17.098 -0.2509  0.1657  0.9855
 8649SOL    HW137409   2.951   1.603  17.005  0.3633  0.9278  1.1006
 8649SOL    HW237410   2.992   1.546  17.133  1.1959  1.5915  0.8193
 8650SOL     OW37411   4.582   0.466   0.338  0.0281 -0.1814  0.5155
 8650SOL    HW137412   4.633   0.536   0.297  0.2384  0.1689  1.3846
 8650SOL    HW237413   4.499   0.470   0.289 -1.0083  1.1919  2.3993
 8651SOL     OW37414   4.169   1.461   0.166  0.1381 -0.2731  0.3379
 8651SOL    HW137415   4.173   1.372   0.200 -2.2197 -0.6350 -0.3328
 8651SOL    HW237416   4.248   1.465   0.112  1.4896  1.5457  2.4780
 8652SOL     OW37417   1.050   2.781  15.892  0.1018  0.6535 -0.6474
 8652SOL    HW137418   1.141   2.809  15.906 -0.1537  0.6747  0.8734
 8652SOL    HW237419   1.030   2.835  15.816  0.4450  1.0241 -0.4742
 8653SOL     OW37420   0.688   0.394  14.586 -0.2335 -0.0082 -0.3171
 8653SOL    HW137421   0.702   0.460  14.518  1.1846  1.0145  0.9538
 8653SOL    HW237422   0.651   0.320  14.539 -1.6184  0.0610  0.6775
 8654SOL     OW37423   3.363   1.454  13.924  0.0013  0.0893 -0.5143
 8654SOL    HW137424   3.427   1.393  13.890 -0.3346  0.7182 -2.3031
 8654SOL    HW237425   3.286   1.399  13.915 -2.0466  2.8926 -0.3132
 8655SOL     OW37426   0.863   2.950   2.148 -0.0916 -0.1306 -0.4228
 8655SOL    HW137427   0.949   2.979   2.181 -0.8168  1.7170 -0.1471
 8655SOL    HW237428   0.819   3.035   2.147 -0.5527 -0.3196  2.3959
 8656SOL     OW37429   3.260   3.492   4.644 -0.5544  0.1332 -0.2606
 8656SOL    HW137430   3.202   3.469   4.717 -1.5483 -0.3368 -1.1899
 8656SOL    HW237431   3.301   3.407   4.624 -0.1593  0.2915 -0.1286
 8657SOL     OW37432   2.237   1.222   0.523 -0.0240  0.1948 -0.0417
 8657SOL    HW137433   2.174   1.257   0.461  1.7759  1.3094 -1.2510
 8657SOL    HW237434   2.217   1.275   0.600 -0.1059 -1.7691  1.2954
 8658SOL     OW37435   4.147   3.803   3.977 -0.1111 -0.2885  0.0015
 8658SOL    HW137436   4.166   3.714   4.007 -1.2658 -1.5670 -3.1364
 8658SOL    HW237437   4.081   3.789   3.910  0.4862 -1.7362 -0.2792
 8659SOL     OW37438   3.366   1.576   0.201 -0.1922  0.1819 -0.3463
 8659SOL    HW137439   3.346   1.538   0.116  0.0013  1.4480 -0.9533
 8659SOL    HW237440   3.319   1.658   0.189 -0.0666  0.1420 -1.1015
 8660SOL     OW37441   0.721   1.730   2.539 -0.2076 -0.1788 -0.5603
 8660SOL    HW137442   0.700   1.814   2.581  0.3517 -0.0371 -0.5588
 8660SOL    HW237443   0.653   1.727   2.472  0.3836 -1.7261 -1.0829
 8661SOL     OW37444   3.725   3.617   6.685  0.2380  0.0493  0.1306
 8661SOL    HW137445   3.643   3.635   6.640  0.6962  0.4910 -0.5059
 8661SOL    HW237446   3.738   3.533   6.641  1.3713  0.6237 -0.6060
 8662SOL     OW37447   2.468   2.043  14.695  0.1370 -0.4145  0.0200
 8662SOL    HW137448   2.461   2.055  14.600 -0.4464 -0.2748  0.0776
 8662SOL    HW237449   2.395   1.982  14.707  0.3270 -0.2156  2.1207
 8663SOL     OW37450   2.588   1.419  12.691 -0.5380  0.0184  0.1340
 8663SOL    HW137451   2.496   1.444  12.698 -0.9861 -1.4801 -0.5567
 8663SOL    HW237452   2.625   1.508  12.691  0.8368 -0.5552 -2.9043
 8664SOL     OW37453   4.239   0.217   6.977  0.2931  0.2627 -0.3078
 8664SOL    HW137454   4.268   0.307   6.964  0.2614  0.4407  0.8015
 8664SOL    HW237455   4.239   0.219   7.073 -1.5608  0.2707 -0.2937
 8665SOL     OW37456   3.582   4.503   3.029  0.2561 -0.1511  0.1177
 8665SOL    HW137457   3.597   4.433   3.093 -0.6465  0.2894  0.8111
 8665SOL    HW237458   3.501   4.477   2.984  0.1078  0.6782 -0.1015
 8666SOL     OW37459   2.143   0.742   8.897 -0.0901 -0.0777 -0.2796
 8666SOL    HW137460   2.133   0.699   8.982  2.5102 -1.2515 -0.5383
 8666SOL    HW237461   2.056   0.730   8.859 -0.0329 -0.9863 -0.1308
 8667SOL     OW37462   4.212   1.331   7.633  0.1714 -0.2769 -1.0251
 8667SOL    HW137463   4.257   1.351   7.715  1.1306  0.1954 -1.6649
 8667SOL    HW237464   4.181   1.248   7.667  0.2048  0.6392  1.2067
 8668SOL     OW37465   1.636   2.388   4.689 -0.0022  0.6151 -0.0043
 8668SOL    HW137466   1.577   2.313   4.688 -0.8050  1.1679  3.1288
 8668SOL    HW237467   1.650   2.399   4.783 -0.7189  3.8008 -0.2613
 8669SOL     OW37468   2.204   4.544   2.282  0.2002 -0.7615 -0.2386
 8669SOL    HW137469   2.242   4.625   2.249  2.1753 -1.9525 -0.9099
 8669SOL    HW237470   2.110   4.558   2.296  0.1710 -0.6431 -0.5723
 8670SOL     OW37471   4.466   4.625   3.036 -0.4754  0.4493 -0.1194
 8670SOL    HW137472   4.532   4.589   2.977  1.3090 -0.9105  2.7367
 8670SOL    HW237473   4.425   4.542   3.062 -1.7278  1.5567  1.3813
 8671SOL     OW37474   3.705   3.397   6.531  0.2788  0.2084  0.1241
 8671SOL    HW137475   3.611   3.412   6.520  0.3488 -0.0049 -0.7941
 8671SOL    HW237476   3.695   3.302   6.532 -0.4502  0.3269  3.4311
 8672SOL     OW37477   2.190   2.027   3.987 -0.3591  0.3871  0.1928
 8672SOL    HW137478   2.171   2.084   4.061 -1.2033  1.6420 -0.9798
 8672SOL    HW237479   2.283   2.050   3.977 -0.3467  0.1934 -0.1720
 8673SOL     OW37480   2.700   1.426   7.492 -0.0715  0.7388 -0.0254
 8673SOL    HW137481   2.628   1.380   7.536 -0.6849  1.6925 -0.0339
 8673SOL    HW237482   2.693   1.517   7.518  1.7638  0.6258  0.8390
 8674SOL     OW37483   0.005   1.458   3.472 -0.2571  0.3560 -0.1920
 8674SOL    HW137484   4.680   1.535   3.447  0.0499  0.3585 -0.8076
 8674SOL    HW237485   4.703   1.394   3.407  0.9900  1.7080 -2.0443
 8675SOL     OW37486   0.112   2.306  15.072  0.8494 -0.6994  0.0977
 8675SOL    HW137487   0.181   2.245  15.044 -0.3227 -1.7682 -0.4318
 8675SOL    HW237488   0.093   2.277  15.161 -0.3274  3.9183  1.3394
 8676SOL     OW37489   3.528   4.041   6.557 -0.0196  0.0832 -0.3705
 8676SOL    HW137490   3.529   4.104   6.485 -1.0168 -1.1406 -1.4586
 8676SOL    HW237491   3.435   4.034   6.576 -0.1226  1.4195 -0.4195
 8677SOL     OW37492   3.074   4.616   8.221 -0.1165  0.5361 -0.5344
 8677SOL    HW137493   3.155   4.598   8.269 -0.9505  0.1540  0.7285
 8677SOL    HW237494   3.105   4.673   8.151 -1.4935 -0.1184 -1.6627
 8678SOL     OW37495   1.761   4.122  11.112  0.2749  0.6034  0.2236
 8678SOL    HW137496   1.826   4.052  11.117  1.4931  1.5637 -2.1992
 8678SOL    HW237497   1.812   4.188  11.158  0.8294 -0.8084  1.6337
 8679SOL     OW37498   1.327   4.486   2.284  0.2284  0.1207  0.3767
 8679SOL    HW137499   1.322   4.575   2.251  0.5067  0.5501  1.4974
 8679SOL    HW237500   1.233   4.470   2.289  0.3609  0.0443  2.4280
 8680SOL     OW37501   3.539   2.854   5.381 -0.1307 -0.1045  0.3247
 8680SOL    HW137502   3.519   2.929   5.325  0.8844 -0.5607 -0.6482
 8680SOL    HW237503   3.473   2.789   5.360 -0.1599 -0.3342  1.1219
 8681SOL     OW37504   2.058   3.629   8.171 -0.0199  0.3494 -0.4802
 8681SOL    HW137505   2.143   3.672   8.179  0.1738 -0.4010  1.3299
 8681SOL    HW237506   2.055   3.572   8.248 -0.7068 -0.7548 -1.3234
 8682SOL     OW37507   1.392   3.431   4.563 -0.1850 -0.4119  0.0735
 8682SOL    HW137508   1.390   3.494   4.492  0.5358  0.7359  1.0765
 8682SOL    HW237509   1.325   3.368   4.539  1.3771 -1.1426 -2.3630
 8683SOL     OW37510   1.065   3.594  10.927 -0.6339 -0.0381  0.3298
 8683SOL    HW137511   1.013   3.675  10.928 -1.5246 -0.5918 -1.0776
 8683SOL    HW237512   1.004   3.549  10.868 -2.0356  3.2452 -0.7671
 8684SOL     OW37513   1.712   4.549  11.920  0.0858 -0.1680 -0.2566
 8684SOL    HW137514   1.634   4.500  11.893 -0.7831  0.4336  1.1748
 8684SOL    HW237515   1.779   4.494  11.880  0.5126  0.1543  0.0088
 8685SOL     OW37516   2.473   1.387   3.425  0.3208 -0.6790 -0.0070
 8685SOL    HW137517   2.558   1.345   3.429 -0.2282 -1.7094  1.1273
 8685SOL    HW237518   2.481   1.426   3.512 -2.6809 -1.3372  0.5906
 8686SOL     OW37519   2.712   3.482   4.924 -0.4919 -0.3855  0.0227
 8686SOL    HW137520   2.701   3.468   5.018  0.2826 -0.5173  0.0894
 8686SOL    HW237521   2.685   3.574   4.925 -0.2034 -0.2976 -0.1393
 8687SOL     OW37522   0.112   2.585  15.596 -0.9085  0.3675  0.2831
 8687SOL    HW137523   0.050   2.649  15.630 -0.5945  0.1909  1.1845
 8687SOL    HW237524   0.115   2.603  15.502 -0.7002 -2.9348 -0.3552
 8688SOL     OW37525   0.948   0.338   5.099  0.4323  0.1399 -0.3136
 8688SOL    HW137526   0.977   0.349   5.008 -0.0118 -2.0336 -0.7252
 8688SOL    HW237527   1.031   0.337   5.146  0.2666 -0.0163 -0.0234
 8689SOL     OW37528   4.679   2.546  10.250  0.5998  0.5052 -0.5763
 8689SOL    HW137529   4.632   2.467  10.224 -0.9429  1.8400 -1.8138
 8689SOL    HW237530   0.043   2.515  10.255  1.5888  3.6302  1.0737
 8690SOL     OW37531   2.088   1.491   4.254  0.3567  0.0668 -0.2813
 8690SOL    HW137532   2.031   1.437   4.199  0.0510 -2.7711  2.7878
 8690SOL    HW237533   2.065   1.583   4.239  2.0457  0.4937 -0.2566
 8691SOL     OW37534   1.493   4.400   4.157  0.2030  0.2629 -1.0300
 8691SOL    HW137535   1.401   4.390   4.182  0.2876  0.5319 -0.6136
 8691SOL    HW237536   1.503   4.492   4.131  1.3600 -0.4718 -3.1992
 8692SOL     OW37537   1.156   2.043  16.653  0.3496 -0.1316  0.2322
 8692SOL    HW137538   1.116   1.965  16.693  0.2054  0.6980  1.7106
 8692SOL    HW237539   1.087   2.104  16.676  0.9866  1.4034 -1.9557
 8693SOL     OW37540   2.173   0.048   1.199  0.3103  0.0806  0.5182
 8693SOL    HW137541   2.206   0.073   1.113  1.0751 -1.7247  0.2936
 8693SOL    HW237542   2.088   0.009   1.184  0.8685 -0.7699 -0.4002
 8694SOL     OW37543   2.731   4.126  15.797  0.1748  0.0614  0.0850
 8694SOL    HW137544   2.724   4.135  15.892 -0.0085  0.3382  0.0460
 8694SOL    HW237545   2.662   4.182  15.761 -0.1932 -0.1584  0.4408
 8695SOL     OW37546   4.227   4.388   0.824  0.0019  0.4189 -0.0957
 8695SOL    HW137547   4.185   4.341   0.752 -1.2239  1.1836  0.1114
 8695SOL    HW237548   4.302   4.421   0.774  0.3938 -2.8147 -1.6561
 8696SOL     OW37549   4.248   0.692   6.793 -0.5384  0.0466 -0.4877
 8696SOL    HW137550   4.246   0.716   6.700  1.2627 -0.5401 -0.6822
 8696SOL    HW237551   4.239   0.770   6.847  1.2754  2.2472 -3.3507
 8697SOL     OW37552   3.953   3.898  13.824 -0.4651 -0.0251 -0.1668
 8697SOL    HW137553   3.903   3.972  13.792 -0.5045 -1.3134 -3.0995
 8697SOL    HW237554   3.948   3.838  13.749 -0.4568  0.3590 -0.4760
 8698SOL     OW37555   1.182   0.900   5.003  0.0866 -0.1536  0.0480
 8698SOL    HW137556   1.142   0.970   4.951  0.2716  0.5398  0.8275
 8698SOL    HW237557   1.160   0.818   4.959  0.2916 -0.2864  0.1970
 8699SOL     OW37558   1.945   2.296   2.159 -0.3564 -0.0209  0.4723
 8699SOL    HW137559   1.999   2.229   2.118 -1.1185 -0.2785 -0.1129
 8699SOL    HW237560   1.885   2.310   2.086  0.8625 -2.7597 -1.0438
 8700SOL     OW37561   3.497   3.312   3.326 -0.5745 -0.8467  0.5186
 8700SOL    HW137562   3.564   3.297   3.392  0.8355  2.7310 -0.0990
 8700SOL    HW237563   3.487   3.227   3.282 -2.8902  0.8107 -2.1693
 8701SOL     OW37564   3.874   3.780   2.756 -0.1664  0.0985 -0.2831
 8701SOL    HW137565   3.936   3.718   2.794 -2.2225 -1.1688  0.9922
 8701SOL    HW237566   3.895   3.858   2.808 -0.8195 -1.6272  2.5499
 8702SOL     OW37567   3.880   4.663   6.585  0.2999  0.7925  0.4976
 8702SOL    HW137568   3.911   4.709   6.663 -0.0909 -0.4871  1.3958
 8702SOL    HW237569   3.917   4.575   6.591  0.8681  0.8380 -2.2843
 8703SOL     OW37570   3.632   3.150   5.061 -0.0153 -0.0389  0.0774
 8703SOL    HW137571   3.674   3.115   4.982  2.0426  0.3231  1.0147
 8703SOL    HW237572   3.652   3.243   5.043 -1.6482 -0.0212 -1.6784
 8704SOL     OW37573   4.660   2.879  12.621  0.0649 -0.1926 -0.0299
 8704SOL    HW137574   4.597   2.857  12.551 -0.1182 -1.4422  0.5346
 8704SOL    HW237575   4.610   2.862  12.701  0.2655 -1.8236 -0.2583
 8705SOL     OW37576   1.043   4.186   7.609  0.4692 -0.0023 -0.4209
 8705SOL    HW137577   1.100   4.253   7.647  1.0036 -1.6269  1.6397
 8705SOL    HW237578   1.073   4.199   7.519 -0.2472 -0.2095 -0.6835
 8706SOL     OW37579   4.352   0.493   4.851 -0.3882  0.6649 -0.2968
 8706SOL    HW137580   4.365   0.583   4.881 -2.0318  0.1832  1.8878
 8706SOL    HW237581   4.424   0.453   4.899 -2.7562  0.8152  3.3431
 8707SOL     OW37582   4.134   2.756  12.721  0.1224  0.2984 -0.0431
 8707SOL    HW137583   4.062   2.706  12.760  0.4376  0.5343  0.8511
 8707SOL    HW237584   4.168   2.698  12.653  0.2838  0.6168 -0.2307
 8708SOL     OW37585   3.652   4.528   9.131  0.3400 -0.4394  0.4220
 8708SOL    HW137586   3.669   4.621   9.143 -0.6740 -0.0913 -0.8099
 8708SOL    HW237587   3.574   4.541   9.077 -0.7378  0.2546  2.1142
 8709SOL     OW37588   0.041   1.731   3.015 -0.2323  0.2776  0.8670
 8709SOL    HW137589   0.003   1.648   3.043  0.2276 -0.1898  0.1197
 8709SOL    HW237590   0.131   1.732   3.048  0.8712  1.5434 -2.0991
 8710SOL     OW37591   4.007   1.511   7.596  0.1314 -0.2774 -0.5951
 8710SOL    HW137592   4.055   1.593   7.589 -1.4186  0.5471 -1.6796
 8710SOL    HW237593   4.072   1.448   7.626 -0.2448 -1.1878 -1.6779
 8711SOL     OW37594   3.540   2.877   3.167 -0.0925 -0.5334  0.0616
 8711SOL    HW137595   3.579   2.821   3.100  1.6271 -0.8691  1.3226
 8711SOL    HW237596   3.583   2.848   3.247  0.9143 -1.9251 -1.0004
 8712SOL     OW37597   4.685   2.401   3.049 -0.2659 -0.2620 -0.2022
 8712SOL    HW137598   0.017   2.473   3.074 -1.3478 -0.3665  2.6340
 8712SOL    HW237599   4.604   2.444   3.075 -1.2385 -2.0726 -0.2653
 8713SOL     OW37600   0.244   0.004  17.390 -0.3698  0.4794 -0.7366
 8713SOL    HW137601   0.160   0.036  17.422 -0.4565  0.9341 -1.4095
 8713SOL    HW237602   0.221   4.640  17.369  2.0398 -0.6024  1.2128
 8714SOL     OW37603   0.983   3.784   4.682  0.3740  0.4232  0.1605
 8714SOL    HW137604   0.951   3.708   4.633  1.4198  0.4293 -0.5335
 8714SOL    HW237605   1.075   3.758   4.679 -0.1469 -1.4590  0.4006
 8715SOL     OW37606   3.108   0.384   8.677 -0.2545  0.5639  0.3031
 8715SOL    HW137607   3.105   0.478   8.694 -2.9021  0.6730 -0.8161
 8715SOL    HW237608   3.182   0.363   8.734 -1.0204 -1.7489  0.4202
 8716SOL     OW37609   3.516   4.111   5.218  0.4684  0.4297 -0.1844
 8716SOL    HW137610   3.473   4.132   5.136 -2.0028 -1.7417  0.5302
 8716SOL    HW237611   3.552   4.191   5.256  0.4525 -0.0378  0.8306
 8717SOL     OW37612   0.853   3.563  17.557  0.2209 -0.4295 -0.1948
 8717SOL    HW137613   0.770   3.585  17.514 -0.4681 -1.6450  0.5197
 8717SOL    HW237614   0.827   3.497  17.621  1.0157  0.7616  1.3322
 8718SOL     OW37615   1.065   1.597   1.351 -0.8352 -0.5012  0.2933
 8718SOL    HW137616   1.151   1.569   1.319 -1.0879 -0.4775 -0.3840
 8718SOL    HW237617   1.046   1.670   1.292 -4.4023 -1.7307 -0.0705
 8719SOL     OW37618   4.223   2.406   3.234  0.1098 -0.4345 -0.0555
 8719SOL    HW137619   4.235   2.319   3.195  0.1808 -0.8109  0.8099
 8719SOL    HW237620   4.135   2.426   3.203 -0.1936  1.5728  2.1355
 8720SOL     OW37621   0.126   2.431   4.499  0.3006 -0.3839 -0.3463
 8720SOL    HW137622   0.083   2.497   4.444  0.3938  0.4183  0.5364
 8720SOL    HW237623   0.055   2.368   4.503 -1.1217  1.2021 -0.6853
 8721SOL     OW37624   2.955   0.490   6.752 -0.1004  0.2655  0.0163
 8721SOL    HW137625   2.890   0.441   6.803  0.7314  0.8977  1.6996
 8721SOL    HW237626   3.035   0.439   6.767  1.1408  1.9145 -1.0990
 8722SOL     OW37627   2.446   2.453   8.969 -0.4696  0.1544  0.6253
 8722SOL    HW137628   2.479   2.520   9.028  1.4309 -0.4468  0.2592
 8722SOL    HW237629   2.500   2.465   8.891  0.4904  1.2584  1.4711
 8723SOL     OW37630   1.055   2.895   8.368  0.0288 -0.4528  0.2399
 8723SOL    HW137631   1.134   2.947   8.352  0.6691 -1.7711 -0.8506
 8723SOL    HW237632   0.992   2.965   8.388  2.0473  1.6829 -0.8756
 8724SOL     OW37633   2.434   3.123   7.411 -0.3341  0.3743  0.0307
 8724SOL    HW137634   2.367   3.099   7.347  1.2180 -0.9292 -1.1148
 8724SOL    HW237635   2.392   3.157   7.490 -1.8309  1.9767 -1.4626
 8725SOL     OW37636   4.614   1.342   0.639 -0.2583  0.8191 -0.1070
 8725SOL    HW137637   4.693   1.322   0.589 -0.7127  2.3080 -1.4342
 8725SOL    HW237638   4.548   1.292   0.591 -1.0177  0.5735  1.1842
 8726SOL     OW37639   1.362   1.878  12.394 -0.3827 -0.1148  0.2466
 8726SOL    HW137640   1.295   1.839  12.450 -0.9071 -2.3342 -1.9468
 8726SOL    HW237641   1.434   1.816  12.402  0.1893  0.5675  0.4043
 8727SOL     OW37642   1.548   1.402   5.718  0.1965  0.1042 -0.0192
 8727SOL    HW137643   1.550   1.387   5.624 -0.4943  1.0125 -0.1734
 8727SOL    HW237644   1.492   1.479   5.724  0.2342  0.0741  0.7021
 8728SOL     OW37645   3.329   2.763   9.099  0.2124 -0.1210  0.1502
 8728SOL    HW137646   3.379   2.814   9.163  0.4632  0.3497 -0.4212
 8728SOL    HW237647   3.402   2.741   9.041  0.7027  0.2501  0.6136
 8729SOL     OW37648   2.528   3.636   3.965 -0.5003  0.2655 -0.2368
 8729SOL    HW137649   2.487   3.645   3.879  0.3229 -2.1196 -0.8773
 8729SOL    HW237650   2.457   3.671   4.019 -0.1511 -0.0510  0.4231
 8730SOL     OW37651   0.889   1.164  15.696  0.4637  0.1640  0.0018
 8730SOL    HW137652   0.878   1.082  15.745 -2.7097  1.0136  0.6882
 8730SOL    HW237653   0.882   1.128  15.607 -0.3901  1.4735 -0.4707
 8731SOL     OW37654   1.686   4.485   3.530  0.4482 -0.2592  0.2240
 8731SOL    HW137655   1.628   4.561   3.533  1.8476  0.6609  4.0170
 8731SOL    HW237656   1.724   4.502   3.444  1.8851  0.5299  1.0093
 8732SOL     OW37657   3.027   2.019   7.658  0.6024  0.3782 -0.0403
 8732SOL    HW137658   3.032   2.093   7.719 -0.2294  0.8615 -0.5575
 8732SOL    HW237659   2.931   2.015   7.655  0.6158  0.5338 -0.6583
 8733SOL     OW37660   3.376   2.148  11.081 -0.1166 -0.5828  0.2628
 8733SOL    HW137661   3.283   2.124  11.084 -0.2849 -0.0864 -0.9417
 8733SOL    HW237662   3.409   2.079  11.022  2.4287 -2.0805  3.4707
 8734SOL     OW37663   1.624   2.660   1.009 -1.0580  0.2313  0.2356
 8734SOL    HW137664   1.579   2.744   1.016 -0.7351  0.1212  4.1008
 8734SOL    HW237665   1.702   2.687   0.959 -0.1318 -2.2104  0.3557
 8735SOL     OW37666   1.407   0.575  12.608  0.0353  0.0054 -0.1926
 8735SOL    HW137667   1.344   0.596  12.540  0.9935  1.7455 -0.5535
 8735SOL    HW237668   1.382   0.644  12.669 -0.7641  0.1131 -0.6511
 8736SOL     OW37669   2.106   4.579  12.014 -0.0186  0.0266  0.2212
 8736SOL    HW137670   2.130   4.623  12.096 -3.1400  0.5695  0.8396
 8736SOL    HW237671   2.144   4.649  11.961  0.0932 -1.2287 -1.3809
 8737SOL     OW37672   2.444   3.420   5.915  0.0923  0.9392  0.5730
 8737SOL    HW137673   2.359   3.458   5.938 -0.1325  0.7003  0.1232
 8737SOL    HW237674   2.411   3.345   5.865 -1.2069  1.3590  0.7892
 8738SOL     OW37675   1.146   2.519   2.513 -0.2749 -0.4861 -0.0977
 8738SOL    HW137676   1.136   2.465   2.434  0.0588 -0.1335 -0.3775
 8738SOL    HW237677   1.211   2.587   2.494 -0.8758  0.5182  1.4744
 8739SOL     OW37678   0.081   1.997  14.219  0.1119  0.4183 -0.4079
 8739SOL    HW137679   0.046   2.048  14.292 -1.5839 -0.0582 -0.8941
 8739SOL    HW237680   0.159   1.956  14.255 -0.2472  1.0312  1.0473
 8740SOL     OW37681   1.868   1.469   5.855 -0.0151  0.1460 -0.0800
 8740SOL    HW137682   1.867   1.386   5.808 -0.3155 -1.3390  2.5276
 8740SOL    HW237683   1.817   1.533   5.805  0.4659  0.1543 -0.5541
 8741SOL     OW37684   1.365   2.649  14.897 -0.0023 -0.0813  0.1454
 8741SOL    HW137685   1.454   2.616  14.890  0.1480  0.6034 -1.0263
 8741SOL    HW237686   1.319   2.590  14.957  0.5450 -0.5800  0.0671
 8742SOL     OW37687   0.950   4.698   8.938  0.0202 -0.3940 -0.6142
 8742SOL    HW137688   0.877   4.701   8.876 -0.4457  1.1316  0.0018
 8742SOL    HW237689   1.024   4.695   8.877 -1.4811  0.9792 -2.4683
 8743SOL     OW37690   0.869   4.154   5.143  0.3846 -0.0725  1.3288
 8743SOL    HW137691   0.895   4.061   5.147  0.3569 -0.3034 -3.2080
 8743SOL    HW237692   0.790   4.159   5.196 -0.6920  0.1046 -0.2853
 8744SOL     OW37693   0.518   1.897   7.649 -0.0882 -0.5838  0.3991
 8744SOL    HW137694   0.542   1.926   7.561 -1.4109 -0.9265 -0.0769
 8744SOL    HW237695   0.527   1.803   7.634 -0.2171 -0.6142  0.5208
 8745SOL     OW37696   0.341   1.307   6.360 -0.2461 -0.1302 -0.1895
 8745SOL    HW137697   0.257   1.347   6.338 -0.5015 -0.5722 -0.0142
 8745SOL    HW237698   0.312   1.228   6.406  0.8397  0.5964  1.7515
 8746SOL     OW37699   2.880   3.963   8.499 -0.1380  0.4682  0.0915
 8746SOL    HW137700   2.905   4.031   8.437  0.4091  1.9706  1.9569
 8746SOL    HW237701   2.802   4.001   8.540 -1.8817 -0.1537 -2.6400
 8747SOL     OW37702   1.855   2.598   4.040  0.3007  0.2283 -0.0263
 8747SOL    HW137703   1.851   2.624   4.132 -1.3284 -1.3831  0.3696
 8747SOL    HW237704   1.942   2.558   4.045  0.1166  0.0616  1.8584
 8748SOL     OW37705   0.775   0.781   8.452  0.5838  0.4168 -0.0279
 8748SOL    HW137706   0.865   0.793   8.483  0.3278  1.5569  0.2570
 8748SOL    HW237707   0.790   0.787   8.357 -1.6308  0.3971 -0.3905
 8749SOL     OW37708   3.095   4.188  16.212  0.3619  0.0807 -0.1256
 8749SOL    HW137709   3.067   4.271  16.173  1.4512  0.4833 -0.0375
 8749SOL    HW237710   3.190   4.194  16.206  0.3156  3.2003  2.4505
 8750SOL     OW37711   3.025   1.417   6.235 -0.8299 -0.4660 -0.7788
 8750SOL    HW137712   3.000   1.345   6.178 -0.2995  0.1024 -1.7214
 8750SOL    HW237713   3.044   1.476   6.163 -4.3325  2.5288  0.7248
 8751SOL     OW37714   2.710   0.655   1.870 -0.5023 -0.1586 -0.5242
 8751SOL    HW137715   2.710   0.744   1.906 -1.7309 -0.4839  0.2610
 8751SOL    HW237716   2.752   0.663   1.784  0.1569  1.2104 -0.0604
 8752SOL     OW37717   3.687   0.975   2.588 -0.2849 -0.4561  0.4486
 8752SOL    HW137718   3.772   0.986   2.630  0.1866  1.9054 -1.1032
 8752SOL    HW237719   3.705   1.009   2.501  3.1051 -1.8350  0.6208
 8753SOL     OW37720   3.654   0.602   8.568  0.3203  0.1882 -0.0656
 8753SOL    HW137721   3.565   0.638   8.577  0.0166 -0.4126 -0.6726
 8753SOL    HW237722   3.707   0.681   8.574  1.7153 -0.7824  0.1929
 8754SOL     OW37723   2.423   1.323   7.563  0.0233 -0.1560  0.2769
 8754SOL    HW137724   2.437   1.275   7.482 -0.6123 -0.4315  0.3308
 8754SOL    HW237725   2.376   1.259   7.617 -1.2141 -0.4354 -1.1364
 8755SOL     OW37726   2.347   3.329  15.206 -0.0979  0.2204 -0.2633
 8755SOL    HW137727   2.329   3.344  15.113 -4.2547 -1.8069  0.2153
 8755SOL    HW237728   2.431   3.283  15.210  1.3907  2.8222 -1.7820
 8756SOL     OW37729   1.267   3.064   8.354  0.3797  0.0396  0.0479
 8756SOL    HW137730   1.230   3.090   8.269  1.2551 -0.4291 -0.4815
 8756SOL    HW237731   1.293   3.145   8.399 -0.5763 -0.4260  1.3941
 8757SOL     OW37732   3.294   0.664  14.591  0.5129  0.1294  0.5728
 8757SOL    HW137733   3.284   0.623  14.677 -0.4093 -0.9301 -0.0320
 8757SOL    HW237734   3.338   0.746  14.613  0.0661  0.2781  0.9220
 8758SOL     OW37735   2.093   1.143   8.827 -0.3298 -0.1254  0.1567
 8758SOL    HW137736   2.015   1.108   8.785 -0.0558  1.6560 -1.8124
 8758SOL    HW237737   2.093   1.235   8.800  0.5759 -0.9462 -2.6277
 8759SOL     OW37738   1.974   2.665  14.774 -0.3487  0.0782  0.1889
 8759SOL    HW137739   2.044   2.694  14.833 -0.2412  1.5937 -0.7011
 8759SOL    HW237740   2.021   2.613  14.709 -0.6578  0.1811 -0.1165
 8760SOL     OW37741   2.635   3.981   2.816 -0.8328  0.1275  0.4312
 8760SOL    HW137742   2.669   3.958   2.730 -4.0573  2.2113 -1.3620
 8760SOL    HW237743   2.723   3.992   2.854 -0.8237 -0.4114  0.5707
 8761SOL     OW37744   4.461   4.571   8.961  0.2328 -0.0377  0.4188
 8761SOL    HW137745   4.470   4.640   9.027  3.1739  0.1286 -0.1842
 8761SOL    HW237746   4.552   4.559   8.934  0.0042  0.3242 -0.4906
 8762SOL     OW37747   3.553   3.309   6.977 -0.3830 -0.0935 -0.4524
 8762SOL    HW137748   3.482   3.262   6.934 -1.7286 -0.6569  2.3898
 8762SOL    HW237749   3.613   3.236   6.960  0.3353  0.6054 -0.9150
 8763SOL     OW37750   0.859   2.975   6.403 -0.0705  0.0539  0.6575
 8763SOL    HW137751   0.823   2.996   6.489 -1.6324  2.5590 -0.6203
 8763SOL    HW237752   0.919   2.904   6.429  0.5728 -0.0699 -1.1676
 8764SOL     OW37753   0.466   0.953  14.241  0.4860  0.9405 -0.0578
 8764SOL    HW137754   0.389   0.991  14.283  0.4792 -0.1252  0.9027
 8764SOL    HW237755   0.537   0.953  14.306  0.7316 -2.7760 -0.2965
 8765SOL     OW37756   1.855   4.459   5.255 -0.4689 -0.5965 -0.3049
 8765SOL    HW137757   1.908   4.411   5.192  1.0795  0.6361  0.0597
 8765SOL    HW237758   1.782   4.398   5.263 -2.2461  1.4067 -1.3808
 8766SOL     OW37759   3.745   2.280   7.360  0.7624 -0.0099 -0.4655
 8766SOL    HW137760   3.709   2.365   7.387 -1.0263 -1.4545  1.6849
 8766SOL    HW237761   3.800   2.304   7.286 -0.8441  0.4492 -1.5134
 8767SOL     OW37762   4.650   1.444   2.800  0.1953  0.2315  0.2934
 8767SOL    HW137763   4.627   1.398   2.881  0.2974  0.5919  0.5283
 8767SOL    HW237764   0.018   1.427   2.796  0.2098  0.8903 -1.7234
 8768SOL     OW37765   1.288   3.372   5.735 -0.0660  0.1066 -0.2590
 8768SOL    HW137766   1.271   3.367   5.829 -1.1035  1.3486 -0.3874
 8768SOL    HW237767   1.336   3.455   5.738 -0.5848  0.4775 -2.8964
 8769SOL     OW37768   3.112   0.349  11.349 -0.0869  0.2494  0.0407
 8769SOL    HW137769   3.137   0.368  11.258 -1.1107  0.8491 -0.1157
 8769SOL    HW237770   3.146   0.431  11.385 -0.5993  0.3176  0.3636
 8770SOL     OW37771   0.092   4.210  14.094  0.6217  0.2874 -0.4503
 8770SOL    HW137772   0.018   4.232  14.152  0.4876  2.4451 -1.4116
 8770SOL    HW237773   0.047   4.166  14.022 -0.6159  0.3703  0.2767
 8771SOL     OW37774   1.526   1.050  12.011  0.2729  0.7407 -0.5173
 8771SOL    HW137775   1.505   1.132  11.965 -1.0043  0.3747 -0.5973
 8771SOL    HW237776   1.480   0.987  11.956  0.2297 -0.1199  0.5156
 8772SOL     OW37777   4.247   4.354  12.465  0.0894  0.0025  0.1366
 8772SOL    HW137778   4.170   4.336  12.411 -0.7592  0.1576  1.2861
 8772SOL    HW237779   4.274   4.269  12.499 -1.3259 -0.8085 -0.7614
 8773SOL     OW37780   2.664   2.559   1.361 -0.0478  0.0149  0.5410
 8773SOL    HW137781   2.753   2.564   1.397 -0.6469  3.2085  1.6124
 8773SOL    HW237782   2.686   2.495   1.293  0.0875  2.0494 -1.3429
 8774SOL     OW37783   3.365   3.673   9.760 -0.1007  0.1272 -0.0758
 8774SOL    HW137784   3.357   3.589   9.806 -0.4712 -0.3587 -1.0215
 8774SOL    HW237785   3.457   3.662   9.738  0.2620  1.2513  0.9170
 8775SOL     OW37786   1.978   4.326  12.088 -0.2263 -0.0112  0.3153
 8775SOL    HW137787   1.897   4.364  12.123  1.1378  1.7228  1.5205
 8775SOL    HW237788   2.016   4.401  12.044  1.7851 -2.0918 -1.5140
 8776SOL     OW37789   2.010   1.688   7.075 -0.3454  0.1800  0.1343
 8776SOL    HW137790   2.001   1.702   6.981 -3.6955  0.1336  0.4673
 8776SOL    HW237791   1.974   1.772   7.102  2.2857  0.4917  2.6717
 8777SOL     OW37792   2.342   4.400   1.581 -0.1512 -0.1239 -0.7032
 8777SOL    HW137793   2.359   4.427   1.671 -0.2961  0.2944 -0.8003
 8777SOL    HW237794   2.282   4.466   1.545  0.5401  0.2336 -1.1840
 8778SOL     OW37795   2.225   1.274   2.834  0.3978  0.3593 -0.4077
 8778SOL    HW137796   2.253   1.347   2.779  1.7184 -0.5649 -0.9758
 8778SOL    HW237797   2.271   1.300   2.914 -0.9514  0.2775  0.3861
 8779SOL     OW37798   2.752   4.329   2.271 -0.4238  0.1108  0.0337
 8779SOL    HW137799   2.839   4.292   2.281 -0.4528 -0.1129 -0.5173
 8779SOL    HW237800   2.687   4.274   2.316 -0.2407 -0.1038  0.0381
 8780SOL     OW37801   3.749   0.297   0.500  0.7414 -0.2250 -0.0229
 8780SOL    HW137802   3.681   0.245   0.458 -0.2824  1.5600 -0.5559
 8780SOL    HW237803   3.758   0.246   0.581 -0.8504  0.3674  0.5192
 8781SOL     OW37804   2.614   0.919   7.312  0.2243  0.3642  0.1949
 8781SOL    HW137805   2.625   1.013   7.328  3.2562  0.0223  0.0976
 8781SOL    HW237806   2.598   0.885   7.400 -1.5878  3.0493  0.9103
 8782SOL     OW37807   2.444   1.798  15.192 -0.1754 -0.3699  0.1850
 8782SOL    HW137808   2.379   1.867  15.198  0.4473 -0.0360  3.0700
 8782SOL    HW237809   2.511   1.858  15.224  0.4030 -0.8447 -0.1229
 8783SOL     OW37810   1.804   2.578   6.112 -0.6283 -0.5747 -0.0992
 8783SOL    HW137811   1.877   2.541   6.062  1.9622 -0.4093  3.5951
 8783SOL    HW237812   1.745   2.595   6.039 -1.6740 -2.9812  0.1846
 8784SOL     OW37813   2.880   0.699   4.093 -0.2046 -0.0251 -0.3471
 8784SOL    HW137814   2.792   0.671   4.067 -1.0568  1.2596  1.1970
 8784SOL    HW237815   2.870   0.703   4.188  0.5208 -0.9006 -0.2358
 8785SOL     OW37816   2.632   1.174   9.367 -0.4119 -0.0691  0.3616
 8785SOL    HW137817   2.700   1.206   9.427 -0.1422  2.8453 -1.5359
 8785SOL    HW237818   2.575   1.249   9.352 -1.6209 -1.0488  0.0115
 8786SOL     OW37819   3.912   2.626  12.292 -0.0084 -1.0728  0.2805
 8786SOL    HW137820   3.833   2.637  12.240  0.3685 -0.5679 -0.1914
 8786SOL    HW237821   3.971   2.684  12.243  0.1198 -1.7551 -0.3643
 8787SOL     OW37822   4.638   0.011   3.775  0.2863  0.3761 -0.0250
 8787SOL    HW137823   4.607   0.080   3.716 -1.4480  0.0393  0.5124
 8787SOL    HW237824   4.725   4.719   3.740 -0.2945 -1.2830 -0.6127
 8788SOL     OW37825   4.186   3.375   3.701  0.0590  0.2555  0.3362
 8788SOL    HW137826   4.234   3.390   3.783 -0.1435 -3.4991  1.1287
 8788SOL    HW237827   4.102   3.347   3.737  0.2197  0.1714  0.6517
 8789SOL     OW37828   2.540   2.099   9.337 -0.1392 -0.2822  0.0004
 8789SOL    HW137829   2.526   2.193   9.324 -0.0246 -0.3108 -0.3319
 8789SOL    HW237830   2.452   2.063   9.333 -0.7509  1.2166 -0.2963
 8790SOL     OW37831   1.424   4.016   4.376 -0.3833 -0.5165  0.3220
 8790SOL    HW137832   1.341   4.053   4.343  0.7535  0.4552 -1.4372
 8790SOL    HW237833   1.409   4.007   4.470 -0.9544 -0.5666  0.2292
 8791SOL     OW37834   3.458   1.536   4.597  0.2896 -0.0535  0.0783
 8791SOL    HW137835   3.537   1.517   4.646  0.0326 -1.9319 -0.2223
 8791SOL    HW237836   3.397   1.502   4.662 -0.7112  1.0495 -0.2899
 8792SOL     OW37837   2.151   2.162   7.622 -0.2507 -0.6068  0.4882
 8792SOL    HW137838   2.224   2.127   7.571  0.5427  0.5976  0.8010
 8792SOL    HW237839   2.073   2.126   7.578 -0.6430 -1.0236  1.5151
 8793SOL     OW37840   2.594   1.699  12.388 -0.1659 -0.0071 -0.0948
 8793SOL    HW137841   2.651   1.757  12.337  0.7635 -1.0546 -0.2471
 8793SOL    HW237842   2.508   1.726  12.355 -0.7405 -1.1829  0.4317
 8794SOL     OW37843   4.392   1.694  11.676 -0.4980  0.1224 -0.5894
 8794SOL    HW137844   4.302   1.678  11.702  0.5172  0.2128  2.9587
 8794SOL    HW237845   4.426   1.737  11.755 -2.3932  0.3965  0.0745
 8795SOL     OW37846   2.334   3.020   2.415  0.1223  0.0462 -1.1878
 8795SOL    HW137847   2.248   3.063   2.417  1.1874  2.1428 -0.7981
 8795SOL    HW237848   2.342   2.999   2.508 -0.9672 -2.2971 -1.6108
 8796SOL     OW37849   1.716   0.766   9.681 -0.4896 -0.3515 -0.2714
 8796SOL    HW137850   1.738   0.837   9.621  0.1564 -1.2488 -1.1127
 8796SOL    HW237851   1.748   0.695   9.624 -1.1102 -0.8309 -0.0162
 8797SOL     OW37852   3.160   1.453  17.143 -0.6732 -0.0150  0.1413
 8797SOL    HW137853   3.118   1.388  17.086  1.6203  0.0303 -1.6229
 8797SOL    HW237854   3.236   1.471  17.088 -1.5488 -1.0756 -1.4266
 8798SOL     OW37855   2.927   0.252  15.196  0.0699  0.0224 -0.4643
 8798SOL    HW137856   2.873   0.326  15.223  0.9998 -0.1706  1.9593
 8798SOL    HW237857   2.905   0.180  15.256  1.0377 -1.0524 -1.3808
 8799SOL     OW37858   3.526   2.395   7.816  0.0056 -0.1396 -0.0064
 8799SOL    HW137859   3.455   2.366   7.759  1.7201 -1.6717 -1.3950
 8799SOL    HW237860   3.541   2.322   7.876  0.8220 -0.6752 -0.8533
 8800SOL     OW37861   0.344   1.795   3.989  0.4453 -0.2570 -0.7259
 8800SOL    HW137862   0.294   1.722   3.953 -0.3489 -1.1332  2.1402
 8800SOL    HW237863   0.359   1.851   3.913  0.3293 -2.2652 -2.2428
 8801SOL     OW37864   1.221   3.634   7.557 -0.5425 -0.0508 -0.5113
 8801SOL    HW137865   1.242   3.552   7.601  0.0706 -1.2588 -3.0481
 8801SOL    HW237866   1.300   3.683   7.581 -0.2105 -0.7182 -0.2505
 8802SOL     OW37867   2.643   1.232   8.549  0.1596  0.1116 -0.4180
 8802SOL    HW137868   2.688   1.316   8.555  2.3368 -1.2687  2.4332
 8802SOL    HW237869   2.650   1.209   8.641 -1.1566 -0.3417 -0.4270
 8803SOL     OW37870   4.264   4.301   6.646 -0.4856  0.6758 -0.7458
 8803SOL    HW137871   4.270   4.273   6.555 -1.6625 -0.9778 -0.3173
 8803SOL    HW237872   4.242   4.223   6.698  2.5442 -0.8970 -1.8324
 8804SOL     OW37873   1.650   2.658   2.141 -0.2534 -0.2825 -0.0415
 8804SOL    HW137874   1.554   2.654   2.147 -0.4095  1.6871 -1.2547
 8804SOL    HW237875   1.654   2.600   2.065 -3.4782  0.1767 -0.5841
 8805SOL     OW37876   4.331   0.007   4.861 -0.7893  0.5007  0.0603
 8805SOL    HW137877   4.277   0.087   4.859  0.1198  1.0244 -3.4742
 8805SOL    HW237878   4.405   0.027   4.918 -1.2921  1.8343  0.2655
 8806SOL     OW37879   0.979   2.634   7.294  0.2097  0.0047 -0.3271
 8806SOL    HW137880   1.000   2.719   7.332  2.4489 -2.0716  3.1483
 8806SOL    HW237881   0.974   2.592   7.380  0.9447 -0.8136 -0.6756
 8807SOL     OW37882   2.041   2.447   5.186  0.0932  0.1106 -0.3265
 8807SOL    HW137883   2.045   2.437   5.281  0.8104  0.6806 -0.3019
 8807SOL    HW237884   2.107   2.511   5.161  0.7640 -1.0723 -1.5355
 8808SOL     OW37885   2.993   4.552   0.184 -0.1876  0.5136  0.3263
 8808SOL    HW137886   3.083   4.523   0.172 -0.3589 -0.3875  1.3025
 8808SOL    HW237887   3.001   4.611   0.259  0.7589 -2.6605  2.7030
 8809SOL     OW37888   1.482   3.245   5.997 -0.2464 -0.6621  0.1764
 8809SOL    HW137889   1.422   3.317   6.017  0.8651 -0.1555  1.7394
 8809SOL    HW237890   1.426   3.167   6.003 -1.5255  0.3006  0.7141
 8810SOL     OW37891   1.422   0.897   7.020 -0.4680  0.3607 -1.2612
 8810SOL    HW137892   1.472   0.976   7.041  1.1571 -0.7910 -0.8020
 8810SOL    HW237893   1.337   0.930   7.051  0.5761  3.8227 -2.0966
 8811SOL     OW37894   1.075   3.198  15.759 -0.4346 -0.0733 -0.8673
 8811SOL    HW137895   1.112   3.246  15.685  1.2933 -0.1192 -0.0262
 8811SOL    HW237896   1.038   3.269  15.812 -0.7723 -0.9184  0.0282
 8812SOL     OW37897   0.162   1.867   6.289  0.3074 -0.3201 -0.7056
 8812SOL    HW137898   0.197   1.947   6.326  2.7870 -1.6067 -0.2582
 8812SOL    HW237899   0.231   1.807   6.317  2.3493  1.5974 -1.6779
 8813SOL     OW37900   3.050   2.599  12.301  0.1741 -0.5034 -0.6416
 8813SOL    HW137901   3.103   2.604  12.221  0.8726 -2.3674 -0.2918
 8813SOL    HW237902   3.060   2.689  12.333  0.4410 -1.3262  1.6090
 8814SOL     OW37903   1.839   2.562   2.912  0.4200 -0.3859 -0.3567
 8814SOL    HW137904   1.849   2.571   2.817 -3.9224 -2.4584 -1.0120
 8814SOL    HW237905   1.756   2.516   2.922  1.1065 -0.6430  4.0300
 8815SOL     OW37906   0.701   0.646   7.838  0.3290 -0.0167  0.1719
 8815SOL    HW137907   0.788   0.666   7.803 -0.4559  2.4179 -0.3925
 8815SOL    HW237908   0.655   0.730   7.836  1.0725  0.4416  1.7540
 8816SOL     OW37909   3.831   3.725   5.945  0.7030 -0.5592 -0.7109
 8816SOL    HW137910   3.788   3.788   6.004  1.7932 -1.7332  1.3436
 8816SOL    HW237911   3.760   3.666   5.921  0.0901  0.0140 -0.3289
 8817SOL     OW37912   1.646   1.953   4.740  0.1244  0.1166 -0.0670
 8817SOL    HW137913   1.565   1.922   4.781  0.2687  0.2552  0.3252
 8817SOL    HW237914   1.675   2.028   4.792  1.8563 -0.7521  0.2358
 8818SOL     OW37915   1.249   1.796   5.864 -0.0386  0.5074  0.6881
 8818SOL    HW137916   1.317   1.773   5.927 -0.2961 -2.2158 -0.0200
 8818SOL    HW237917   1.190   1.721   5.877  2.0870 -1.5583 -1.4906
 8819SOL     OW37918   4.466   1.067   8.760  0.2697  0.3903  0.2926
 8819SOL    HW137919   4.477   1.156   8.727 -1.6972  0.7068  0.4999
 8819SOL    HW237920   4.540   1.060   8.820 -0.1923 -0.1450  0.7968
 8820SOL     OW37921   2.893   2.534  16.004  0.4755  0.2513  0.2698
 8820SOL    HW137922   2.883   2.508  16.096 -2.3585 -0.4337 -0.2121
 8820SOL    HW237923   2.911   2.628  16.008 -2.5639  0.8927 -0.8537
 8821SOL     OW37924   1.508   1.019   4.622  0.4726  0.3363  0.4905
 8821SOL    HW137925   1.579   1.082   4.605 -0.5362  0.9477 -1.4001
 8821SOL    HW237926   1.435   1.080   4.619  0.7632  0.8085  2.6986
 8822SOL     OW37927   4.701   1.308   4.043  0.0317 -0.0604  0.3732
 8822SOL    HW137928   4.643   1.250   3.995 -0.2479  0.9817 -0.5367
 8822SOL    HW237929   4.703   1.261   4.127  0.9857 -0.5837  0.0521
 8823SOL     OW37930   0.751   3.445  10.447  1.1482  0.2711  0.2593
 8823SOL    HW137931   0.675   3.480  10.494  1.3735  0.2285  0.6567
 8823SOL    HW237932   0.801   3.398  10.514 -0.5339 -0.7932  0.7675
 8824SOL     OW37933   1.786   1.921   8.234 -0.2420 -0.0804  0.3854
 8824SOL    HW137934   1.835   1.914   8.316  0.8572  1.2177 -0.1481
 8824SOL    HW237935   1.701   1.926   8.277 -0.3060  1.2416  0.1336
 8825SOL     OW37936   1.891   3.460   6.175 -0.2842 -0.0140 -0.0974
 8825SOL    HW137937   1.818   3.411   6.137 -0.1946  0.5727 -1.0294
 8825SOL    HW237938   1.960   3.398   6.151 -1.1953 -1.8330  2.0458
 8826SOL     OW37939   1.479   0.287  10.834 -0.3046 -0.2215 -0.2955
 8826SOL    HW137940   1.413   0.328  10.779 -0.6343  0.2940  0.4743
 8826SOL    HW237941   1.544   0.258  10.770 -0.8057 -0.5395 -0.6570
 8827SOL     OW37942   1.270   3.587   8.934  0.0539 -0.6687  0.3619
 8827SOL    HW137943   1.353   3.623   8.903 -0.4269 -1.0439 -1.3593
 8827SOL    HW237944   1.212   3.661   8.951 -0.3884 -0.6847 -1.0872
 8828SOL     OW37945   1.224   0.655   3.074 -0.5477  0.3836  0.8935
 8828SOL    HW137946   1.304   0.609   3.100  0.5026  1.7985  0.1095
 8828SOL    HW237947   1.270   0.739   3.071  2.0846 -1.1191 -1.1211
 8829SOL     OW37948   3.941   3.861   1.721 -0.3348  0.0964  0.6251
 8829SOL    HW137949   3.914   3.869   1.813  2.4267  0.0199  1.4465
 8829SOL    HW237950   4.006   3.790   1.727  1.0329  1.2164 -0.7540
 8830SOL     OW37951   2.080   1.521   6.815  0.0547 -0.3083  0.3271
 8830SOL    HW137952   2.135   1.599   6.808  0.4773 -0.6092  0.3097
 8830SOL    HW237953   2.152   1.457   6.818  1.3442  1.2115  1.6622
 8831SOL     OW37954   1.963   0.726   4.011  0.0254  0.3964  0.3622
 8831SOL    HW137955   1.879   0.751   3.972 -0.9155 -1.8729  0.9151
 8831SOL    HW237956   1.957   0.763   4.099  0.8688 -1.4762  1.2127
 8832SOL     OW37957   2.356   3.025   7.024  0.4360 -0.5956 -0.2794
 8832SOL    HW137958   2.430   3.080   7.048 -1.4125  2.5788 -1.9288
 8832SOL    HW237959   2.375   3.017   6.930  0.4336  0.3000 -0.3556
 8833SOL     OW37960   0.253   1.761   6.909  0.4986  0.1792  0.0040
 8833SOL    HW137961   0.226   1.675   6.876  1.1870  0.2545 -0.7714
 8833SOL    HW237962   0.167   1.796   6.928  0.7991  2.5244 -2.9191
 8834SOL     OW37963   2.898   0.608   4.919 -0.1245  0.1416  0.5357
 8834SOL    HW137964   2.879   0.632   4.828 -1.5038  3.0702  1.5923
 8834SOL    HW237965   2.955   0.532   4.909 -2.4624 -1.7972  2.0049
 8835SOL     OW37966   0.544   0.164   4.131 -0.3314  0.1071  0.2117
 8835SOL    HW137967   0.541   0.170   4.226 -1.9200 -0.1460  0.1691
 8835SOL    HW237968   0.576   0.075   4.120 -1.3052 -0.5688  3.0229
 8836SOL     OW37969   4.284   2.334   5.174 -0.0982  0.2252  0.0905
 8836SOL    HW137970   4.372   2.355   5.205 -0.0714  1.0864 -0.5867
 8836SOL    HW237971   4.285   2.257   5.231  0.0879 -1.3685 -2.0666
 8837SOL     OW37972   0.451   3.658  13.316  0.1502 -0.1488  0.0492
 8837SOL    HW137973   0.455   3.675  13.410 -1.4496 -1.1597  0.3154
 8837SOL    HW237974   0.384   3.724  13.294 -0.7990  0.0196  3.4324
 8838SOL     OW37975   2.737   1.427  10.618  0.5350  0.3606 -0.2067
 8838SOL    HW137976   2.690   1.360  10.569 -0.1677  1.3080 -0.8375
 8838SOL    HW237977   2.667   1.492  10.623  1.2532  1.0326  1.0142
 8839SOL     OW37978   3.881   0.037   2.394 -0.0337  0.3571  0.1162
 8839SOL    HW137979   3.795   0.027   2.435  1.2148 -0.2502  2.5845
 8839SOL    HW237980   3.865   0.119   2.348 -0.5630 -0.9102 -1.9253
 8840SOL     OW37981   2.857   4.516   6.625 -0.6006 -0.6089 -0.3142
 8840SOL    HW137982   2.778   4.461   6.623 -0.0536 -1.3977 -0.2406
 8840SOL    HW237983   2.887   4.505   6.716 -1.6417 -0.4720  0.0473
 8841SOL     OW37984   1.663   2.608   8.192 -0.1160  0.8866 -0.2434
 8841SOL    HW137985   1.574   2.618   8.226 -0.5492 -0.3528 -1.0420
 8841SOL    HW237986   1.650   2.552   8.116 -0.2453  0.6946 -0.0792
 8842SOL     OW37987   3.768   3.915   2.982 -0.4576 -0.0860  0.2559
 8842SOL    HW137988   3.710   3.991   2.973  0.3394  0.3286 -1.5429
 8842SOL    HW237989   3.707   3.850   3.016  0.3710 -1.0853 -0.1909
 8843SOL     OW37990   0.078   3.223   8.996  0.1156  0.2343  0.1786
 8843SOL    HW137991   0.012   3.292   9.005  0.4119  0.4349  0.8917
 8843SOL    HW237992   0.037   3.171   8.928 -0.7524  3.4664 -1.8086
 8844SOL     OW37993   0.464   3.373  12.316  0.1021  0.3269  0.0436
 8844SOL    HW137994   0.474   3.313  12.390 -0.9389 -0.9201 -0.8281
 8844SOL    HW237995   0.369   3.375  12.304  0.1068  0.5243  0.0307
 8845SOL     OW37996   3.167   4.278   7.641 -0.3069  0.6211  0.0843
 8845SOL    HW137997   3.098   4.266   7.706 -0.8340 -1.8928 -0.9128
 8845SOL    HW237998   3.171   4.185   7.615  0.2928  0.1318  1.9466
 8846SOL     OW37999   1.052   1.298  11.406  0.0807 -0.3148  0.4090
 8846SOL    HW138000   0.958   1.278  11.401 -0.3618  1.2973  2.4765
 8846SOL    HW238001   1.056   1.389  11.434 -1.3422 -0.0719 -0.1739
 8847SOL     OW38002   0.963   1.984   2.030 -0.0448  0.2149 -0.0280
 8847SOL    HW138003   1.037   1.924   2.031 -0.4513 -0.3179 -1.8888
 8847SOL    HW238004   0.987   2.045   1.960  0.7717  0.2317  0.2662
 8848SOL     OW38005   1.857   2.701   2.443 -0.6991 -0.1328  0.6359
 8848SOL    HW138006   1.886   2.662   2.525 -0.3440  1.2716  1.1803
 8848SOL    HW238007   1.886   2.634   2.381 -0.5429  0.2798  0.2606
 8849SOL     OW38008   4.243   1.518   5.952  0.3473  0.0578 -0.1855
 8849SOL    HW138009   4.199   1.543   6.033 -0.1948  0.8468 -0.7230
 8849SOL    HW238010   4.171   1.466   5.917  0.8723  0.5238 -1.9529
 8850SOL     OW38011   2.519   4.593   2.075 -0.0233 -0.3500 -0.0036
 8850SOL    HW138012   2.588   4.604   2.140 -0.1513 -1.0838  0.2584
 8850SOL    HW238013   2.514   4.498   2.071 -0.4897 -0.2057 -2.6875
 8851SOL     OW38014   2.152   2.170   3.582 -0.0402 -0.2936  0.2832
 8851SOL    HW138015   2.199   2.095   3.545 -0.7530  0.6245 -2.4323
 8851SOL    HW238016   2.119   2.119   3.656  2.9338 -1.3238  0.9086
 8852SOL     OW38017   1.945   0.089   5.628 -0.5567  0.5449 -0.5446
 8852SOL    HW138018   1.875   0.087   5.563 -0.9166  1.3342 -0.1853
 8852SOL    HW238019   1.996   0.160   5.589 -1.3143  0.4572 -1.7039
 8853SOL     OW38020   4.367   4.434   5.777 -0.1445  0.6073 -0.1171
 8853SOL    HW138021   4.373   4.433   5.682 -0.4993  1.7448 -0.1395
 8853SOL    HW238022   4.284   4.480   5.789  0.7287  2.1099  0.1263
 8854SOL     OW38023   0.878   2.264  12.756  0.0918  0.0715  0.3357
 8854SOL    HW138024   0.949   2.323  12.731 -0.9269  1.5702  0.9742
 8854SOL    HW238025   0.922   2.180  12.758  0.2198  0.1304 -0.0182
 8855SOL     OW38026   2.574   4.022   8.549  0.4193 -0.3822  0.2776
 8855SOL    HW138027   2.485   3.989   8.538 -0.1497  0.4416  2.3950
 8855SOL    HW238028   2.605   3.990   8.634  0.1890 -1.6940 -0.1286
 8856SOL     OW38029   2.174   0.769   8.462 -0.5241 -0.5435  0.1692
 8856SOL    HW138030   2.087   0.732   8.475 -0.1666 -0.7646  1.8832
 8856SOL    HW238031   2.162   0.808   8.376  1.8300 -0.2054 -0.0056
 8857SOL     OW38032   3.501   4.488   2.578 -0.3458 -0.5722 -0.1988
 8857SOL    HW138033   3.548   4.545   2.517  0.8783 -0.5189  0.8060
 8857SOL    HW238034   3.564   4.493   2.649  0.1802 -1.4181 -0.6024
 8858SOL     OW38035   1.098   0.016  15.145 -0.5137 -0.6088 -0.5625
 8858SOL    HW138036   1.171   0.064  15.105 -0.5004  1.2361  1.6345
 8858SOL    HW238037   1.021   0.067  15.118  0.3411  0.8206 -0.3003
 8859SOL     OW38038   2.076   4.703   6.567  0.7601  0.3851 -0.3168
 8859SOL    HW138039   2.134   4.655   6.626 -1.5936 -0.8330  0.9996
 8859SOL    HW238040   2.109   0.066   6.586  2.3568 -0.0564 -1.0018
 8860SOL     OW38041   4.715   3.074  14.751 -0.3419  0.1191  0.1239
 8860SOL    HW138042   0.050   3.082  14.824 -0.0932 -0.5485 -0.0135
 8860SOL    HW238043   0.046   3.039  14.683  0.6539  2.1398 -0.0511
 8861SOL     OW38044   1.216   1.111   7.272  0.8811  0.0234  0.1240
 8861SOL    HW138045   1.159   1.135   7.345 -0.0423 -0.4930 -0.4287
 8861SOL    HW238046   1.292   1.084   7.322  0.4290  1.6448  1.6853
 8862SOL     OW38047   3.196   1.447   8.279 -0.3259  0.0217  0.4968
 8862SOL    HW138048   3.157   1.408   8.201  0.3490  0.4797 -0.0599
 8862SOL    HW238049   3.168   1.381   8.343 -0.6655 -1.9601 -1.6912
 8863SOL     OW38050   3.734   4.705   4.000 -0.2781 -0.3491  0.6349
 8863SOL    HW138051   3.799   0.049   3.992 -0.4518 -0.4016 -1.2274
 8863SOL    HW238052   3.768   4.648   3.931  0.6378  2.2494 -1.0760
 8864SOL     OW38053   3.781   3.217   8.551  0.4363  0.3481  0.2374
 8864SOL    HW138054   3.808   3.154   8.484  0.4690  0.1585  0.4297
 8864SOL    HW238055   3.857   3.216   8.609 -0.5811  1.3672  1.5721
 8865SOL     OW38056   1.979   0.094   1.558 -0.3729  0.1087  0.6956
 8865SOL    HW138057   1.952   0.134   1.476 -1.7322 -0.1906  0.9858
 8865SOL    HW238058   1.899   0.052   1.591  1.1351 -1.5294  2.3334
 8866SOL     OW38059   1.680   2.261   7.836 -0.4834 -0.4094 -0.4567
 8866SOL    HW138060   1.690   2.222   7.750 -0.5077 -1.4396  0.0131
 8866SOL    HW238061   1.729   2.200   7.890 -0.2631  0.5334  0.4163
 8867SOL     OW38062   3.016   4.407   3.923 -0.2453 -0.0016 -0.5877
 8867SOL    HW138063   2.986   4.366   4.005 -0.7811 -1.4532 -1.5071
 8867SOL    HW238064   3.089   4.464   3.947  0.1592 -1.4005  1.5586
 8868SOL     OW38065   4.332   2.596  17.600 -0.0096 -0.7340 -0.2051
 8868SOL    HW138066   4.368   2.637  17.678 -0.3845  0.0164 -0.4243
 8868SOL    HW238067   4.252   2.555  17.631 -0.8375  1.6600  0.8303
 8869SOL     OW38068   1.313   1.145   5.651  0.2230  0.0424  0.1881
 8869SOL    HW138069   1.242   1.169   5.591  2.1922  1.5339 -1.5119
 8869SOL    HW238070   1.387   1.186   5.608  1.5305 -1.8373  0.6541
 8870SOL     OW38071   0.113   4.080   5.992  0.7503  0.2298 -0.9933
 8870SOL    HW138072   0.062   4.160   5.980  3.7276  2.2566  0.0356
 8870SOL    HW238073   0.125   4.079   6.087  3.9275  1.1231 -1.3979
 8871SOL     OW38074   2.139   2.885   1.004  0.1139  0.2416 -0.7140
 8871SOL    HW138075   2.220   2.852   0.964  0.8178  1.0006  0.0876
 8871SOL    HW238076   2.117   2.964   0.954  2.0761  1.8268  0.9058
 8872SOL     OW38077   0.625   2.920   6.217  0.6530 -0.4223 -0.2379
 8872SOL    HW138078   0.627   2.862   6.141  0.3920  0.2352 -0.7409
 8872SOL    HW238079   0.718   2.936   6.229  0.6844 -0.5691 -0.2831
 8873SOL     OW38080   2.507   0.631  13.337  0.1676 -0.5360 -0.3604
 8873SOL    HW138081   2.451   0.563  13.299 -3.0670  1.6163  0.5591
 8873SOL    HW238082   2.562   0.656  13.263  1.3858  0.9892  1.0670
 8874SOL     OW38083   2.962   0.002  16.438  0.4348  0.0405  0.1343
 8874SOL    HW138084   2.894   0.058  16.477  1.8722  0.4932  2.0145
 8874SOL    HW238085   3.025   4.714  16.509 -0.2738  0.9892  0.9627
 8875SOL     OW38086   2.274   1.673  17.055  0.2284  0.5872  0.3766
 8875SOL    HW138087   2.260   1.726  16.976 -3.5871 -2.2820 -0.8644
 8875SOL    HW238088   2.291   1.588  17.014 -0.7716 -0.2903  1.7799
 8876SOL     OW38089   2.280   4.604  14.552  0.4463  0.5336 -0.5736
 8876SOL    HW138090   2.306   4.695  14.568  1.4679 -0.1215  1.5242
 8876SOL    HW238091   2.263   4.608  14.458 -0.6820  0.6646 -0.3571
 8877SOL     OW38092   0.413   4.476   3.580  0.3683  0.1032  0.0809
 8877SOL    HW138093   0.421   4.515   3.493 -1.3361  0.2327 -0.0133
 8877SOL    HW238094   0.322   4.448   3.582  0.5470 -0.4321  0.9342
 8878SOL     OW38095   1.044   3.109   5.025 -0.3608  0.4750 -0.0687
 8878SOL    HW138096   1.079   3.149   5.104 -1.6640 -0.1329  0.8083
 8878SOL    HW238097   1.087   3.164   4.959 -1.2012 -0.2700 -1.2427
 8879SOL     OW38098   1.394   2.211   4.668  0.5732  0.6725  0.2463
 8879SOL    HW138099   1.331   2.278   4.694 -0.6568  0.0171 -0.9994
 8879SOL    HW238100   1.423   2.235   4.580 -0.6492 -3.3520 -1.2793
 8880SOL     OW38101   2.303   1.623   8.911 -0.0367 -0.4576 -0.4373
 8880SOL    HW138102   2.384   1.601   8.866  2.1229  0.7493  2.8825
 8880SOL    HW238103   2.296   1.544   8.964  0.5090 -0.3650 -0.2317
 8881SOL     OW38104   2.203   0.489   8.661  0.1211  0.4945  0.2636
 8881SOL    HW138105   2.139   0.440   8.610  0.0779  2.2777 -1.3821
 8881SOL    HW238106   2.154   0.495   8.743 -2.6136  1.6053 -1.4473
 8882SOL     OW38107   0.802   4.132   3.897 -0.5412 -0.2686 -0.3637
 8882SOL    HW138108   0.837   4.043   3.889  0.1572 -0.1485  1.3580
 8882SOL    HW238109   0.795   4.148   3.803  1.3032 -0.1482 -0.4939
 8883SOL     OW38110   3.590   0.047   2.194 -0.7464 -0.5096  0.5012
 8883SOL    HW138111   3.539   0.113   2.241  0.2775  0.0616  0.8085
 8883SOL    HW238112   3.612   4.717   2.269  1.7488 -1.6629 -1.0683
 8884SOL     OW38113   1.947   2.652   8.175  0.4059  0.2387 -0.0026
 8884SOL    HW138114   1.853   2.672   8.174  0.4264  0.3586  0.7468
 8884SOL    HW238115   1.955   2.577   8.116 -0.6187 -0.0678  0.2505
 8885SOL     OW38116   2.942   0.612  16.831 -0.4717 -0.2127 -0.5653
 8885SOL    HW138117   2.974   0.525  16.809 -1.7832 -0.8898  0.2287
 8885SOL    HW238118   3.010   0.663  16.786 -2.1442  2.8341  0.3412
 8886SOL     OW38119   2.574   3.751   5.532 -0.1100 -0.2942 -0.1768
 8886SOL    HW138120   2.550   3.738   5.624  0.3884 -2.7635 -0.4079
 8886SOL    HW238121   2.503   3.708   5.485  0.3516 -0.9332 -0.2917
 8887SOL     OW38122   1.001   2.677   7.036  0.0222  0.0422  0.2468
 8887SOL    HW138123   0.986   2.692   7.129 -2.0659 -0.4055 -0.0158
 8887SOL    HW238124   0.961   2.591   7.023  2.1271 -1.0518  0.9846
 8888SOL     OW38125   3.713   1.228   9.423  0.5509 -0.0135 -0.0432
 8888SOL    HW138126   3.647   1.281   9.378  0.5560 -0.2895 -0.3765
 8888SOL    HW238127   3.788   1.278   9.392  1.9927 -2.9118 -1.1423
 8889SOL     OW38128   0.745   1.263   7.766 -0.1189 -0.0082 -0.1844
 8889SOL    HW138129   0.807   1.261   7.693 -0.6465  0.2411 -0.6437
 8889SOL    HW238130   0.805   1.280   7.838  0.1698  0.8981 -0.6290
 8890SOL     OW38131   1.495   3.497   2.639  0.0231  0.4877  0.0024
 8890SOL    HW138132   1.427   3.529   2.580 -0.9910 -1.6890  0.0195
 8890SOL    HW238133   1.559   3.461   2.578 -0.0297 -0.3546  0.4534
 8891SOL     OW38134   0.919   3.489   7.442  0.0152 -0.2626  1.5927
 8891SOL    HW138135   0.892   3.575   7.411  0.5895  0.0212  1.8779
 8891SOL    HW238136   1.007   3.483   7.403 -0.6228 -0.0927  0.1222
 8892SOL     OW38137   1.377   3.847   8.089  0.1858 -0.0778  0.4707
 8892SOL    HW138138   1.451   3.844   8.149  0.3877 -0.6622  0.1958
 8892SOL    HW238139   1.333   3.768   8.122 -1.9467  0.9080 -0.0464
 8893SOL     OW38140   4.388   2.863   7.009 -0.5102  0.1157  0.1925
 8893SOL    HW138141   4.303   2.860   6.964 -0.8907  1.3907  0.8468
 8893SOL    HW238142   4.402   2.776   7.046  1.4745  1.2419  2.0368
 8894SOL     OW38143   1.178   3.157   8.109 -0.6534  0.0101 -0.3561
 8894SOL    HW138144   1.089   3.177   8.140  0.5964  1.1505  2.4932
 8894SOL    HW238145   1.168   3.161   8.014  1.2267  1.6236 -0.4677
 8895SOL     OW38146   2.676   0.569   2.489  0.3356 -0.2837 -0.5909
 8895SOL    HW138147   2.758   0.618   2.480  0.0908 -0.1753 -2.3081
 8895SOL    HW238148   2.633   0.611   2.415  0.4898 -1.2056 -1.1968
 8896SOL     OW38149   1.766   2.157   1.648  0.1148  0.5180  0.1867
 8896SOL    HW138150   1.832   2.154   1.579  1.0774 -2.9173  1.2725
 8896SOL    HW238151   1.686   2.156   1.595  0.0471  0.2774  0.2924
 8897SOL     OW38152   3.078   4.370   3.231  0.2048 -0.0785 -0.4689
 8897SOL    HW138153   3.057   4.461   3.210  0.2593  0.2000  0.6664
 8897SOL    HW238154   2.996   4.345   3.274 -0.4270  0.9371 -1.1233
 8898SOL     OW38155   2.150   1.962  12.404 -0.2339  0.1951 -0.0639
 8898SOL    HW138156   2.139   2.054  12.429  1.5041  0.5019 -0.4521
 8898SOL    HW238157   2.061   1.928  12.394  1.2209 -3.7821  0.4745
 8899SOL     OW38158   0.555   2.682   0.778  0.4274 -0.1369 -0.4320
 8899SOL    HW138159   0.629   2.740   0.795  1.2629 -1.1496 -0.5944
 8899SOL    HW238160   0.573   2.613   0.843  0.3274  0.1694 -0.0787
 8900SOL     OW38161   4.216   1.911   4.514 -0.6349 -0.2375  0.3367
 8900SOL    HW138162   4.251   1.980   4.457  0.7051 -1.9844 -0.9563
 8900SOL    HW238163   4.274   1.838   4.494  1.7476  1.8511 -0.4580
 8901SOL     OW38164   0.421   0.573  13.031  0.2707  0.0702 -0.4221
 8901SOL    HW138165   0.365   0.517  13.085  1.0884  1.0834  1.4730
 8901SOL    HW238166   0.509   0.535  13.036  1.4151  2.9904  1.2801
 8902SOL     OW38167   2.769   1.428   9.853 -0.5425 -0.2704 -0.3463
 8902SOL    HW138168   2.734   1.444   9.941  0.1805 -0.1328 -0.0853
 8902SOL    HW238169   2.763   1.516   9.815  0.3341  0.1946  0.6015
 8903SOL     OW38170   1.097   0.774   9.195  0.2677  0.0891  0.0983
 8903SOL    HW138171   1.044   0.774   9.115  1.2466 -1.8487 -0.5438
 8903SOL    HW238172   1.179   0.818   9.174  0.3744 -0.4904 -0.7232
 8904SOL     OW38173   1.435   3.907  16.687 -0.1396 -0.2952  0.3331
 8904SOL    HW138174   1.399   3.984  16.731 -0.2054 -0.4932  0.6222
 8904SOL    HW238175   1.445   3.848  16.761  0.3255 -1.1644 -0.4167
 8905SOL     OW38176   2.108   2.526   9.992 -0.3956 -0.9519 -0.1650
 8905SOL    HW138177   2.187   2.482  10.026 -0.1130  0.5495  1.1131
 8905SOL    HW238178   2.083   2.580  10.067 -0.8484  0.8385 -1.6297
 8906SOL     OW38179   2.427   3.483   6.685  0.0359 -0.3045  0.0800
 8906SOL    HW138180   2.495   3.509   6.746 -3.2345  2.9213  2.2850
 8906SOL    HW238181   2.422   3.562   6.632 -0.8880  0.0387  0.6784
 8907SOL     OW38182   1.481   4.177   5.351 -0.1348  0.5746  0.9213
 8907SOL    HW138183   1.532   4.131   5.417  1.0991  2.9958  1.6634
 8907SOL    HW238184   1.398   4.131   5.360  0.0098  0.1448  0.0274
 8908SOL     OW38185   0.145   3.264   8.129 -0.1614 -0.5182 -0.1646
 8908SOL    HW138186   0.122   3.314   8.051 -1.5020 -2.0742 -0.7571
 8908SOL    HW238187   0.160   3.337   8.190 -1.0034 -0.6827  0.2376
 8909SOL     OW38188   3.457   0.089   8.178  0.0193  0.3513  0.2088
 8909SOL    HW138189   3.538   0.141   8.177  1.2690 -1.6016  0.4887
 8909SOL    HW238190   3.393   0.159   8.195  0.9467  1.1424  0.4315
 8910SOL     OW38191   2.812   3.092   2.123 -0.5119 -0.2968 -0.4716
 8910SOL    HW138192   2.733   3.056   2.165  1.1378  0.1795  3.0875
 8910SOL    HW238193   2.828   3.166   2.182  2.8031 -0.2028 -1.5222
 8911SOL     OW38194   3.403   2.606   5.354 -0.3966 -0.0703 -0.0188
 8911SOL    HW138195   3.382   2.517   5.383 -0.2787 -1.0298 -2.9487
 8911SOL    HW238196   3.351   2.615   5.274 -2.6999  2.1737  1.7259
 8912SOL     OW38197   0.742   0.610  15.117 -0.3212  0.1368 -0.7575
 8912SOL    HW138198   0.707   0.531  15.157  2.8300 -1.1440 -0.5633
 8912SOL    HW238199   0.764   0.586  15.026 -0.5735  1.0009 -1.0481
 8913SOL     OW38200   2.102   2.060  11.706 -0.4964 -0.5834 -0.6016
 8913SOL    HW138201   2.056   2.000  11.765 -1.2411 -0.0110 -0.6046
 8913SOL    HW238202   2.044   2.059  11.629 -0.9118  1.9118 -0.3068
 8914SOL     OW38203   2.463   3.708  17.652  0.0035 -0.0132  0.7217
 8914SOL    HW138204   2.456   3.705  17.556 -2.4525  1.5241  0.8336
 8914SOL    HW238205   2.447   3.801  17.671 -0.0923  0.2589 -0.6625
 8915SOL     OW38206   2.188   0.012   0.494  0.3263  0.1598 -0.1055
 8915SOL    HW138207   2.154   4.703   0.576  0.7481 -3.4817 -1.5126
 8915SOL    HW238208   2.275   0.040   0.522 -0.2919  1.4519  0.5322
 8916SOL     OW38209   2.557   1.388   4.986 -0.0509 -0.0060 -0.2039
 8916SOL    HW138210   2.545   1.403   4.892 -2.1157 -0.2984 -0.0003
 8916SOL    HW238211   2.503   1.452   5.033  0.4831 -0.4342  0.9803
 8917SOL     OW38212   1.060   3.218   5.999 -0.3527  0.0303  0.0269
 8917SOL    HW138213   1.021   3.197   6.084  1.8816  1.8791  1.4909
 8917SOL    HW238214   1.084   3.128   5.980  0.7073  0.2747  0.2233
 8918SOL     OW38215   1.617   4.667  16.000 -0.0831 -0.0592  0.5229
 8918SOL    HW138216   1.653   4.652  16.088 -2.3676  0.9028  1.6298
 8918SOL    HW238217   1.653   0.027  15.979 -2.6076  0.8714 -0.0178
 8919SOL     OW38218   0.167   0.754  10.517  0.1688 -0.0249 -0.3739
 8919SOL    HW138219   0.201   0.711  10.595  1.5363  1.6539 -0.0439
 8919SOL    HW238220   0.087   0.706  10.494 -0.1946 -0.4224  1.7037
 8920SOL     OW38221   4.700   1.249   3.661 -0.0685  0.7715  0.3609
 8920SOL    HW138222   4.702   1.296   3.745 -0.5741  0.0506  0.7779
 8920SOL    HW238223   4.712   1.317   3.595 -0.3013 -0.6618 -1.1493
 8921SOL     OW38224   0.323   2.185   6.920 -0.0786 -0.5613 -0.2372
 8921SOL    HW138225   0.364   2.098   6.920  2.5616  0.7136  1.2516
 8921SOL    HW238226   0.302   2.191   6.827  0.4175  1.3289 -0.2231
 8922SOL     OW38227   4.502   1.773   0.758 -0.1999 -0.7582 -0.5141
 8922SOL    HW138228   4.487   1.866   0.738  2.8178 -0.1015  0.3491
 8922SOL    HW238229   4.507   1.744   0.667  2.8305 -0.8220 -0.3351
 8923SOL     OW38230   0.562   2.417   6.203 -0.4702 -0.0947  0.3077
 8923SOL    HW138231   0.625   2.369   6.257 -1.4220 -1.7280 -0.0281
 8923SOL    HW238232   0.537   2.488   6.262 -2.7441 -0.6380 -0.0190
 8924SOL     OW38233   0.565   4.153   3.149  0.1895  0.8132 -0.1930
 8924SOL    HW138234   0.492   4.094   3.168  0.3159  0.8515  0.4027
 8924SOL    HW238235   0.531   4.173   3.061 -0.7552  0.6965  0.1490
 8925SOL     OW38236   4.516   3.162  16.720  0.1873  0.3561  0.2788
 8925SOL    HW138237   4.569   3.238  16.745  1.3285 -1.6988  4.2084
 8925SOL    HW238238   4.584   3.100  16.745  0.3317  0.4658  0.1549
 8926SOL     OW38239   0.320   3.117   5.743 -0.1747  0.1460  0.3036
 8926SOL    HW138240   0.386   3.150   5.682  0.6944 -0.3458  0.9634
 8926SOL    HW238241   0.241   3.170   5.735 -1.0289 -1.2088 -0.2948
 8927SOL     OW38242   4.657   1.638   1.682  0.1053  0.8589 -0.5847
 8927SOL    HW138243   4.654   1.589   1.764  0.9162  2.2342  0.2771
 8927SOL    HW238244   4.570   1.620   1.648  1.2908 -2.5002 -1.8303
 8928SOL     OW38245   3.144   0.860   9.062  0.2127  0.0150 -0.0153
 8928SOL    HW138246   3.210   0.920   9.095  0.0414 -0.0606  0.4536
 8928SOL    HW238247   3.074   0.910   9.104 -0.0692  0.9135 -1.5484
 8929SOL     OW38248   4.161   0.411   3.378 -0.6406  0.1864 -0.2293
 8929SOL    HW138249   4.192   0.447   3.296 -1.5835 -1.0528 -1.1352
 8929SOL    HW238250   4.201   0.469   3.443 -3.5779 -1.3689  3.0149
 8930SOL     OW38251   0.412   1.176   5.748 -0.5187 -0.0627  0.1368
 8930SOL    HW138252   0.397   1.270   5.751 -1.9444 -0.3198  1.2703
 8930SOL    HW238253   0.328   1.137   5.774  0.7907 -2.3701  0.9128
 8931SOL     OW38254   4.475   4.425   3.692 -0.2763  0.0252  0.8423
 8931SOL    HW138255   4.472   4.390   3.781 -1.5313  0.2481  0.8930
 8931SOL    HW238256   4.384   4.444   3.668  0.7009  2.1906 -1.1329
 8932SOL     OW38257   3.705   1.757  16.917  0.4726 -0.7002  0.0084
 8932SOL    HW138258   3.623   1.784  16.959  0.5543  0.0271 -0.3048
 8932SOL    HW238259   3.686   1.665  16.901  0.4390 -0.6860 -0.0328
 8933SOL     OW38260   2.838   1.412   3.183  0.2042 -0.1740  0.5931
 8933SOL    HW138261   2.835   1.404   3.278 -2.4869  0.4213  0.5421
 8933SOL    HW238262   2.874   1.324   3.166 -0.8162 -0.0490 -2.2882
 8934SOL     OW38263   4.332   4.400   3.101 -0.1961  0.1796 -0.0809
 8934SOL    HW138264   4.387   4.356   3.165 -1.0106 -2.2914 -1.0933
 8934SOL    HW238265   4.355   4.349   3.024  1.5251  0.3283  0.3521
 8935SOL     OW38266   1.410   0.673   8.793 -0.2386  0.5029  0.0271
 8935SOL    HW138267   1.497   0.668   8.833  0.2946 -1.8973 -1.4613
 8935SOL    HW238268   1.397   0.768   8.792 -0.9109  0.4173  0.8051
 8936SOL     OW38269   2.806   3.427   3.111 -0.7657 -0.0012  0.3333
 8936SOL    HW138270   2.837   3.382   3.189  2.9759 -0.0742 -1.2019
 8936SOL    HW238271   2.777   3.347   3.066  0.7828  1.0009 -2.4291
 8937SOL     OW38272   0.290   1.184   1.266  0.4233  0.0325 -0.1086
 8937SOL    HW138273   0.335   1.103   1.242  1.6675  0.5149  0.5505
 8937SOL    HW238274   0.323   1.255   1.212 -0.0617  0.6679  0.4406
 8938SOL     OW38275   1.042   2.903   2.965  0.1798  0.0083 -0.4378
 8938SOL    HW138276   0.986   2.980   2.972 -2.2739 -1.7651 -0.8663
 8938SOL    HW238277   0.987   2.833   2.998  1.1693  0.5829  2.4534
 8939SOL     OW38278   3.143   3.498   6.531 -0.2712  0.0179 -0.6332
 8939SOL    HW138279   3.091   3.569   6.568 -1.7951 -0.6981 -1.3894
 8939SOL    HW238280   3.156   3.442   6.608  0.2113  1.5592  0.3925
 8940SOL     OW38281   0.431   3.884  15.102  0.1263  0.3389  0.0133
 8940SOL    HW138282   0.397   3.972  15.118 -1.7000 -0.4383  0.4604
 8940SOL    HW238283   0.487   3.892  15.026  2.1407 -1.5008  1.3133
 8941SOL     OW38284   2.258   3.678   7.301  0.1294 -0.4275  0.2676
 8941SOL    HW138285   2.239   3.593   7.261 -3.2773  0.3558  0.1686
 8941SOL    HW238286   2.344   3.675   7.341  0.4287 -0.7183 -0.3996
 8942SOL     OW38287   2.944   2.506   9.138  0.4282  0.0655  0.1455
 8942SOL    HW138288   2.940   2.410   9.137  1.4111 -0.0068  3.0826
 8942SOL    HW238289   3.006   2.513   9.210  1.1492 -1.5626 -0.3167
 8943SOL     OW38290   4.676   2.938   0.359 -0.0949 -0.9607  0.3361
 8943SOL    HW138291   0.021   2.909   0.417 -0.8310 -2.0637  0.6764
 8943SOL    HW238292   4.657   2.851   0.324  0.8381 -0.9954 -0.0902
 8944SOL     OW38293   4.331   2.283   4.312  0.2114  0.4146 -0.1473
 8944SOL    HW138294   4.247   2.327   4.304 -1.1701 -2.4373 -1.3959
 8944SOL    HW238295   4.360   2.292   4.221 -1.8640 -1.5416 -1.0020
 8945SOL     OW38296   0.508   1.983   3.815  0.7932 -0.2159 -0.0140
 8945SOL    HW138297   0.568   1.920   3.774 -0.2311 -0.1672 -1.5871
 8945SOL    HW238298   0.562   2.042   3.867 -1.7414  1.3579  0.8459
 8946SOL     OW38299   1.593   4.385  13.287  0.0321 -1.0694 -0.3490
 8946SOL    HW138300   1.498   4.371  13.283 -0.2071  0.7771 -1.2167
 8946SOL    HW238301   1.593   4.455  13.352 -2.3662 -2.6381  1.3369
 8947SOL     OW38302   3.130   1.345   7.621 -0.4065 -0.6213  0.0844
 8947SOL    HW138303   3.075   1.419   7.648  0.9355 -0.2909  1.9045
 8947SOL    HW238304   3.098   1.275   7.677  0.2298 -0.5479  0.5355
 8948SOL     OW38305   4.199   3.151   8.528 -0.4141 -0.1731 -0.5076
 8948SOL    HW138306   4.131   3.153   8.595  2.0184  0.1458  1.9546
 8948SOL    HW238307   4.203   3.245   8.511 -0.0882  0.0547  0.8220
 8949SOL     OW38308   3.630   3.868  15.824 -0.2863  0.0736 -0.4098
 8949SOL    HW138309   3.569   3.816  15.773  0.9980 -0.4914 -1.3697
 8949SOL    HW238310   3.623   3.825  15.909  0.6662 -2.2933 -1.5228
 8950SOL     OW38311   3.792   1.728   9.401  0.5339  0.1151 -0.4966
 8950SOL    HW138312   3.870   1.775   9.372  0.2003  0.4979 -0.7660
 8950SOL    HW238313   3.816   1.720   9.494 -1.5717  1.1632  0.1410
 8951SOL     OW38314   0.995   0.673   5.660 -0.3363  0.1050  0.7011
 8951SOL    HW138315   0.995   0.759   5.617  1.1616 -0.2848 -0.0990
 8951SOL    HW238316   0.974   0.618   5.585 -0.6626 -1.1988  1.7587
 8952SOL     OW38317   0.646   1.541  15.054  0.8979  0.7605  0.3480
 8952SOL    HW138318   0.642   1.577  15.143 -0.8350 -1.8108  1.3209
 8952SOL    HW238319   0.717   1.591  15.013  0.0262 -0.9394 -3.2693
 8953SOL     OW38320   0.496   0.934  11.717  0.1236 -0.0089 -0.8181
 8953SOL    HW138321   0.482   1.018  11.672  1.0411  1.2790  1.3025
 8953SOL    HW238322   0.570   0.910  11.660  1.0952 -2.7684  1.6208
 8954SOL     OW38323   1.475   0.168   7.279  0.3632 -0.0830  0.7570
 8954SOL    HW138324   1.513   0.081   7.291  0.9125  0.0701  0.1516
 8954SOL    HW238325   1.383   0.143   7.287 -0.2200  2.1368  1.0797
 8955SOL     OW38326   1.418   0.547   8.097 -0.2042  0.2923  0.3672
 8955SOL    HW138327   1.495   0.524   8.148 -0.4512  1.0234  1.0777
 8955SOL    HW238328   1.449   0.531   8.008  1.3140 -3.0195  1.4981
 8956SOL     OW38329   4.601   1.016   5.066  0.6920  0.0767 -0.6991
 8956SOL    HW138330   4.612   1.111   5.066 -0.3681  0.1999  0.6511
 8956SOL    HW238331   4.603   0.993   4.973 -1.1740 -0.3174 -0.6404
 8957SOL     OW38332   4.508   3.385   2.914  0.1182 -0.2120  0.0771
 8957SOL    HW138333   4.514   3.342   2.999  1.9984  0.5872  0.3620
 8957SOL    HW238334   4.583   3.445   2.916 -1.0105  1.1674  0.6366
 8958SOL     OW38335   1.712   2.609   6.806  0.1578  0.9030 -0.0330
 8958SOL    HW138336   1.654   2.669   6.759 -0.2340  1.1337  0.7396
 8958SOL    HW238337   1.768   2.668   6.856  1.6494  2.4596 -3.5840
 8959SOL     OW38338   2.354   2.850   0.789 -0.2204 -0.0023 -0.3243
 8959SOL    HW138339   2.402   2.829   0.709  1.7701 -1.5040  1.2782
 8959SOL    HW238340   2.378   2.776   0.844 -0.0636 -1.2910 -2.1313
 8960SOL     OW38341   2.155   4.113   8.237  0.4420 -0.2115 -0.3382
 8960SOL    HW138342   2.137   4.030   8.281  0.0174  0.6595  1.1299
 8960SOL    HW238343   2.242   4.131   8.272 -0.3297  0.3505  1.3091
 8961SOL     OW38344   3.433   0.961   5.234 -0.9444  0.3292 -0.3515
 8961SOL    HW138345   3.406   1.019   5.164 -1.2866  0.6879  0.0759
 8961SOL    HW238346   3.355   0.909   5.256 -0.4674 -0.7206 -1.1551
 8962SOL     OW38347   0.491   4.266   2.465  0.3309  0.2267 -0.3134
 8962SOL    HW138348   0.486   4.190   2.524 -0.8344  1.3958  1.0988
 8962SOL    HW238349   0.438   4.329   2.513  0.6513  0.7761 -0.6917
 8963SOL     OW38350   2.543   2.974  10.520  0.4346 -0.2661  0.0008
 8963SOL    HW138351   2.582   2.986  10.606 -1.0226 -0.6853  0.7275
 8963SOL    HW238352   2.524   2.880  10.514 -0.0153 -0.1973  0.2769
 8964SOL     OW38353   3.776   1.596   5.600  0.3975 -0.1951 -0.1745
 8964SOL    HW138354   3.840   1.545   5.549 -0.1906 -0.8181 -0.2911
 8964SOL    HW238355   3.839   1.652   5.646  0.0694 -1.2184  1.5424
 8965SOL     OW38356   1.238   2.994   1.255  0.1706  0.3703 -0.3147
 8965SOL    HW138357   1.179   2.923   1.280  0.7002  0.2398  0.5682
 8965SOL    HW238358   1.199   3.068   1.302 -0.4021 -0.7355  0.9353
 8966SOL     OW38359   1.878   0.252   1.063  0.0906 -0.2437  0.5430
 8966SOL    HW138360   1.817   0.222   1.130 -0.8719  2.1912  0.7758
 8966SOL    HW238361   1.864   0.175   1.008 -1.4426 -0.0480  0.6468
 8967SOL     OW38362   0.210   2.988   6.881 -0.4155  0.5316  0.2694
 8967SOL    HW138363   0.279   2.943   6.930 -2.3803 -1.0726  1.5856
 8967SOL    HW238364   0.178   2.916   6.827  0.7117 -0.2008  0.6015
 8968SOL     OW38365   1.435   1.605  13.667  0.1932  0.3542  0.0520
 8968SOL    HW138366   1.351   1.618  13.712  1.7013  2.0090  2.4037
 8968SOL    HW238367   1.492   1.668  13.710 -0.1298  1.8227 -1.6924
 8969SOL     OW38368   2.054   2.787   1.237  0.0291 -0.4227  0.4023
 8969SOL    HW138369   2.079   2.825   1.153 -1.7827  0.0086  0.0664
 8969SOL    HW238370   2.133   2.737   1.255  0.0039 -0.4912  0.3205
 8970SOL     OW38371   3.162   4.478   1.437 -0.2269 -0.2818  0.1563
 8970SOL    HW138372   3.101   4.466   1.510  1.4118 -2.1815  1.2240
 8970SOL    HW238373   3.238   4.460   1.493 -0.6243  2.2405  1.4722
 8971SOL     OW38374   1.077   1.052   0.167 -0.1027  0.1221  0.2337
 8971SOL    HW138375   1.098   1.034   0.258 -1.8451 -1.2377  0.3763
 8971SOL    HW238376   1.133   0.982   0.133 -1.0632 -0.7266  0.3891
 8972SOL     OW38377   2.721   1.888  13.865 -0.1077  0.1075 -0.2943
 8972SOL    HW138378   2.714   1.901  13.770 -0.8240  1.1503 -0.0985
 8972SOL    HW238379   2.658   1.951  13.899  0.1835  0.2879 -0.0828
 8973SOL     OW38380   1.170   2.436   6.621  0.2561 -0.6317 -0.3830
 8973SOL    HW138381   1.221   2.385   6.684  2.9482  0.2011 -1.9111
 8973SOL    HW238382   1.093   2.459   6.673  1.2445  0.7452  0.4737
 8974SOL     OW38383   3.322   2.976   9.463  0.1248 -0.0212 -0.3117
 8974SOL    HW138384   3.229   2.980   9.487 -0.2727  0.7329 -1.9646
 8974SOL    HW238385   3.357   3.061   9.487 -0.2502  0.2673 -0.7812
 8975SOL     OW38386   0.978   4.496   6.741  0.4431 -0.2713 -0.5207
 8975SOL    HW138387   0.996   4.532   6.828 -1.6490  0.5454 -0.4225
 8975SOL    HW238388   0.898   4.546   6.724  0.3751 -0.2030  0.0179
 8976SOL     OW38389   4.654   4.284  13.414  0.5247 -0.4460 -0.7373
 8976SOL    HW138390   0.004   4.342  13.422 -0.4776  0.9111 -1.1932
 8976SOL    HW238391   4.630   4.262  13.504  0.5210 -0.4371 -0.7362
 8977SOL     OW38392   0.111   3.171   3.244 -0.3746 -0.4219 -0.2726
 8977SOL    HW138393   0.135   3.078   3.240 -1.0077 -0.5327 -1.5913
 8977SOL    HW238394   0.020   3.156   3.272 -0.2579 -0.9159 -0.1614
 8978SOL     OW38395   3.793   0.665   7.289 -0.1185  0.2823 -1.0376
 8978SOL    HW138396   3.743   0.699   7.215 -1.0259  3.7547  1.1785
 8978SOL    HW238397   3.744   0.708   7.360 -0.6490  0.6404 -1.6183
 8979SOL     OW38398   3.528   3.645   6.295  0.5755  0.3597  0.2916
 8979SOL    HW138399   3.504   3.689   6.377 -1.9822  1.1323 -0.8460
 8979SOL    HW238400   3.618   3.622   6.316  0.9999  1.1110 -0.7383
 8980SOL     OW38401   3.983   0.577   4.820 -0.2749 -0.5588 -0.3837
 8980SOL    HW138402   3.946   0.664   4.831  1.4102 -0.0470  1.3637
 8980SOL    HW238403   3.916   0.510   4.831 -1.0541  0.1577 -0.7677
 8981SOL     OW38404   3.944   3.146   1.709  0.0792  0.0545  0.0790
 8981SOL    HW138405   3.893   3.222   1.736  0.5322  0.0685  0.9077
 8981SOL    HW238406   4.029   3.190   1.703  0.3181 -0.4393 -0.1435
 8982SOL     OW38407   1.305   4.473   2.783 -0.1039 -0.7223  0.1020
 8982SOL    HW138408   1.392   4.509   2.799 -0.8620  0.2979  1.9497
 8982SOL    HW238409   1.327   4.414   2.711  1.0510 -0.5931  0.3436
 8983SOL     OW38410   1.301   2.188   8.882  0.3159 -0.2235 -0.3220
 8983SOL    HW138411   1.360   2.120   8.851  1.1252  0.1546  0.3946
 8983SOL    HW238412   1.224   2.171   8.827  0.8820 -3.9260  0.0844
 8984SOL     OW38413   3.406   2.414   5.022  0.0518 -0.3945  0.9071
 8984SOL    HW138414   3.387   2.331   5.067 -1.1929 -1.0018 -0.7672
 8984SOL    HW238415   3.355   2.475   5.075 -2.1635 -1.8094  0.3931
 8985SOL     OW38416   0.060   1.889   5.616  0.5941 -0.0314 -0.4754
 8985SOL    HW138417   0.148   1.915   5.588  0.3710  2.1127  0.8334
 8985SOL    HW238418   0.051   1.953   5.686 -3.3040 -0.6179 -0.4651
 8986SOL     OW38419   3.504   4.223   7.717 -0.4925 -0.2350  0.1158
 8986SOL    HW138420   3.464   4.197   7.634  0.8476 -1.5427 -0.1150
 8986SOL    HW238421   3.511   4.137   7.759 -1.3810  0.3748  1.5096
 8987SOL     OW38422   3.914   2.612   6.641  0.4655 -0.5166 -0.1314
 8987SOL    HW138423   3.825   2.647   6.644  0.9114  0.7629 -1.5178
 8987SOL    HW238424   3.952   2.656   6.717 -0.3102  0.0514 -0.0770
 8988SOL     OW38425   2.599   4.431   3.779 -0.2362  0.2002 -0.0975
 8988SOL    HW138426   2.609   4.493   3.706 -1.6762  2.6583  1.8116
 8988SOL    HW238427   2.528   4.474   3.828 -2.1651 -0.4475 -2.2867
 8989SOL     OW38428   2.498   3.472   6.281 -0.8776  0.3140 -0.2293
 8989SOL    HW138429   2.552   3.550   6.289 -0.8963  0.2626  0.4557
 8989SOL    HW238430   2.411   3.505   6.303 -1.0274 -1.0888  1.3688
 8990SOL     OW38431   1.814   2.353   5.651  0.0072 -0.0822  0.2658
 8990SOL    HW138432   1.739   2.400   5.614 -1.6137 -1.8264  1.2949
 8990SOL    HW238433   1.871   2.427   5.671  0.7600 -0.6556  0.2570
 8991SOL     OW38434   4.440   1.293   7.506  0.4626 -0.7704  0.4056
 8991SOL    HW138435   4.350   1.293   7.540  0.3887  1.0417  0.2147
 8991SOL    HW238436   4.432   1.356   7.434  1.1122  0.1855  1.1606
 8992SOL     OW38437   3.462   4.716   6.494  0.1504  0.0047  0.0897
 8992SOL    HW138438   3.503   0.077   6.493 -0.0057  0.0730 -0.3909
 8992SOL    HW238439   3.446   4.712   6.400  0.3924  1.3824 -0.0168
 8993SOL     OW38440   4.083   0.868  16.080 -0.3718 -0.0027 -0.4003
 8993SOL    HW138441   4.164   0.838  16.038  0.0223 -2.0002  1.7635
 8993SOL    HW238442   4.024   0.840  16.010  0.6211 -2.6941 -0.1551
 8994SOL     OW38443   2.061   1.998   3.763 -0.2365 -0.0193 -0.3120
 8994SOL    HW138444   2.106   2.028   3.842  2.5408  0.5308 -2.1028
 8994SOL    HW238445   1.974   1.994   3.803  0.2071  0.6621  0.7208
 8995SOL     OW38446   3.232   0.332   0.646 -0.2947 -0.1461 -0.1055
 8995SOL    HW138447   3.261   0.286   0.724  0.3209 -0.1827 -0.3491
 8995SOL    HW238448   3.180   0.262   0.606  0.3582 -0.3770 -0.5514
 8996SOL     OW38449   3.287   3.609   3.866  0.7601  0.2507 -0.0521
 8996SOL    HW138450   3.269   3.689   3.817 -1.5444  0.3399  0.9187
 8996SOL    HW238451   3.369   3.586   3.822  0.2964  0.1836 -0.8672
 8997SOL     OW38452   3.193   2.416   4.059 -0.0585 -0.1387  0.2407
 8997SOL    HW138453   3.163   2.487   4.002  0.9582 -0.6664 -0.9525
 8997SOL    HW238454   3.275   2.400   4.011 -0.1943 -3.1436  1.0152
 8998SOL     OW38455   4.151   1.793  16.256  0.5746  0.3412  0.1345
 8998SOL    HW138456   4.130   1.865  16.196 -0.5643  1.3474  1.7208
 8998SOL    HW238457   4.058   1.773  16.270  1.5051 -2.6228  1.9773
 8999SOL     OW38458   4.508   0.805   5.783 -0.3326 -0.3092 -0.1278
 8999SOL    HW138459   4.436   0.806   5.719 -0.4982 -0.3823  0.0601
 8999SOL    HW238460   4.569   0.756   5.728 -0.4866 -0.4232 -0.1976
 9000SOL     OW38461   1.700   4.011  10.877  0.6932  0.3321 -0.2661
 9000SOL    HW138462   1.622   3.963  10.904 -1.0384  2.2798 -1.7685
 9000SOL    HW238463   1.733   4.039  10.963  0.4615 -0.0010 -0.0683
 9001SOL     OW38464   0.656   2.528   7.195  0.5396  0.3955 -0.1656
 9001SOL    HW138465   0.578   2.473   7.185 -1.3923  2.9850  0.7521
 9001SOL    HW238466   0.622   2.612   7.166  1.0563  0.9879  0.9487
 9002SOL     OW38467   3.346   0.072   8.601  0.0235  0.0948 -0.5338
 9002SOL    HW138468   3.353   0.167   8.593 -0.0276  0.2287  0.9698
 9002SOL    HW238469   3.257   0.057   8.631 -0.2832  1.6278 -0.6742
 9003SOL     OW38470   3.810   2.705  17.434  0.3744  0.6510  0.6062
 9003SOL    HW138471   3.808   2.623  17.485 -0.8860 -1.0797 -2.1985
 9003SOL    HW238472   3.901   2.730  17.447  0.6814  0.1130 -0.4969
 9004SOL     OW38473   0.833   1.878   2.817 -0.4254  0.0335  0.0748
 9004SOL    HW138474   0.818   1.834   2.901  0.4505 -0.9151 -0.2662
 9004SOL    HW238475   0.744   1.867   2.785  0.7499  1.5173 -3.6475
 9005SOL     OW38476   1.039   3.604  13.684 -0.0472 -0.4035  0.0307
 9005SOL    HW138477   0.959   3.563  13.652 -1.0995  2.8431 -1.4633
 9005SOL    HW238478   1.017   3.696  13.697 -0.2761 -0.0705 -2.8567
 9006SOL     OW38479   4.361   3.806   8.444 -0.3179  0.0545  0.3639
 9006SOL    HW138480   4.362   3.896   8.409 -1.0353 -0.6059 -1.3218
 9006SOL    HW238481   4.291   3.817   8.508  1.1724  0.0934  2.0211
 9007SOL     OW38482   3.954   1.187   8.080  0.2771 -0.2674 -0.4959
 9007SOL    HW138483   3.896   1.245   8.129 -0.6968 -0.0552 -1.9134
 9007SOL    HW238484   3.989   1.128   8.146  2.9172 -0.1307 -1.7685
 9008SOL     OW38485   2.330   3.441   2.420 -0.2787 -0.0195  0.2842
 9008SOL    HW138486   2.390   3.400   2.357 -0.0509 -1.1437  1.2278
 9008SOL    HW238487   2.317   3.529   2.387  2.1162 -0.4027 -1.6989
 9009SOL     OW38488   3.250   2.419   2.831 -0.0752  0.3999  0.2611
 9009SOL    HW138489   3.195   2.360   2.882 -1.5742  1.8131  0.2824
 9009SOL    HW238490   3.333   2.372   2.828  0.0446  0.5745  0.8602
 9010SOL     OW38491   0.645   0.167  10.859 -0.1767  0.2608 -0.2007
 9010SOL    HW138492   0.667   0.216  10.939  0.6188 -0.0105 -0.2537
 9010SOL    HW238493   0.561   0.202  10.831  0.0022  0.2000 -0.8075
 9011SOL     OW38494   3.914   1.091   3.442 -0.5874 -0.6844 -0.6278
 9011SOL    HW138495   3.987   1.105   3.383  0.3407 -2.4614  0.0795
 9011SOL    HW238496   3.918   0.996   3.435  0.1615 -0.7631  0.8181
 9012SOL     OW38497   2.346   2.025   7.170 -0.1893 -0.7702 -0.4761
 9012SOL    HW138498   2.318   1.940   7.136  1.8697 -1.2688 -0.8868
 9012SOL    HW238499   2.434   1.999   7.196 -0.2473 -0.8492 -0.3574
 9013SOL     OW38500   2.805   3.787   2.206 -0.1340  0.4193 -0.1150
 9013SOL    HW138501   2.830   3.707   2.254  0.5264  1.5953  1.4960
 9013SOL    HW238502   2.865   3.853   2.241  1.0655  0.0532 -1.4705
 9014SOL     OW38503   3.732   1.776  15.399  0.0950 -0.0755  0.0508
 9014SOL    HW138504   3.728   1.735  15.313  1.0344 -0.5552  0.2358
 9014SOL    HW238505   3.667   1.720  15.443 -0.4650 -0.5739 -1.4239
 9015SOL     OW38506   3.149   1.426  12.583 -0.0093 -0.0423  0.1118
 9015SOL    HW138507   3.086   1.496  12.601  0.1881  0.3952 -0.8617
 9015SOL    HW238508   3.153   1.383  12.668  0.3245  0.1254  0.1821
 9016SOL     OW38509   1.769   0.391   5.275 -0.0434  0.8484 -0.2241
 9016SOL    HW138510   1.833   0.462   5.264  1.1219 -0.0341  0.9053
 9016SOL    HW238511   1.687   0.440   5.283 -0.2241  0.1431  2.1156
 9017SOL     OW38512   3.308   1.155   7.049  0.1899 -0.4278  0.2646
 9017SOL    HW138513   3.365   1.152   6.972  0.3702 -1.5932  0.4405
 9017SOL    HW238514   3.295   1.250   7.047  0.7640 -0.3122  1.9073
 9018SOL     OW38515   0.086   0.231   9.078  0.0359 -0.1489 -0.0449
 9018SOL    HW138516   0.114   0.166   9.014 -0.9118 -0.4122 -0.1955
 9018SOL    HW238517   0.065   0.174   9.153  0.8526 -0.8634 -0.3610
 9019SOL     OW38518   2.435   2.969   4.886 -0.2017  0.3711  0.6646
 9019SOL    HW138519   2.349   2.980   4.844  0.3083 -3.3080 -1.3324
 9019SOL    HW238520   2.445   3.063   4.903 -1.9239  0.3987  1.6163
 9020SOL     OW38521   4.459   0.973  13.254 -0.2046  0.1942  0.1073
 9020SOL    HW138522   4.517   1.002  13.183  2.1726 -1.0134  1.5481
 9020SOL    HW238523   4.406   0.910  13.204  0.2601 -1.1672  1.3204
 9021SOL     OW38524   3.596   1.591   7.808  0.7459  0.3715  0.2198
 9021SOL    HW138525   3.577   1.640   7.728 -1.4967  1.1991  1.2589
 9021SOL    HW238526   3.624   1.508   7.769  1.3092 -0.7691  3.0238
 9022SOL     OW38527   0.793   0.449  15.966 -0.1521  0.1747  0.5165
 9022SOL    HW138528   0.809   0.538  15.997 -0.2421  0.8890 -1.4538
 9022SOL    HW238529   0.790   0.456  15.870  1.2255 -2.6287  0.2768
 9023SOL     OW38530   0.831   3.479   8.050  0.0669 -0.1152 -0.7711
 9023SOL    HW138531   0.788   3.423   8.116 -2.7539  2.5007 -0.3940
 9023SOL    HW238532   0.775   3.555   8.066  3.1493  1.7023  1.2856
 9024SOL     OW38533   4.514   2.103   1.485 -0.4343 -0.2389 -0.4444
 9024SOL    HW138534   4.577   2.112   1.413  0.4401  0.4780  0.4096
 9024SOL    HW238535   4.506   2.197   1.505 -0.9674 -0.4205  0.1777
 9025SOL     OW38536   0.975   1.007  14.510 -0.5998 -0.0201  0.1339
 9025SOL    HW138537   0.985   0.918  14.478 -1.3179 -0.9322  2.4270
 9025SOL    HW238538   0.997   1.070  14.441 -1.2668  1.0038  0.8499
 9026SOL     OW38539   1.683   4.723   4.863  0.1407  0.5512 -0.0494
 9026SOL    HW138540   1.708   4.663   4.793  2.3490 -0.1548  1.3559
 9026SOL    HW238541   1.760   0.013   4.916 -0.6275  2.6304  0.4230
 9027SOL     OW38542   2.927   4.213   9.515  0.0544  0.1078 -0.3076
 9027SOL    HW138543   3.008   4.192   9.469  0.9030 -1.1930  1.7600
 9027SOL    HW238544   2.957   4.217   9.606 -0.4592  1.7525 -0.2115
 9028SOL     OW38545   0.349   0.909   9.437  0.4358 -0.4962 -0.1334
 9028SOL    HW138546   0.303   0.826   9.421  1.9190 -0.8757 -2.4724
 9028SOL    HW238547   0.376   0.892   9.527 -0.9934  0.6881  0.5333
 9029SOL     OW38548   4.067   4.453   4.601  0.5828  0.3839 -0.3520
 9029SOL    HW138549   4.084   4.407   4.518  2.2305  0.3259  0.0172
 9029SOL    HW238550   4.036   4.535   4.564  1.3528  1.1313  0.6564
 9030SOL     OW38551   1.618   4.693   4.102  0.0327 -0.4285 -0.2019
 9030SOL    HW138552   1.551   4.703   4.034 -0.1496 -1.0306 -0.1109
 9030SOL    HW238553   1.684   4.645   4.052 -0.3727 -0.0618 -1.0912
 9031SOL     OW38554   3.496   1.076   1.942  1.1673 -0.0130  0.1338
 9031SOL    HW138555   3.544   1.157   1.925  1.0810 -0.0208 -0.1339
 9031SOL    HW238556   3.574   1.026   1.965  0.3470  0.7293  4.5721
 9032SOL     OW38557   4.595   3.815  15.296  0.1481  0.0401  0.4210
 9032SOL    HW138558   4.571   3.857  15.213 -2.9800 -0.9445  0.8241
 9032SOL    HW238559   4.681   3.854  15.313 -0.2404  0.5880  1.1510
 9033SOL     OW38560   3.884   0.884  10.624  0.5628  0.0199  0.0531
 9033SOL    HW138561   3.846   0.798  10.611 -1.2460  1.0879 -1.7925
 9033SOL    HW238562   3.975   0.864  10.604  0.7270 -0.6605  1.4989
 9034SOL     OW38563   2.355   2.600  17.193 -0.0866 -0.2511  0.2731
 9034SOL    HW138564   2.330   2.690  17.212  0.1262  0.1673 -1.5350
 9034SOL    HW238565   2.283   2.552  17.235 -1.6690  1.6751 -0.2729
 9035SOL     OW38566   1.839   0.114   4.471  0.0297  0.3799 -0.4567
 9035SOL    HW138567   1.747   0.107   4.445 -0.0413 -1.8108  0.3845
 9035SOL    HW238568   1.877   0.028   4.450  0.7006  0.0424  2.1703
 9036SOL     OW38569   3.700   3.601   4.244  0.4056  0.6005 -0.2953
 9036SOL    HW138570   3.691   3.680   4.298 -1.7510 -0.8188  1.3746
 9036SOL    HW238571   3.619   3.603   4.193  1.2099 -2.4527 -1.6425
 9037SOL     OW38572   1.314   1.570  14.937 -0.6270  0.4883  0.5684
 9037SOL    HW138573   1.366   1.528  15.006 -0.6833  0.8444  0.8321
 9037SOL    HW238574   1.373   1.643  14.918  0.8189 -0.6839  0.5389
 9038SOL     OW38575   4.388   1.746   1.868  0.0294  0.1089  0.2856
 9038SOL    HW138576   4.349   1.824   1.829  1.6284  1.4176  1.3194
 9038SOL    HW238577   4.355   1.753   1.958 -1.5687  1.2027 -0.4058
 9039SOL     OW38578   2.332   0.110   6.108  0.0492 -0.3153 -0.1123
 9039SOL    HW138579   2.260   0.107   6.171  0.2357 -2.0094 -0.0065
 9039SOL    HW238580   2.371   0.196   6.128 -2.6472  1.2144 -1.3716
 9040SOL     OW38581   1.446   3.592   5.788  0.0909 -0.7014  0.1269
 9040SOL    HW138582   1.469   3.634   5.871  0.2147  0.3088 -0.4205
 9040SOL    HW238583   1.510   3.630   5.728  0.8219  1.0555  2.0371
 9041SOL     OW38584   3.402   2.630   3.165 -0.0855 -0.4799  0.1578
 9041SOL    HW138585   3.446   2.708   3.198 -0.3135 -1.0055  1.6972
 9041SOL    HW238586   3.360   2.667   3.087 -1.8313  1.2558  1.9324
 9042SOL     OW38587   2.312   3.492   7.515 -0.3806  0.4184  0.0494
 9042SOL    HW138588   2.288   3.501   7.423  2.2149 -0.5316 -0.7034
 9042SOL    HW238589   2.283   3.405   7.542  1.1153 -0.3107 -0.7226
 9043SOL     OW38590   4.248   3.998   3.184  0.0215 -0.4315 -0.2593
 9043SOL    HW138591   4.158   4.008   3.153  0.5119  0.3538 -1.4181
 9043SOL    HW238592   4.258   4.071   3.245 -1.2466 -2.8486  2.8315
 9044SOL     OW38593   4.444   2.974  15.090  0.0211  0.4056  0.4264
 9044SOL    HW138594   4.534   2.996  15.067 -0.2124 -1.5544 -2.3961
 9044SOL    HW238595   4.419   2.942  15.004  0.1143 -2.1919  1.3584
 9045SOL     OW38596   4.508   0.738   3.685 -0.0035 -0.1644  0.0984
 9045SOL    HW138597   4.509   0.821   3.637  0.9604 -1.2179 -1.6837
 9045SOL    HW238598   4.550   0.761   3.768 -0.6131  1.7193 -0.1290
 9046SOL     OW38599   4.715   2.471   7.101  0.8108  0.2823 -0.1564
 9046SOL    HW138600   0.031   2.450   7.017  1.6240 -1.3217  0.6670
 9046SOL    HW238601   0.069   2.502   7.143  0.5803 -0.5805  0.9075
 9047SOL     OW38602   1.314   0.921   9.827  0.1400 -0.9457 -0.4412
 9047SOL    HW138603   1.349   0.833   9.835 -0.1376 -1.1249 -1.2017
 9047SOL    HW238604   1.335   0.933   9.734 -0.2648 -0.9702 -0.5335
 9048SOL     OW38605   0.939   0.085   4.463  0.0382  0.3065 -0.0720
 9048SOL    HW138606   0.849   0.061   4.485  1.0065 -0.9456  2.5054
 9048SOL    HW238607   0.987   0.104   4.543 -1.2910 -1.3516  1.1041
 9049SOL     OW38608   4.029   2.638   4.508  0.4788  0.0339  0.1798
 9049SOL    HW138609   3.989   2.552   4.495 -0.9521  0.7406 -0.1162
 9049SOL    HW238610   4.019   2.670   4.419  1.0901  0.4375  0.2590
 9050SOL     OW38611   0.521   2.254   4.351  0.2070  0.1152 -0.2175
 9050SOL    HW138612   0.594   2.316   4.356  0.5313 -0.1419 -1.5989
 9050SOL    HW238613   0.455   2.309   4.308 -0.9231 -0.7690  0.3961
 9051SOL     OW38614   3.526   4.343   1.334 -0.1156 -0.4082  0.5378
 9051SOL    HW138615   3.506   4.283   1.261 -0.4522  1.1777 -0.6662
 9051SOL    HW238616   3.579   4.283   1.387 -2.2628 -1.0113  2.0068
 9052SOL     OW38617   3.544   4.250   1.929 -0.3861  0.3983 -0.3219
 9052SOL    HW138618   3.563   4.241   2.022 -1.9552 -0.4898 -0.0818
 9052SOL    HW238619   3.543   4.346   1.925  0.9817  0.4539  0.4874
 9053SOL     OW38620   2.145   0.436   4.586  0.3712  0.1147 -0.8250
 9053SOL    HW138621   2.232   0.433   4.545  0.9254  1.3718  0.2406
 9053SOL    HW238622   2.176   0.433   4.676  2.0157 -2.6550 -1.4850
 9054SOL     OW38623   2.812   1.872   6.789 -0.1977 -0.7637 -0.6262
 9054SOL    HW138624   2.744   1.923   6.744 -0.9523 -0.7899  0.4842
 9054SOL    HW238625   2.891   1.918   6.762 -0.0702 -0.2266  0.7052
 9055SOL     OW38626   0.200   0.324   4.295  0.3165  0.3636 -0.2478
 9055SOL    HW138627   0.187   0.248   4.351  4.2477  1.7472  2.5496
 9055SOL    HW238628   0.247   0.387   4.350 -0.0837  1.2080 -0.8501
 9056SOL     OW38629   2.352   3.246   2.622 -0.1025  0.1898 -0.2495
 9056SOL    HW138630   2.380   3.331   2.589  2.8546  0.2070  2.3910
 9056SOL    HW238631   2.264   3.235   2.585  0.0591  1.5537 -1.0116
 9057SOL     OW38632   0.210   1.164   3.203  0.3758  0.3168  0.4898
 9057SOL    HW138633   0.255   1.167   3.287  1.5738 -1.9462 -0.0603
 9057SOL    HW238634   0.270   1.117   3.145 -0.3028  0.4382 -0.3134
 9058SOL     OW38635   4.235   0.311   2.906 -0.5557  0.1170  0.5992
 9058SOL    HW138636   4.215   0.256   2.830 -1.5260 -0.5719  1.3469
 9058SOL    HW238637   4.144   0.328   2.931 -0.0595  0.1748  2.3644
 9059SOL     OW38638   1.355   0.172  16.629 -0.3336  0.1453 -0.4029
 9059SOL    HW138639   1.401   0.194  16.710 -0.2073  0.7906 -0.6530
 9059SOL    HW238640   1.292   0.244  16.633 -0.7910 -0.3133  0.9081
 9060SOL     OW38641   2.406   2.384   5.704 -0.0868 -0.2906  0.3563
 9060SOL    HW138642   2.442   2.301   5.735 -1.9596 -0.8471  0.9830
 9060SOL    HW238643   2.466   2.408   5.633 -0.7929 -1.2874 -0.5706
 9061SOL     OW38644   4.211   2.298   4.788  0.0743  0.6834  0.0950
 9061SOL    HW138645   4.169   2.235   4.847  0.8981  1.2074  1.2452
 9061SOL    HW238646   4.154   2.305   4.712 -0.7168  0.6459  0.6825
 9062SOL     OW38647   3.953   3.477   8.740  0.0150  0.5387 -0.0326
 9062SOL    HW138648   3.993   3.521   8.815 -1.6740  0.7589  0.7509
 9062SOL    HW238649   3.859   3.488   8.756 -0.0075  0.3837 -0.0587
 9063SOL     OW38650   3.171   1.783   7.600 -0.1169  0.2987  0.3694
 9063SOL    HW138651   3.095   1.839   7.580  1.7944  2.2668 -1.3593
 9063SOL    HW238652   3.149   1.754   7.688 -1.0625  0.5076  0.2002
 9064SOL     OW38653   0.506   3.071  14.969 -0.8525 -0.1825  0.2286
 9064SOL    HW138654   0.523   3.113  14.885  0.2939 -1.1052  0.0053
 9064SOL    HW238655   0.419   3.101  14.997 -1.0765 -0.2329 -0.3952
 9065SOL     OW38656   2.799   2.200   6.469  0.3065 -0.2615  0.3060
 9065SOL    HW138657   2.732   2.204   6.401  1.4873 -0.0211 -0.8394
 9065SOL    HW238658   2.873   2.238   6.423 -1.2251 -0.4372 -2.3044
 9066SOL     OW38659   3.889   0.634   9.273  0.0473 -0.0265 -0.2141
 9066SOL    HW138660   3.870   0.612   9.364  1.6476 -1.7871 -0.3035
 9066SOL    HW238661   3.946   0.711   9.279 -0.0440 -0.1128  1.8723
 9067SOL     OW38662   0.681   3.196   3.700  0.0913  0.2826 -0.0937
 9067SOL    HW138663   0.608   3.201   3.762 -0.7994  0.1175 -1.1273
 9067SOL    HW238664   0.692   3.290   3.682 -0.4388  0.4850  0.6707
 9068SOL     OW38665   0.188   3.360   3.052 -0.3508  0.4706 -0.2535
 9068SOL    HW138666   0.140   3.343   2.971  0.7979 -1.2938 -0.5656
 9068SOL    HW238667   0.149   3.292   3.107 -1.3251  1.6391  0.5060
 9069SOL     OW38668   1.004   0.962  12.098 -0.1510  0.0257 -0.3419
 9069SOL    HW138669   0.927   1.013  12.071 -1.0356 -1.1199 -0.0000
 9069SOL    HW238670   0.993   0.875  12.060  0.6335  0.6893 -2.0750
 9070SOL     OW38671   1.600   4.422   4.648  0.2361 -0.2345 -0.2441
 9070SOL    HW138672   1.619   4.409   4.555 -0.0056  2.2026 -0.6281
 9070SOL    HW238673   1.689   4.446   4.673  0.3262 -2.6924  1.7750
 9071SOL     OW38674   3.266   2.879   6.125 -0.5788 -0.2319  0.2441
 9071SOL    HW138675   3.353   2.917   6.115  0.5053 -3.0662 -1.0427
 9071SOL    HW238676   3.265   2.826   6.045 -1.6294  1.4668 -0.8558
 9072SOL     OW38677   1.797   1.386   0.466  0.3769 -0.4092  0.2242
 9072SOL    HW138678   1.709   1.372   0.502  1.1658 -1.0288  1.9137
 9072SOL    HW238679   1.772   1.393   0.374  0.3674  2.1169  0.4222
 9073SOL     OW38680   1.008   1.110   8.148  0.6967 -0.1268 -0.4564
 9073SOL    HW138681   1.058   1.087   8.227  0.0625  0.5366  0.1350
 9073SOL    HW238682   0.925   1.063   8.148  0.4824  0.2530  1.4323
 9074SOL     OW38683   3.293   1.571   6.144  0.0827 -0.6979 -0.0061
 9074SOL    HW138684   3.223   1.597   6.084  1.7944  0.3723 -1.5398
 9074SOL    HW238685   3.333   1.512   6.081 -2.4735 -1.6250 -0.7734
 9075SOL     OW38686   1.738   0.516   2.692 -0.8100  0.0690 -0.0219
 9075SOL    HW138687   1.734   0.480   2.603 -1.7449 -0.0069  0.0540
 9075SOL    HW238688   1.829   0.547   2.687 -0.6104 -0.6884 -1.0895
 9076SOL     OW38689   4.308   1.083   9.569 -0.3811  0.5393 -0.1300
 9076SOL    HW138690   4.358   1.078   9.651  0.9151  0.3736 -0.9393
 9076SOL    HW238691   4.324   1.174   9.542 -1.6057  0.2300 -1.8913
 9077SOL     OW38692   0.326   3.898  15.875 -0.1177 -0.5729 -0.4532
 9077SOL    HW138693   0.272   3.932  15.804  0.4026  0.8550 -0.1768
 9077SOL    HW238694   0.336   3.970  15.938  2.9290 -1.2857 -0.1017
 9078SOL     OW38695   2.635   4.009   7.963  0.5333  0.1245  0.3190
 9078SOL    HW138696   2.660   4.071   8.031 -1.0534  1.6482 -0.4645
 9078SOL    HW238697   2.722   3.986   7.931  0.0997 -1.3366  0.1749
 9079SOL     OW38698   2.996   0.326   4.894 -0.2455  0.2305  0.6020
 9079SOL    HW138699   3.091   0.320   4.884 -0.4252  0.5587 -1.2634
 9079SOL    HW238700   2.969   0.307   4.804  0.6237 -1.2178  0.6612
 9080SOL     OW38701   4.601   0.996   3.640 -0.4179 -0.3535  0.3487
 9080SOL    HW138702   4.628   0.959   3.556  1.9372 -0.5868  1.1939
 9080SOL    HW238703   4.620   1.089   3.624 -1.7649 -0.3286 -1.0336
 9081SOL     OW38704   0.361   2.309   5.200 -0.5704  0.3189  0.3015
 9081SOL    HW138705   0.438   2.277   5.247 -0.8168 -0.4363  0.1932
 9081SOL    HW238706   0.322   2.226   5.174  1.7692 -0.8690  0.6446
 9082SOL     OW38707   0.867   2.493   1.218  0.2461  0.2542 -0.1705
 9082SOL    HW138708   0.787   2.449   1.245  0.2371 -1.0917 -2.3441
 9082SOL    HW238709   0.876   2.466   1.127 -1.8980  1.0302 -0.6142
 9083SOL     OW38710   4.335   0.070  12.943  0.3276  0.1553 -0.1725
 9083SOL    HW138711   4.280   0.145  12.964  0.2203  0.3981 -1.3603
 9083SOL    HW238712   4.318   0.004  13.011  2.7246  0.2227  0.4916
 9084SOL     OW38713   4.115   1.416   6.376 -0.5429 -0.1615 -0.6499
 9084SOL    HW138714   4.123   1.348   6.444  2.1560 -1.0383 -1.8562
 9084SOL    HW238715   4.053   1.371   6.319 -0.6911 -1.3560  0.4447
 9085SOL     OW38716   3.384   4.171   4.981 -0.3651  0.0225  0.1457
 9085SOL    HW138717   3.449   4.141   4.917  0.3343  0.3388  0.7003
 9085SOL    HW238718   3.299   4.186   4.940  0.6043  0.2411 -1.8011
 9086SOL     OW38719   2.008   2.403   4.257  0.3537 -0.2181 -0.2044
 9086SOL    HW138720   2.090   2.412   4.305 -0.6969 -1.7985  1.8970
 9086SOL    HW238721   1.940   2.410   4.325 -0.1019  0.3226 -0.7243
 9087SOL     OW38722   0.153   4.335   9.984 -0.1812  0.1412 -0.4014
 9087SOL    HW138723   0.242   4.323   9.953  0.6897  0.9761  1.7798
 9087SOL    HW238724   0.139   4.429   9.994 -2.1346  0.0221 -1.9655
 9088SOL     OW38725   0.595   0.990   9.340  0.2704  0.0803  0.1625
 9088SOL    HW138726   0.643   0.911   9.320 -0.8571 -0.9051  1.3116
 9088SOL    HW238727   0.517   0.948   9.378  0.3970 -0.4127 -0.1247
 9089SOL     OW38728   2.945   2.627   2.558  0.2498  0.0814  0.0697
 9089SOL    HW138729   2.860   2.592   2.532 -1.0669  1.5040  2.4593
 9089SOL    HW238730   2.952   2.712   2.514  0.5260 -0.4081 -0.8214
 9090SOL     OW38731   0.069   3.505   6.205 -0.2264  0.5607  0.1341
 9090SOL    HW138732   0.076   3.421   6.250  1.9497  0.7585  0.1540
 9090SOL    HW238733   4.708   3.539   6.226 -1.9842 -3.0080 -1.2483
 9091SOL     OW38734   3.980   3.522   5.304 -0.0677  0.5134 -0.1138
 9091SOL    HW138735   4.009   3.525   5.213 -3.2008 -0.0667 -1.1188
 9091SOL    HW238736   3.952   3.611   5.327 -2.5629 -0.4451  0.5593
 9092SOL     OW38737   1.582   1.827   5.365 -0.3526 -0.1569 -0.1195
 9092SOL    HW138738   1.534   1.765   5.310  3.5157 -2.6166 -0.7161
 9092SOL    HW238739   1.540   1.906   5.331  0.6362 -0.1504 -1.3297
 9093SOL     OW38740   1.719   2.795   6.246 -0.3767 -0.2361 -0.0884
 9093SOL    HW138741   1.753   2.729   6.186 -2.7775 -1.3279 -0.2203
 9093SOL    HW238742   1.802   2.811   6.293 -1.7144 -0.0955  2.2596
 9094SOL     OW38743   0.872   0.362   6.443 -0.4670 -0.2656  0.7600
 9094SOL    HW138744   0.962   0.342   6.468 -0.4038  0.2428  0.9450
 9094SOL    HW238745   0.830   0.361   6.529 -0.7591  1.1383  0.6418
 9095SOL     OW38746   1.014   1.444   7.016  0.3832 -0.4567  0.0589
 9095SOL    HW138747   1.064   1.500   6.956  0.5482 -1.2901 -0.5928
 9095SOL    HW238748   1.079   1.431   7.085 -0.7256 -0.2448  1.1369
 9096SOL     OW38749   0.294   2.744   4.563 -0.7859  0.2481 -0.3998
 9096SOL    HW138750   0.296   2.649   4.569 -2.4574  0.1964 -0.4440
 9096SOL    HW238751   0.280   2.758   4.470  0.0375  0.8577 -0.4337
 9097SOL     OW38752   3.040   0.733   6.274 -0.5959 -0.1997 -0.7011
 9097SOL    HW138753   3.036   0.717   6.368 -1.3191 -2.2853 -1.0917
 9097SOL    HW238754   2.946   0.735   6.251 -0.5719  0.6285 -0.7463
 9098SOL     OW38755   2.022   2.786   5.021 -0.4716 -1.2119  0.4705
 9098SOL    HW138756   2.069   2.716   5.067  0.9248 -0.6958 -0.1788
 9098SOL    HW238757   2.070   2.861   5.057 -0.9647  0.2720 -1.9964
 9099SOL     OW38758   4.703   1.429   5.455 -0.6156 -0.0031 -0.3212
 9099SOL    HW138759   0.003   1.347   5.495  0.3954  0.3813 -0.1983
 9099SOL    HW238760   4.720   1.483   5.532 -1.1009 -0.1171 -0.1296
 9100SOL     OW38761   2.333   1.763   7.073  0.3426  0.5498  0.6636
 9100SOL    HW138762   2.275   1.754   6.997 -0.2847 -1.8285  1.4238
 9100SOL    HW238763   2.416   1.791   7.035  1.1147 -0.7172  1.4196
 9101SOL     OW38764   2.223   2.160   5.386 -0.1047 -0.3330 -0.3663
 9101SOL    HW138765   2.185   2.239   5.425 -0.2447 -0.9530  0.7477
 9101SOL    HW238766   2.268   2.195   5.310  0.9363  0.9564  0.8494
 9102SOL     OW38767   2.265   0.100   2.463 -0.0532 -0.2602  0.1273
 9102SOL    HW138768   2.351   0.061   2.451 -0.3739 -0.6037 -1.0353
 9102SOL    HW238769   2.253   0.149   2.382  1.6192  0.5429  0.3770
 9103SOL     OW38770   4.476   0.389   3.531 -0.4275  0.1675 -0.0365
 9103SOL    HW138771   4.457   0.356   3.619 -0.2936  1.2418  0.3963
 9103SOL    HW238772   4.428   0.472   3.530 -0.9408 -0.1110  1.9649
 9104SOL     OW38773   2.878   1.035   5.003 -0.4678  0.5392 -0.1467
 9104SOL    HW138774   2.886   0.947   5.040  1.5763 -0.0341 -2.0104
 9104SOL    HW238775   2.871   1.022   4.908  1.9348  1.6308 -0.4684
 9105SOL     OW38776   1.380   1.026   2.780 -0.0058 -0.4123  0.0221
 9105SOL    HW138777   1.315   0.959   2.759  0.8092 -0.9674 -0.7064
 9105SOL    HW238778   1.457   0.990   2.735  0.6405 -1.0130  1.5859
 9106SOL     OW38779   0.129   1.591  11.457 -0.2389 -0.0989  0.0661
 9106SOL    HW138780   0.139   1.641  11.538  0.4271 -2.9879  1.7739
 9106SOL    HW238781   0.039   1.615  11.438 -0.7165 -0.9364  1.2740
 9107SOL     OW38782   0.014   2.930   4.795 -0.3510 -0.0840  0.4645
 9107SOL    HW138783   4.688   2.870   4.741 -1.0445  0.6840  0.2951
 9107SOL    HW238784   0.059   2.864   4.849  1.7097  2.8157  2.2949
 9108SOL     OW38785   0.623   1.296  15.645 -0.3507  0.0841  0.4097
 9108SOL    HW138786   0.665   1.211  15.631  0.4574  0.2725  1.6868
 9108SOL    HW238787   0.592   1.321  15.558 -0.2300  1.7684  0.8373
 9109SOL     OW38788   3.521   3.925   7.719 -0.1924 -0.5101 -0.1945
 9109SOL    HW138789   3.601   3.876   7.737  0.2068 -0.0473 -0.7274
 9109SOL    HW238790   3.510   3.907   7.625 -1.6990  0.7569 -0.2621
 9110SOL     OW38791   2.763   2.261   3.481 -0.6897 -0.0550  0.4468
 9110SOL    HW138792   2.730   2.205   3.410 -1.8828 -1.9152  2.4457
 9110SOL    HW238793   2.694   2.327   3.487 -1.3881 -0.5708 -1.8862
 9111SOL     OW38794   1.623   0.958   3.992  0.0118  0.0653 -0.3488
 9111SOL    HW138795   1.652   0.885   3.938  0.9779 -0.0748  0.3687
 9111SOL    HW238796   1.707   1.002   4.007 -0.5515  0.0059  2.9439
 9112SOL     OW38797   3.289   4.304   9.816 -0.0502  0.5884  0.2453
 9112SOL    HW138798   3.356   4.237   9.831  0.1862  0.6328 -0.6515
 9112SOL    HW238799   3.330   4.358   9.750  1.4531 -2.4757 -1.2990
 9113SOL     OW38800   4.095   2.331   1.592 -0.1896  0.3512 -0.2625
 9113SOL    HW138801   4.055   2.245   1.583  2.4536 -1.1407  2.4331
 9113SOL    HW238802   4.071   2.351   1.682  1.1761 -4.1951  1.0799
 9114SOL     OW38803   3.871   4.062   8.310 -0.3448 -0.0026  0.1314
 9114SOL    HW138804   3.793   4.016   8.280 -1.2596  1.1610  0.7210
 9114SOL    HW238805   3.840   4.115   8.384  1.5615  1.9033 -0.4265
 9115SOL     OW38806   4.258   4.544   8.062 -0.3679  0.0238 -0.0748
 9115SOL    HW138807   4.277   4.629   8.022 -1.1470  1.3497  2.3818
 9115SOL    HW238808   4.178   4.560   8.111 -0.7136 -0.6717 -0.4087
 9116SOL     OW38809   2.309   1.273  17.638  0.2792 -0.7450 -0.3693
 9116SOL    HW138810   2.395   1.297  17.602  0.1062  1.2202  0.5163
 9116SOL    HW238811   2.343   1.261   0.022 -0.0172 -2.4750 -0.5021
 9117SOL     OW38812   3.204   1.065  12.581  0.2046  0.3367 -0.6784
 9117SOL    HW138813   3.141   1.087  12.513 -2.0839 -0.0292  1.2997
 9117SOL    HW238814   3.213   0.973  12.558 -2.5123 -0.6995  2.4202
 9118SOL     OW38815   0.543   1.149   7.419  0.4296  0.2514  0.2252
 9118SOL    HW138816   0.536   1.166   7.325  0.9232 -0.8829 -0.0204
 9118SOL    HW238817   0.453   1.123   7.438  0.4667  0.5109  0.7615
 9119SOL     OW38818   1.811   2.781   9.306  0.1891  0.1001  0.2989
 9119SOL    HW138819   1.840   2.690   9.296  1.3701  0.3795  1.0892
 9119SOL    HW238820   1.741   2.770   9.371  0.5849  1.7942  1.0182
 9120SOL     OW38821   2.697   2.159   4.711  0.2727 -0.2498  0.5792
 9120SOL    HW138822   2.734   2.071   4.716  3.3511  0.8529 -2.7369
 9120SOL    HW238823   2.637   2.153   4.637  2.4201 -0.0819 -1.1751
 9121SOL     OW38824   4.173   1.268  11.289 -0.2568  0.2606  0.1666
 9121SOL    HW138825   4.184   1.174  11.300  1.2963  0.3297 -0.7238
 9121SOL    HW238826   4.078   1.270  11.300 -0.4309 -1.0376 -1.1543
 9122SOL     OW38827   0.244   1.419   4.006 -0.0778  0.3828 -0.1046
 9122SOL    HW138828   0.180   1.488   3.989 -0.9075 -0.5835 -0.9482
 9122SOL    HW238829   0.201   1.357   4.066 -0.4820 -1.8660 -2.7345
 9123SOL     OW38830   3.535   1.843   4.749 -0.4585  0.1035 -0.1353
 9123SOL    HW138831   3.476   1.778   4.788 -2.0880  1.6779  0.0096
 9123SOL    HW238832   3.619   1.801   4.765  0.0598  0.7873 -1.0872
 9124SOL     OW38833   3.872   2.191   7.686  0.0443  0.5380  0.0139
 9124SOL    HW138834   3.919   2.223   7.763 -0.3374  0.3848  0.3103
 9124SOL    HW238835   3.842   2.278   7.657 -0.4034  0.3171 -0.1877
 9125SOL     OW38836   4.116   4.105   2.353 -0.4976 -0.5456  0.2122
 9125SOL    HW138837   4.054   4.109   2.280  0.2730 -2.5192 -0.5427
 9125SOL    HW238838   4.153   4.017   2.342  1.1682 -0.1072  2.2285
 9126SOL     OW38839   1.357   3.645   2.457  0.3106 -0.2326 -0.2732
 9126SOL    HW138840   1.413   3.721   2.444  0.5615 -0.0162  2.1604
 9126SOL    HW238841   1.388   3.589   2.386 -2.3519 -0.6145 -1.1565
 9127SOL     OW38842   0.865   2.433   5.978 -0.4453 -0.2235 -0.0468
 9127SOL    HW138843   0.860   2.481   6.060 -2.9496 -2.7179  1.2491
 9127SOL    HW238844   0.931   2.369   6.004  0.1656  0.8423  1.0146
 9128SOL     OW38845   3.694   0.807   7.474 -0.4149  0.1110 -0.0830
 9128SOL    HW138846   3.602   0.827   7.494 -0.0422  0.6030  1.1335
 9128SOL    HW238847   3.734   0.863   7.541  2.6851 -1.6398 -0.4960
 9129SOL     OW38848   0.483   0.647  12.779  0.3957 -0.3419 -0.2159
 9129SOL    HW138849   0.566   0.598  12.781 -0.5924 -2.0136 -0.6577
 9129SOL    HW238850   0.450   0.617  12.864  1.3183 -1.3566 -0.2014
 9130SOL     OW38851   1.979   4.313   5.031  0.1149  0.7708 -0.3306
 9130SOL    HW138852   2.038   4.282   4.962 -1.9723 -1.7964 -0.9722
 9130SOL    HW238853   1.900   4.319   4.978 -0.2336  0.4155  0.1593
 9131SOL     OW38854   0.681   0.380  11.039 -0.6979 -0.1596 -0.2919
 9131SOL    HW138855   0.730   0.463  11.034  0.5209 -0.8877 -0.4031
 9131SOL    HW238856   0.595   0.405  11.006 -0.1506 -0.2608 -1.7951
 9132SOL     OW38857   2.175   3.684   6.355 -0.0667  0.2599 -0.5036
 9132SOL    HW138858   2.164   3.699   6.262 -0.1283  0.1305 -0.5168
 9132SOL    HW238859   2.179   3.590   6.374 -1.3225 -0.1920 -2.5064
 9133SOL     OW38860   3.419   4.230  16.227  0.1875 -0.2529 -0.3602
 9133SOL    HW138861   3.369   4.303  16.189  1.7389  0.7813 -0.3818
 9133SOL    HW238862   3.485   4.223  16.159  1.2376  0.5680  0.5814
 9134SOL     OW38863   2.226   0.588   3.746  0.6645  0.0030 -0.0480
 9134SOL    HW138864   2.264   0.526   3.807  0.8336 -1.3011 -1.4785
 9134SOL    HW238865   2.291   0.659   3.747  0.2237  0.4126 -0.2972
 9135SOL     OW38866   4.379   0.461  11.939  0.2711 -0.3466  0.1661
 9135SOL    HW138867   4.401   0.369  11.952  0.0049 -0.5293 -0.6519
 9135SOL    HW238868   4.363   0.487  12.030  1.8277 -1.0199  0.6266
 9136SOL     OW38869   3.788   3.750  16.982 -0.1319 -0.0748 -0.3528
 9136SOL    HW138870   3.739   3.832  16.993 -0.9341 -0.5945 -0.0598
 9136SOL    HW238871   3.814   3.756  16.890 -1.8100 -0.0664 -0.8280
 9137SOL     OW38872   1.111   4.678   8.725  0.5072  0.1474 -0.1287
 9137SOL    HW138873   1.101   4.585   8.703 -0.9878  0.3727 -0.4436
 9137SOL    HW238874   1.206   4.685   8.726  0.6254 -1.7553  1.1384
 9138SOL     OW38875   3.030   3.797  11.770 -0.4095  0.2567 -0.3219
 9138SOL    HW138876   2.946   3.826  11.734 -0.6163  1.0107  0.7541
 9138SOL    HW238877   3.002   3.754  11.851  1.2739  1.5575  0.9580
 9139SOL     OW38878   0.233   1.127  15.973  0.2108  0.1752  0.0277
 9139SOL    HW138879   0.197   1.202  16.020 -0.9767  0.5529 -1.4720
 9139SOL    HW238880   0.329   1.135  15.972  0.2613 -0.1552  1.4191
 9140SOL     OW38881   0.996   4.482   7.464 -0.4945 -0.1862 -0.1115
 9140SOL    HW138882   1.049   4.423   7.410  1.0172  0.4847  0.6355
 9140SOL    HW238883   0.958   4.411   7.515 -1.0977 -0.0929 -0.4293
 9141SOL     OW38884   3.552   4.281   4.407  0.3113 -0.7312  0.0737
 9141SOL    HW138885   3.600   4.270   4.489 -0.1740 -1.2431  0.2886
 9141SOL    HW238886   3.568   4.196   4.364  0.3800 -1.2200  1.0749
 9142SOL     OW38887   1.700   1.351   6.090  0.0573 -0.8273 -0.5889
 9142SOL    HW138888   1.738   1.415   6.029 -4.0836  1.6554 -0.5657
 9142SOL    HW238889   1.619   1.334   6.042 -0.1870  1.4494 -1.0048
 9143SOL     OW38890   4.427   1.167   1.661 -0.4522 -0.1860  0.2358
 9143SOL    HW138891   4.503   1.178   1.718 -1.2545 -0.4474  1.3401
 9143SOL    HW238892   4.440   1.250   1.614 -4.0540  1.0293  1.3475
 9144SOL     OW38893   2.936   1.537   7.680 -0.1132  0.0878 -0.1410
 9144SOL    HW138894   2.982   1.591   7.744  0.8447 -1.4558  0.4830
 9144SOL    HW238895   2.874   1.496   7.741 -0.9615  0.0613 -1.0205
 9145SOL     OW38896   3.343   3.044   7.812 -0.6718  0.5419  0.3429
 9145SOL    HW138897   3.346   3.140   7.807 -0.0537  0.4708 -0.5646
 9145SOL    HW238898   3.380   3.018   7.728 -0.8028  0.8509  0.1884
 9146SOL     OW38899   4.271   3.461   9.774  0.2283  0.7522 -0.0043
 9146SOL    HW138900   4.351   3.509   9.753  0.5990  0.2627  0.2955
 9146SOL    HW238901   4.272   3.465   9.870  1.8211  1.0870 -0.0305
 9147SOL     OW38902   1.491   3.556   9.155 -0.0802  0.0980  0.2089
 9147SOL    HW138903   1.570   3.596   9.117  0.3247 -0.5929  0.3235
 9147SOL    HW238904   1.443   3.636   9.174  0.1177  0.1021  0.6771
 9148SOL     OW38905   2.299   3.906   7.137  0.0240 -0.7745 -0.6348
 9148SOL    HW138906   2.252   3.831   7.175 -0.8626  0.3636  0.5255
 9148SOL    HW238907   2.235   3.976   7.147 -0.2798 -0.9662 -1.2728
 9149SOL     OW38908   2.555   1.317   6.540 -0.9162 -0.3717  0.4266
 9149SOL    HW138909   2.531   1.238   6.492 -3.2787  1.4171 -1.3134
 9149SOL    HW238910   2.650   1.311   6.531 -1.0129 -1.1331 -0.0564
 9150SOL     OW38911   3.886   1.909   3.641 -1.2454  0.2645  0.5087
 9150SOL    HW138912   3.900   1.995   3.602  1.5158 -0.4860 -0.2164
 9150SOL    HW238913   3.890   1.921   3.736 -1.4242  4.0885  0.0205
 9151SOL     OW38914   0.831   0.236   8.317  0.9602 -0.0850  0.1872
 9151SOL    HW138915   0.894   0.195   8.257 -0.4748 -0.9074 -0.7575
 9151SOL    HW238916   0.767   0.168   8.336  0.1828  1.2677  2.4268
 9152SOL     OW38917   1.767   2.897   4.392 -0.2124  0.5116 -0.1909
 9152SOL    HW138918   1.678   2.886   4.359 -0.7952 -1.5048  2.0824
 9152SOL    HW238919   1.752   2.935   4.479  2.0239  0.3278  0.2678
 9153SOL     OW38920   2.592   0.913  16.064 -0.3999  0.1193  0.1058
 9153SOL    HW138921   2.636   0.876  15.987 -2.6718 -0.5475 -0.8558
 9153SOL    HW238922   2.585   1.004  16.038  1.1619  0.3389  0.4214
 9154SOL     OW38923   1.992   3.301   6.942 -0.1956  0.0733  0.2626
 9154SOL    HW138924   1.990   3.206   6.950 -1.7831 -0.0121 -1.2849
 9154SOL    HW238925   2.086   3.314   6.927 -0.2134 -2.6874 -2.4343
 9155SOL     OW38926   2.438   3.478   7.792 -0.0498 -0.2121 -0.3056
 9155SOL    HW138927   2.466   3.562   7.756  1.5328 -0.6944 -0.1696
 9155SOL    HW238928   2.345   3.477   7.769 -0.2698 -1.5435  0.6177
 9156SOL     OW38929   3.310   0.521  15.231  0.4255 -0.2662 -0.5965
 9156SOL    HW138930   3.325   0.610  15.197 -0.5155 -0.1460 -0.6944
 9156SOL    HW238931   3.224   0.504  15.193  1.7804  0.1360 -3.8560
 9157SOL     OW38932   2.091   2.157   0.337  0.6484  0.1545  0.0517
 9157SOL    HW138933   2.062   2.124   0.252 -1.3181  1.0104  0.3859
 9157SOL    HW238934   2.171   2.106   0.351 -0.2428 -1.7266 -1.7430
 9158SOL     OW38935   4.129   1.978   6.879 -0.5120  0.1382 -0.3512
 9158SOL    HW138936   4.124   1.974   6.975  1.6979  1.0965 -0.1908
 9158SOL    HW238937   4.084   1.898   6.852 -0.0827  0.6812 -2.6476
 9159SOL     OW38938   3.033   2.125  12.890 -0.2638 -0.5027  0.0393
 9159SOL    HW138939   3.087   2.190  12.844  0.7081 -1.4498 -0.1600
 9159SOL    HW238940   3.093   2.086  12.953 -0.0469  0.5009  0.4565
 9160SOL     OW38941   1.430   2.316   1.181  0.0000  0.0455 -0.3491
 9160SOL    HW138942   1.496   2.307   1.113 -0.2207  2.7407 -0.9434
 9160SOL    HW238943   1.353   2.321   1.124 -1.1155 -0.8949  1.0642
 9161SOL     OW38944   1.960   0.343  10.259 -0.0527  0.2663 -0.4449
 9161SOL    HW138945   2.024   0.297  10.204  0.8607 -0.7704  1.4673
 9161SOL    HW238946   1.932   0.265  10.307  0.7010  0.7455  0.7566
 9162SOL     OW38947   4.509   1.069   2.804 -0.1203  0.2567  0.0381
 9162SOL    HW138948   4.559   1.078   2.885 -1.5057 -1.5144  1.1113
 9162SOL    HW238949   4.431   1.122   2.819 -0.0085  0.8042 -1.3479
 9163SOL     OW38950   2.081   3.879   6.561 -0.3220 -0.7378  0.1440
 9163SOL    HW138951   2.123   3.939   6.499  1.8041 -1.1293  1.2192
 9163SOL    HW238952   2.118   3.796   6.533 -1.6048 -2.0343  2.3165
 9164SOL     OW38953   1.165   0.054  12.589  0.1324  0.4710 -0.3027
 9164SOL    HW138954   1.094   0.061  12.525  0.0921  3.8126  0.0899
 9164SOL    HW238955   1.194   0.142  12.613  0.0479 -0.0368  1.6436
 9165SOL     OW38956   4.072   4.469   5.257 -0.2994  0.1183  0.1094
 9165SOL    HW138957   4.078   4.528   5.182 -0.4924  0.9724  0.7617
 9165SOL    HW238958   4.070   4.382   5.217  0.4975 -1.3664  3.2478
 9166SOL     OW38959   2.576   0.687   8.970 -0.5548  0.3364 -0.1718
 9166SOL    HW138960   2.516   0.632   8.919  1.3185 -3.6077  1.8601
 9166SOL    HW238961   2.550   0.660   9.058 -0.8202  2.2418  0.3159
 9167SOL     OW38962   0.559   1.237  14.974 -0.0292 -0.3688 -0.0435
 9167SOL    HW138963   0.601   1.151  14.977  0.1264 -0.2526  1.1084
 9167SOL    HW238964   0.486   1.219  14.914 -1.6819  2.4658  1.0921
 9168SOL     OW38965   0.733   1.971   5.211  0.0182  0.2387  0.5514
 9168SOL    HW138966   0.762   2.021   5.136 -0.8570  0.3258  0.2651
 9168SOL    HW238967   0.769   1.888   5.180  0.6807  1.1932 -1.1982
 9169SOL     OW38968   2.735   4.241   6.376 -0.1230 -0.4275 -0.5032
 9169SOL    HW138969   2.675   4.303   6.417  0.4414 -0.2211  0.0023
 9169SOL    HW238970   2.819   4.284   6.361 -0.8501  0.9282 -0.7014
 9170SOL     OW38971   2.394   3.736  15.500 -0.1913  0.0227 -0.0202
 9170SOL    HW138972   2.328   3.753  15.433  0.0265  1.0248  0.0251
 9170SOL    HW238973   2.354   3.664  15.548  3.5039 -1.7220  0.4245
 9171SOL     OW38974   4.027   1.319  17.616 -0.6972  0.3863 -0.5759
 9171SOL    HW138975   3.944   1.360  17.639  0.0110  1.4875  0.0009
 9171SOL    HW238976   4.013   1.235  17.659 -1.7209  1.2478  0.7887
 9172SOL     OW38977   2.729   1.152   2.843  0.2402 -0.1140 -0.0396
 9172SOL    HW138978   2.702   1.233   2.886  3.5691  0.8459  0.2342
 9172SOL    HW238979   2.650   1.136   2.791 -0.9294 -1.2046  2.0612
 9173SOL     OW38980   2.958   4.519   5.967  0.0670 -0.0090 -0.0433
 9173SOL    HW138981   3.017   4.590   5.991 -0.8102  0.9315 -0.6701
 9173SOL    HW238982   2.885   4.553   5.915  2.1236  3.6862 -0.4847
 9174SOL     OW38983   0.498   1.140  16.058  0.0399 -0.9527 -0.2463
 9174SOL    HW138984   0.540   1.225  16.040  0.3962 -1.0717  0.0209
 9174SOL    HW238985   0.519   1.114  16.147 -1.1356 -0.5846  0.1348
 9175SOL     OW38986   3.607   2.344   9.124 -0.7003  0.2827 -0.1401
 9175SOL    HW138987   3.544   2.405   9.163  0.3763  2.0140 -1.1304
 9175SOL    HW238988   3.688   2.383   9.159 -1.0369  1.3656 -0.5743
 9176SOL     OW38989   2.323   0.399   1.528  0.0496  0.0570  0.2401
 9176SOL    HW138990   2.392   0.422   1.589  0.4235 -0.7224  0.1111
 9176SOL    HW238991   2.254   0.367   1.586 -1.0280  0.6918 -0.6970
 9177SOL     OW38992   4.223   4.133   3.648 -0.0694 -0.5159 -0.3190
 9177SOL    HW138993   4.275   4.072   3.700  0.7610 -0.7349 -1.3934
 9177SOL    HW238994   4.205   4.198   3.715  1.4616  0.3443 -0.7396
 9178SOL     OW38995   1.971   0.162   7.789  0.6383  0.1541 -0.3353
 9178SOL    HW138996   2.038   0.230   7.784 -1.7691  2.0920 -4.8636
 9178SOL    HW238997   1.958   0.132   7.700 -1.5340  0.9248 -0.2682
 9179SOL     OW38998   3.213   4.721  14.817  0.3797 -0.0887  0.1393
 9179SOL    HW138999   3.276   4.651  14.800 -0.7258 -1.1348  0.3754
 9179SOL    HW239000   3.265   0.075  14.827 -2.8055  1.8707  0.9090
 9180SOL     OW39001   3.361   4.326   6.502 -0.0148  0.0357  0.7522
 9180SOL    HW139002   3.417   4.311   6.578  1.6230 -0.6633 -0.5965
 9180SOL    HW239003   3.428   4.321   6.435  0.6520 -1.9393  1.5616
 9181SOL     OW39004   0.321   3.530  14.226 -0.5936  0.5070 -0.0472
 9181SOL    HW139005   0.396   3.545  14.282 -1.2368 -1.3769  1.3372
 9181SOL    HW239006   0.244   3.521  14.283 -0.7603  1.2926 -0.1499
 9182SOL     OW39007   3.685   4.427   2.306  0.0731 -0.1980  0.2442
 9182SOL    HW139008   3.605   4.463   2.270 -1.1028 -0.9701  2.0938
 9182SOL    HW239009   3.742   4.430   2.229 -1.0514  1.2684 -0.5329
 9183SOL     OW39010   1.834   2.465  12.577  0.3031 -0.3741 -0.0640
 9183SOL    HW139011   1.771   2.466  12.505 -0.0616 -0.0255  0.2596
 9183SOL    HW239012   1.902   2.502  12.520  0.4132  0.7383  0.8032
 9184SOL     OW39013   3.961   1.397   5.941  0.6893  0.4072 -0.4536
 9184SOL    HW139014   3.967   1.340   5.864  1.1584  1.3054 -1.0743
 9184SOL    HW239015   3.867   1.411   5.938  0.5186 -0.8217 -0.8521
 9185SOL     OW39016   2.783   0.939   6.811 -0.3925  0.0837  0.0918
 9185SOL    HW139017   2.750   0.871   6.869  3.3212 -0.9621  1.0020
 9185SOL    HW239018   2.703   0.958   6.763 -0.2273 -0.4082 -0.3657
 9186SOL     OW39019   1.605   4.335  15.113 -0.0182  0.3700 -0.3409
 9186SOL    HW139020   1.565   4.422  15.112  0.3253  0.5692  2.9688
 9186SOL    HW239021   1.578   4.289  15.193 -0.7024 -0.4060 -1.0287
 9187SOL     OW39022   4.684   1.284   0.985 -0.2977  0.3484 -0.5744
 9187SOL    HW139023   4.666   1.375   0.960  0.9992  0.8411  0.2932
 9187SOL    HW239024   4.608   1.246   0.941 -0.6635  0.7154 -0.2578
 9188SOL     OW39025   1.849   1.361   0.790 -0.3516 -0.4717  0.2823
 9188SOL    HW139026   1.899   1.280   0.784  1.6559  0.8351 -0.8772
 9188SOL    HW239027   1.764   1.321   0.771 -1.4388  1.3477  1.3407
 9189SOL     OW39028   1.200   2.320   7.954 -0.2873  0.5052  0.2259
 9189SOL    HW139029   1.126   2.279   7.909  1.4455 -2.6628  0.3011
 9189SOL    HW239030   1.224   2.268   8.030 -0.6411  0.6545  0.4399
 9190SOL     OW39031   2.848   4.204   1.754  0.0057  0.5322 -0.6202
 9190SOL    HW139032   2.772   4.147   1.751  2.0143 -2.2228  1.2701
 9190SOL    HW239033   2.866   4.200   1.848  2.1621  1.5273 -0.9730
 9191SOL     OW39034   0.286   3.991  12.495  0.5067 -0.4008 -0.5902
 9191SOL    HW139035   0.287   4.063  12.558 -0.5298 -0.9415  0.0535
 9191SOL    HW239036   0.263   3.918  12.552  3.8131 -1.0020 -0.0563
 9192SOL     OW39037   1.168   0.533  14.766 -0.1500 -0.0505  0.0621
 9192SOL    HW139038   1.152   0.466  14.699 -0.2832 -0.7960  0.8428
 9192SOL    HW239039   1.245   0.572  14.725  0.6941 -1.4783  0.3387
 9193SOL     OW39040   3.498   1.955   3.713 -0.0504 -0.1873  0.4080
 9193SOL    HW139041   3.501   2.041   3.671 -1.7018  0.3696  1.4215
 9193SOL    HW239042   3.470   1.899   3.640  1.1999  0.3713 -0.4919
 9194SOL     OW39043   3.915   2.071  17.218 -0.1014 -0.5606 -0.4817
 9194SOL    HW139044   3.910   2.148  17.162 -2.4926 -0.0341  0.4280
 9194SOL    HW239045   3.989   2.097  17.272 -0.0191  0.3703 -1.0600
 9195SOL     OW39046   3.561   2.260  16.832  0.4412  0.1639 -0.1595
 9195SOL    HW139047   3.481   2.312  16.821  0.0192 -0.7175 -1.2328
 9195SOL    HW239048   3.607   2.309  16.764  0.2064  1.5715  0.6814
 9196SOL     OW39049   3.196   1.218   1.451 -0.4443 -0.2744  0.7046
 9196SOL    HW139050   3.103   1.219   1.432 -0.4379 -0.9618  0.6405
 9196SOL    HW239051   3.216   1.134   1.409 -1.3983  0.0710 -0.4174
 9197SOL     OW39052   1.883   3.899   8.979  0.3454 -0.6342  0.5080
 9197SOL    HW139053   1.837   3.822   9.012 -2.1340  0.9778  0.7774
 9197SOL    HW239054   1.844   3.964   9.037  0.1402 -0.5725  0.2980
 9198SOL     OW39055   1.811   2.595   5.089  0.2418 -0.3171  0.1876
 9198SOL    HW139056   1.875   2.538   5.132 -0.0359  0.9056  2.2430
 9198SOL    HW239057   1.870   2.656   5.045 -0.3696 -0.7835 -1.2455
 9199SOL     OW39058   3.210   4.089   9.599 -0.1119  0.0967  0.1140
 9199SOL    HW139059   3.299   4.119   9.619  0.6793 -1.8586 -0.4113
 9199SOL    HW239060   3.195   4.123   9.511 -1.4881 -2.8552 -0.7766
 9200SOL     OW39061   3.524   1.123   7.334 -0.3313 -0.1111  0.3034
 9200SOL    HW139062   3.460   1.156   7.397 -1.2624  1.3014 -1.3560
 9200SOL    HW239063   3.596   1.095   7.390 -0.7374  0.8232  1.2973
 9201SOL     OW39064   2.954   0.538   2.918  0.0618  0.5285 -0.2047
 9201SOL    HW139065   2.895   0.613   2.917  0.0574  0.5765  2.8694
 9201SOL    HW239066   2.995   0.555   2.834  0.6316  0.9314  0.1585
 9202SOL     OW39067   3.400   0.998   9.993 -0.3727 -0.0501 -0.1857
 9202SOL    HW139068   3.480   1.041  10.024 -0.4228 -0.3034  0.2895
 9202SOL    HW239069   3.440   0.954   9.917  4.1948  2.4076  0.7874
 9203SOL     OW39070   1.966   0.701   2.806  0.0012  0.3146  0.1421
 9203SOL    HW139071   1.909   0.724   2.733 -1.3200  0.7154  1.2856
 9203SOL    HW239072   1.975   0.788   2.846  1.2657  0.9826 -1.6053
 9204SOL     OW39073   2.654   4.041   4.378  0.4924  0.2310  0.0429
 9204SOL    HW139074   2.712   4.101   4.425 -2.9522  3.1246  0.6079
 9204SOL    HW239075   2.597   4.111   4.347  0.1164  0.2730  0.8156
 9205SOL     OW39076   3.941   2.882   3.726 -0.0567  0.4786  0.1740
 9205SOL    HW139077   3.886   2.888   3.647 -1.8121 -0.2109  1.3574
 9205SOL    HW239078   3.914   2.802   3.770 -1.8288  2.4986  2.7083
 9206SOL     OW39079   4.012   3.992   3.052 -0.0795 -0.0506  0.6858
 9206SOL    HW139080   4.036   4.036   2.970 -3.4106  1.1642  0.3376
 9206SOL    HW239081   3.921   3.968   3.037  0.6088 -1.0320 -1.8867
 9207SOL     OW39082   0.314   0.794   2.376  0.3810  0.9473 -0.2119
 9207SOL    HW139083   0.323   0.814   2.283  0.9229 -0.3354 -0.4341
 9207SOL    HW239084   0.258   0.716   2.373  0.7498  0.7559 -1.7535
 9208SOL     OW39085   0.086   1.002  10.654 -0.3470  0.0085  0.5944
 9208SOL    HW139086   4.720   1.029  10.653 -0.1346  0.6852 -1.7589
 9208SOL    HW239087   0.081   0.917  10.611  0.5811 -0.6348  1.7385
 9209SOL     OW39088   4.377   0.958   4.170  0.6263 -0.2643  0.4155
 9209SOL    HW139089   4.431   1.029   4.137  2.4615 -2.0499 -0.4706
 9209SOL    HW239090   4.392   0.961   4.264  1.6267 -3.1273  0.3683
 9210SOL     OW39091   2.720   3.820   3.918  0.0816 -0.1211  0.0387
 9210SOL    HW139092   2.716   3.734   3.959  0.8969 -0.3218 -0.3081
 9210SOL    HW239093   2.773   3.861   3.986  1.4276  1.5522 -1.9974
 9211SOL     OW39094   3.931   4.278  12.747 -0.0745  0.2295  0.2232
 9211SOL    HW139095   3.909   4.343  12.814 -0.6552 -0.0901  0.3356
 9211SOL    HW239096   3.846   4.254  12.711 -0.7656  2.0782  0.6165
 9212SOL     OW39097   2.683   3.968   1.090 -0.5853  0.3861  0.5605
 9212SOL    HW139098   2.684   4.053   1.134  3.5504  0.6317  0.0078
 9212SOL    HW239099   2.642   3.909   1.155 -0.1170 -0.8242 -0.2402
 9213SOL     OW39100   3.865   2.732   7.843 -0.0657  0.1650 -0.0284
 9213SOL    HW139101   3.919   2.739   7.922 -1.1152 -1.6868  0.8476
 9213SOL    HW239102   3.798   2.675   7.882  1.8807 -1.5241  0.8237
 9214SOL     OW39103   0.740   3.957   5.501 -0.1875 -0.1814 -0.2773
 9214SOL    HW139104   0.667   3.982   5.445 -1.9988 -1.8361  1.3262
 9214SOL    HW239105   0.697   3.937   5.585 -0.2892  2.1180  0.2059
 9215SOL     OW39106   4.667   1.077   1.792  0.3102  0.4131 -0.6894
 9215SOL    HW139107   0.006   1.102   1.726 -0.0804  2.1157 -0.4258
 9215SOL    HW239108   4.686   0.986   1.812  0.9890 -0.2358 -4.2756
 9216SOL     OW39109   3.340   0.397  13.497  0.3213 -0.2947 -0.1313
 9216SOL    HW139110   3.311   0.306  13.488 -2.6025  0.6741 -0.3627
 9216SOL    HW239111   3.433   0.383  13.479  0.0505 -1.2201 -0.8265
 9217SOL     OW39112   0.865   3.927   1.959  0.6293  0.3018 -0.0566
 9217SOL    HW139113   0.855   3.978   2.039 -1.3137 -0.6573  0.3206
 9217SOL    HW239114   0.829   3.840   1.978 -0.5215  0.2912 -2.2119
 9218SOL     OW39115   4.598   3.026   7.106 -0.4789  0.4866  0.0810
 9218SOL    HW139116   4.632   2.948   7.149  1.2410  0.5568 -1.1765
 9218SOL    HW239117   4.524   2.981   7.064  2.5075 -3.0424 -1.4573
 9219SOL     OW39118   0.365   3.434   5.568  0.1989  0.2265  0.2549
 9219SOL    HW139119   0.399   3.492   5.499 -0.7922  2.1858  1.4188
 9219SOL    HW239120   0.433   3.436   5.636  1.2016 -1.8955 -0.6800
 9220SOL     OW39121   1.293   1.585  10.499  0.4453  0.1382 -0.0865
 9220SOL    HW139122   1.305   1.633  10.416  1.5070 -1.7137 -0.9979
 9220SOL    HW239123   1.199   1.571  10.500  0.2387  1.5259  0.0458
 9221SOL     OW39124   2.782   3.822  11.682  0.2334  0.0613  0.3136
 9221SOL    HW139125   2.733   3.897  11.716 -0.0197  0.8523 -1.7397
 9221SOL    HW239126   2.735   3.812  11.599  0.5105 -0.4408  0.2206
 9222SOL     OW39127   1.133   2.640  14.727  0.3869  0.1274  0.6046
 9222SOL    HW139128   1.217   2.644  14.773 -0.7653 -1.1295  2.8160
 9222SOL    HW239129   1.172   2.606  14.647  1.0961 -0.8020  1.3517
 9223SOL     OW39130   2.838   1.253  14.500  0.6756  0.1688  0.1156
 9223SOL    HW139131   2.808   1.308  14.428  1.6831  1.1110  0.4106
 9223SOL    HW239132   2.833   1.168  14.457 -0.7109  0.7877 -0.9070
 9224SOL     OW39133   2.829   0.189   7.450 -0.7455  0.1841 -0.2969
 9224SOL    HW139134   2.909   0.191   7.398 -0.5683  4.0196  0.1630
 9224SOL    HW239135   2.801   0.097   7.442  0.7541 -0.4171  1.3445
 9225SOL     OW39136   4.170   1.559   7.947  0.6203  0.2505 -0.2638
 9225SOL    HW139137   4.227   1.484   7.962  0.7922  0.4729  0.1967
 9225SOL    HW239138   4.231   1.605   7.890  0.7554  0.4196  0.0172
 9226SOL     OW39139   2.594   3.973   5.799 -0.2447 -0.3029 -0.2447
 9226SOL    HW139140   2.587   3.879   5.784  0.9660 -0.8593  2.6815
 9226SOL    HW239141   2.504   3.998   5.818  0.1670  0.5001  0.6260
 9227SOL     OW39142   2.156   2.611   9.749 -0.0669  0.2479  0.1399
 9227SOL    HW139143   2.124   2.588   9.837  0.7295  2.3103  0.9575
 9227SOL    HW239144   2.146   2.524   9.711  2.3986 -0.1996  0.5532
 9228SOL     OW39145   1.554   0.878   4.865 -0.1803  0.0868 -0.1972
 9228SOL    HW139146   1.529   0.915   4.781 -3.5862 -1.6285  0.0449
 9228SOL    HW239147   1.498   0.801   4.861  1.7858 -1.3254 -0.3602
 9229SOL     OW39148   3.961   2.113   1.511 -0.0045  0.6639 -0.2259
 9229SOL    HW139149   3.913   2.158   1.442 -0.3591  0.6760  0.0272
 9229SOL    HW239150   3.954   2.024   1.477  0.2197  0.8665 -0.7926
 9230SOL     OW39151   3.904   1.571   8.960 -0.1073  0.1417  0.0996
 9230SOL    HW139152   3.906   1.494   9.017 -0.7100 -0.2094 -0.3499
 9230SOL    HW239153   3.997   1.591   8.957  0.0666 -0.3552  2.2462
 9231SOL     OW39154   2.167   0.840  11.941 -0.2022  0.0867  0.3704
 9231SOL    HW139155   2.234   0.878  11.883  1.3782 -2.6348  0.4080
 9231SOL    HW239156   2.200   0.836  12.031 -0.6917 -0.1715  0.5375
 9232SOL     OW39157   2.514   2.825   1.236 -0.6890 -0.1391  0.5331
 9232SOL    HW139158   2.524   2.761   1.306 -0.7118  0.9812  1.5565
 9232SOL    HW239159   2.506   2.765   1.162 -0.7769  0.3927  0.1110
 9233SOL     OW39160   3.911   1.626   6.553 -0.2494  0.0846 -0.1736
 9233SOL    HW139161   3.872   1.545   6.520 -0.3118  0.1213 -0.1884
 9233SOL    HW239162   3.993   1.636   6.504  1.4857 -0.1162  2.7230
 9234SOL     OW39163   3.883   0.325   9.260 -0.3620 -0.3254 -0.2576
 9234SOL    HW139164   3.972   0.291   9.249 -0.1285 -0.1255  1.0881
 9234SOL    HW239165   3.897   0.412   9.223  2.0355 -0.7248 -0.2762
 9235SOL     OW39166   2.707   1.696   2.767  0.6130  0.1055  0.2113
 9235SOL    HW139167   2.627   1.714   2.816  0.0529 -0.1272 -0.6133
 9235SOL    HW239168   2.679   1.712   2.677  1.6884 -0.6469 -0.2543
 9236SOL     OW39169   3.649   2.186   7.090  0.1948 -0.3731  0.0724
 9236SOL    HW139170   3.682   2.191   7.180  0.0628 -0.0640  0.1022
 9236SOL    HW239171   3.639   2.091   7.091 -0.3588 -0.3164 -0.5567
 9237SOL     OW39172   4.023   3.787   0.041  0.2522  0.5576  0.4714
 9237SOL    HW139173   4.052   3.720   0.101 -1.6844 -0.4430  0.3007
 9237SOL    HW239174   4.053   3.866   0.087  1.3424 -0.0965  0.8665
 9238SOL     OW39175   4.515   3.040  15.994  0.1301  0.4311 -0.1251
 9238SOL    HW139176   4.556   2.960  15.962  0.5127  1.8878 -3.2999
 9238SOL    HW239177   4.466   3.055  15.913  1.1761 -1.1085 -1.0236
 9239SOL     OW39178   2.427   3.256   5.036 -0.1160  0.3436  0.4443
 9239SOL    HW139179   2.373   3.309   4.977 -0.0146 -2.0324 -1.7732
 9239SOL    HW239180   2.453   3.322   5.100  0.5259  1.3958 -0.8986
 9240SOL     OW39181   3.483   2.868   5.669 -0.1183 -0.1720 -0.2085
 9240SOL    HW139182   3.488   2.773   5.682  2.7135  0.0720  0.3890
 9240SOL    HW239183   3.537   2.877   5.590 -0.1082 -1.3424 -0.3456
 9241SOL     OW39184   3.799   1.321   4.565 -0.2505  0.0245  0.0497
 9241SOL    HW139185   3.858   1.253   4.599 -0.3785 -0.5460 -0.8630
 9241SOL    HW239186   3.842   1.354   4.487 -0.4451  0.2306  0.0298
 9242SOL     OW39187   1.691   0.896  10.724 -0.1348  0.2814  0.1910
 9242SOL    HW139188   1.696   0.884  10.630  0.7153  1.3897  0.0835
 9242SOL    HW239189   1.608   0.850  10.737  0.9817 -2.2197 -1.6560
 9243SOL     OW39190   4.622   0.616   2.287  0.3640 -0.1662  0.4114
 9243SOL    HW139191   4.612   0.521   2.279  1.3806 -0.2669  0.3400
 9243SOL    HW239192   4.554   0.646   2.226 -1.5399 -0.3595  2.4492
 9244SOL     OW39193   3.888   1.002   2.329 -0.7613 -0.9347  0.5985
 9244SOL    HW139194   3.939   1.061   2.385  0.7525 -0.5487 -1.1729
 9244SOL    HW239195   3.935   1.010   2.246 -1.0318 -0.1711  0.5167
 9245SOL     OW39196   1.148   2.864   6.843  0.4671  0.5944 -0.0577
 9245SOL    HW139197   1.226   2.862   6.898  1.0084 -0.5502 -0.8731
 9245SOL    HW239198   1.102   2.795   6.891 -1.2311  0.4838 -1.8254
 9246SOL     OW39199   3.466   1.717   4.241  0.3028  0.2098 -0.3454
 9246SOL    HW139200   3.487   1.742   4.150 -0.3948 -1.0170 -0.8374
 9246SOL    HW239201   3.379   1.754   4.255  0.7840  1.6400 -1.0442
 9247SOL     OW39202   3.742   2.829   9.091 -0.0896 -0.2103 -0.0940
 9247SOL    HW139203   3.702   2.913   9.068  1.9606  1.1094  1.1732
 9247SOL    HW239204   3.829   2.854   9.123 -0.0647 -2.0084  1.2030
 9248SOL     OW39205   4.169   4.054  12.228 -0.0151  0.1387  0.2730
 9248SOL    HW139206   4.177   4.011  12.313 -1.3615  1.0773  0.8749
 9248SOL    HW239207   4.150   4.142  12.260 -2.4368 -0.1555 -0.3557
 9249SOL     OW39208   4.717   4.513   6.109  0.1325 -0.6646  0.1503
 9249SOL    HW139209   4.670   4.581   6.061 -0.0203 -2.4404 -2.2222
 9249SOL    HW239210   0.053   4.481   6.043  0.6793  2.3569 -0.7917
 9250SOL     OW39211   2.844   0.814   7.980  0.8581  0.1574 -0.1101
 9250SOL    HW139212   2.856   0.755   8.054  1.2275  0.2584 -0.0912
 9250SOL    HW239213   2.879   0.897   8.013  1.1400  0.0862 -0.2313
 9251SOL     OW39214   3.482   1.497   7.270 -0.1822  0.3614  0.4383
 9251SOL    HW139215   3.416   1.562   7.247 -1.0060 -0.8011 -0.4846
 9251SOL    HW239216   3.435   1.422   7.306 -2.3149  0.7784 -1.5119
 9252SOL     OW39217   0.315   2.120   3.263  0.1061  0.3236  0.1431
 9252SOL    HW139218   0.331   2.211   3.288  0.8029  0.3463 -0.4019
 9252SOL    HW239219   0.244   2.140   3.202  1.4015  0.5098 -1.2921
 9253SOL     OW39220   2.895   3.738   8.103 -0.2050  0.0113 -0.2400
 9253SOL    HW139221   2.885   3.739   8.007  0.0185 -1.5290 -0.2810
 9253SOL    HW239222   2.812   3.705   8.138  1.1124 -1.0514  1.8315
 9254SOL     OW39223   4.545   1.073   7.397  0.1019 -0.3009 -0.2517
 9254SOL    HW139224   4.498   1.145   7.439  0.5427 -0.9259  1.3115
 9254SOL    HW239225   4.479   1.007   7.417  0.3315 -0.2488  0.6913
 9255SOL     OW39226   1.075   0.854  11.612 -0.2798  0.5686  0.4325
 9255SOL    HW139227   1.135   0.911  11.564  0.9037 -0.6897  0.4346
 9255SOL    HW239228   1.093   0.769  11.572 -2.7986  1.8683 -3.4727
 9256SOL     OW39229   4.616   3.637   7.874 -0.0786  0.3660  0.3533
 9256SOL    HW139230   4.529   3.670   7.896 -0.9086  0.5789 -3.2227
 9256SOL    HW239231   4.610   3.648   7.779 -1.5664  0.4101  0.4394
 9257SOL     OW39232   3.994   2.546   1.478 -0.1034 -0.0398 -0.1263
 9257SOL    HW139233   4.043   2.477   1.524 -0.4994  0.1624  0.5975
 9257SOL    HW239234   4.027   2.537   1.388 -0.6368  0.5624 -0.3714
 9258SOL     OW39235   0.358   3.743   5.951 -0.2293 -0.0811  0.3204
 9258SOL    HW139236   0.295   3.674   5.974 -1.6597  0.9723 -0.4084
 9258SOL    HW239237   0.372   3.792   6.032  0.9545 -1.0265  0.6852
 9259SOL     OW39238   2.656   2.646   3.671  0.4023  0.0662  0.1673
 9259SOL    HW139239   2.646   2.672   3.763  0.3729 -1.1496  0.5133
 9259SOL    HW239240   2.614   2.722   3.631 -0.9759 -1.0908 -0.6403
 9260SOL     OW39241   1.335   1.762   1.050 -0.1988 -0.3922  0.8751
 9260SOL    HW139242   1.311   1.712   0.972 -1.5319 -0.6915  1.4693
 9260SOL    HW239243   1.430   1.759   1.042 -0.0911 -0.2505  2.1524
 9261SOL     OW39244   1.500   0.262   6.997 -0.1007 -0.0396  0.2646
 9261SOL    HW139245   1.525   0.171   6.981 -2.0514 -0.5048 -0.1515
 9261SOL    HW239246   1.511   0.272   7.091 -0.5684 -1.9784  0.5329
 9262SOL     OW39247   0.393   0.852   4.335 -0.0666 -0.1995  0.0550
 9262SOL    HW139248   0.434   0.766   4.341  2.7400  1.2688  2.0800
 9262SOL    HW239249   0.342   0.849   4.254 -0.8614  0.3449  0.5342
 9263SOL     OW39250   0.597   2.276   0.055 -0.3508  0.5762  0.7516
 9263SOL    HW139251   0.552   2.202   0.013 -1.4004  1.0262  1.0920
 9263SOL    HW239252   0.576   2.267   0.148 -1.6557  3.0680  0.7100
 9264SOL     OW39253   3.060   0.359   4.427  0.3973  0.1903  0.0250
 9264SOL    HW139254   3.126   0.289   4.422  0.7504  0.4786  0.6724
 9264SOL    HW239255   3.051   0.370   4.332 -1.7304 -1.2851  0.0758
 9265SOL     OW39256   1.212   1.127  11.549  0.0865  0.5301 -0.5819
 9265SOL    HW139257   1.173   1.160  11.630  0.9126 -1.2948  0.5676
 9265SOL    HW239258   1.166   1.186  11.489  1.3913  1.4869 -0.6490
 9266SOL     OW39259   3.798   0.241   1.276  0.3228  0.0469  0.3574
 9266SOL    HW139260   3.783   0.289   1.195  1.0925 -1.2787 -0.5589
 9266SOL    HW239261   3.888   0.218   1.254 -0.2567 -2.1027  0.2149
 9267SOL     OW39262   2.321   2.108  11.836  0.7813 -0.2618 -0.7090
 9267SOL    HW139263   2.237   2.084  11.796 -0.2357  2.6387 -0.3151
 9267SOL    HW239264   2.294   2.175  11.899 -1.2678 -2.4141  0.7502
 9268SOL     OW39265   2.055   2.803   5.715  0.2322  0.1185  0.4828
 9268SOL    HW139266   1.983   2.860   5.688  1.7485  1.3696 -0.9199
 9268SOL    HW239267   2.074   2.833   5.804 -1.0670  1.2094  0.4033
 9269SOL     OW39268   1.426   0.036   3.037 -0.0914  0.2070  0.9368
 9269SOL    HW139269   1.404   0.015   3.127  2.6869 -0.1716  1.5213
 9269SOL    HW239270   1.415   0.131   3.040  1.0065  0.3490  0.4886
 9270SOL     OW39271   3.739   4.711   8.401 -0.2788 -0.3210 -0.1318
 9270SOL    HW139272   3.686   4.653   8.346 -1.6873  0.4265  0.4305
 9270SOL    HW239273   3.807   4.654   8.435  0.7555 -0.9377 -3.2580
 9271SOL     OW39274   2.170   0.873  11.543  0.2146  0.1236  0.1124
 9271SOL    HW139275   2.125   0.922  11.474 -1.6712 -0.6086  0.8473
 9271SOL    HW239276   2.104   0.808  11.565  0.3663  0.5065  1.7085
 9272SOL     OW39277   2.034   0.164   3.681 -0.2756 -0.6729  0.3042
 9272SOL    HW139278   2.110   0.190   3.629  0.8574 -1.5864  1.5329
 9272SOL    HW239279   1.968   0.138   3.616 -1.7226  1.2320  1.0175
 9273SOL     OW39280   3.254   3.627   2.778 -0.3424 -0.2412 -0.0299
 9273SOL    HW139281   3.348   3.644   2.777 -0.2650 -0.6530  0.2489
 9273SOL    HW239282   3.251   3.532   2.790  1.0410 -0.0716  1.5520
 9274SOL     OW39283   2.645   0.601   2.129 -0.3853 -0.2126 -0.2761
 9274SOL    HW139284   2.652   0.617   2.035  3.7968 -1.6625 -0.2000
 9274SOL    HW239285   2.613   0.511   2.136  0.4418 -0.3649  1.5239
 9275SOL     OW39286   0.247   3.432   5.199 -0.5214  0.3846 -0.5467
 9275SOL    HW139287   0.162   3.476   5.203 -1.0436 -0.6911  0.0656
 9275SOL    HW239288   0.294   3.480   5.131 -0.1346 -2.3583 -2.2070
 9276SOL     OW39289   4.684   4.389   7.424  0.3618  0.2851  0.1143
 9276SOL    HW139290   4.624   4.340   7.368  1.1064  1.1861 -1.4714
 9276SOL    HW239291   4.635   4.472   7.416  2.0082  1.0831 -1.7088
 9277SOL     OW39292   3.996   1.353   4.386  0.6983  0.5483  0.7053
 9277SOL    HW139293   4.013   1.283   4.322 -0.6132 -0.1243  1.0902
 9277SOL    HW239294   4.079   1.400   4.391 -0.1561  1.8510  2.2233
 9278SOL     OW39295   1.847   3.704   5.769  0.2704  0.2258 -0.6016
 9278SOL    HW139296   1.872   3.788   5.807 -0.6190  0.8026 -1.2702
 9278SOL    HW239297   1.825   3.657   5.850  3.4450 -1.5118 -0.7708
 9279SOL     OW39298   3.819   2.259   2.996  0.0050  0.2939  0.0851
 9279SOL    HW139299   3.878   2.285   2.925 -0.0292  1.1228  0.3674
 9279SOL    HW239300   3.734   2.297   2.975  0.4978  1.5653  0.4153
 9280SOL     OW39301   2.708   1.619   9.408  0.1307  0.4070 -0.0914
 9280SOL    HW139302   2.732   1.568   9.331 -2.3603 -1.3714  0.2842
 9280SOL    HW239303   2.686   1.547   9.468  0.1369 -0.7958 -1.5393
 9281SOL     OW39304   1.923   1.761   9.220  0.8554  0.0575 -0.6903
 9281SOL    HW139305   1.933   1.847   9.179 -1.9596  0.2676 -0.9459
 9281SOL    HW239306   1.889   1.801   9.300 -0.5602  0.5737 -1.5451
 9282SOL     OW39307   2.548   0.013   7.177  0.3460 -0.1199  0.3069
 9282SOL    HW139308   2.512   0.051   7.096 -0.4758  0.5223  0.9735
 9282SOL    HW239309   2.532   0.090   7.231 -1.2724  2.2683 -3.5590
 9283SOL     OW39310   1.336   3.827   7.336 -0.3961  0.5061  0.8884
 9283SOL    HW139311   1.392   3.749   7.340  1.1179  1.4754 -1.5338
 9283SOL    HW239312   1.384   3.891   7.389  1.1174  0.3000 -0.2157
 9284SOL     OW39313   0.196   0.138  15.900  0.3655  0.0236 -0.4676
 9284SOL    HW139314   0.130   0.123  15.832 -0.1892 -1.0849  0.3041
 9284SOL    HW239315   0.181   0.056  15.948  2.4212 -0.4594 -0.6455
 9285SOL     OW39316   0.368   2.881   2.254  0.3490 -0.2402  0.6194
 9285SOL    HW139317   0.390   2.899   2.163 -0.9011  3.3629  1.0271
 9285SOL    HW239318   0.273   2.889   2.263  0.2955  1.2333 -1.1100
 9286SOL     OW39319   3.731   3.677   5.111 -0.3743  0.3043  0.1325
 9286SOL    HW139320   3.789   3.711   5.180 -1.7759  1.3507  0.8038
 9286SOL    HW239321   3.650   3.689   5.162 -0.8325  0.8807 -0.7311
 9287SOL     OW39322   4.479   3.713  12.529 -0.1269  0.2087 -0.7161
 9287SOL    HW139323   4.509   3.800  12.557 -0.3973  0.1952 -0.3792
 9287SOL    HW239324   4.415   3.696  12.598  0.5958  0.7368  0.0833
 9288SOL     OW39325   0.054   2.961   6.530 -0.2536 -0.1217 -0.2824
 9288SOL    HW139326   0.010   3.021   6.590  3.3266  1.0404  1.2148
 9288SOL    HW239327   0.006   2.878   6.530 -1.0464  0.3373  0.7551
 9289SOL     OW39328   2.409   3.705  15.173  0.0237  0.1588  0.0149
 9289SOL    HW139329   2.462   3.672  15.101  1.2513 -2.2265  2.0274
 9289SOL    HW239330   2.455   3.781  15.208  0.1395  0.1668 -0.1541
 9290SOL     OW39331   4.343   2.619   1.526 -0.1021  0.3269  0.0982
 9290SOL    HW139332   4.293   2.671   1.589 -0.3854  0.8368 -0.5466
 9290SOL    HW239333   4.300   2.648   1.446  2.8985  2.4517 -0.7637
 9291SOL     OW39334   4.250   0.175  11.521  0.2120 -0.2145  0.3122
 9291SOL    HW139335   4.262   0.250  11.580 -0.8252  0.6626 -0.5869
 9291SOL    HW239336   4.156   0.165  11.504 -0.0291  0.9465  0.9230
 9292SOL     OW39337   3.963   2.400   8.068  0.3220  0.5458  0.1669
 9292SOL    HW139338   3.911   2.334   8.114  1.6834 -0.9527 -0.4412
 9292SOL    HW239339   3.899   2.463   8.034  0.6310  0.8548  0.1645
 9293SOL     OW39340   1.926   0.129   5.904 -0.3164 -0.4244 -0.1999
 9293SOL    HW139341   1.888   0.047   5.938 -0.0484 -0.3171  0.3594
 9293SOL    HW239342   1.943   0.102   5.814  0.7209  0.1926 -0.1848
 9294SOL     OW39343   0.002   0.669  10.117 -0.7012 -0.1154 -0.1047
 9294SOL    HW139344   4.712   0.638  10.028  0.4578 -0.9991 -0.0136
 9294SOL    HW239345   0.054   0.749  10.105  0.4526 -0.4900  2.4715
 9295SOL     OW39346   2.131   2.805   3.248 -0.0705  0.1175  0.3078
 9295SOL    HW139347   2.109   2.758   3.168  2.7148  0.1631 -0.4724
 9295SOL    HW239348   2.160   2.892   3.222 -1.3753  0.2375 -0.7740
 9296SOL     OW39349   4.287   2.286   0.431 -0.3607 -0.0355 -0.0079
 9296SOL    HW139350   4.240   2.334   0.499 -1.2566  0.8407 -1.2581
 9296SOL    HW239351   4.236   2.205   0.437  0.0952 -0.1758  2.0483
 9297SOL     OW39352   0.068   2.581   4.808  0.2539 -0.3489  0.1542
 9297SOL    HW139353   0.144   2.536   4.772  1.2149  0.4126  1.2722
 9297SOL    HW239354   0.003   2.512   4.792  0.0688  0.0549 -0.8767
 9298SOL     OW39355   0.901   1.781   0.344 -0.1548  0.1153 -0.4371
 9298SOL    HW139356   0.886   1.790   0.438  0.9143  2.6193 -0.5165
 9298SOL    HW239357   0.872   1.691   0.329 -0.9091  0.1042  1.1373
 9299SOL     OW39358   0.053   1.891   3.724  0.3504 -0.4368 -0.3436
 9299SOL    HW139359   0.124   1.932   3.674  1.1838 -3.0532 -1.3251
 9299SOL    HW239360   0.076   1.798   3.726  1.6302 -0.0480  3.6351
 9300SOL     OW39361   0.645   1.364   7.095 -1.1172  0.3294  0.4521
 9300SOL    HW139362   0.662   1.293   7.032  1.8460  2.4093 -1.0636
 9300SOL    HW239363   0.564   1.329   7.133 -0.6371 -1.7314 -0.4112
 9301SOL     OW39364   4.695   2.705  14.726  0.6116  0.0606 -0.5474
 9301SOL    HW139365   4.623   2.745  14.677  0.4633 -1.6393 -1.7054
 9301SOL    HW239366   0.009   2.658  14.653  0.5176 -1.6665  0.5204
 9302SOL     OW39367   4.528   3.356   3.839 -0.1689 -0.1439  0.4368
 9302SOL    HW139368   4.553   3.324   3.925 -0.2780 -0.7024  0.2586
 9302SOL    HW239369   4.536   3.452   3.836 -1.0070 -0.0390  1.9332
 9303SOL     OW39370   1.050   1.367   8.311 -0.3179 -0.4261  0.4092
 9303SOL    HW139371   1.039   1.380   8.217  0.8954 -0.1547  0.3061
 9303SOL    HW239372   0.968   1.329   8.342  0.0962  0.1027  2.1573
 9304SOL     OW39373   2.379   4.592   7.329  0.1716  0.0359 -0.6805
 9304SOL    HW139374   2.444   4.599   7.399 -0.9233 -0.8711  0.4323
 9304SOL    HW239375   2.429   4.637   7.261 -1.8197 -0.2791 -2.3666
 9305SOL     OW39376   2.267   1.038   1.893 -0.0117  0.3732  0.8494
 9305SOL    HW139377   2.233   0.952   1.922 -1.3019  0.7296  0.3919
 9305SOL    HW239378   2.275   1.082   1.978 -0.0997 -0.3380  1.2335
 9306SOL     OW39379   4.292   1.071  16.177  0.0080 -0.1520  0.5355
 9306SOL    HW139380   4.248   1.010  16.117  0.5079  2.1798 -2.1789
 9306SOL    HW239381   4.255   1.050  16.263 -1.6512 -0.9653 -0.3820
 9307SOL     OW39382   0.879   1.100  10.795  0.1409  0.0765  0.1765
 9307SOL    HW139383   0.950   1.150  10.835  0.7848 -0.8899  0.2441
 9307SOL    HW239384   0.923   1.023  10.760  0.4326  0.3947 -0.1550
 9308SOL     OW39385   2.969   1.501   2.957 -0.5345  0.5631  0.2735
 9308SOL    HW139386   2.913   1.481   3.032 -0.0961 -0.7880  0.2451
 9308SOL    HW239387   3.000   1.588   2.983 -0.1489  0.7839 -0.9591
 9309SOL     OW39388   0.709   0.692   8.860  0.2753 -0.0117  1.2619
 9309SOL    HW139389   0.768   0.768   8.871  0.5858 -0.0331 -0.3520
 9309SOL    HW239390   0.780   0.628   8.868 -0.2026 -0.7064 -0.1388
 9310SOL     OW39391   4.233   0.744  15.782 -0.9127  0.0586 -0.3431
 9310SOL    HW139392   4.204   0.835  15.773  2.1845  0.8883 -2.1443
 9310SOL    HW239393   4.296   0.754  15.853 -0.1130 -2.2695 -0.7174
 9311SOL     OW39394   1.039   2.202   4.328 -0.7634  0.5099  0.1187
 9311SOL    HW139395   1.070   2.255   4.402 -0.8181 -1.2374  1.3940
 9311SOL    HW239396   0.965   2.161   4.373  0.6196  0.7587  2.6454
 9312SOL     OW39397   1.532   3.510   6.407 -0.5753 -0.6164 -0.2273
 9312SOL    HW139398   1.497   3.520   6.496 -0.4384 -1.6025 -0.0640
 9312SOL    HW239399   1.489   3.583   6.363 -0.8614 -2.4484 -2.9710
 9313SOL     OW39400   2.194   2.522   2.288 -0.4048  0.2103  0.6003
 9313SOL    HW139401   2.104   2.544   2.263  0.1173  1.1641 -0.4422
 9313SOL    HW239402   2.231   2.609   2.303  0.4714 -0.6759  3.5214
 9314SOL     OW39403   3.359   4.113   6.832 -0.0275 -0.4617 -0.4257
 9314SOL    HW139404   3.266   4.133   6.828 -0.3336 -1.7109  0.2711
 9314SOL    HW239405   3.400   4.189   6.793 -3.2225  1.1453 -0.6602
 9315SOL     OW39406   3.289   4.033   7.538 -0.1635  0.1479  0.2674
 9315SOL    HW139407   3.246   3.969   7.481 -2.8821  3.4048 -1.3715
 9315SOL    HW239408   3.368   3.991   7.571 -0.0135 -0.3804 -0.7488
 9316SOL     OW39409   3.648   4.421   4.967  0.1772  0.2295 -0.0763
 9316SOL    HW139410   3.678   4.358   5.032  2.0747  0.3101 -0.8868
 9316SOL    HW239411   3.727   4.467   4.940 -0.0205  0.3086 -0.5314
 9317SOL     OW39412   1.775   1.224   3.089 -0.0645  0.3138  0.3181
 9317SOL    HW139413   1.775   1.262   3.177 -1.3993  1.8388 -0.3344
 9317SOL    HW239414   1.862   1.248   3.057 -0.7149  0.7480 -1.1363
 9318SOL     OW39415   2.678   3.592   1.047 -0.2103  0.2938  0.2416
 9318SOL    HW139416   2.750   3.629   1.097  0.3129 -0.0369 -0.2764
 9318SOL    HW239417   2.623   3.554   1.117  1.6448  0.2296  1.6459
 9319SOL     OW39418   4.363   3.070  13.861  0.1645  0.0950 -0.3730
 9319SOL    HW139419   4.297   3.108  13.803  2.5807  0.0635 -3.1742
 9319SOL    HW239420   4.313   3.001  13.905  2.3352  0.3072  2.4610
 9320SOL     OW39421   3.664   1.238   2.152  0.2294 -1.0879 -0.0380
 9320SOL    HW139422   3.745   1.277   2.120 -0.3570  0.7476  0.7362
 9320SOL    HW239423   3.697   1.164   2.204  0.5221 -1.4238 -0.6974
 9321SOL     OW39424   2.382   3.786   4.118 -0.2548  0.3653  0.2286
 9321SOL    HW139425   2.411   3.871   4.086 -1.2029  0.5981  0.0001
 9321SOL    HW239426   2.298   3.794   4.163  0.4484 -1.3365  1.8676
 9322SOL     OW39427   2.045   0.471   5.348  0.0387 -0.2158 -0.0111
 9322SOL    HW139428   2.117   0.533   5.353  0.3942 -0.8434  2.6473
 9322SOL    HW239429   1.984   0.522   5.401  0.4128 -0.4203  0.6136
 9323SOL     OW39430   1.265   3.270  17.182 -0.5732  0.0082  0.1739
 9323SOL    HW139431   1.202   3.236  17.246 -0.3482 -1.4950 -0.4046
 9323SOL    HW239432   1.201   3.325  17.137 -0.3060 -0.3888 -0.6892
 9324SOL     OW39433   3.566   0.254   6.164  0.3865  0.0500  0.1273
 9324SOL    HW139434   3.621   0.286   6.093 -0.6029 -1.0454 -1.1551
 9324SOL    HW239435   3.606   0.289   6.243  0.4552 -0.9052  0.5154
 9325SOL     OW39436   2.401   2.601   1.581  0.2127  0.0683  0.5737
 9325SOL    HW139437   2.322   2.555   1.610  0.2384 -0.3783 -0.0627
 9325SOL    HW239438   2.425   2.652   1.658  2.4957 -0.6155  0.3306
 9326SOL     OW39439   2.021   1.979   0.661  0.2003 -0.7165  0.0994
 9326SOL    HW139440   1.973   1.986   0.578 -0.6796  1.1547  0.7647
 9326SOL    HW239441   2.069   2.061   0.673  0.2947 -0.7551 -0.0213
 9327SOL     OW39442   3.622   4.142   1.494  0.2390 -0.7579 -0.2280
 9327SOL    HW139443   3.647   4.064   1.445  1.0872 -0.4242 -0.3309
 9327SOL    HW239444   3.666   4.131   1.579  0.1179  1.5289  0.1313
 9328SOL     OW39445   1.678   4.143   6.826 -0.3659  0.4601 -0.0597
 9328SOL    HW139446   1.724   4.221   6.794 -0.1618  0.6871  0.7672
 9328SOL    HW239447   1.621   4.134   6.750 -0.1358  1.9204 -0.4175
 9329SOL     OW39448   1.163   3.698   3.314 -0.4598  0.2392  0.3965
 9329SOL    HW139449   1.101   3.694   3.242 -1.0020 -1.7634  0.9914
 9329SOL    HW239450   1.251   3.706   3.277 -0.1219  1.2490  1.4074
 9330SOL     OW39451   1.833   2.208   7.335  1.0141  0.1966  0.6017
 9330SOL    HW139452   1.862   2.272   7.400 -1.0639  0.7845  0.9194
 9330SOL    HW239453   1.906   2.210   7.272 -1.0346  0.8371 -1.7366
 9331SOL     OW39454   1.980   1.893   6.856 -0.0742 -0.1721  0.1533
 9331SOL    HW139455   1.977   1.973   6.909  1.6479 -0.1354  0.2001
 9331SOL    HW239456   1.984   1.935   6.770  2.0676 -1.9552 -0.5911
 9332SOL     OW39457   3.219   2.254  10.543 -0.3886 -0.1182 -0.2444
 9332SOL    HW139458   3.161   2.309  10.595  0.7149  1.2038 -0.4162
 9332SOL    HW239459   3.163   2.243  10.466 -0.9126 -1.8588  0.3853
 9333SOL     OW39460   1.989   3.742   5.419  0.6392 -0.0412 -0.2111
 9333SOL    HW139461   1.967   3.656   5.455 -1.1373  0.3799 -0.2993
 9333SOL    HW239462   1.905   3.788   5.409  0.9141  0.8914  1.7848
 9334SOL     OW39463   4.212   1.761   2.112  0.2347 -0.0066  0.3888
 9334SOL    HW139464   4.300   1.786   2.141  0.7052 -0.0420 -1.0080
 9334SOL    HW239465   4.193   1.686   2.168  2.9022 -0.5825  0.5376
 9335SOL     OW39466   3.908   4.662   6.312  0.2901 -0.3141 -0.1810
 9335SOL    HW139467   3.840   4.608   6.272  1.0978  0.3020 -2.4099
 9335SOL    HW239468   3.870   4.687   6.396 -0.0441  0.6810 -0.6220
 9336SOL     OW39469   0.584   3.053  12.806  0.1973 -0.2813  0.4166
 9336SOL    HW139470   0.668   3.018  12.837  0.7776  2.8774  2.4567
 9336SOL    HW239471   0.551   2.972  12.769  3.1218 -0.6681 -1.3726
 9337SOL     OW39472   4.443   2.606   4.372 -0.5028  0.7596 -0.4368
 9337SOL    HW139473   4.379   2.568   4.312 -1.9797 -0.0746  1.6718
 9337SOL    HW239474   4.390   2.608   4.452  0.3814 -0.8779  0.1874
 9338SOL     OW39475   4.702   0.816  10.989 -0.1086 -0.0832  0.1649
 9338SOL    HW139476   4.699   0.722  11.008  1.3805 -0.4443 -1.3461
 9338SOL    HW239477   4.687   0.823  10.894  1.7092 -1.5770 -0.2456
 9339SOL     OW39478   4.001   2.481   0.832 -0.4918 -0.3083  0.6127
 9339SOL    HW139479   3.908   2.502   0.825 -0.0446  1.6553  0.4433
 9339SOL    HW239480   4.020   2.508   0.922  0.1296 -1.8921  0.9600
 9340SOL     OW39481   0.256   4.690  10.197  0.0728  0.6361 -0.1878
 9340SOL    HW139482   0.198   0.034  10.227 -0.7687 -0.6653  1.2611
 9340SOL    HW239483   0.207   4.649  10.125  1.7861 -0.0466 -0.9713
 9341SOL     OW39484   3.773   3.029   7.544  0.3207  0.2617 -0.6522
 9341SOL    HW139485   3.797   3.081   7.621 -0.8572 -0.1782  0.0001
 9341SOL    HW239486   3.739   2.952   7.588  0.0587  0.5711 -0.3137
 9342SOL     OW39487   2.489   3.656   0.312  0.0741 -0.3197  0.2828
 9342SOL    HW139488   2.514   3.622   0.226 -0.4721  2.7272 -1.0816
 9342SOL    HW239489   2.559   3.714   0.341 -0.9679  1.0670  0.0338
 9343SOL     OW39490   0.470   0.277   1.992 -0.4262  0.1371 -0.6234
 9343SOL    HW139491   0.516   0.218   1.932 -0.2154  1.3586 -1.6524
 9343SOL    HW239492   0.547   0.332   2.011 -0.0184 -0.6457  0.0015
 9344SOL     OW39493   4.432   0.599   5.494  0.2538 -0.6972 -0.0506
 9344SOL    HW139494   4.411   0.602   5.400  3.9197  2.6150 -0.7680
 9344SOL    HW239495   4.421   0.507   5.519 -0.8918 -0.1174  1.5576
 9345SOL     OW39496   2.896   2.385   2.247 -0.1512  0.1003 -0.2198
 9345SOL    HW139497   2.898   2.481   2.248  2.3089  0.0290  0.2973
 9345SOL    HW239498   2.898   2.376   2.342 -1.3970 -0.8359 -0.2820
 9346SOL     OW39499   0.611   1.656   5.930 -0.0879  0.6247 -0.5819
 9346SOL    HW139500   0.541   1.618   5.982  0.9874  0.4550  0.7319
 9346SOL    HW239501   0.681   1.592   5.944 -1.0172 -0.2796 -0.0273
 9347SOL     OW39502   0.485   3.174  11.368  0.1903 -0.1713 -0.0771
 9347SOL    HW139503   0.536   3.241  11.323 -0.0414  0.4110  0.5152
 9347SOL    HW239504   0.446   3.222  11.441 -1.8473  0.1083 -1.3351
 9348SOL     OW39505   3.054   3.894   1.540  0.0818  0.0432 -0.1472
 9348SOL    HW139506   3.122   3.921   1.601  1.3313  0.2184 -1.6298
 9348SOL    HW239507   2.979   3.890   1.600 -0.3305  1.9387 -0.5601
 9349SOL     OW39508   4.680   0.533   6.132 -0.2564 -0.1352  0.2030
 9349SOL    HW139509   4.674   0.560   6.040  2.3831 -0.4328 -0.0627
 9349SOL    HW239510   0.001   0.610   6.162 -0.6986  1.3205 -2.8185
 9350SOL     OW39511   0.056   4.454  11.630  0.0717  0.0850 -0.0861
 9350SOL    HW139512   0.056   4.426  11.721  0.7582 -0.4241 -0.2458
 9350SOL    HW239513   0.139   4.416  11.602 -0.8697 -0.3446 -2.3362
 9351SOL     OW39514   2.891   3.689   7.431 -0.1752 -0.4616 -0.2643
 9351SOL    HW139515   2.930   3.642   7.505 -0.8311  0.3159  0.5818
 9351SOL    HW239516   2.798   3.668   7.440 -0.1252 -1.1529 -1.3422
 9352SOL     OW39517   2.907   2.329   0.083 -0.2685 -0.1968  0.1931
 9352SOL    HW139518   2.843   2.400   0.091  1.4191  1.0584  2.5771
 9352SOL    HW239519   2.988   2.371   0.112  1.2092 -1.1923 -2.4920
 9353SOL     OW39520   0.199   4.238   8.290 -0.1428 -0.3994 -0.6430
 9353SOL    HW139521   0.157   4.199   8.214 -0.9087  0.8302 -0.8428
 9353SOL    HW239522   0.126   4.290   8.324 -0.3808 -0.5280 -0.9568
 9354SOL     OW39523   0.474   2.789   1.747 -0.0386 -0.8486 -0.3874
 9354SOL    HW139524   0.399   2.790   1.806  0.1341 -2.1365 -0.1346
 9354SOL    HW239525   0.519   2.724   1.802 -0.4214 -2.2609 -1.7544
 9355SOL     OW39526   1.642   2.767  11.965 -0.2113  0.1565  0.2267
 9355SOL    HW139527   1.697   2.799  11.894 -0.0371 -1.2599 -0.2916
 9355SOL    HW239528   1.569   2.827  11.972  0.0177  0.4883 -0.2573
 9356SOL     OW39529   1.118   2.104   5.016 -0.1104  0.0894 -0.3456
 9356SOL    HW139530   1.134   2.019   5.057  1.4285  1.0492  1.0468
 9356SOL    HW239531   1.193   2.153   5.049  0.4003 -1.4997  0.8476
 9357SOL     OW39532   0.016   2.367   8.098  0.2556  0.3965 -0.5779
 9357SOL    HW139533   4.713   2.455   8.073 -0.5233  0.0060 -1.0232
 9357SOL    HW239534   0.055   2.375   8.185 -0.8700 -0.4980  0.0077
 9358SOL     OW39535   4.478   1.908   6.165  0.1398 -0.7779 -0.3396
 9358SOL    HW139536   4.512   1.980   6.218  0.7161 -1.2470 -0.0715
 9358SOL    HW239537   4.527   1.905   6.082 -1.2911 -0.5134 -1.2033
 9359SOL     OW39538   2.564   3.411   3.730 -0.0481  0.4661 -0.2013
 9359SOL    HW139539   2.647   3.362   3.737 -0.5545 -0.4019 -0.1854
 9359SOL    HW239540   2.596   3.501   3.728 -0.5958  0.6570 -0.2629
 9360SOL     OW39541   0.646   2.840   4.870 -0.5744 -0.1215 -0.0786
 9360SOL    HW139542   0.594   2.761   4.860 -1.0683 -0.0272  1.7224
 9360SOL    HW239543   0.613   2.873   4.954 -1.0194  1.9694 -1.0580
 9361SOL     OW39544   2.660   2.192  14.442 -0.3897 -0.1294 -0.2650
 9361SOL    HW139545   2.750   2.162  14.455 -0.0212  0.3367 -1.7671
 9361SOL    HW239546   2.621   2.106  14.430 -2.2115  0.8506 -1.2830
 9362SOL     OW39547   2.736   2.152   1.117 -0.0244 -0.6147 -0.3684
 9362SOL    HW139548   2.787   2.203   1.054 -1.3962 -1.0785 -1.8563
 9362SOL    HW239549   2.685   2.218   1.164 -0.7974 -1.2517 -0.3195
 9363SOL     OW39550   4.233   4.702   9.199  0.0935  0.2909  0.6887
 9363SOL    HW139551   4.271   0.033   9.266 -0.4458  1.4892 -0.0372
 9363SOL    HW239552   4.153   4.672   9.241  0.1189 -0.7091  0.0294
 9364SOL     OW39553   4.537   0.604   8.495 -0.6990 -0.1749 -0.1131
 9364SOL    HW139554   4.596   0.631   8.424  0.4915 -0.5796  0.7165
 9364SOL    HW239555   4.529   0.685   8.545 -1.3577 -1.7705  2.3459
 9365SOL     OW39556   0.228   3.716   6.303  0.7794 -0.5091 -0.6287
 9365SOL    HW139557   0.167   3.786   6.281 -0.8899 -1.5849  0.6557
 9365SOL    HW239558   0.181   3.639   6.270  0.9399  0.4801 -3.1770
 9366SOL     OW39559   3.381   2.162   5.127  0.1711  0.1348 -0.1922
 9366SOL    HW139560   3.403   2.076   5.162 -0.8369  0.1544  0.4852
 9366SOL    HW239561   3.432   2.160   5.045  2.8595  1.0294  1.4594
 9367SOL     OW39562   1.673   3.819   7.553 -0.1272  0.4709  0.1817
 9367SOL    HW139563   1.760   3.805   7.592  0.0947 -0.0885 -0.5185
 9367SOL    HW239564   1.685   3.842   7.461  3.9825 -1.3945  0.2395
 9368SOL     OW39565   3.282   0.366   1.749  0.0631 -0.0094 -0.1803
 9368SOL    HW139566   3.286   0.457   1.780  0.2209 -0.0825  0.0105
 9368SOL    HW239567   3.373   0.348   1.774  0.2778  1.0232 -0.1945
 9369SOL     OW39568   0.154   2.844   4.211  0.0518  0.2290  0.6762
 9369SOL    HW139569   0.193   2.762   4.182 -0.5778  0.9657 -2.2732
 9369SOL    HW239570   0.230   2.878   4.259  0.5073  0.6536 -0.3578
 9370SOL     OW39571   1.105   3.593   5.438 -0.2723  0.2556  0.2179
 9370SOL    HW139572   1.038   3.649   5.400 -0.2101 -0.1511 -0.4997
 9370SOL    HW239573   1.062   3.551   5.512  1.7589 -0.6592  0.9002
 9371SOL     OW39574   3.173   2.420  10.805  0.2040  0.2266 -0.7510
 9371SOL    HW139575   3.097   2.399  10.859  1.2536 -0.7292  0.3437
 9371SOL    HW239576   3.144   2.496  10.754 -1.7496  0.8854  1.3613
 9372SOL     OW39577   1.032   0.062  11.079 -0.1049  0.2641  0.6926
 9372SOL    HW139578   0.959   0.013  11.116  0.4604 -1.3147 -0.2754
 9372SOL    HW239579   0.996   0.060  10.990 -0.1571 -1.8836  0.7669
 9373SOL     OW39580   3.468   2.669  16.697 -0.4061 -0.1179  0.3424
 9373SOL    HW139581   3.493   2.716  16.618 -0.3762  0.9877  1.0010
 9373SOL    HW239582   3.548   2.625  16.724  0.2060  0.8343  0.1117
 9374SOL     OW39583   2.855   0.517   9.710 -0.7147 -0.4978 -0.7429
 9374SOL    HW139584   2.760   0.505   9.707 -0.6166 -1.3381 -0.6874
 9374SOL    HW239585   2.875   0.527   9.617  0.3001 -2.0395 -0.6928
 9375SOL     OW39586   4.344   1.045   5.328 -0.1712  0.1461 -0.0482
 9375SOL    HW139587   4.422   1.000   5.294  0.1187 -1.3011  2.5994
 9375SOL    HW239588   4.376   1.133   5.350  2.8571 -0.8431 -0.3808
 9376SOL     OW39589   0.186   4.464   5.929 -0.4632  1.1714 -0.2720
 9376SOL    HW139590   0.265   4.462   5.875  0.8042 -2.0251  1.7162
 9376SOL    HW239591   0.117   4.418   5.880 -0.1508 -1.8868  2.1546
 9377SOL     OW39592   0.380   1.477   5.093 -1.2678 -0.4915 -0.0057
 9377SOL    HW139593   0.290   1.458   5.063 -1.7478  0.6395  0.7346
 9377SOL    HW239594   0.366   1.443   5.181  1.2428 -0.2440  0.4788
 9378SOL     OW39595   4.498   1.954   0.286  0.0827  0.8801 -0.0927
 9378SOL    HW139596   4.492   2.045   0.314  2.2648  1.5683 -1.8509
 9378SOL    HW239597   4.577   1.929   0.335 -2.0644  2.2952  4.0693
 9379SOL     OW39598   0.775   0.543  14.393  0.6912  0.0719  0.6153
 9379SOL    HW139599   0.859   0.580  14.367  0.6657 -0.1279  0.2422
 9379SOL    HW239600   0.757   0.489  14.315  2.2082 -1.6010  1.4194
 9380SOL     OW39601   1.504   0.698   1.175  0.0615 -0.2547  0.0875
 9380SOL    HW139602   1.469   0.729   1.091 -0.8634 -1.3024  0.0925
 9380SOL    HW239603   1.519   0.609   1.142  1.1816 -0.3926  0.9691
 9381SOL     OW39604   2.239   4.374   3.523 -0.2542  0.2049 -0.3138
 9381SOL    HW139605   2.261   4.407   3.436  1.0306  1.3941  0.4552
 9381SOL    HW239606   2.267   4.446   3.581  0.3712  2.2360 -3.1408
 9382SOL     OW39607   2.059   4.153   5.804 -0.0033  0.4289  0.6387
 9382SOL    HW139608   2.012   4.236   5.801 -3.1853 -1.4935 -2.3845
 9382SOL    HW239609   2.142   4.189   5.834  0.0331  0.9600 -0.1190
 9383SOL     OW39610   3.476   0.651   7.700  0.3557  0.3330 -0.1249
 9383SOL    HW139611   3.443   0.687   7.782  1.1488 -2.4788  1.3974
 9383SOL    HW239612   3.515   0.728   7.658 -0.9193  1.2201  0.3191
 9384SOL     OW39613   4.517   4.216   2.428 -0.1505  0.4431 -0.3463
 9384SOL    HW139614   4.549   4.196   2.341  0.2134  1.5457 -0.4666
 9384SOL    HW239615   4.518   4.134   2.478  1.0641  0.2581 -0.6779
 9385SOL     OW39616   2.230   0.476   8.063  0.1480  0.4116  0.6066
 9385SOL    HW139617   2.233   0.426   8.144  0.0372  1.0987  1.0374
 9385SOL    HW239618   2.291   0.549   8.077 -1.1846  1.1026  2.8372
 9386SOL     OW39619   0.409   4.386   9.893 -0.4659  0.6919 -0.5609
 9386SOL    HW139620   0.470   4.322   9.857 -1.0921  0.1393 -0.6552
 9386SOL    HW239621   0.431   4.467   9.848 -0.2046 -0.4421 -2.4640
 9387SOL     OW39622   4.061   0.399   5.894 -0.2535 -0.9449 -0.2351
 9387SOL    HW139623   4.121   0.435   5.829 -0.0025 -0.4399  0.2726
 9387SOL    HW239624   4.044   0.310   5.863  1.5885 -1.1567 -0.6197
 9388SOL     OW39625   1.964   2.529   2.648  0.0117 -0.9746  0.4144
 9388SOL    HW139626   2.040   2.478   2.620 -2.0902 -3.2864 -1.0975
 9388SOL    HW239627   2.004   2.616   2.652  0.1160 -0.9949 -0.1804
 9389SOL     OW39628   1.593   2.222  14.543  0.2085  0.8941 -0.4464
 9389SOL    HW139629   1.556   2.254  14.625  0.6492  0.0378  0.0841
 9389SOL    HW239630   1.585   2.127  14.545  2.1518  0.7384  0.0005
 9390SOL     OW39631   0.887   4.478   8.293  0.4634  0.2125  0.4017
 9390SOL    HW139632   0.793   4.465   8.286  0.7431 -0.5525 -1.6879
 9390SOL    HW239633   0.907   4.477   8.387  1.3211  0.5191  0.2270
 9391SOL     OW39634   1.918   1.421   7.047 -0.5051  0.1461 -0.0975
 9391SOL    HW139635   1.995   1.386   7.092 -0.6756 -0.0785  0.0207
 9391SOL    HW239636   1.968   1.475   6.986  0.2722 -1.3263 -0.7612
 9392SOL     OW39637   1.164   0.970   4.543 -0.5761 -0.2978 -0.0514
 9392SOL    HW139638   1.234   1.034   4.558 -2.3595  1.4613  0.8066
 9392SOL    HW239639   1.206   0.917   4.475  1.9739  1.9189 -0.1954
 9393SOL     OW39640   0.176   1.567  10.240  0.6029  0.2350  0.3381
 9393SOL    HW139641   0.193   1.473  10.244 -0.9340 -0.0524  0.1069
 9393SOL    HW239642   0.128   1.576  10.322 -0.1023 -2.3134  0.2013
 9394SOL     OW39643   2.424   2.605   6.188 -0.1000  0.4374  0.8769
 9394SOL    HW139644   2.380   2.616   6.272 -1.5431 -1.9475  0.4122
 9394SOL    HW239645   2.419   2.687   6.139  0.0222 -0.9394 -1.4601
 9395SOL     OW39646   0.886   3.478   5.243 -0.1601  0.1886  0.4159
 9395SOL    HW139647   0.795   3.484   5.213  0.1571  1.7772 -0.1729
 9395SOL    HW239648   0.880   3.393   5.288  0.8240 -0.1648 -0.1260
 9396SOL     OW39649   2.556   2.032   9.011 -0.5596 -0.1371  0.3035
 9396SOL    HW139650   2.522   2.088   9.080 -1.2352 -0.9988  0.6649
 9396SOL    HW239651   2.552   1.946   9.053 -0.2511 -1.4334 -2.3229
 9397SOL     OW39652   1.809   0.057   8.217 -0.3607 -0.1877  0.1242
 9397SOL    HW139653   1.889   0.092   8.178 -0.9712  0.6240 -0.4085
 9397SOL    HW239654   1.756   0.094   8.146  0.7321  0.4350 -0.3613
 9398SOL     OW39655   1.777   1.986   0.992 -0.2718  0.3748  0.1681
 9398SOL    HW139656   1.711   1.918   0.980  1.6608 -1.3797 -0.5761
 9398SOL    HW239657   1.846   1.933   0.952  0.5818  3.1860 -2.1280
 9399SOL     OW39658   3.604   2.889   9.679  0.1603 -0.3450 -0.1687
 9399SOL    HW139659   3.613   2.982   9.656  2.8558 -0.2739  1.1498
 9399SOL    HW239660   3.684   2.879   9.731 -0.4805  1.8044  1.2853
 9400SOL     OW39661   2.224   2.068   8.948  0.0827  0.5699  0.5237
 9400SOL    HW139662   2.248   2.141   8.890 -0.0603 -0.6233 -1.0233
 9400SOL    HW239663   2.300   2.012   8.932 -0.7367 -0.8471  1.6078
 9401SOL     OW39664   3.361   0.604   4.437  0.3503  0.0315  0.1414
 9401SOL    HW139665   3.449   0.592   4.400  0.1708 -0.8867 -0.0011
 9401SOL    HW239666   3.333   0.514   4.456 -1.6237  0.9634  1.6746
 9402SOL     OW39667   3.510   2.160   3.220  0.2496 -0.0571  0.0318
 9402SOL    HW139668   3.511   2.255   3.230 -2.9212  0.3035 -3.2070
 9402SOL    HW239669   3.448   2.144   3.149 -0.5282  3.0821 -0.0105
 9403SOL     OW39670   0.691   1.697  16.052  0.5089 -0.0403  0.8362
 9403SOL    HW139671   0.774   1.727  16.014 -0.5733 -0.1326 -1.6195
 9403SOL    HW239672   0.636   1.765  16.014  1.2649 -0.3433 -0.7984
 9404SOL     OW39673   2.376   0.932   1.685  0.3073 -0.1243 -0.5366
 9404SOL    HW139674   2.355   0.969   1.771 -0.7380 -0.2076 -0.7531
 9404SOL    HW239675   2.390   1.009   1.630 -2.4784  1.2709  0.6912
 9405SOL     OW39676   1.819   4.272   1.386 -0.2816  0.4630  0.3349
 9405SOL    HW139677   1.871   4.247   1.463 -3.0108 -1.9133  1.3685
 9405SOL    HW239678   1.747   4.318   1.430  1.0357  1.7094  1.2085
 9406SOL     OW39679   2.699   0.308   4.621  0.2011 -0.2872 -0.0999
 9406SOL    HW139680   2.773   0.266   4.666  0.6958  0.2344 -0.4260
 9406SOL    HW239681   2.661   0.226   4.590 -0.2176  0.8659 -2.6014
 9407SOL     OW39682   0.773   4.643   4.913 -0.3498  0.0929  0.0427
 9407SOL    HW139683   0.739   0.004   4.891  2.3039  0.6106 -2.0923
 9407SOL    HW239684   0.860   4.658   4.950 -0.0828  0.6410 -0.7930
 9408SOL     OW39685   0.274   2.135   5.899 -0.1161 -0.3940  0.3176
 9408SOL    HW139686   0.367   2.111   5.897  0.5108  1.9165  1.3797
 9408SOL    HW239687   0.270   2.229   5.919  0.6006 -0.2121 -0.4051
 9409SOL     OW39688   3.484   2.769  10.351  0.6337 -0.3254  1.5854
 9409SOL    HW139689   3.562   2.821  10.371 -0.0225  1.1306  0.3415
 9409SOL    HW239690   3.515   2.684  10.383 -0.3045 -0.5662  1.8381
 9410SOL     OW39691   2.459   3.206  14.009  0.8036 -0.0097 -0.5415
 9410SOL    HW139692   2.512   3.131  13.984  0.1884 -0.1584 -1.4295
 9410SOL    HW239693   2.400   3.207  13.933 -0.8728 -1.0121  0.7297
 9411SOL     OW39694   0.668   1.134   5.686 -0.1594 -0.1244  0.2564
 9411SOL    HW139695   0.674   1.064   5.620  1.5889 -1.7234  2.0901
 9411SOL    HW239696   0.574   1.136   5.704 -0.0322  2.0791  0.6694
 9412SOL     OW39697   4.212   0.444   5.134  0.2347 -0.0963  0.4402
 9412SOL    HW139698   4.122   0.473   5.150  0.5235  0.6552  0.7220
 9412SOL    HW239699   4.271   0.516   5.157  0.9328 -0.0406 -1.5717
 9413SOL     OW39700   0.967   0.694   3.100 -0.3940 -0.3001  0.1411
 9413SOL    HW139701   0.943   0.678   3.191  0.0863  0.7084  0.4428
 9413SOL    HW239702   1.062   0.685   3.104 -0.4476 -0.6785  0.5037
 9414SOL     OW39703   3.157   4.235   1.875  0.4625  0.0262  0.2085
 9414SOL    HW139704   3.185   4.327   1.874  0.9215 -0.1085  0.8140
 9414SOL    HW239705   3.178   4.216   1.784 -3.3410 -1.3413 -0.3785
 9415SOL     OW39706   3.605   0.671   9.264 -0.0275  0.0995  0.4855
 9415SOL    HW139707   3.596   0.597   9.204  0.3949  0.2433  0.2449
 9415SOL    HW239708   3.699   0.663   9.280 -0.5435 -0.2171  3.3396
 9416SOL     OW39709   2.654   3.488   2.020  0.4055  0.5667  0.0328
 9416SOL    HW139710   2.709   3.410   2.016 -0.8763 -0.1898 -2.6458
 9416SOL    HW239711   2.658   3.525   1.931  1.6345 -1.5522 -0.8036
 9417SOL     OW39712   1.291   2.160   8.163 -0.0910  0.3723 -0.3142
 9417SOL    HW139713   1.378   2.126   8.140 -1.1440 -1.7485 -1.2058
 9417SOL    HW239714   1.302   2.206   8.246  2.7788 -1.9559  0.6144
 9418SOL     OW39715   4.455   0.744   2.096 -0.3130 -0.5395  0.0241
 9418SOL    HW139716   4.444   0.834   2.065 -0.9719 -0.7700 -0.3949
 9418SOL    HW239717   4.370   0.741   2.140 -0.6562  1.7193 -0.4509
 9419SOL     OW39718   2.983   1.152   6.480  0.2641 -0.1052  0.2146
 9419SOL    HW139719   2.954   1.231   6.527  0.2905  0.3382 -0.5133
 9419SOL    HW239720   2.896   1.119   6.458  1.2466 -1.7289 -1.1794
 9420SOL     OW39721   4.098   3.220   6.672 -0.3194  0.1959  0.5810
 9420SOL    HW139722   4.097   3.251   6.582 -1.7661 -0.5327  0.3430
 9420SOL    HW239723   4.058   3.294   6.718 -0.4494  0.0088  0.7740
 9421SOL     OW39724   2.387   0.404   4.437 -0.1067 -0.0996  0.0494
 9421SOL    HW139725   2.474   0.442   4.431 -0.7155  1.4593  1.0207
 9421SOL    HW239726   2.396   0.316   4.400 -0.1975 -0.4885  0.9640
 9422SOL     OW39727   4.461   4.338   3.948 -0.1967 -0.5054 -0.4374
 9422SOL    HW139728   4.444   4.305   4.036  2.4319 -0.9711 -0.1111
 9422SOL    HW239729   4.409   4.419   3.952  0.5362  0.0306 -1.6627
 9423SOL     OW39730   3.716   4.437   5.893 -0.3900 -0.2929  0.0058
 9423SOL    HW139731   3.731   4.384   5.814 -1.6391 -0.1275 -0.3376
 9423SOL    HW239732   3.805   4.460   5.919 -1.0037  0.5617  1.3317
 9424SOL     OW39733   2.755   4.320   7.083 -0.2950 -0.1620 -0.0996
 9424SOL    HW139734   2.827   4.354   7.030  0.8118 -1.0386  0.8394
 9424SOL    HW239735   2.684   4.342   7.023 -0.4299  1.6303  0.6918
 9425SOL     OW39736   0.883   0.773   5.101 -0.5842  0.7710  0.4963
 9425SOL    HW139737   0.890   0.727   5.017  0.6878 -1.6877  1.9571
 9425SOL    HW239738   0.809   0.830   5.081 -2.2135 -0.5952  2.5456
 9426SOL     OW39739   1.313   0.486   7.215  0.4987 -0.4517 -0.3493
 9426SOL    HW139740   1.318   0.539   7.136  0.5740 -1.1654 -0.8223
 9426SOL    HW239741   1.221   0.496   7.239  1.0209 -0.0384  1.5134
 9427SOL     OW39742   4.069   1.962   8.081 -0.2654 -0.0322 -0.2082
 9427SOL    HW139743   4.096   1.881   8.126  1.8094  2.1878  2.5684
 9427SOL    HW239744   4.153   1.994   8.050 -0.7922  1.9912  0.4800
 9428SOL     OW39745   2.330   1.897   9.327  0.1104  0.4798 -0.6562
 9428SOL    HW139746   2.351   1.877   9.236 -0.3967  1.5135 -1.0092
 9428SOL    HW239747   2.407   1.860   9.370 -1.7241 -1.6488  0.7834
 9429SOL     OW39748   4.355   0.500  17.659  0.1725 -0.2592  0.5581
 9429SOL    HW139749   4.433   0.556  17.657 -0.5146  0.5892 -1.9532
 9429SOL    HW239750   4.344   0.468   0.044  1.9417 -0.9933  0.5285
 9430SOL     OW39751   2.325   4.378  14.158  0.1383  0.4071  0.2591
 9430SOL    HW139752   2.274   4.336  14.088  1.6365 -0.3315 -0.3987
 9430SOL    HW239753   2.396   4.426  14.116  1.4526 -2.1784 -0.4502
 9431SOL     OW39754   2.901   2.340  16.459  0.2242 -0.2502 -0.2727
 9431SOL    HW139755   2.915   2.393  16.381 -0.3384 -2.4925 -1.8752
 9431SOL    HW239756   2.825   2.392  16.487  1.8124  1.4552  0.8625
 9432SOL     OW39757   0.633   4.499   9.729 -0.4474  0.0977 -0.1036
 9432SOL    HW139758   0.577   4.429   9.696  1.0896 -0.5390 -1.3756
 9432SOL    HW239759   0.716   4.450   9.726 -1.3726 -1.4998  0.0163
 9433SOL     OW39760   0.765   4.138   3.626  0.5187 -0.2397  0.3308
 9433SOL    HW139761   0.783   4.097   3.542 -2.1796 -0.4041 -0.1814
 9433SOL    HW239762   0.671   4.118   3.628  0.1982  0.9676 -1.9647
 9434SOL     OW39763   4.119   3.539  13.593 -0.0461  0.4886 -0.6832
 9434SOL    HW139764   4.090   3.554  13.504 -1.7400  2.3639  0.1983
 9434SOL    HW239765   4.173   3.460  13.587 -0.3941  0.0872  1.4585
 9435SOL     OW39766   4.325   1.993   4.744  0.2250  0.3721 -0.1400
 9435SOL    HW139767   4.279   1.961   4.667  0.7104 -1.8933  0.4901
 9435SOL    HW239768   4.264   1.971   4.815 -0.0199 -2.4780 -1.2393
 9436SOL     OW39769   1.513   1.774  10.935  0.0464 -0.1399 -0.1031
 9436SOL    HW139770   1.538   1.682  10.928 -1.4199 -0.6515  1.3072
 9436SOL    HW239771   1.503   1.802  10.844 -0.4379  1.1015  0.3303
 9437SOL     OW39772   3.969   3.757  10.387 -0.3125 -0.2842 -0.6425
 9437SOL    HW139773   3.982   3.851  10.384  1.0899 -0.4116  1.6538
 9437SOL    HW239774   3.955   3.751  10.481 -1.7067  0.2533 -0.8159
 9438SOL     OW39775   1.927   3.385  11.951  0.1155  0.0155  0.5095
 9438SOL    HW139776   1.849   3.340  11.917  1.3812 -1.2414 -0.7367
 9438SOL    HW239777   1.959   3.435  11.876 -1.2171 -1.6759 -1.2038
 9439SOL     OW39778   0.578   3.386   5.790 -0.0965 -0.1438  0.3760
 9439SOL    HW139779   0.586   3.481   5.780 -0.7395 -0.3644 -2.2646
 9439SOL    HW239780   0.667   3.356   5.771 -0.6462 -0.6069 -1.5263
 9440SOL     OW39781   3.623   4.489   6.501  0.3687 -0.3473 -0.6898
 9440SOL    HW139782   3.563   4.560   6.523 -1.9838 -2.7067  0.5342
 9440SOL    HW239783   3.629   4.440   6.583 -0.9973 -1.0310 -1.0010
 9441SOL     OW39784   3.997   0.729   2.687  0.2203 -0.6691  0.4191
 9441SOL    HW139785   3.957   0.816   2.686  1.4704 -0.1246 -2.4247
 9441SOL    HW239786   4.063   0.731   2.617  0.3837 -1.5248  0.5558
 9442SOL     OW39787   1.673   2.438   7.211 -0.1909 -0.2753  0.5928
 9442SOL    HW139788   1.581   2.417   7.198 -0.1201 -0.7463  0.8757
 9442SOL    HW239789   1.697   2.374   7.278 -2.3069 -2.5141 -0.8323
 9443SOL     OW39790   0.870   4.673  13.762  0.5416 -0.4950 -0.5497
 9443SOL    HW139791   0.846   4.581  13.758  0.2552 -0.3552 -2.1533
 9443SOL    HW239792   0.791   0.001  13.763  1.6766  1.1813  0.0442
 9444SOL     OW39793   4.253   3.409   8.469 -0.3893  0.1111 -0.2686
 9444SOL    HW139794   4.297   3.470   8.411 -1.8572 -1.1874 -2.7569
 9444SOL    HW239795   4.200   3.471   8.520  0.6188 -0.7194  1.7873
 9445SOL     OW39796   1.929   2.549   2.237  0.0415 -0.2356 -0.6212
 9445SOL    HW139797   1.885   2.587   2.161  3.1366 -0.0494 -2.3070
 9445SOL    HW239798   1.895   2.460   2.233  1.5857 -0.7230 -2.6061
 9446SOL     OW39799   2.736   4.315   2.720 -0.0053  0.4754 -0.2506
 9446SOL    HW139800   2.736   4.283   2.810  2.1424 -2.1644 -1.2121
 9446SOL    HW239801   2.826   4.348   2.713 -0.0975  0.5884 -0.8450
 9447SOL     OW39802   2.212   1.123   4.001 -0.4037 -0.2387 -0.1113
 9447SOL    HW139803   2.172   1.124   3.913  1.1111 -3.6418 -0.8086
 9447SOL    HW239804   2.279   1.055   4.002  0.5368  0.7415  2.7942
 9448SOL     OW39805   1.654   2.563  12.772  0.6034 -0.0484  0.3495
 9448SOL    HW139806   1.590   2.518  12.718 -1.0280  1.7755  0.7473
 9448SOL    HW239807   1.741   2.546  12.736  0.6868 -1.3506  1.1748
 9449SOL     OW39808   3.966   3.975   3.545  0.1607 -0.4945 -0.0876
 9449SOL    HW139809   3.992   4.066   3.529 -0.5947  0.4258  3.9345
 9449SOL    HW239810   3.878   3.986   3.512  1.5111  1.4714 -2.9745
 9450SOL     OW39811   2.771   0.047   0.522  0.5101 -0.3327 -0.2821
 9450SOL    HW139812   2.727   0.086   0.446 -2.7877 -3.0378  0.2538
 9450SOL    HW239813   2.698   0.001   0.564 -0.8165  2.3814  0.3759
 9451SOL     OW39814   0.307   3.953   8.144 -0.4884 -0.4123  0.4699
 9451SOL    HW139815   0.224   3.909   8.161  0.7078 -3.0446 -0.6267
 9451SOL    HW239816   0.326   3.924   8.055 -1.0072  3.2156 -0.8395
 9452SOL     OW39817   1.951   3.606   4.714  0.1162 -0.5248 -0.5880
 9452SOL    HW139818   1.905   3.637   4.792 -0.0759  0.2728 -1.0090
 9452SOL    HW239819   1.873   3.603   4.658 -0.6794  0.3099  0.4550
 9453SOL     OW39820   0.458   1.649  11.513  0.0747  0.7939  0.0466
 9453SOL    HW139821   0.553   1.652  11.510  0.1769 -2.4366  0.3290
 9453SOL    HW239822   0.419   1.736  11.520 -0.8710  0.3683  0.0868
 9454SOL     OW39823   4.569   3.103   6.231  0.0007 -0.2008 -0.0995
 9454SOL    HW139824   4.558   3.107   6.136  0.4480  0.6209 -0.1153
 9454SOL    HW239825   4.662   3.125   6.234 -0.4258  1.6443 -0.2413
 9455SOL     OW39826   1.116   0.595   5.264  0.1071  0.0746 -0.5930
 9455SOL    HW139827   1.146   0.685   5.255  0.4106  0.0746  0.4184
 9455SOL    HW239828   1.094   0.572   5.174 -0.8918  0.6600 -0.4906
 9456SOL     OW39829   4.160   0.836   4.092 -0.1787  0.3622  0.4393
 9456SOL    HW139830   4.246   0.863   4.123  0.4696 -1.1402 -0.0667
 9456SOL    HW239831   4.162   0.851   3.997 -1.4932  0.4081  0.4121
 9457SOL     OW39832   0.645   2.221  16.823 -0.0285 -0.5158 -0.4372
 9457SOL    HW139833   0.580   2.153  16.805 -1.8672  2.0943 -3.6544
 9457SOL    HW239834   0.676   2.247  16.736  1.8592  0.0255  0.4029
 9458SOL     OW39835   1.543   2.106  12.738  0.2376 -0.5326  0.2954
 9458SOL    HW139836   1.590   2.029  12.770  1.3759  0.4825  1.0919
 9458SOL    HW239837   1.617   2.160  12.711 -1.1122  1.6224  0.8925
 9459SOL     OW39838   1.979   2.842   6.484  0.6845  0.3917  0.9924
 9459SOL    HW139839   2.055   2.885   6.523  0.5092  1.5944  0.0220
 9459SOL    HW239840   1.988   2.755   6.523  0.0502  1.0117  2.5143
 9460SOL     OW39841   3.985   4.573   6.896  0.2768 -0.2232  0.2810
 9460SOL    HW139842   3.977   4.667   6.877 -1.0475 -0.4405 -0.1798
 9460SOL    HW239843   3.981   4.589   6.990 -0.0612  0.4912  0.1493
 9461SOL     OW39844   0.340   3.280  10.737 -0.3882 -0.1083  0.1321
 9461SOL    HW139845   0.302   3.201  10.699 -0.1638 -1.1495  2.0778
 9461SOL    HW239846   0.389   3.318  10.664  0.1479 -0.1357  0.4824
 9462SOL     OW39847   3.899   0.112   1.783 -0.1159  0.4176 -0.0818
 9462SOL    HW139848   3.817   0.095   1.829 -0.4649  1.8953 -0.1605
 9462SOL    HW239849   3.863   0.117   1.695  0.7177  1.6609 -0.3530
 9463SOL     OW39850   4.695   3.602  14.713 -0.4414 -0.5554 -0.4793
 9463SOL    HW139851   4.625   3.554  14.669 -0.1040 -0.0164 -1.6253
 9463SOL    HW239852   0.012   3.621  14.629  1.7078 -2.2575  0.2335
 9464SOL     OW39853   0.277   1.661  11.186  0.4182  0.8316 -0.5347
 9464SOL    HW139854   0.188   1.691  11.205 -0.4058 -1.6364 -0.5579
 9464SOL    HW239855   0.310   1.737  11.137 -0.8563  1.0881 -0.9847
 9465SOL     OW39856   3.945   0.689   4.206 -0.2527  0.6306  0.7353
 9465SOL    HW139857   4.011   0.750   4.175 -0.2446 -0.1127 -0.7269
 9465SOL    HW239858   3.922   0.637   4.128  0.9693 -1.7161  1.9237
 9466SOL     OW39859   0.418   0.281  11.169  0.1283 -0.3395  0.3162
 9466SOL    HW139860   0.324   0.263  11.180 -0.1212  0.6195 -0.2424
 9466SOL    HW239861   0.427   0.225  11.092  1.8162 -0.7321  0.7930
 9467SOL     OW39862   3.419   3.821   8.124  0.5242  0.7326 -0.5784
 9467SOL    HW139863   3.451   3.795   8.210  0.6169  4.6179  0.5786
 9467SOL    HW239864   3.327   3.829   8.151  0.8089  0.6858  0.3966
 9468SOL     OW39865   4.314   3.172  12.636 -0.7082  0.0766 -0.0706
 9468SOL    HW139866   4.293   3.117  12.561 -1.4835  1.1348 -0.6293
 9468SOL    HW239867   4.302   3.104  12.702 -0.7212  3.9462  4.0001
 9469SOL     OW39868   1.239   2.165  12.271  0.6549  0.2310 -0.3697
 9469SOL    HW139869   1.311   2.222  12.244  0.1303  1.7587  1.4752
 9469SOL    HW239870   1.164   2.191  12.218 -0.1277 -0.6388  0.3260
 9470SOL     OW39871   1.841   2.498  17.295  0.0329 -0.0747 -0.2464
 9470SOL    HW139872   1.834   2.589  17.325  1.5283 -0.1583  0.3523
 9470SOL    HW239873   1.752   2.462  17.302 -0.1800  0.5416  0.2400
 9471SOL     OW39874   2.199   3.084   4.324 -0.3520  0.2716 -0.1473
 9471SOL    HW139875   2.120   3.029   4.324 -0.2531  0.1324  0.7081
 9471SOL    HW239876   2.213   3.090   4.229  2.6258  1.2093  0.3587
 9472SOL     OW39877   3.080   3.319  10.805  0.3197  0.6766  0.7013
 9472SOL    HW139878   3.042   3.233  10.821  1.0606  0.3087  0.4476
 9472SOL    HW239879   3.001   3.368  10.784 -1.2526 -1.5425  1.3884
 9473SOL     OW39880   4.593   0.309  14.131 -0.2457 -0.9275  0.0110
 9473SOL    HW139881   4.602   0.375  14.062 -0.1597 -0.7860  0.1599
 9473SOL    HW239882   4.498   0.297  14.138 -0.2697  0.9642  2.8230
 9474SOL     OW39883   0.209   1.640   3.260 -0.1878  0.0936 -0.1024
 9474SOL    HW139884   0.176   1.614   3.346 -2.1529 -0.2263 -0.9593
 9474SOL    HW239885   0.145   1.600   3.201  1.0230  0.5606 -1.7235
 9475SOL     OW39886   3.612   3.695   3.088 -0.4346  0.4861  0.4356
 9475SOL    HW139887   3.538   3.636   3.103 -0.3611  0.7339  1.7518
 9475SOL    HW239888   3.633   3.736   3.172  0.6028 -1.6635  1.2202
 9476SOL     OW39889   3.545   2.916  13.121 -0.0985 -0.0600 -0.1913
 9476SOL    HW139890   3.635   2.909  13.152  0.3306 -0.2585 -1.4538
 9476SOL    HW239891   3.538   2.848  13.054  1.7966 -1.5033  1.0796
 9477SOL     OW39892   1.850   4.631   9.872  0.1689  0.1476  0.0770
 9477SOL    HW139893   1.768   4.674   9.849 -0.1478 -0.2070  0.5719
 9477SOL    HW239894   1.899   4.704   9.910  1.8237 -1.1428  0.3985
 9478SOL     OW39895   2.338   1.581   3.307 -0.4540 -0.3541 -0.5259
 9478SOL    HW139896   2.244   1.576   3.324 -0.2076 -1.3478  0.6278
 9478SOL    HW239897   2.377   1.497   3.334 -0.2374  0.1335  0.6973
 9479SOL     OW39898   3.973   4.675   4.173  0.3679  0.1455 -0.8044
 9479SOL    HW139899   4.052   4.622   4.163 -0.2029 -0.8414 -0.0489
 9479SOL    HW239900   4.009   0.034   4.201 -1.5277  0.8230 -0.4457
 9480SOL     OW39901   0.230   1.635   3.626  0.1320  0.1415  0.1605
 9480SOL    HW139902   0.291   1.578   3.579  1.8411  2.0357  0.0326
 9480SOL    HW239903   0.149   1.588   3.611 -2.4246  5.7900 -3.9433
 9481SOL     OW39904   1.825   2.308   1.904 -0.5387 -0.7980  0.7122
 9481SOL    HW139905   1.749   2.254   1.884 -2.0761  0.8462  2.1233
 9481SOL    HW239906   1.895   2.261   1.859  0.8496  1.3530  0.6074
 9482SOL     OW39907   2.522   0.591   8.580  0.2133 -0.7965 -0.3984
 9482SOL    HW139908   2.513   0.498   8.598  1.0645 -1.1408 -1.7022
 9482SOL    HW239909   2.475   0.637   8.649  1.0120  0.4469 -0.6715
 9483SOL     OW39910   3.674   2.685  12.150 -0.0312  0.2322 -0.1751
 9483SOL    HW139911   3.616   2.609  12.162 -0.5367  0.6646  0.1664
 9483SOL    HW239912   3.650   2.698  12.059 -2.7794 -1.1099  0.3336
 9484SOL     OW39913   3.919   1.687   8.554  0.5265  0.1956 -0.2212
 9484SOL    HW139914   3.971   1.747   8.501  0.3838  0.4713 -0.0495
 9484SOL    HW239915   3.947   1.707   8.644  0.4847  0.6185 -0.3021
 9485SOL     OW39916   3.172   0.716  16.144  0.7828 -0.4678  0.2650
 9485SOL    HW139917   3.137   0.803  16.128  2.2958  0.5182  2.4020
 9485SOL    HW239918   3.174   0.689  16.052  1.0832  0.5167 -0.0207
 9486SOL     OW39919   0.519   0.699   2.032 -0.5747 -0.8692  0.3155
 9486SOL    HW139920   0.481   0.665   1.951  3.4330 -0.4004 -1.7472
 9486SOL    HW239921   0.540   0.787   2.001  2.1853 -1.5944  0.1301
 9487SOL     OW39922   4.386   4.599   6.104  0.5964  0.1437 -0.0378
 9487SOL    HW139923   4.316   4.603   6.169 -1.1860 -0.8609 -1.9454
 9487SOL    HW239924   4.452   4.644   6.158 -0.9794  1.4647  0.7949
 9488SOL     OW39925   2.657   1.479  11.971  0.3191 -0.0682 -0.2946
 9488SOL    HW139926   2.613   1.564  11.963 -0.3748 -0.6008 -2.1791
 9488SOL    HW239927   2.591   1.432  12.022  1.2853 -0.2262  0.8039
 9489SOL     OW39928   4.246   1.506   3.090  0.1435  0.3540  0.3024
 9489SOL    HW139929   4.287   1.590   3.067 -1.1139  0.2367 -2.3524
 9489SOL    HW239930   4.175   1.543   3.141 -0.8314 -1.7963  0.4677
 9490SOL     OW39931   3.981   2.306  14.018  0.4025  0.2741 -0.0988
 9490SOL    HW139932   4.062   2.325  14.065  1.7303  1.9053 -2.9747
 9490SOL    HW239933   3.996   2.225  13.969  0.1662  0.6295 -0.7584
 9491SOL     OW39934   3.432   1.061  12.379 -0.2432  0.6852  0.1342
 9491SOL    HW139935   3.392   1.146  12.398  3.4365  2.3323  0.4294
 9491SOL    HW239936   3.515   1.070  12.425 -0.0602  0.6557 -0.1938
 9492SOL     OW39937   1.577   3.018   7.024 -0.6335  0.3013 -0.3692
 9492SOL    HW139938   1.484   2.995   7.032 -0.3866 -0.6171 -0.1214
 9492SOL    HW239939   1.575   3.103   6.979  1.5859  0.1287 -0.7949
 9493SOL     OW39940   2.896   2.878   8.274 -0.2047 -0.3556 -0.5677
 9493SOL    HW139941   2.814   2.928   8.265  1.5307  3.1708  3.1254
 9493SOL    HW239942   2.885   2.802   8.216 -0.1439  0.1433 -1.2365
 9494SOL     OW39943   0.910   0.997   2.226  0.3518 -0.9161 -0.0465
 9494SOL    HW139944   0.913   1.090   2.247  1.8597 -0.6400 -1.4989
 9494SOL    HW239945   0.999   0.965   2.240 -0.4612 -3.1943 -0.0969
 9495SOL     OW39946   1.572   3.172   7.703 -0.0713  0.0249 -0.3258
 9495SOL    HW139947   1.579   3.093   7.649 -1.4826  0.5299 -1.2465
 9495SOL    HW239948   1.564   3.245   7.642  0.0364 -0.2692 -0.6922
 9496SOL     OW39949   0.573   1.921   2.665  0.6704  0.3241 -0.2493
 9496SOL    HW139950   0.484   1.902   2.696  1.2673 -0.8123  0.7420
 9496SOL    HW239951   0.562   2.016   2.651 -0.3708  0.3957  0.9956
 9497SOL     OW39952   3.181   0.902   5.318  0.1397 -0.0616 -0.2648
 9497SOL    HW139953   3.123   0.975   5.297  0.3089  0.0989 -0.1648
 9497SOL    HW239954   3.123   0.826   5.327  2.5397 -2.0779 -2.0313
 9498SOL     OW39955   1.883   0.842   4.231 -0.4478  0.2193 -0.0305
 9498SOL    HW139956   1.878   0.921   4.178 -0.6843  1.5176  1.9413
 9498SOL    HW239957   1.802   0.847   4.281  0.7469 -0.7170  1.9933
 9499SOL     OW39958   2.613   0.969  13.836  0.0788 -0.1925  0.1780
 9499SOL    HW139959   2.667   0.891  13.829  2.8957  1.8729 -1.6812
 9499SOL    HW239960   2.593   0.987  13.744  2.6284  0.2206 -0.2872
 9500SOL     OW39961   2.976   0.996   9.199 -0.0396 -0.2169 -0.4152
 9500SOL    HW139962   2.889   0.957   9.195 -1.0531  2.5639 -4.9333
 9500SOL    HW239963   2.986   0.996   9.294 -0.3043  0.2014 -0.3883
 9501SOL     OW39964   1.162   4.437   7.759 -0.4070 -0.1825 -0.4170
 9501SOL    HW139965   1.112   4.508   7.800 -0.1260  1.2958 -2.6465
 9501SOL    HW239966   1.127   4.362   7.808 -2.1231  1.4960  0.9382
 9502SOL     OW39967   2.907   0.880   7.219 -0.4344  0.6108  0.7807
 9502SOL    HW139968   2.952   0.942   7.161 -1.5522 -0.2338 -1.0002
 9502SOL    HW239969   2.831   0.934   7.241 -0.1589  1.5502 -0.5769
 9503SOL     OW39970   4.210   1.976   3.496 -0.2780  0.4436  0.0706
 9503SOL    HW139971   4.129   2.011   3.458  1.2945  3.5695 -0.3774
 9503SOL    HW239972   4.214   2.027   3.577 -0.6800  1.8394 -0.7838
 9504SOL     OW39973   2.075   3.240  16.626 -0.7123  0.1780  0.1041
 9504SOL    HW139974   2.052   3.182  16.554 -1.2762  0.1282  0.3262
 9504SOL    HW239975   2.045   3.326  16.598 -0.8763  0.3658  0.8681
 9505SOL     OW39976   4.384   1.994  16.570  0.0032  0.1826 -0.1454
 9505SOL    HW139977   4.304   2.041  16.548 -1.1438 -1.2380  0.9976
 9505SOL    HW239978   4.383   1.968  16.663 -0.9055  0.3018 -0.1261
 9506SOL     OW39979   2.708   4.139  16.070  0.4911 -0.3657  0.0011
 9506SOL    HW139980   2.748   4.117  16.154  1.1566  1.9717  0.2960
 9506SOL    HW239981   2.622   4.160  16.107  0.6373  0.2386 -0.0052
 9507SOL     OW39982   2.029   2.519  10.777 -0.8359  0.2454  0.4697
 9507SOL    HW139983   1.962   2.467  10.821  0.6772 -0.4479  1.9395
 9507SOL    HW239984   1.994   2.607  10.793 -0.5736  0.9378 -2.7749
 9508SOL     OW39985   0.960   2.401  11.339 -0.0183  0.2576  0.9608
 9508SOL    HW139986   0.875   2.434  11.310  0.9411  1.4402 -0.5499
 9508SOL    HW239987   0.976   2.465  11.408 -0.6267  0.1704  1.1786
 9509SOL     OW39988   1.145   2.493  11.149 -0.1487  0.0590 -0.5002
 9509SOL    HW139989   1.235   2.490  11.181  0.3178  3.3535 -1.4965
 9509SOL    HW239990   1.102   2.441  11.217 -0.7060 -0.1622 -1.0212
 9510SOL     OW39991   0.987   3.177   8.454  0.1362  0.1826  0.1364
 9510SOL    HW139992   1.020   3.257   8.413  1.8114  1.0099  3.0911
 9510SOL    HW239993   0.896   3.203   8.466 -0.4153 -1.1466 -1.2691
 9511SOL     OW39994   1.593   2.190   0.192 -0.3973 -0.0768 -0.4355
 9511SOL    HW139995   1.645   2.243   0.133  0.1115  0.9124  0.8911
 9511SOL    HW239996   1.615   2.100   0.167 -2.5835 -0.7465  0.0154
 9512SOL     OW39997   2.254   3.656   2.217  0.1008  0.1750  0.7539
 9512SOL    HW139998   2.285   3.608   2.141  0.3593  1.2820  0.1476
 9512SOL    HW239999   2.269   3.742   2.177  0.2754  1.3302  3.3080
 9513SOL     OW40000   0.681   4.513   7.464 -0.2184 -0.1130 -0.3051
 9513SOL    HW140001   0.714   4.445   7.522  3.1650  0.2288 -1.8709
 9513SOL    HW240002   0.719   4.594   7.499 -0.1300 -0.3801  0.2119
 9514SOL     OW40003   1.993   3.246   8.219 -0.6689 -0.4458  0.2363
 9514SOL    HW140004   1.898   3.240   8.229 -0.7483 -1.0997 -1.0190
 9514SOL    HW240005   2.003   3.165   8.169 -2.6620  0.3685 -1.4764
 9515SOL     OW40006   2.164   4.611   1.515 -0.0315 -0.0743  0.0610
 9515SOL    HW140007   2.099   4.550   1.481  3.5539 -3.3128 -0.8497
 9515SOL    HW240008   2.096   4.679   1.515 -0.0796 -0.1227  0.0003
 9516SOL     OW40009   0.117   1.688   7.315 -0.5053 -0.1054  0.5923
 9516SOL    HW140010   0.092   1.597   7.299 -1.1407  0.2639 -0.4981
 9516SOL    HW240011   0.030   1.722   7.294  0.6083  1.3015 -1.8084
 9517SOL     OW40012   3.540   2.709   8.927  0.5795  0.3504  0.2106
 9517SOL    HW140013   3.550   2.757   8.845  0.7935  0.8763  0.5445
 9517SOL    HW240014   3.619   2.747   8.966 -0.2170  2.4350 -0.1727
 9518SOL     OW40015   2.739   2.753   6.848  0.3742 -0.1120  0.1790
 9518SOL    HW140016   2.707   2.722   6.763 -0.1199  0.9284 -0.0137
 9518SOL    HW240017   2.722   2.679   6.907 -3.3188 -1.7464 -2.9310
 9519SOL     OW40018   1.361   4.053   4.646 -0.0732 -0.3908  0.0889
 9519SOL    HW140019   1.448   4.085   4.670 -0.5064  0.9180 -0.0941
 9519SOL    HW240020   1.315   4.076   4.726  0.8814 -0.5033  0.6670
 9520SOL     OW40021   3.629   1.975   4.131  0.6991 -0.2894 -0.2143
 9520SOL    HW140022   3.549   1.922   4.125 -0.6378  1.8428 -1.2807
 9520SOL    HW240023   3.674   1.933   4.204 -3.3420 -0.8210  1.9983
 9521SOL     OW40024   2.098   4.223   7.703 -0.5228  0.1561 -0.0052
 9521SOL    HW140025   2.135   4.242   7.789  0.0634 -0.1042 -0.1998
 9521SOL    HW240026   2.028   4.160   7.721  0.3431 -0.8595 -0.1704
 9522SOL     OW40027   3.699   3.776   8.755 -0.2726  0.7881  0.3126
 9522SOL    HW140028   3.781   3.824   8.771  0.3165 -0.1513  0.1267
 9522SOL    HW240029   3.681   3.789   8.662  0.5866 -0.1314  0.0189
 9523SOL     OW40030   4.184   2.271   0.096 -0.0609 -0.2269  0.5166
 9523SOL    HW140031   4.163   2.351   0.048  0.5864 -0.7589 -0.6592
 9523SOL    HW240032   4.113   2.269   0.160 -0.2658  1.3597  0.3338
 9524SOL     OW40033   4.071   0.100   7.619 -0.2271 -0.1097 -0.3533
 9524SOL    HW140034   4.037   0.158   7.551  1.0908 -2.1838 -2.7931
 9524SOL    HW240035   3.986   0.075   7.657 -0.8083  3.8312  0.8600
 9525SOL     OW40036   3.039   4.504  10.374 -0.3734  0.6133  0.3071
 9525SOL    HW140037   2.976   4.568  10.408 -0.6329  0.8335 -0.5882
 9525SOL    HW240038   3.123   4.539  10.403 -0.9970  1.3317  1.2528
 9526SOL     OW40039   1.980   3.845   4.061 -0.4450  0.5068  0.7857
 9526SOL    HW140040   1.922   3.859   3.986 -0.4502  0.6370  0.8152
 9526SOL    HW240041   2.027   3.925   4.081 -0.3662  0.4775  0.7173
 9527SOL     OW40042   3.694   3.543   9.348 -0.6170 -0.0534 -0.5710
 9527SOL    HW140043   3.600   3.542   9.330 -1.1920  1.9153  2.3355
 9527SOL    HW240044   3.731   3.607   9.287 -0.9601 -2.1784 -3.0374
 9528SOL     OW40045   0.011   1.864   6.992 -0.1727 -0.3636 -0.0852
 9528SOL    HW140046   4.679   1.843   7.065 -2.2688 -1.1394 -1.9806
 9528SOL    HW240047   4.684   1.850   6.913 -1.9359 -2.2946  1.4455
 9529SOL     OW40048   0.428   3.725   1.815  0.6416  0.6417  0.4249
 9529SOL    HW140049   0.475   3.757   1.738 -2.0380 -1.2506 -2.0227
 9529SOL    HW240050   0.346   3.709   1.769 -0.0755  0.6111  1.7316
 9530SOL     OW40051   2.424   1.447   9.291 -0.2771 -0.0049 -0.0457
 9530SOL    HW140052   2.332   1.466   9.311 -0.0652 -1.0849  1.9339
 9530SOL    HW240053   2.448   1.527   9.245 -1.5297  0.1335 -0.4741
 9531SOL     OW40054   4.349   4.618   8.393  0.0314  0.4630  0.1844
 9531SOL    HW140055   4.361   4.713   8.398  0.3760  0.4401 -0.1938
 9531SOL    HW240056   4.318   4.595   8.481 -0.5450 -2.0860 -0.6722
 9532SOL     OW40057   3.727   1.524   3.296 -0.4209 -0.2698 -0.2739
 9532SOL    HW140058   3.700   1.537   3.206 -0.8984 -2.5987 -0.4857
 9532SOL    HW240059   3.710   1.429   3.295 -0.2366 -0.3162  0.8727
 9533SOL     OW40060   0.166   3.754  13.602  0.4684  0.3927 -0.0276
 9533SOL    HW140061   0.179   3.809  13.680 -1.0566 -0.3622  0.7486
 9533SOL    HW240062   0.250   3.707  13.603  0.2520  0.0180  0.4167
 9534SOL     OW40063   3.127   0.521   7.584  0.2387 -0.4417 -0.1508
 9534SOL    HW140064   3.093   0.555   7.501 -1.1660 -1.7908 -0.1316
 9534SOL    HW240065   3.213   0.497   7.549  0.5452  1.1207 -0.4382
 9535SOL     OW40066   4.631   2.706   8.899  0.1786 -0.0390 -0.0206
 9535SOL    HW140067   4.689   2.773   8.861  0.3340  0.5233  1.2068
 9535SOL    HW240068   4.660   2.712   8.990  0.7384 -1.6121 -0.0964
 9536SOL     OW40069   2.851   3.687   6.030 -0.3152  0.6081  0.1047
 9536SOL    HW140070   2.764   3.699   6.068  0.5036 -1.8784  2.7767
 9536SOL    HW240071   2.893   3.767   6.062 -0.0667  0.8147 -0.7378
 9537SOL     OW40072   4.447   1.403  11.026  0.3892  0.7382 -0.5292
 9537SOL    HW140073   4.371   1.349  11.004  1.6575 -1.0761 -0.4674
 9537SOL    HW240074   4.415   1.480  10.979 -0.1368  1.0721  0.3808
 9538SOL     OW40075   0.263   3.641   2.446  0.2409 -0.0911 -0.8119
 9538SOL    HW140076   0.197   3.698   2.408 -1.3791 -1.8891 -0.6727
 9538SOL    HW240077   0.316   3.646   2.366  1.2220  1.7813 -0.0325
 9539SOL     OW40078   0.677   0.126   5.529 -0.1195  0.5174  0.4169
 9539SOL    HW140079   0.722   0.044   5.544 -0.4093  0.5049  1.2023
 9539SOL    HW240080   0.731   0.154   5.455  0.3509  1.2540  1.0363
 9540SOL     OW40081   1.487   0.455   9.776 -0.8055 -0.3073 -0.2849
 9540SOL    HW140082   1.550   0.442   9.847 -0.5489  1.1727 -0.2414
 9540SOL    HW240083   1.460   0.374   9.733 -0.4777 -0.1160 -0.8698
 9541SOL     OW40084   0.039   2.069   2.746 -0.2838  0.0044  0.0034
 9541SOL    HW140085   4.722   2.073   2.660 -0.7286  2.4160  0.3392
 9541SOL    HW240086   4.694   2.107   2.798 -0.5901  1.6123 -1.5687
 9542SOL     OW40087   1.155   0.259   5.270  0.2814 -0.1837 -0.1877
 9542SOL    HW140088   1.194   0.173   5.280  2.0420  0.6285 -0.1410
 9542SOL    HW240089   1.231   0.313   5.288  0.8040 -0.6375 -1.0341
 9543SOL     OW40090   3.494   4.028  12.603 -0.3659  0.2686  0.0678
 9543SOL    HW140091   3.564   4.077  12.559 -0.1214  1.4683  1.7924
 9543SOL    HW240092   3.518   3.936  12.589  2.0386  0.9386 -0.2554
 9544SOL     OW40093   1.073   1.127   5.756 -0.0067  0.1374 -0.5514
 9544SOL    HW140094   1.166   1.133   5.734  0.0791  2.5132  0.4515
 9544SOL    HW240095   1.085   1.099   5.847  2.3732  0.6378 -0.6974
 9545SOL     OW40096   3.421   0.009  16.386  0.1703 -0.0717  0.2099
 9545SOL    HW140097   3.475   4.674  16.337 -0.1696  0.3915 -0.7368
 9545SOL    HW240098   3.445   0.096  16.354  1.9810 -1.1089 -1.2083
 9546SOL     OW40099   1.778   3.217  12.975 -0.5895 -0.1175  0.2797
 9546SOL    HW140100   1.848   3.154  12.961 -0.9272 -0.9349  2.2260
 9546SOL    HW240101   1.718   3.167  13.030  0.7651 -2.0409 -0.0013
 9547SOL     OW40102   2.464   4.309   2.056 -0.2494 -0.2289 -0.2636
 9547SOL    HW140103   2.490   4.238   2.113  1.1386 -1.4367 -2.4021
 9547SOL    HW240104   2.395   4.274   2.000 -1.3387 -0.4168  1.2114
 9548SOL     OW40105   2.347   2.115   4.624 -0.5742 -0.2981  0.1150
 9548SOL    HW140106   2.267   2.166   4.636 -0.9448 -0.5242 -1.4271
 9548SOL    HW240107   2.320   2.041   4.569 -2.0063  0.9491 -0.8640
 9549SOL     OW40108   3.914   3.754   9.426 -0.0230  0.2139 -0.3274
 9549SOL    HW140109   3.822   3.744   9.450 -0.1299 -0.9585 -1.2292
 9549SOL    HW240110   3.945   3.824   9.483 -1.3053  0.3418  0.2030
 9550SOL     OW40111   2.969   3.692   0.320 -0.5988 -0.6036  0.0295
 9550SOL    HW140112   2.911   3.617   0.312 -0.8939 -0.4760  0.9709
 9550SOL    HW240113   3.043   3.666   0.264 -0.8079  1.1923 -1.0864
 9551SOL     OW40114   1.637   3.608   9.923  0.2449  0.0420 -0.2775
 9551SOL    HW140115   1.558   3.650   9.956  0.1674 -1.6074  1.6171
 9551SOL    HW240116   1.709   3.670   9.934  0.0928 -0.3319  2.6950
 9552SOL     OW40117   2.470   4.687  10.044 -0.3229 -0.2235 -0.1161
 9552SOL    HW140118   2.410   4.710  10.115  2.0138  2.6240  0.9346
 9552SOL    HW240119   2.476   4.592  10.054 -1.9319 -0.4408 -1.2304
 9553SOL     OW40120   0.810   4.693  11.163  0.5683 -0.3360 -0.3062
 9553SOL    HW140121   0.766   0.048  11.189  0.2828 -0.9858  1.2226
 9553SOL    HW240122   0.736   4.643  11.128  0.3491  0.5452 -1.1158
 9554SOL     OW40123   1.528   1.746   1.884 -0.0280 -0.1598 -0.0833
 9554SOL    HW140124   1.553   1.702   1.803  1.8339 -1.1539  1.0276
 9554SOL    HW240125   1.546   1.837   1.862  0.9424 -0.5862 -1.0641
 9555SOL     OW40126   4.216   0.907   5.915  0.0936  0.6113 -0.3533
 9555SOL    HW140127   4.153   0.836   5.921 -1.2627  1.6162 -2.4341
 9555SOL    HW240128   4.291   0.874   5.965 -1.4905  0.1555  1.6932
 9556SOL     OW40129   4.557   4.300  14.456  0.2320 -0.2242  0.3968
 9556SOL    HW140130   4.629   4.238  14.444  1.5740  1.6121 -0.9123
 9556SOL    HW240131   4.557   4.353  14.377  2.1953  0.4051  0.8199
 9557SOL     OW40132   2.164   0.349   6.074 -0.7815 -0.5985  0.0711
 9557SOL    HW140133   2.103   0.400   6.020 -0.3750  1.0564  1.1561
 9557SOL    HW240134   2.209   0.307   6.001 -1.5051 -0.2078 -0.5866
 9558SOL     OW40135   4.712   1.861   0.430  0.0408  0.1669  0.4294
 9558SOL    HW140136   0.005   1.923   0.500  0.2456  0.0785  0.4518
 9558SOL    HW240137   0.066   1.810   0.440 -0.5552 -0.7691  0.4702
 9559SOL     OW40138   2.592   0.866   6.066  0.0799 -0.1891  0.3722
 9559SOL    HW140139   2.555   0.788   6.024  0.3591 -0.6613  0.9961
 9559SOL    HW240140   2.667   0.894   6.014  0.5450 -0.7039  0.7553
 9560SOL     OW40141   1.473   3.701  13.150 -0.0672 -0.4090  0.5072
 9560SOL    HW140142   1.466   3.666  13.061 -1.0835 -1.6358  1.0762
 9560SOL    HW240143   1.505   3.791  13.136  2.0262 -1.4264 -1.1861
 9561SOL     OW40144   3.913   1.082   3.921  0.4509 -0.0864  0.3363
 9561SOL    HW140145   3.827   1.117   3.941 -0.0575 -1.3222  0.2773
 9561SOL    HW240146   3.892   1.015   3.856  0.9912 -0.7802  0.8795
 9562SOL     OW40147   1.885   3.641   2.852  0.0170 -0.3290 -0.3698
 9562SOL    HW140148   1.868   3.599   2.936  1.0232  1.8271  0.9337
 9562SOL    HW240149   1.898   3.570   2.790 -1.9154 -0.8184 -0.2018
 9563SOL     OW40150   0.436   2.049   0.762  0.4108  0.5521  0.2678
 9563SOL    HW140151   0.461   2.140   0.748  1.0142  0.2958 -0.3172
 9563SOL    HW240152   0.394   2.054   0.848  1.2800 -0.1286  0.7244
 9564SOL     OW40153   0.313   2.458   4.691 -0.4716 -0.4985 -0.4177
 9564SOL    HW140154   0.242   2.450   4.627 -0.2761 -1.7359 -0.4818
 9564SOL    HW240155   0.350   2.372   4.675  0.4492 -0.1724 -0.0471
 9565SOL     OW40156   3.662   3.220   3.549 -0.0715 -0.1230 -0.4811
 9565SOL    HW140157   3.758   3.223   3.552 -0.1197  2.9443 -1.5834
 9565SOL    HW240158   3.641   3.183   3.634  1.4707 -0.2506 -0.1548
 9566SOL     OW40159   3.964   4.612   9.237 -0.0615 -0.0385 -0.7283
 9566SOL    HW140160   3.941   4.663   9.314  0.8429  0.1256 -0.5716
 9566SOL    HW240161   3.929   4.672   9.171  0.3923 -0.2165 -1.1286
 9567SOL     OW40162   3.598   1.639   1.098  0.0447 -0.1529  0.0717
 9567SOL    HW140163   3.575   1.658   1.007  1.3938  1.2371  0.0217
 9567SOL    HW240164   3.512   1.663   1.133  0.5716  0.9754  0.5599
 9568SOL     OW40165   1.083   3.316  14.155 -0.3895 -0.2344  0.2013
 9568SOL    HW140166   1.160   3.328  14.099 -0.4333 -0.8384  0.0074
 9568SOL    HW240167   1.033   3.259  14.096 -2.3966  0.6767  1.0282
   4.72592   4.72592  17.70485
