Membrane in water
40167
    1TCq1    O1    1   2.090   3.036  11.033  0.4260 -0.7017  0.2995
    1TCq1    C1    2   1.966   3.037  11.090  0.5040 -0.1545 -0.0856
    1TCq1    O2    3   1.879   2.949  11.083  0.3572  0.5425 -0.2465
    1TCq1    C2    4   1.955   3.159  11.164 -0.5915 -0.2157  0.2413
    1TCq1    C3    5   2.009   3.285  11.135 -0.6921 -0.4753  0.8178
    1TCq1    C4    6   1.976   3.380  11.221 -0.1102 -0.7626 -0.1850
    1TCq1    C5    7   1.908   3.364  11.338  0.4950 -0.3024  0.1463
    1TCq1    C6    8   1.862   3.240  11.369  0.0759 -0.1259  0.0454
    1TCq1    C7    9   1.876   3.138  11.276 -0.2683 -0.4101  0.2714
    1TCq1    C8   10   1.820   3.214  11.508 -0.3083  0.7584 -0.0804
    1TCq1    O4   11   1.850   3.296  11.594  0.6552 -0.1650  0.3800
    1TCq1    C9   12   2.033   3.510  11.196  0.5111  0.9439  0.0169
    1TCq1    O5   13   2.026   3.594  11.289 -0.5013 -0.0237 -0.0645
    1TCq1    O6   14   2.076   3.527  11.078  0.1493 -0.0161  0.4259
    1TCq1    H1   15   2.165   3.089  11.069  1.2267 -1.3099 -0.4729
    1TCq1    H2   16   2.050   3.299  11.036 -2.7543 -1.0331 -0.1072
    1TCq1    H3   17   1.914   3.436  11.419  0.1499  0.5621 -0.5928
    1TCq1    H4   18   1.842   3.036  11.294 -0.4556 -0.5191 -0.7425
    2MPD2     C   19   1.704   2.854  11.847  0.3511 -0.0738 -0.3595
    2MPD2    C1   20   1.748   2.983  11.863 -0.0131 -0.5103  0.1066
    2MPD2    C2   21   1.767   3.057  11.753  0.8949 -0.7474  0.6599
    2MPD2    C3   22   1.733   3.014  11.628 -0.2942  0.2600 -0.2712
    2MPD2    C4   23   1.668   2.895  11.614  0.1557  1.1972  0.3616
    2MPD2    C5   24   1.661   2.809  11.727  0.2527 -0.0545  0.2190
    2MPD2     H   25   1.804   3.157  11.772 -0.0083 -0.2516 -0.1902
    2MPD2    H1   26   1.628   2.862  11.519 -0.1580 -3.0888  1.9612
    2MPD2    H2   27   1.708   2.771  11.917 -0.9126  2.6701  2.9256
    2MPD2    H3   28   1.608   2.715  11.715 -1.8130  1.3103 -1.1338
    2MPD2     N   29   1.751   3.092  11.512 -0.2754  0.1636  0.4632
    2MPD2    H5   30   1.723   3.053  11.422  2.2430 -2.2328  0.7069
    2MPD2    N1   31   1.770   3.044  11.988  0.7264 -0.6718  1.3185
    2MPD2    H7   32   1.803   3.140  11.992 -1.6526  0.2561 -1.5141
    3TCq1    O1   33   0.650   3.947  10.420  0.3963 -0.3231  0.3141
    3TCq1    C1   34   0.612   3.893  10.542  0.8846 -0.1891  0.6283
    3TCq1    O2   35   0.502   3.842  10.565  0.0411 -0.2890  0.0757
    3TCq1    C2   36   0.658   3.983  10.644 -0.1440 -0.1157 -0.2325
    3TCq1    C3   37   0.687   4.109  10.617  0.4623  0.3590  0.0637
    3TCq1    C4   38   0.677   4.203  10.718  0.0794 -0.1849  0.1990
    3TCq1    C5   39   0.633   4.170  10.845 -0.3586 -0.0157 -0.0927
    3TCq1    C6   40   0.603   4.042  10.867 -0.8642 -0.1439  0.2854
    3TCq1    C7   41   0.616   3.951  10.770  0.0225  0.1496 -0.0693
    3TCq1    C8   42   0.581   3.985  11.004  0.6647  0.1028  0.8362
    3TCq1    O4   43   0.594   3.863  11.019 -0.4953  0.5273 -0.5209
    3TCq1    C9   44   0.721   4.340  10.693 -0.3688  0.1452 -0.2523
    3TCq1    O5   45   0.682   4.423  10.781 -0.1146 -0.0224 -0.4227
    3TCq1    O6   46   0.819   4.359  10.620  0.3646 -0.7018  0.2462
    3TCq1    H1   47   0.730   4.004  10.424  1.2370 -1.4008 -1.2057
    3TCq1    H2   48   0.712   4.151  10.521  0.3049  3.3597  1.3339
    3TCq1    H3   49   0.632   4.251  10.917 -1.4932  0.5343 -0.7249
    3TCq1    H4   50   0.589   3.848  10.786 -1.3376  0.6535  0.9450
    4MPD2     C   51   0.602   4.054  11.508  0.2043 -0.2894 -1.0710
    4MPD2    C1   52   0.594   4.178  11.446  0.8021  0.1676 -0.3086
    4MPD2    C2   53   0.589   4.185  11.310 -0.1977  0.6785  0.1080
    4MPD2    C3   54   0.571   4.075  11.234 -0.0886 -0.8386  0.3175
    4MPD2    C4   55   0.564   3.946  11.298  0.0794 -0.2868  0.5000
    4MPD2    C5   56   0.589   3.938  11.436 -0.1508 -0.6723  0.2184
    4MPD2     H   57   0.598   4.280  11.257  0.0065  0.5076 -0.1646
    4MPD2    H1   58   0.558   3.852  11.246  1.5114  0.5712 -1.2348
    4MPD2    H2   59   0.609   4.036  11.615  1.9997 -1.0456 -1.3112
    4MPD2    H3   60   0.609   3.838  11.472 -1.3317 -0.3123  1.8355
    4MPD2     N   61   0.564   4.085  11.094  0.0854  0.4502  0.5375
    4MPD2    H5   62   0.558   4.178  11.055 -2.8238  0.4261  0.9303
    4MPD2    N1   63   0.605   4.301  11.517  0.4635  0.2477  0.3436
    4MPD2    H7   64   0.602   4.390  11.467 -0.7466  0.5109  0.8765
    5TCq1    O1   65   2.414   1.377  12.623 -0.8004 -0.0927 -0.9262
    5TCq1    C1   66   2.331   1.381  12.516  0.0587 -0.2781  0.7116
    5TCq1    O2   67   2.372   1.376  12.402 -0.1161 -0.2314 -0.2114
    5TCq1    C2   68   2.191   1.362  12.555 -0.6818  0.1335  0.1700
    5TCq1    C3   69   2.149   1.384  12.687 -0.0141 -0.0659  0.0799
    5TCq1    C4   70   2.020   1.356  12.724  0.0344  0.0216 -0.2464
    5TCq1    C5   71   1.933   1.306  12.633 -0.2414 -0.1236 -0.3570
    5TCq1    C6   72   1.975   1.269  12.509  0.0421  0.1045 -0.1106
    5TCq1    C7   73   2.105   1.297  12.464  0.8549  0.4339 -1.0041
    5TCq1    C8   74   1.889   1.188  12.421  0.9137 -0.0902 -0.0486
    5TCq1    O4   75   1.925   1.179  12.304 -0.0021  0.2497  0.2462
    5TCq1    C9   76   1.974   1.392  12.851 -0.2523  0.1344 -0.8120
    5TCq1    O5   77   2.052   1.442  12.936  0.3417 -0.3204 -0.1111
    5TCq1    O6   78   1.860   1.352  12.886 -0.0347  0.4629 -0.2259
    5TCq1    H1   79   2.373   1.351  12.708 -0.7409  0.3034 -0.7760
    5TCq1    H2   80   2.211   1.440  12.755  0.1954 -1.0668  0.7063
    5TCq1    H3   81   1.831   1.315  12.670  0.3990  1.4706  1.0143
    5TCq1    H4   82   2.139   1.276  12.364  1.8870  2.6459 -1.1150
    6MPD2     C   83   1.551   1.060  12.507  0.7528 -0.2360 -0.2901
    6MPD2    C1   84   1.657   1.109  12.423 -0.5720  0.1055 -0.3623
    6MPD2    C2   85   1.647   1.107  12.285 -0.1912 -1.1479  0.2756
    6MPD2    C3   86   1.534   1.041  12.234 -0.0258 -0.1912 -0.4185
    6MPD2    C4   87   1.431   0.983  12.311 -0.0640  0.0640  0.3456
    6MPD2    C5   88   1.446   1.000  12.448  0.2041 -0.5224  0.1064
    6MPD2     H   89   1.718   1.145  12.212 -0.0778 -0.7192  0.6154
    6MPD2    H1   90   1.343   0.928  12.280  0.0106  0.0693  0.1203
    6MPD2    H2   91   1.552   1.067  12.615  0.4269  0.9462 -0.3672
    6MPD2    H3   92   1.378   0.942  12.510  1.0711 -0.8746  0.7251
    6MPD2     N   93   1.517   1.037  12.091 -0.2546 -0.3987 -0.2698
    6MPD2    H5   94   1.600   1.053  12.035  0.5766  1.3566  1.4408
    6MPD2    N1   95   1.778   1.148  12.486  0.3534 -0.0483  0.1866
    6MPD2    H7   96   1.776   1.163  12.586 -0.8050  1.3848 -0.0491
    7TCq1    O1   97   0.364   0.881  14.104  0.3328  0.3616  0.0274
    7TCq1    C1   98   0.289   0.799  14.030  0.3441  0.1891 -0.0080
    7TCq1    O2   99   0.320   0.744  13.923  0.8083  0.2308  0.4279
    7TCq1    C2  100   0.185   0.747  14.111  0.0437 -0.6595 -0.3566
    7TCq1    C3  101   0.197   0.744  14.246  0.7857 -0.1794 -0.4121
    7TCq1    C4  102   0.084   0.725  14.322 -0.7020 -0.0023 -0.1795
    7TCq1    C5  103   4.684   0.697  14.261 -0.5075 -0.3662 -0.0322
    7TCq1    C6  104   4.677   0.694  14.124 -0.5410  0.1810  0.4586
    7TCq1    C7  105   0.067   0.721  14.050 -0.4505  0.1931 -0.5030
    7TCq1    C8  106   4.550   0.676  14.055 -0.6326 -0.5136  0.2723
    7TCq1    O4  107   4.452   0.679  14.126 -0.0484  0.2166 -0.2907
    7TCq1    C9  108   0.092   0.717  14.467  0.2124 -0.5068  0.4587
    7TCq1    O5  109   4.706   0.735  14.528 -0.2379 -0.8650 -0.1706
    7TCq1    O6  110   0.203   0.684  14.519 -0.8944  0.2768 -0.1985
    7TCq1    H1  111   0.311   0.925  14.174 -1.2290  1.1173 -1.6443
    7TCq1    H2  112   0.297   0.741  14.287  0.9020 -0.7314 -0.7324
    7TCq1    H3  113   4.596   0.679  14.321  0.1831 -1.9522  0.5109
    7TCq1    H4  114   0.067   0.726  13.942 -0.6420 -0.1244 -0.5176
    8MPD2     C  115   4.280   0.454  13.684 -0.1534 -0.2834  0.4679
    8MPD2    C1  116   4.239   0.485  13.809  0.4237 -0.1542  0.2973
    8MPD2    C2  117   4.333   0.548  13.891  0.4979  0.3550  0.0158
    8MPD2    C3  118   4.459   0.582  13.843  0.1645 -0.3799  0.1386
    8MPD2    C4  119   4.488   0.563  13.712  0.6678 -0.9131  0.7924
    8MPD2    C5  120   4.403   0.491  13.642  0.9478 -0.5905  0.8170
    8MPD2     H  121   4.317   0.564  13.997  0.0221 -2.5623  0.3695
    8MPD2    H1  122   4.585   0.589  13.669 -0.3702  0.3728 -0.7489
    8MPD2    H2  123   4.211   0.387  13.633 -1.2593  1.0817  0.1773
    8MPD2    H3  124   4.424   0.459  13.540  0.2024  2.0509 -0.1609
    8MPD2     N  125   4.561   0.638  13.920 -0.5640 -0.2260 -0.0193
    8MPD2    H5  126   4.647   0.636  13.866 -0.1289  0.7658  0.6438
    8MPD2    N1  127   4.113   0.434  13.854 -0.5531 -0.1274 -0.0837
    8MPD2    H7  128   4.054   0.372  13.799  0.1140  0.7094 -1.7514
    9TCq1    O1  129   0.979   4.052  10.948 -0.4487 -0.0605 -0.5077
    9TCq1    C1  130   0.987   4.171  11.013 -0.3406  0.8900  0.7299
    9TCq1    O2  131   0.929   4.187  11.118 -0.0633 -0.1443  0.5848
    9TCq1    C2  132   1.106   4.234  10.965  0.9256 -0.3825 -0.6447
    9TCq1    C3  133   1.108   4.243  10.834 -0.6299  0.3904  0.2724
    9TCq1    C4  134   1.223   4.302  10.786 -0.8389  0.0868  0.2745
    9TCq1    C5  135   1.336   4.346  10.863 -0.6480 -0.5316  0.5408
    9TCq1    C6  136   1.315   4.330  10.995  0.4623  0.4133  0.4357
    9TCq1    C7  137   1.198   4.279  11.056 -0.6746 -0.3496 -0.1409
    9TCq1    C8  138   1.436   4.378  11.072  0.8279 -0.2299  0.1660
    9TCq1    O4  139   1.509   4.466  11.020 -0.1763  0.3382 -0.3551
    9TCq1    C9  140   1.236   4.307  10.637 -0.3239 -1.0142  0.2780
    9TCq1    O5  141   1.345   4.356  10.595  0.0311 -0.0465 -0.2673
    9TCq1    O6  142   1.143   4.267  10.568  0.1377  0.0576 -0.3153
    9TCq1    H1  143   1.034   4.057  10.866 -1.2447 -0.9154 -1.0995
    9TCq1    H2  144   1.027   4.210  10.770 -1.1062  0.8040  0.6599
    9TCq1    H3  145   1.425   4.377  10.809  0.8425 -0.7368  2.8500
    9TCq1    H4  146   1.186   4.253  11.160  0.4508 -3.9683 -0.9219
   10MPD2     C  147   1.592   4.496  11.291 -0.3735 -0.1807  0.4262
   10MPD2    C1  148   1.504   4.390  11.314  0.3638  0.4393  0.4162
   10MPD2    C2  149   1.477   4.338  11.436 -0.3336 -0.6716  0.2652
   10MPD2    C3  150   1.541   4.399  11.543 -0.1195  0.7333 -0.1957
   10MPD2    C4  151   1.621   4.506  11.523 -0.7988  0.4897 -0.2616
   10MPD2    C5  152   1.649   4.555  11.397 -0.1404  0.3290  0.9177
   10MPD2     H  153   1.408   4.254  11.447  1.0631 -2.0674 -1.6301
   10MPD2    H1  154   1.666   4.551  11.611  1.3924 -0.9824 -0.6580
   10MPD2    H2  155   1.614   4.543  11.195  2.5827 -2.4393 -0.0299
   10MPD2    H3  156   1.698   4.650  11.384  0.7509 -0.4211 -1.1442
   10MPD2     N  157   1.512   4.366  11.683 -0.2651 -0.5714 -0.2758
   10MPD2    H5  158   1.558   4.422  11.754  1.9631 -1.4596 -0.9821
   10MPD2    N1  159   1.428   4.334  11.204  0.3411  0.2669 -0.3169
   10MPD2    H7  160   1.356   4.268  11.231  1.0478 -0.2060  0.4170
   11TCq1    O1  161   2.725   4.134  14.579  0.3472  0.1387  0.0588
   11TCq1    C1  162   2.629   4.050  14.623 -0.7154 -0.3559  0.2801
   11TCq1    O2  163   2.587   3.960  14.552  0.4522  0.2717 -0.0990
   11TCq1    C2  164   2.562   4.097  14.751  0.6006 -0.3755 -0.0488
   11TCq1    C3  165   2.627   4.181  14.841 -0.2566  0.2092  0.3236
   11TCq1    C4  166   2.549   4.256  14.925  0.3524 -0.3267 -0.2561
   11TCq1    C5  167   2.414   4.242  14.918  0.6035 -0.0600 -0.0181
   11TCq1    C6  168   2.360   4.155  14.827  0.1115 -0.5379  0.0609
   11TCq1    C7  169   2.429   4.079  14.746 -0.5230 -0.0042  0.1028
   11TCq1    C8  170   2.222   4.124  14.866 -0.4091  0.0557  0.4290
   11TCq1    O4  171   2.173   4.178  14.963  0.1423  0.0556 -0.3344
   11TCq1    C9  172   2.616   4.328  15.031  0.5900  0.3989  0.3020
   11TCq1    O5  173   2.549   4.347  15.134 -0.3754  0.1231 -0.3409
   11TCq1    O6  174   2.740   4.335  15.029  0.1162 -0.2564  0.0407
   11TCq1    H1  175   2.729   4.212  14.639  0.4460 -1.2336  1.8536
   11TCq1    H2  176   2.735   4.183  14.849 -0.0696 -1.0343 -1.6240
   11TCq1    H3  177   2.354   4.295  14.991  0.4732 -0.2016 -0.0217
   11TCq1    H4  178   2.388   4.004  14.680  0.5689 -1.1418  0.7131
   12MPD2     C  179   1.929   4.085  14.807 -0.4578 -0.0899  0.5111
   12MPD2    C1  180   2.024   4.033  14.729  0.0683  1.0704  0.6698
   12MPD2    C2  181   1.995   3.966  14.607 -0.5564  0.6559 -0.0123
   12MPD2    C3  182   1.862   3.947  14.570  0.1354  0.0850 -0.3910
   12MPD2    C4  183   1.767   4.008  14.646  0.6265 -0.3459  1.5547
   12MPD2    C5  184   1.798   4.070  14.764 -0.1591 -0.1730 -0.6011
   12MPD2     H  185   2.077   3.918  14.555 -0.4563 -0.2531  0.9960
   12MPD2    H1  186   1.665   3.985  14.615  1.0267 -0.0770  0.0594
   12MPD2    H2  187   1.954   4.141  14.896 -0.5159  1.8039 -0.6817
   12MPD2    H3  188   1.715   4.116  14.815  0.3737 -0.4966  0.5625
   12MPD2     N  189   1.831   3.867  14.456 -0.4261 -0.3960 -0.4993
   12MPD2    H5  190   1.903   3.801  14.428 -1.0276 -1.8510  1.3587
   12MPD2    N1  191   2.160   4.053  14.761 -0.0192  0.0686 -0.0295
   12MPD2    H7  192   2.217   4.045  14.678  0.1865 -2.1874  0.3474
   13TCq1    O1  193   1.742   3.961  10.383  0.2159 -0.8479 -0.3527
   13TCq1    C1  194   1.693   4.027  10.494 -0.4846  0.5470  0.0217
   13TCq1    O2  195   1.703   4.144  10.523  0.5582 -0.1007  0.1281
   13TCq1    C2  196   1.580   3.951  10.540  0.3482 -0.7502 -0.4007
   13TCq1    C3  197   1.484   3.925  10.448 -1.0711 -0.2029  0.2870
   13TCq1    C4  198   1.365   3.898  10.504 -0.7433  0.3025 -0.2728
   13TCq1    C5  199   1.323   3.916  10.634  0.0288  0.1656 -0.3375
   13TCq1    C6  200   1.420   3.958  10.720 -0.9489  0.5244 -0.3651
   13TCq1    C7  201   1.554   3.974  10.674 -0.1715  0.0287 -0.2966
   13TCq1    C8  202   1.382   3.974  10.863  1.1156 -0.0235  0.0995
   13TCq1    O4  203   1.265   3.973  10.895 -0.3928 -0.1981 -0.6449
   13TCq1    C9  204   1.257   3.867  10.415 -0.8742 -0.4873  0.0405
   13TCq1    O5  205   1.295   3.833  10.303 -1.2257 -0.1531 -0.4087
   13TCq1    O6  206   1.147   3.914  10.450  0.4785 -0.1657 -0.4159
   13TCq1    H1  207   1.714   3.867  10.378 -0.7714 -0.7124  2.6688
   13TCq1    H2  208   1.508   3.914  10.343 -0.0138  0.8116  0.4150
   13TCq1    H3  209   1.221   3.901  10.668  0.2324 -1.8478 -0.6226
   13TCq1    H4  210   1.639   3.992  10.738 -1.6185 -0.3076  1.7100
   14MPD2     C  211   1.633   3.985  11.134  0.0831 -0.2214  0.0146
   14MPD2    C1  212   1.504   3.978  11.084  0.3563  0.2443 -0.7360
   14MPD2    C2  213   1.398   3.975  11.175 -0.0435  0.6990  0.0766
   14MPD2    C3  214   1.417   3.997  11.312  0.0770  0.2455  0.1646
   14MPD2    C4  215   1.542   4.011  11.356  0.5586 -0.0304 -0.0587
   14MPD2    C5  216   1.650   4.008  11.268  0.2373  0.1447  0.2662
   14MPD2     H  217   1.299   3.966  11.130  1.1679  0.2769 -2.4920
   14MPD2    H1  218   1.556   4.041  11.459 -0.7940 -1.7103  0.6238
   14MPD2    H2  219   1.725   3.988  11.076  1.1361  1.5005  1.7780
   14MPD2    H3  220   1.749   4.022  11.309  0.0995 -0.5750  0.8401
   14MPD2     N  221   1.307   4.022  11.400 -0.7185 -0.2644  0.1383
   14MPD2    H5  222   1.332   4.069  11.486  0.1230  0.0978 -0.3110
   14MPD2    N1  223   1.496   3.960  10.941  0.4250  0.0233 -0.3831
   14MPD2    H7  224   1.586   3.954  10.894  0.4975 -0.5794 -0.1590
   15TCq1    O1  225   3.091   3.741   2.112 -0.2357  0.5656  0.0791
   15TCq1    C1  226   3.134   3.698   1.991 -0.0721  0.8334 -1.0045
   15TCq1    O2  227   3.059   3.672   1.897  0.1452  0.0343 -0.1656
   15TCq1    C2  228   3.262   3.622   2.014 -0.1473 -0.2578  0.2373
   15TCq1    C3  229   3.355   3.683   2.090  0.3004 -0.0666 -0.3938
   15TCq1    C4  230   3.481   3.620   2.106 -0.7055 -0.4714  0.5603
   15TCq1    C5  231   3.507   3.505   2.044 -0.1137 -0.2485  0.2430
   15TCq1    C6  232   3.414   3.459   1.949  0.1446 -0.5281  0.4490
   15TCq1    C7  233   3.288   3.515   1.934 -0.3651 -0.4235 -0.9249
   15TCq1    C8  234   3.432   3.320   1.907 -0.3207 -0.4907 -0.0618
   15TCq1    O4  235   3.511   3.255   1.973 -0.4299  1.0024  0.4744
   15TCq1    C9  236   3.580   3.679   2.193  0.2087 -0.0866 -0.7851
   15TCq1    O5  237   3.539   3.781   2.254 -0.0148 -0.4557 -0.8898
   15TCq1    O6  238   3.692   3.625   2.204 -0.2816  0.9399 -0.4096
   15TCq1    H1  239   3.157   3.746   2.184 -0.2605 -0.5173  0.1830
   15TCq1    H2  240   3.332   3.778   2.137  3.4056 -0.2610  1.4880
   15TCq1    H3  241   3.603   3.457   2.061  0.4098  0.1299 -1.7307
   15TCq1    H4  242   3.208   3.480   1.869  0.8726  0.2725 -2.8514
   16MPD2     C  243   3.254   3.154   1.620  0.5467  0.6173  0.5925
   16MPD2    C1  244   3.351   3.168   1.722  0.5503  0.1005 -0.2966
   16MPD2    C2  245   3.435   3.064   1.750 -0.2921  0.3490 -0.5396
   16MPD2    C3  246   3.412   2.938   1.694 -0.0928  0.8255 -0.5763
   16MPD2    C4  247   3.315   2.931   1.592  0.5535  0.1054 -0.6804
   16MPD2    C5  248   3.243   3.036   1.563  0.0634  0.6159  1.0056
   16MPD2     H  249   3.506   3.076   1.832 -0.8577 -1.5210  0.2211
   16MPD2    H1  250   3.306   2.844   1.529  3.5616 -1.5883  1.2282
   16MPD2    H2  251   3.186   3.231   1.587  0.5824  0.7303  0.7808
   16MPD2    H3  252   3.173   3.024   1.481  1.4933 -1.8211  0.1498
   16MPD2     N  253   3.503   2.830   1.726 -0.2349 -0.1067  0.7864
   16MPD2    H5  254   3.577   2.856   1.791 -0.3674  2.1412  0.0409
   16MPD2    N1  255   3.358   3.288   1.796 -0.2040 -0.3590  0.3943
   16MPD2    H7  256   3.312   3.366   1.753 -0.4214 -0.0066  1.2703
   17TCq1    O1  257   0.378   2.777  12.015 -0.5258  0.0910  0.2815
   17TCq1    C1  258   0.481   2.703  11.963  0.4712  0.1826  0.0145
   17TCq1    O2  259   0.492   2.584  11.990  0.6574  0.1781 -0.0308
   17TCq1    C2  260   0.512   2.757  11.834 -0.3722  0.4016  0.1463
   17TCq1    C3  261   0.522   2.889  11.815 -0.4910 -0.3588  0.2448
   17TCq1    C4  262   0.606   2.926  11.717  0.4024  0.3322 -0.2945
   17TCq1    C5  263   0.663   2.839  11.625  0.3362 -0.1087 -0.6025
   17TCq1    C6  264   0.627   2.710  11.634 -0.0882  0.1417  0.4008
   17TCq1    C7  265   0.553   2.665  11.739 -0.5682  0.4321  0.1462
   17TCq1    C8  266   0.614   2.637  11.504 -0.7097  0.6543 -0.5723
   17TCq1    O4  267   0.524   2.552  11.492  0.4224  0.3553  0.1137
   17TCq1    C9  268   0.631   3.072  11.706  0.1840  0.0404 -0.0545
   17TCq1    O5  269   0.719   3.113  11.623  0.3681 -0.4524  0.1454
   17TCq1    O6  270   0.563   3.152  11.778  0.0986 -0.4152  0.3499
   17TCq1    H1  271   0.356   2.860  11.969  0.1010 -0.0507 -0.2768
   17TCq1    H2  272   0.493   2.966  11.886 -0.6057 -1.1399  1.0429
   17TCq1    H3  273   0.717   2.879  11.539 -0.2008  0.7636 -0.5343
   17TCq1    H4  274   0.521   2.561  11.736  2.7627 -0.6674  2.4069
   18MPD2     C  275   0.643   2.545  11.220  0.7119  0.0035  0.3672
   18MPD2    C1  276   0.734   2.628  11.288 -0.3614 -0.2341 -0.3820
   18MPD2    C2  277   0.846   2.668  11.212 -0.7217  0.1958  0.6686
   18MPD2    C3  278   0.866   2.627  11.079 -0.6741  0.3017 -0.5274
   18MPD2    C4  279   0.783   2.541  11.018 -0.6758 -0.2421  0.7828
   18MPD2    C5  280   0.676   2.499  11.088  0.0302 -0.0591 -0.1570
   18MPD2     H  281   0.900   2.749  11.259  3.1278 -2.3285  0.5569
   18MPD2    H1  282   0.795   2.509  10.915  0.7984  0.3957  0.7493
   18MPD2    H2  283   0.550   2.514  11.265  1.6385 -0.9468  1.6305
   18MPD2    H3  284   0.610   2.430  11.037  1.0290 -1.6524  0.6825
   18MPD2     N  285   0.967   2.673  10.997  0.7194 -1.0333  0.2023
   18MPD2    H5  286   0.956   2.666  10.896  1.4078 -2.1412  0.2104
   18MPD2    N1  287   0.719   2.676  11.417 -0.3967  0.0044  0.2456
   18MPD2    H7  288   0.785   2.742  11.457  0.6834  0.6867 -2.6787
   19TMC2    C1  289   3.272   3.778  14.305  0.6969 -0.7797 -0.0743
   19TMC2    C2  290   3.286   3.833  14.181 -0.0461 -0.0080  0.1891
   19TMC2    C3  291   3.237   3.762  14.072 -0.5928  0.6085  0.8682
   19TMC2    C4  292   3.201   3.655  14.326 -0.5020 -0.0872  0.0207
   19TMC2    C5  293   3.144   3.598  14.211  0.2761 -0.2865 -1.0374
   19TMC2    C6  294   3.167   3.643  14.080 -0.7479  0.6730  0.8155
   19TMC2     C  295   3.299   3.870  14.414  0.4412 -0.2092  0.2607
   19TMC2     O  296   3.324   3.984  14.383  0.4846 -0.1999 -0.6674
   19TMC2     H  297   3.338   3.923  14.152  0.0516  0.3613  1.4890
   19TMC2    H1  298   3.180   3.621  14.427 -0.9443  1.0919  0.3276
   19TMC2    H2  299   3.161   3.589  13.986 -0.6860  1.3745  0.4071
   19TMC2    C7  300   3.034   3.510  14.223  0.1354 -0.6049  0.2020
   19TMC2    C8  301   3.298   3.800  13.944 -1.0829 -1.4040  0.3690
   19TMC2    O1  302   3.020   3.445  14.327 -0.3990 -0.4245  1.0732
   19TMC2    O2  303   3.404   3.864  13.927  0.0684  0.0063 -0.1249
   19TMC2    O5  304   3.204   3.774  13.853  0.1171 -0.0443 -0.2098
   19TMC2    H5  305   3.115   3.749  13.886 -0.9296  2.4311 -1.1625
   20MPD2     C  306   3.377   3.998  14.683  0.6041  0.1173 -0.4982
   20MPD2    C1  307   3.370   3.860  14.656  0.7139 -0.1128 -0.8942
   20MPD2    C2  308   3.400   3.771  14.761 -0.2916  0.2122 -0.8347
   20MPD2    C3  309   3.453   3.817  14.881 -0.2225  0.3765 -0.2887
   20MPD2    C4  310   3.459   3.954  14.905  0.3179  0.2443  0.9302
   20MPD2    C5  311   3.424   4.042  14.806  0.2629  0.3598 -0.9290
   20MPD2     H  312   3.397   3.665  14.741 -0.1919 -0.0695  0.6576
   20MPD2    H1  313   3.499   3.991  14.999  2.6676 -0.2545  0.1186
   20MPD2    H2  314   3.363   4.071  14.604 -2.1047  0.1344 -0.0260
   20MPD2    H3  315   3.438   4.149  14.817 -0.1026  0.1119  2.0207
   20MPD2     N  316   3.495   3.737  14.995 -0.1524  0.2163 -0.3011
   20MPD2    H5  317   3.534   3.794  15.069  1.4277  0.2101 -1.1093
   20MPD2    N1  318   3.323   3.804  14.538  0.4980  0.2243 -0.1663
   20MPD2    H7  319   3.324   3.703  14.542  1.9717  0.2514  0.0161
   21MPD2     C  320   0.564   4.097  14.665 -0.0204 -0.2929  0.2493
   21MPD2    C1  321   0.657   4.022  14.734  0.3401  0.0151  0.0265
   21MPD2    C2  322   0.625   3.977  14.861 -0.7211 -0.4066 -0.9523
   21MPD2    C3  323   0.506   4.004  14.924  0.4766 -0.2573 -0.9130
   21MPD2    C4  324   0.415   4.076  14.841 -0.0547 -0.3749  0.0511
   21MPD2    C5  325   0.441   4.121  14.720 -0.1055  0.1705 -0.5501
   21MPD2     H  326   0.694   3.915  14.917  0.0660  0.1850 -1.2685
   21MPD2    H1  327   0.316   4.103  14.875  0.2791  0.3823  0.4214
   21MPD2    H2  328   0.575   4.125  14.561 -0.7019 -0.8218  0.0370
   21MPD2    H3  329   0.361   4.181  14.676 -1.6669 -2.1936 -0.9424
   21MPD2     N  330   0.465   3.962  15.051 -0.4379  0.3443  0.0905
   21MPD2    H5  331   0.379   3.996  15.092 -0.9688 -0.1186 -0.6425
   21MPD2    N1  332   0.784   3.988  14.681  0.3086 -0.1862  1.5997
   21MPD2    H7  333   0.852   3.946  14.744  3.1739  0.2436 -1.2134
   22TCq2    C1  334   0.537   3.879  15.133 -0.1598 -0.7571 -0.3053
   22TCq2    O2  335   0.660   3.861  15.144 -0.4189 -0.3462  0.2557
   22TCq2    C2  336   0.454   3.829  15.245  0.3378  0.5800 -0.1053
   22TCq2    C3  337   0.516   3.780  15.355 -0.1463 -0.0840 -0.1990
   22TCq2    C4  338   0.451   3.706  15.445 -0.3905 -0.5643 -0.5512
   22TCq2    C5  339   0.315   3.686  15.431 -0.3555  0.1531  0.8268
   22TCq2    C6  340   0.255   3.741  15.321  0.0253 -0.2253  0.3309
   22TCq2    C7  341   0.318   3.811  15.223 -0.1336  0.2369 -0.3495
   22TCq2    C8  342   0.102   3.747  15.309 -0.2113  0.0084  0.0441
   22TCq2    O4  343   0.053   3.641  15.347  0.8545  0.6943  0.1439
   22TCq2    C9  344   0.511   3.659  15.570  0.0027  0.9950 -0.3315
   22TCq2    O5  345   0.625   3.702  15.591 -1.0184  0.2750 -0.3363
   22TCq2    O6  346   0.446   3.569  15.630  0.0033  0.1567  0.3002
   22TCq2    H2  347   0.615   3.822  15.373  0.1342 -0.2259 -1.3981
   22TCq2    H3  348   0.267   3.633  15.513  0.9677  1.2272  2.2953
   22TCq2    H4  349   0.272   3.864  15.140  0.8538  1.0953 -0.3547
   23MPD2     C  350   2.385   0.238  14.940  0.6034 -0.3000  0.7745
   23MPD2    C1  351   2.310   0.236  15.052  0.2442 -0.2088  0.0457
   23MPD2    C2  352   2.231   0.344  15.076  0.1066 -0.5729  0.6864
   23MPD2    C3  353   2.218   0.454  14.993  0.0538 -0.3311  0.5845
   23MPD2    C4  354   2.285   0.440  14.871 -1.3807 -0.7797  0.2132
   23MPD2    C5  355   2.376   0.341  14.846 -0.3111  0.4625  0.4095
   23MPD2     H  356   2.174   0.342  15.169  0.3721  2.5259  0.9367
   23MPD2    H1  357   2.270   0.513  14.792 -1.2790  0.7027  1.5621
   23MPD2    H2  358   2.471   0.178  14.914 -0.4813 -1.5619  0.0284
   23MPD2    H3  359   2.437   0.333  14.758 -1.1750 -1.4588 -0.0116
   23MPD2     N  360   2.122   0.559  15.007  0.3923 -0.2754  0.0545
   23MPD2    H5  361   2.097   0.612  14.924  1.2083  1.9357  1.2333
   23MPD2    N1  362   2.313   0.129  15.150  0.1447 -0.1696  0.4824
   23MPD2    H7  363   2.267   0.138  15.240 -1.0108  1.2876 -0.2537
   24TCq2    C1  364   2.054   0.591  15.123 -0.0863  0.0841  0.2955
   24TCq2    O2  365   2.068   0.549  15.237 -0.4473 -0.4089 -0.3558
   24TCq2    C2  366   1.941   0.674  15.084  0.4208  0.0503 -0.7811
   24TCq2    C3  367   1.926   0.719  14.953 -0.2843 -0.0724  0.7855
   24TCq2    C4  368   1.805   0.768  14.922  0.1738 -0.5051  0.2781
   24TCq2    C5  369   1.702   0.760  15.006  0.1264 -0.0544  0.1045
   24TCq2    C6  370   1.721   0.720  15.137  0.5847  0.4122  0.4270
   24TCq2    C7  371   1.842   0.682  15.184  0.3751 -0.1582 -0.1850
   24TCq2    C8  372   1.620   0.705  15.240  1.1815 -0.2000 -0.8169
   24TCq2    O4  373   1.650   0.719  15.358  0.1034 -0.3384  0.4273
   24TCq2    C9  374   1.789   0.839  14.797  0.1736  0.3999 -0.3566
   24TCq2    O5  375   1.885   0.861  14.718  0.5271  0.1486 -0.2761
   24TCq2    O6  376   1.667   0.862  14.777 -0.3810  0.3016 -0.2262
   24TCq2    H2  377   2.009   0.749  14.889 -0.9669 -2.2845 -1.1254
   24TCq2    H3  378   1.607   0.808  14.986  0.3930  0.0282 -0.9108
   24TCq2    H4  379   1.865   0.652  15.285 -0.9385  1.5212  0.6175
   25TMC2    C1  380   1.237   2.245  11.814  0.0922 -0.4983 -0.3861
   25TMC2    C2  381   1.366   2.280  11.830 -1.0123  0.4444 -0.4580
   25TMC2    C3  382   1.399   2.388  11.901 -0.2508 -0.8367 -0.6845
   25TMC2    C4  383   1.139   2.307  11.887  0.1761  0.1169 -1.1548
   25TMC2    C5  384   1.180   2.412  11.972  0.2291 -0.6281  0.1286
   25TMC2    C6  385   1.311   2.455  11.978 -0.6177 -0.0628 -0.6965
   25TMC2     C  386   1.211   2.128  11.728  0.1160  0.5506  0.1088
   25TMC2     O  387   1.312   2.080  11.677  0.2192  0.0793 -0.1284
   25TMC2     H  388   1.443   2.240  11.764 -1.7703  0.2158 -1.2010
   25TMC2    H1  389   1.033   2.285  11.880  0.3197 -0.4877 -1.4017
   25TMC2    H2  390   1.348   2.531  12.046 -2.5881 -0.6139  0.9831
   25TMC2    C7  391   1.072   2.500  12.015 -1.0255 -0.9533  0.1581
   25TMC2    C8  392   1.535   2.423  11.887 -0.3748  0.4820  0.3963
   25TMC2    O1  393   0.971   2.445  12.056  0.8341 -0.7435  0.0917
   25TMC2    O2  394   1.623   2.350  11.845 -0.0389 -0.7115  0.2253
   25TMC2    O5  395   1.554   2.543  11.945  0.2487 -0.3928 -0.0957
   25TMC2    H5  396   1.475   2.584  11.986  1.3169 -1.0476  2.6664
   26MPD2     C  397   0.932   1.771  11.479  0.1201  0.2091 -0.8846
   26MPD2    C1  398   0.852   1.835  11.575 -0.0697  0.4256  0.1067
   26MPD2    C2  399   0.897   1.940  11.653  0.1582  0.5506  0.4173
   26MPD2    C3  400   1.031   1.980  11.636 -0.4307 -0.3198  0.5661
   26MPD2    C4  401   1.111   1.919  11.540  0.3005  0.9241  0.0803
   26MPD2    C5  402   1.063   1.810  11.467 -0.4501  0.3302  0.5905
   26MPD2     H  403   0.832   1.987  11.727  1.7111 -0.1780  2.2317
   26MPD2    H1  404   1.215   1.943  11.524  0.9072 -0.2325  2.2264
   26MPD2    H2  405   0.895   1.688  11.419  2.2627 -0.1013 -1.7483
   26MPD2    H3  406   1.131   1.768  11.394 -2.8224 -2.1183 -0.2028
   26MPD2     N  407   1.081   2.093  11.715  0.0362  0.1505 -0.6182
   26MPD2    H5  408   1.014   2.146  11.771 -0.8889 -0.4635 -1.1527
   26MPD2    N1  409   0.723   1.789  11.584  0.1495  0.2152 -0.6135
   26MPD2    H7  410   0.687   1.719  11.521  0.0136 -1.8530  1.7426
   27TMC2    C1  411   4.509   4.689  12.397  0.2533 -0.5572 -0.5204
   27TMC2    C2  412   4.419   0.050  12.349  0.5649 -0.3272  0.5914
   27TMC2    C3  413   4.467   0.174  12.311 -0.1718 -0.0074 -0.2004
   27TMC2    C4  414   4.647   4.713  12.393  0.1204  0.2082 -0.3256
   27TMC2    C5  415   4.686   0.114  12.349 -0.8235  0.2662 -0.2559
   27TMC2    C6  416   4.597   0.213  12.319  0.2272 -0.0145  0.4877
   27TMC2     C  417   4.467   4.589  12.493  0.0224 -0.0959 -0.5795
   27TMC2     O  418   4.556   4.505  12.507  0.3399 -0.0754  0.4619
   27TMC2     H  419   4.313   0.026  12.359  0.5131 -0.1425  0.4868
   27TMC2    H1  420   4.711   4.632  12.426 -0.1526  0.3837  0.6173
   27TMC2    H2  421   4.631   0.313  12.296 -0.5466 -0.1419 -1.2369
   27TMC2    C7  422   0.100   0.135  12.376 -0.2120  0.1066  0.2532
   27TMC2    C8  423   4.391   0.265  12.228  1.3217  0.2113  0.0104
   27TMC2    O1  424   0.184   0.043  12.363 -0.3070 -0.0475  0.1869
   27TMC2    O2  425   4.375   0.246  12.108 -0.1086  0.3014 -0.1287
   27TMC2    O5  426   4.414   0.387  12.282  0.0617 -0.0018  0.6914
   27TMC2    H5  427   4.423   0.395  12.379 -0.8658 -0.2437  0.8001
   28MPD2     C  428   4.238   4.425  12.911 -0.3000 -0.2577 -0.2522
   28MPD2    C1  429   4.197   4.552  12.895  0.1813 -0.5409 -0.9065
   28MPD2    C2  430   4.239   4.620  12.779  0.4010  0.2035  0.3674
   28MPD2    C3  431   4.330   4.559  12.696  0.4822  0.6086 -0.2185
   28MPD2    C4  432   4.370   4.436  12.716  0.4384  0.5535  1.3346
   28MPD2    C5  433   4.332   4.371  12.831  0.1340  0.2288  0.3052
   28MPD2     H  434   4.222   0.002  12.778  0.0775  0.1554  0.6852
   28MPD2    H1  435   4.427   4.377  12.646 -0.6678 -1.0998  1.8385
   28MPD2    H2  436   4.195   4.361  12.987  0.9451  0.7561  1.2935
   28MPD2    H3  437   4.364   4.268  12.847 -0.9139  0.0611  1.2639
   28MPD2     N  438   4.368   4.630  12.578 -0.5779  0.1972  0.0397
   28MPD2    H5  439   4.335   0.001  12.577 -0.2177  0.3178 -0.1547
   28MPD2    N1  440   4.109   4.595  12.993 -0.0511 -0.2092  0.3770
   28MPD2    H7  441   4.091   4.521  13.060 -3.3296 -1.1938 -1.6038
   29MPD2     C  442   3.713   2.156  14.133  0.4819  0.7786  0.0269
   29MPD2    C1  443   3.802   2.085  14.215  0.4173  0.6850  0.1990
   29MPD2    C2  444   3.871   2.158  14.312  0.0145  0.6923 -0.0241
   29MPD2    C3  445   3.847   2.299  14.321  0.3538  0.6882  0.0945
   29MPD2    C4  446   3.753   2.364  14.241  0.1048  0.5044 -0.2384
   29MPD2    C5  447   3.690   2.285  14.149 -0.5935 -0.5607  0.2450
   29MPD2     H  448   3.941   2.107  14.377  0.7894  0.7788 -0.7846
   29MPD2    H1  449   3.713   2.464  14.255 -1.7913 -0.0339 -1.7746
   29MPD2    H2  450   3.661   2.107  14.052 -1.2374 -0.7315  2.0353
   29MPD2    H3  451   3.614   2.336  14.090  1.9796  2.1768 -0.6956
   29MPD2     N  452   3.910   2.381  14.415  0.3274 -0.0873  0.0742
   29MPD2    H5  453   3.884   2.479  14.412  1.1816  0.1982  1.6335
   29MPD2    N1  454   3.830   1.940  14.228 -0.1252  0.6851 -0.8941
   29MPD2    H7  455   3.908   1.910  14.285 -0.7802  0.7959  0.0510
   30TCq2    C1  456   3.994   2.338  14.517 -0.5311 -0.2673  0.3423
   30TCq2    O2  457   4.040   2.229  14.544  0.2890 -0.0490  0.6513
   30TCq2    C2  458   4.051   2.445  14.600  0.0137  0.5698 -0.1114
   30TCq2    C3  459   4.087   2.414  14.730  0.3935 -0.7360  0.1115
   30TCq2    C4  460   4.133   2.510  14.820 -0.0282 -0.0277 -0.2626
   30TCq2    C5  461   4.148   2.640  14.770 -0.9096 -0.0657 -0.2735
   30TCq2    C6  462   4.113   2.667  14.640  0.0494  0.5296  0.6765
   30TCq2    C7  463   4.062   2.572  14.555  0.5024  0.1254 -0.6217
   30TCq2    C8  464   4.074   2.802  14.602 -0.2868  0.5164 -0.0837
   30TCq2    O4  465   4.001   2.814  14.501  0.1302  0.8122 -0.2774
   30TCq2    C9  466   4.154   2.470  14.956 -0.0272 -0.2642  0.5754
   30TCq2    O5  467   4.207   2.557  15.029  0.0592  0.9727  0.3165
   30TCq2    O6  468   4.082   2.370  14.992 -0.4142  0.4570  0.0482
   30TCq2    H2  469   4.083   2.314  14.772  0.7441 -0.8752 -0.1931
   30TCq2    H3  470   4.187   2.712  14.840 -1.8283 -0.0661  0.2359
   30TCq2    H4  471   4.030   2.597  14.454  0.2872 -0.2649 -0.6475
   31MPD2     C  472   2.090   1.712  14.888 -0.6611  0.2363 -0.0337
   31MPD2    C1  473   1.977   1.682  14.817 -0.3137  0.5156  0.1403
   31MPD2    C2  474   1.892   1.585  14.864  0.3923 -0.2125 -0.2291
   31MPD2    C3  475   1.917   1.519  14.986  0.3890  0.4043 -0.3905
   31MPD2    C4  476   2.033   1.557  15.057 -0.4050  0.0846  0.2857
   31MPD2    C5  477   2.121   1.649  15.001  0.7295 -0.4110 -0.5293
   31MPD2     H  478   1.810   1.548  14.804  1.3562 -3.0368  0.1963
   31MPD2    H1  479   2.059   1.514  15.153  3.4442  2.1524  0.1546
   31MPD2    H2  480   2.156   1.791  14.854  0.7324 -1.2635 -0.8644
   31MPD2    H3  481   2.212   1.681  15.049  0.9539  1.0697 -1.9186
   31MPD2     N  482   1.831   1.428  15.046  0.4562 -0.5347 -0.0888
   31MPD2    H5  483   1.856   1.370  15.125 -0.5369  0.1220  0.7106
   31MPD2    N1  484   1.955   1.749  14.695  0.0607  0.6582 -0.2326
   31MPD2    H7  485   2.022   1.825  14.684 -0.9607  1.4551 -0.8980
   32TCq2    C1  486   1.707   1.398  14.997  0.0712  0.3766  0.7135
   32TCq2    O2  487   1.648   1.455  14.906 -0.4302 -0.2478 -0.0409
   32TCq2    C2  488   1.643   1.277  15.047 -0.1388  0.6952  0.5689
   32TCq2    C3  489   1.543   1.222  14.970  0.3885  0.3910  0.6333
   32TCq2    C4  490   1.492   1.103  15.012 -0.4717 -0.2411 -0.5531
   32TCq2    C5  491   1.530   1.041  15.127 -0.6053  0.1959 -0.2864
   32TCq2    C6  492   1.627   1.107  15.203  0.9078 -0.0219 -0.1841
   32TCq2    C7  493   1.690   1.216  15.157  0.0491 -0.1139 -0.3994
   32TCq2    C8  494   1.620   1.093  15.345  0.4009 -0.5427 -0.0712
   32TCq2    O4  495   1.723   1.122  15.408  0.0866  0.1075 -0.3445
   32TCq2    C9  496   1.379   1.067  14.940  0.1743  0.4413  0.4344
   32TCq2    O5  497   1.302   0.987  14.989  0.5259  0.0649  0.0413
   32TCq2    O6  498   1.392   1.089  14.813 -0.3580  0.1181 -0.1683
   32TCq2    H2  499   1.481   1.284  14.905  1.9685  0.5227 -0.7376
   32TCq2    H3  500   1.476   0.950  15.148  2.4288 -1.5460  0.0551
   32TCq2    H4  501   1.766   1.258  15.223 -0.4690 -1.0071  0.7639
   33MPD2     C  502   0.874   2.750  10.432 -0.3228  0.9765 -0.6898
   33MPD2    C1  503   0.996   2.814  10.443 -0.9269 -0.4082  0.0610
   33MPD2    C2  504   1.083   2.823  10.337 -0.0667  0.2906  0.3280
   33MPD2    C3  505   1.033   2.775  10.213 -0.5856 -0.3857 -0.7307
   33MPD2    C4  506   0.904   2.720  10.199 -0.3245  0.5591  0.1761
   33MPD2    C5  507   0.835   2.705  10.313  0.4408  0.4555 -0.4174
   33MPD2     H  508   1.171   2.885  10.329  0.4253 -0.2920  1.2652
   33MPD2    H1  509   0.880   2.673  10.104 -2.7111  0.0614  1.0258
   33MPD2    H2  510   0.812   2.734  10.519 -0.4756  0.1098 -0.9612
   33MPD2    H3  511   0.746   2.643  10.324  1.6109 -0.9667  0.9909
   33MPD2     N  512   1.109   2.783  10.090  0.1742  0.3705  0.5937
   33MPD2    H5  513   1.060   2.751  10.007 -2.9602 -0.5968  2.8404
   33MPD2    N1  514   1.035   2.849  10.572  0.6435 -0.4232 -0.4717
   33MPD2    H7  515   0.977   2.822  10.651  0.4534 -0.0498 -0.4808
   34TCq2    C1  516   1.243   2.821  10.070  0.8773  0.7476  0.9666
   34TCq2    O2  517   1.325   2.870  10.146 -0.1377  0.2019 -0.1484
   34TCq2    C2  518   1.293   2.811   9.932  1.1286 -0.0284  0.4683
   34TCq2    C3  519   1.194   2.823   9.834 -0.1101  0.2611  0.2059
   34TCq2    C4  520   1.240   2.853   9.707  0.4972 -0.3699  0.0953
   34TCq2    C5  521   1.374   2.879   9.685 -0.0741 -0.3337 -0.1588
   34TCq2    C6  522   1.464   2.862   9.785 -0.1959 -0.5560 -0.0335
   34TCq2    C7  523   1.426   2.828   9.912  0.4510  0.3823  0.4991
   34TCq2    C8  524   1.573   2.950   9.804  0.0037  0.2200 -0.1616
   34TCq2    O4  525   1.596   2.995   9.917  0.2612  0.0972 -0.3813
   34TCq2    C9  526   1.144   2.895   9.613  0.4234 -0.0000  0.0172
   34TCq2    O5  527   1.192   2.934   9.502  0.1438 -0.1459  0.1892
   34TCq2    O6  528   1.026   2.875   9.647  0.2704  0.1732  0.7475
   34TCq2    H2  529   1.087   2.823   9.850  0.1017 -1.1089  1.6040
   34TCq2    H3  530   1.394   2.902   9.582 -0.3862  0.1266 -0.1184
   34TCq2    H4  531   1.495   2.810   9.994 -0.0751 -1.6983  0.4898
   35MPD2     C  532   3.736   0.630  12.269  0.0153  0.1570  0.0740
   35MPD2    C1  533   3.680   0.509  12.323  0.2353 -0.6867 -0.0032
   35MPD2    C2  534   3.557   0.464  12.276  0.0360 -0.0572  0.2810
   35MPD2    C3  535   3.490   0.534  12.179 -0.5447  0.0738  0.8484
   35MPD2    C4  536   3.547   0.649  12.124  0.4517 -0.4613  0.5893
   35MPD2    C5  537   3.672   0.691  12.168  0.0505  0.0728 -0.2598
   35MPD2     H  538   3.512   0.374  12.315  0.8482 -0.7381 -0.3350
   35MPD2    H1  539   3.510   0.707  12.041  1.7143  0.7984  0.8925
   35MPD2    H2  540   3.835   0.664  12.297 -0.1423 -0.1654  1.0410
   35MPD2    H3  541   3.710   0.775  12.111 -1.2862  0.7917 -0.0925
   35MPD2     N  542   3.362   0.482  12.142 -0.2510 -0.7925  0.3571
   35MPD2    H5  543   3.331   0.398  12.190  0.3342 -2.2055 -1.7458
   35MPD2    N1  544   3.753   0.442  12.427 -0.2638 -0.2214 -0.3099
   35MPD2    H7  545   3.813   0.504  12.480  0.1293 -0.4231 -0.5229
   36TCq2    C1  546   3.286   0.534  12.030  0.3919  0.4477 -0.8181
   36TCq2    O2  547   3.322   0.636  11.968  0.3293 -0.1842 -0.4881
   36TCq2    C2  548   3.182   0.450  11.977  0.9492  0.2526  0.8870
   36TCq2    C3  549   3.107   0.489  11.866 -0.2128  0.1761  0.2163
   36TCq2    C4  550   3.002   0.419  11.821  0.4016 -0.3761  0.5105
   36TCq2    C5  551   2.969   0.303  11.886  0.6283 -0.5948  0.0033
   36TCq2    C6  552   3.036   0.268  11.999 -0.4975  0.1589 -0.2408
   36TCq2    C7  553   3.139   0.342  12.047 -0.1948 -0.6473 -1.2537
   36TCq2    C8  554   3.015   0.137  12.049 -0.2336  0.7353  0.0824
   36TCq2    O4  555   2.901   0.092  12.040  0.4448  0.2296 -0.0842
   36TCq2    C9  556   2.943   0.445  11.686 -0.6344  0.7745  0.3194
   36TCq2    O5  557   3.022   0.490  11.599 -0.1586  0.2012 -0.0681
   36TCq2    O6  558   2.828   0.395  11.665  0.1806  0.3259 -0.6222
   36TCq2    H2  559   3.140   0.575  11.810  0.5562 -1.0971 -1.2908
   36TCq2    H3  560   2.886   0.241  11.852 -1.9803  1.8526  1.8611
   36TCq2    H4  561   3.194   0.302  12.132 -2.7807  0.8766  1.1333
   37TMC2    C1  562   0.775   0.533  11.585  0.6945  0.0005  0.1634
   37TMC2    C2  563   0.746   0.469  11.465 -0.4275  0.8152  0.0263
   37TMC2    C3  564   0.857   0.400  11.413  0.2722  1.1530  0.2551
   37TMC2    C4  565   0.892   0.528  11.661 -0.8575  0.5662 -0.0946
   37TMC2    C5  566   0.994   0.453  11.598 -0.7126 -0.2459  0.1045
   37TMC2    C6  567   0.975   0.394  11.478  0.7959  0.2297 -0.4358
   37TMC2     C  568   0.655   0.560  11.659 -0.0006 -0.2610  0.6817
   37TMC2     O  569   0.548   0.571  11.602 -0.2850 -0.0720 -0.1165
   37TMC2     H  570   0.654   0.478  11.409 -1.5186 -1.5634  1.4682
   37TMC2    H1  571   0.914   0.577  11.755  1.5918 -1.1100  0.2180
   37TMC2    H2  572   1.035   0.314  11.435  2.5500  1.0108  0.5507
   37TMC2    C7  573   1.131   0.472  11.655  1.0888  0.0425  0.2148
   37TMC2    C8  574   0.827   0.300  11.309 -0.6392  1.1209  0.1385
   37TMC2    O1  575   1.126   0.489  11.777  0.7676  0.6623 -0.0882
   37TMC2    O2  576   0.883   0.298  11.198  0.0959  0.0059 -0.1872
   37TMC2    O5  577   0.698   0.252  11.337 -0.2728 -0.5170  0.1794
   37TMC2    H5  578   0.678   0.268  11.432  2.8262  2.1226  0.3766
   38MPD2     C  579   0.382   0.539  12.100  1.2146 -0.9124 -0.3095
   38MPD2    C1  580   0.507   0.489  12.126  0.0003  0.4363  0.3397
   38MPD2    C2  581   0.604   0.508  12.027  0.4491 -0.2566 -0.3890
   38MPD2    C3  582   0.570   0.547  11.893 -0.0361  0.3676  0.0811
   38MPD2    C4  583   0.439   0.596  11.867  0.8823  0.1212 -0.3624
   38MPD2    C5  584   0.347   0.591  11.974  0.5970  0.3582  0.3066
   38MPD2     H  585   0.708   0.491  12.053  0.0296 -4.1079 -1.3312
   38MPD2    H1  586   0.404   0.640  11.775  1.8590  1.8679  0.0912
   38MPD2    H2  587   0.308   0.538  12.179 -0.3326 -0.7591 -1.7495
   38MPD2    H3  588   0.248   0.632  11.963 -0.2798 -1.7837  0.3763
   38MPD2     N  589   0.673   0.538  11.793 -0.6152 -0.6474 -0.0816
   38MPD2    H5  590   0.758   0.490  11.820 -1.0929 -1.5984 -0.2468
   38MPD2    N1  591   0.548   0.425  12.243 -0.0457 -0.3146  0.2108
   38MPD2    H7  592   0.644   0.398  12.259 -0.0982 -1.3428 -1.1773
   39MPD2     C  593   4.400   2.149   2.092  0.6998  0.3772 -0.4345
   39MPD2    C1  594   4.298   2.161   2.184  0.5783  0.1141 -0.1082
   39MPD2    C2  595   4.175   2.185   2.139 -0.4318  0.5475  0.6883
   39MPD2    C3  596   4.140   2.164   2.010  0.0448 -0.3307  0.3366
   39MPD2    C4  597   4.238   2.130   1.926 -0.1060 -0.0247 -0.1241
   39MPD2    C5  598   4.366   2.136   1.959 -0.0287  0.4434  0.1159
   39MPD2     H  599   4.099   2.210   2.212 -0.1874  1.2365  0.7085
   39MPD2    H1  600   4.220   2.120   1.820 -1.6519  1.3660  0.0114
   39MPD2    H2  601   4.502   2.168   2.124  0.9874 -1.3087 -0.3719
   39MPD2    H3  602   4.433   2.135   1.874 -0.7636 -1.7847 -0.4487
   39MPD2     N  603   4.014   2.171   1.961  0.2116  0.0596 -0.0008
   39MPD2    H5  604   4.007   2.149   1.862  1.0242  2.1833 -0.5142
   39MPD2    N1  605   4.333   2.171   2.324  0.4865  0.4193 -0.3087
   39MPD2    H7  606   4.430   2.152   2.349 -0.3359 -1.2687  1.5539
   40TCq2    C1  607   4.243   2.182   2.430  0.4199 -0.1897  0.3424
   40TCq2    O2  608   4.123   2.171   2.445 -0.1279  0.8610  0.0059
   40TCq2    C2  609   4.323   2.213   2.551  0.3839  0.0498  0.1424
   40TCq2    C3  610   4.294   2.139   2.658  0.2236  0.4655  0.0917
   40TCq2    C4  611   4.385   2.140   2.759 -0.2408 -0.1098  0.0818
   40TCq2    C5  612   4.494   2.222   2.765 -0.7340 -0.4343 -0.7390
   40TCq2    C6  613   4.521   2.293   2.652 -0.2934 -0.0004 -0.0713
   40TCq2    C7  614   4.435   2.295   2.541  0.2989  0.4495  1.0991
   40TCq2    C8  615   4.633   2.389   2.667  0.2798 -0.3299  0.1304
   40TCq2    O4  616   4.724   2.374   2.754 -0.2650 -0.3733 -0.5945
   40TCq2    C9  617   4.352   2.061   2.873 -0.4524  0.0818  0.5318
   40TCq2    O5  618   4.262   1.974   2.864  0.4236  0.0288  0.6232
   40TCq2    O6  619   4.416   2.079   2.980  0.6328  0.8522  0.4283
   40TCq2    H2  620   4.202   2.082   2.658 -1.1909  2.7706 -2.0514
   40TCq2    H3  621   4.549   2.220   2.859  0.6831  0.8981 -1.5289
   40TCq2    H4  622   4.459   2.351   2.452  0.9275 -2.7798 -0.7676
   41TMC2    C1  623   2.957   0.475  13.765  0.0631 -0.4765  0.7871
   41TMC2    C2  624   2.860   0.542  13.838 -0.1463 -0.2991 -0.0103
   41TMC2    C3  625   2.784   0.630  13.770 -0.0919 -0.1605  0.3520
   41TMC2    C4  626   2.971   0.488  13.634 -0.7143  0.5437 -0.1112
   41TMC2    C5  627   2.890   0.573  13.565  0.1887  0.1118 -0.6490
   41TMC2    C6  628   2.803   0.652  13.635  0.5384 -0.0459  0.0422
   41TMC2     C  629   3.084   0.438  13.833  0.5252 -0.7688  0.1815
   41TMC2     O  630   3.190   0.443  13.771 -0.3916 -0.2323  0.6693
   41TMC2     H  631   2.852   0.527  13.945 -0.4789  0.2257  0.0382
   41TMC2    H1  632   3.052   0.434  13.586 -1.3116 -1.6411  1.3239
   41TMC2    H2  633   2.747   0.726  13.578  1.6209 -0.4207 -1.4869
   41TMC2    C7  634   2.936   0.623  13.439  0.2705  0.1348  0.2353
   41TMC2    C8  635   2.684   0.699  13.841 -0.3331  0.4434  0.0265
   41TMC2    O1  636   2.907   0.740  13.420 -0.2990 -0.3044 -0.1054
   41TMC2    O2  637   2.693   0.694  13.963  0.4150  0.2048  0.5257
   41TMC2    O5  638   2.575   0.683  13.767 -0.0048 -0.0726  0.3412
   41TMC2    H5  639   2.599   0.691  13.672 -0.5765 -1.5265  0.0700
   42MPD2     C  640   3.306   0.376  14.021 -0.3347 -0.3580  0.0247
   42MPD2    C1  641   3.173   0.344  14.045  0.7460 -0.6102  0.5123
   42MPD2    C2  642   3.140   0.279  14.163 -0.0417 -0.4570  0.1149
   42MPD2    C3  643   3.242   0.236  14.253  0.5778 -0.1123 -1.0470
   42MPD2    C4  644   3.372   0.270  14.224 -0.3804  0.7527  0.1408
   42MPD2    C5  645   3.396   0.347  14.115  0.1172 -0.8199 -0.1281
   42MPD2     H  646   3.040   0.244  14.184 -0.5755  0.6502 -0.5993
   42MPD2    H1  647   3.457   0.254  14.290 -1.4435 -0.7735  1.1419
   42MPD2    H2  648   3.339   0.427  13.931  0.8745 -1.0080  0.0915
   42MPD2    H3  649   3.496   0.372  14.083  0.2435 -2.9687 -1.4080
   42MPD2     N  650   3.216   0.168  14.378  0.0869  0.1899  0.4562
   42MPD2    H5  651   3.296   0.161  14.440  0.4061 -1.4456 -0.1511
   42MPD2    N1  652   3.068   0.379  13.959 -0.9351 -0.2601  0.1543
   42MPD2    H7  653   2.973   0.361  13.991 -1.0403  1.6152  0.9123
   43MPD2     C  654   3.969   2.980   1.054 -0.0289  0.4364  0.8033
   43MPD2    C1  655   4.091   2.958   1.119 -0.1395 -0.2504  1.3421
   43MPD2    C2  656   4.126   3.027   1.235  0.2215  0.6486  0.8634
   43MPD2    C3  657   4.030   3.127   1.265 -0.3192  0.3185  0.3172
   43MPD2    C4  658   3.897   3.133   1.213 -0.6279 -0.4668  0.3150
   43MPD2    C5  659   3.870   3.057   1.104 -0.4163  0.8425  0.1832
   43MPD2     H  660   4.224   3.029   1.280  0.3861 -0.2630  0.5443
   43MPD2    H1  661   3.823   3.201   1.255  0.8462  1.6160 -0.4429
   43MPD2    H2  662   3.926   2.917   0.976 -1.1501 -0.1758  1.9214
   43MPD2    H3  663   3.768   3.055   1.066  0.5875  0.0450 -2.4840
   43MPD2     N  664   4.056   3.220   1.366 -0.1871  0.2040  0.0098
   43MPD2    H5  665   3.986   3.293   1.379 -0.5360 -0.5757  2.6143
   43MPD2    N1  666   4.183   2.864   1.058 -0.0769  0.5045  0.0662
   43MPD2    H7  667   4.276   2.866   1.099 -0.5280  0.0429  1.0915
   44TCq2    C1  668   4.369   3.508   1.772  0.3545 -0.8048  0.2575
   44TCq2    O2  669   4.439   3.408   1.788 -0.8835  0.0074  0.1481
   44TCq2    C2  670   4.262   3.494   1.682  0.4245  0.4848 -0.0156
   44TCq2    C3  671   4.198   3.601   1.626  0.0615 -0.0183  0.7481
   44TCq2    C4  672   4.111   3.579   1.528  0.0286  0.2372 -0.3539
   44TCq2    C5  673   4.097   3.461   1.466 -0.5125  0.8273 -0.0780
   44TCq2    C6  674   4.164   3.355   1.518 -0.3540  0.8037  0.7265
   44TCq2    C7  675   4.247   3.366   1.627  0.0867  0.1258 -0.0059
   44TCq2    C8  676   4.171   3.235   1.443  0.0411 -0.2483 -0.0435
   44TCq2    O4  677   4.245   3.144   1.477 -0.2165 -0.2876  0.4339
   44TCq2    C9  678   4.057   3.693   1.472 -0.1157  0.6121 -0.7574
   44TCq2    O5  679   4.137   3.791   1.458  0.3432 -0.3590 -0.2032
   44TCq2    O6  680   3.950   3.677   1.405  0.0768  1.0165 -0.0888
   44TCq2    H2  681   4.221   3.701   1.659 -2.3456  0.7913 -0.0215
   44TCq2    H3  682   4.036   3.457   1.376 -0.5832 -1.9186  0.1095
   44TCq2    H4  683   4.305   3.282   1.666 -1.0612  0.1380  1.7334
   45TMC2    C1  684   0.562   0.018  10.155  0.2364  0.4970  0.1056
   45TMC2    C2  685   0.519   0.021  10.025 -0.2171 -0.6358  0.0785
   45TMC2    C3  686   0.518   0.144   9.961  0.4551 -0.2596 -0.6578
   45TMC2    C4  687   0.623   0.125  10.214  0.4364 -0.0471  1.0507
   45TMC2    C5  688   0.631   0.240  10.142  0.4476  0.5415 -0.5362
   45TMC2    C6  689   0.575   0.250  10.021 -0.4790 -0.1678 -0.8680
   45TMC2     C  690   0.544   4.624  10.233 -0.1235  0.5336 -0.3903
   45TMC2     O  691   0.614   4.620  10.332  0.3932  0.7206  0.2073
   45TMC2     H  692   0.490   4.649   9.987 -1.8817 -0.3995  0.7111
   45TMC2    H1  693   0.661   0.128  10.316  3.1734  0.0772  0.0342
   45TMC2    H2  694   0.545   0.344   9.975 -0.1161 -0.2822 -1.3387
   45TMC2    C7  695   0.664   0.364  10.206  0.0585 -0.0832  0.0877
   45TMC2    C8  696   0.441   0.144   9.837  0.3767  0.6873  0.1143
   45TMC2    O1  697   0.665   0.368  10.329  0.0643 -0.0719 -0.0582
   45TMC2    O2  698   0.357   0.060   9.810  0.0093  0.4575 -0.1064
   45TMC2    O5  699   0.512   0.219   9.750  0.5630  0.4437 -0.0320
   45TMC2    H5  700   0.584   0.267   9.796 -0.1643 -0.2152  1.7892
   46MPD2     C  701   0.465   4.376  10.389  0.5592  0.2917 -0.8162
   46MPD2    C1  702   0.412   4.415  10.265 -1.3066 -0.5219  0.1648
   46MPD2    C2  703   0.314   4.326  10.210  0.0399  0.5012  0.0954
   46MPD2    C3  704   0.292   4.202  10.267 -0.3117  0.1941 -0.9915
   46MPD2    C4  705   0.353   4.166  10.389 -0.1202  0.7866 -0.1847
   46MPD2    C5  706   0.430   4.257  10.448  0.3241  0.0339  0.0418
   46MPD2     H  707   0.257   4.357  10.124 -2.1691 -1.2179  0.9235
   46MPD2    H1  708   0.315   4.077  10.438  0.7915  0.8378  0.6145
   46MPD2    H2  709   0.517   4.452  10.446 -0.6223  0.8602 -0.4764
   46MPD2    H3  710   0.456   4.239  10.552 -0.7193  1.8174  0.5975
   46MPD2     N  711   0.189   4.121  10.214  0.0922  0.5423  0.4285
   46MPD2    H5  712   0.182   4.028  10.254 -0.3312 -0.4836 -2.0354
   46MPD2    N1  713   0.455   4.530  10.192  0.0695 -0.4971 -0.3729
   46MPD2    H7  714   0.405   4.542  10.104 -1.0213  1.4554  0.5077
   47TMC2    C1  715   2.561   0.342   9.514 -0.0354 -0.6095  0.5628
   47TMC2    C2  716   2.539   0.212   9.475  0.2554 -0.0709  0.3522
   47TMC2    C3  717   2.418   0.192   9.423  0.3232 -0.2216 -0.0770
   47TMC2    C4  718   2.469   0.436   9.526 -0.2549  0.3137 -0.6950
   47TMC2    C5  719   2.354   0.414   9.463  0.0466  0.6705  0.0222
   47TMC2    C6  720   2.323   0.290   9.415  0.1809 -0.3697 -0.3369
   47TMC2     C  721   2.661   0.355   9.616  0.1946 -0.1637  0.9149
   47TMC2     O  722   2.689   0.467   9.660 -0.2568 -0.0978 -0.3995
   47TMC2     H  723   2.617   0.139   9.461 -0.1219 -0.5365  0.6627
   47TMC2    H1  724   2.494   0.533   9.567  1.2293 -1.2650  2.1364
   47TMC2    H2  725   2.230   0.272   9.361  0.6029 -1.8097 -0.5856
   47TMC2    C7  726   2.244   0.506   9.493  0.0936 -0.1974 -0.7251
   47TMC2    C8  727   2.394   0.065   9.355  0.2170 -0.0941 -0.3362
   47TMC2    O1  728   2.130   0.468   9.461 -0.9214  0.1951 -0.3575
   47TMC2    O2  729   2.435   0.049   9.243 -0.5742  0.8262 -0.2235
   47TMC2    O5  730   2.289   4.723   9.403 -0.3274  0.1947  0.0319
   47TMC2    H5  731   2.260   0.038   9.488  3.7377  0.4098  1.3289
   48MPD2     C  732   2.856   0.290   9.828 -0.9959  0.3899  0.5270
   48MPD2    C1  733   2.744   0.213   9.806  0.2322 -0.6093  1.0662
   48MPD2    C2  734   2.715   0.103   9.887  0.5510 -0.2664 -0.1389
   48MPD2    C3  735   2.804   0.072   9.984 -0.1074  0.1558  0.7614
   48MPD2    C4  736   2.919   0.146  10.005  0.4951 -0.2059 -0.2168
   48MPD2    C5  737   2.944   0.256   9.925 -0.1195 -0.3053  0.4018
   48MPD2     H  738   2.624   0.046   9.878  0.5206 -0.3476  0.6669
   48MPD2    H1  739   2.980   0.119  10.091 -1.5913  0.6025  1.5025
   48MPD2    H2  740   2.877   0.372   9.760  1.2001 -0.8100 -0.2337
   48MPD2    H3  741   3.034   0.318   9.929 -0.4178  0.1533  0.0917
   48MPD2     N  742   2.771   4.690  10.073  0.0101 -0.1695 -0.6011
   48MPD2    H5  743   2.675   4.659  10.074 -0.1417  0.3186  0.4962
   48MPD2    N1  744   2.667   0.234   9.687 -0.5274  0.1303  0.0488
   48MPD2    H7  745   2.595   0.168   9.663 -0.7385 -0.0756  1.2660
   49MPD2     C  746   0.567   2.900  10.203  0.3835 -0.1076 -0.1637
   49MPD2    C1  747   0.620   2.967  10.317 -0.2149 -0.4083  0.2390
   49MPD2    C2  748   0.567   2.925  10.437 -0.1844  0.4308  0.3315
   49MPD2    C3  749   0.458   2.842  10.453 -0.2670  0.4060 -0.0819
   49MPD2    C4  750   0.409   2.779  10.345 -0.5639 -0.4656  0.3167
   49MPD2    C5  751   0.466   2.801  10.219  0.4624 -0.3435  0.1363
   49MPD2     H  752   0.613   2.964  10.527 -2.6706  0.2241  1.7238
   49MPD2    H1  753   0.329   2.707  10.359  0.5662 -1.3720  2.1535
   49MPD2    H2  754   0.604   2.905  10.101 -0.8990 -0.8004 -0.6537
   49MPD2    H3  755   0.433   2.748  10.130 -0.1865  0.4328 -0.0912
   49MPD2     N  756   0.400   2.823  10.579  0.1844  0.6369  0.1419
   49MPD2    H5  757   0.310   2.777  10.566 -0.0405 -0.0273  3.8786
   49MPD2    N1  758   0.737   3.055  10.321  0.9876 -0.6432 -0.3470
   49MPD2    H7  759   0.762   3.091  10.413 -0.1577 -2.2887  0.6202
   50TCq2    C1  760   0.823   3.084  10.217  0.1087 -0.1951  0.1152
   50TCq2    O2  761   0.822   3.056  10.098  0.1419  0.1840 -0.2079
   50TCq2    C2  762   0.936   3.162  10.262 -0.4313  0.7741 -0.1062
   50TCq2    C3  763   0.994   3.251  10.170  0.4606 -0.0597  0.2356
   50TCq2    C4  764   1.082   3.341  10.224  0.5850  0.0711 -0.4419
   50TCq2    C5  765   1.111   3.357  10.358  0.2079 -0.2169 -0.1922
   50TCq2    C6  766   1.052   3.260  10.440  0.2323  0.5170  0.1799
   50TCq2    C7  767   0.967   3.168  10.389  0.4057 -0.0278  0.1063
   50TCq2    C8  768   1.064   3.264  10.579  0.2235 -0.3913 -0.3578
   50TCq2    O4  769   1.005   3.182  10.641  0.0014  0.5570 -0.5223
   50TCq2    C9  770   1.159   3.422  10.130 -0.3066 -0.9057 -1.0407
   50TCq2    O5  771   1.256   3.488  10.179 -0.5179 -0.7298 -0.5956
   50TCq2    O6  772   1.139   3.392  10.009  0.2898  0.2537 -0.2458
   50TCq2    H2  773   0.968   3.251  10.065 -0.0881 -2.3938  0.3887
   50TCq2    H3  774   1.192   3.421  10.390  0.6357 -1.1362  0.5983
   50TCq2    H4  775   0.919   3.095  10.454  1.2086 -0.9610 -0.3558
   51MPD2     C  776   1.003   1.636   1.382 -0.1493 -0.3784  0.2844
   51MPD2    C1  777   1.051   1.592   1.503 -0.0535  0.1415 -0.3833
   51MPD2    C2  778   1.098   1.686   1.590 -0.3617  0.8164  0.1401
   51MPD2    C3  779   1.112   1.817   1.552  0.4920  0.1499  0.2084
   51MPD2    C4  780   1.071   1.864   1.431 -0.2195  0.5155 -0.0770
   51MPD2    C5  781   1.003   1.770   1.351 -0.4908  0.1291 -0.4807
   51MPD2     H  782   1.132   1.651   1.687 -0.8956  2.6435  0.9832
   51MPD2    H1  783   1.066   1.972   1.421 -1.3691  0.6165  1.5593
   51MPD2    H2  784   0.971   1.570   1.303  1.5630 -1.7958  0.7832
   51MPD2    H3  785   0.957   1.797   1.256  1.4998 -1.0105 -1.7574
   51MPD2     N  786   1.164   1.914   1.643 -0.1263 -0.5703 -0.1762
   51MPD2    H5  787   1.165   2.010   1.610  0.7454  0.2029  2.1706
   51MPD2    N1  788   1.058   1.455   1.532  0.2167  0.2544 -0.0247
   51MPD2    H7  789   1.073   1.436   1.631  0.1895 -0.8757 -0.2395
   52TCq2    C1  790   1.214   1.888   1.760 -0.2768 -0.0503 -0.2626
   52TCq2    O2  791   1.225   1.781   1.820 -0.1342 -0.1293 -0.4028
   52TCq2    C2  792   1.263   2.007   1.830 -0.7874 -0.0157 -0.2843
   52TCq2    C3  793   1.293   1.995   1.962 -0.3500 -0.4530 -0.3795
   52TCq2    C4  794   1.362   2.098   2.025 -0.0120 -0.7382  0.0912
   52TCq2    C5  795   1.407   2.212   1.957  0.3482 -0.7876 -0.4920
   52TCq2    C6  796   1.369   2.219   1.822  0.3969  0.3283  0.6396
   52TCq2    C7  797   1.295   2.120   1.756  0.0962  0.3613  0.2736
   52TCq2    C8  798   1.394   2.343   1.762 -0.1556 -0.2269 -0.5443
   52TCq2    O4  799   1.486   2.409   1.816 -0.0654 -0.3571 -0.4130
   52TCq2    C9  800   1.401   2.093   2.167  0.0642  0.0508 -0.4022
   52TCq2    O5  801   1.476   2.184   2.212 -0.1563  0.5893  0.7437
   52TCq2    O6  802   1.353   1.994   2.226 -0.9414  0.5186  0.0102
   52TCq2    H2  803   1.256   1.911   2.020 -0.5792 -0.8669 -1.1207
   52TCq2    H3  804   1.443   2.296   2.015  1.2590 -3.4513  2.8642
   52TCq2    H4  805   1.290   2.120   1.648  0.1831 -1.7098  0.2747
   53TMC2    C1  806   1.749   0.643  12.052 -0.0645  0.5353  0.4640
   53TMC2    C2  807   1.877   0.675  12.082 -0.1817  0.0577  0.4791
   53TMC2    C3  808   1.895   0.736  12.199  0.8784 -0.8548  0.3990
   53TMC2    C4  809   1.652   0.629  12.149 -0.2927  0.4668 -0.5802
   53TMC2    C5  810   1.691   0.672  12.274  0.0338  0.0731  0.5889
   53TMC2    C6  811   1.811   0.725  12.298  0.1404 -0.4006 -0.1349
   53TMC2     C  812   1.732   0.568  11.926 -0.2822  0.3537 -0.0296
   53TMC2     O  813   1.834   0.509  11.885  0.0230 -0.5454 -0.1786
   53TMC2     H  814   1.953   0.672  12.005  0.7054  0.4528  1.3446
   53TMC2    H1  815   1.550   0.595  12.136  0.8043 -2.4659 -1.4267
   53TMC2    H2  816   1.839   0.771  12.392  1.1781 -0.0340 -0.6215
   53TMC2    C7  817   1.587   0.678  12.372 -0.4697 -0.4468  0.3752
   53TMC2    C8  818   2.029   0.773  12.231  0.0078  0.6145 -0.3572
   53TMC2    O1  819   1.478   0.636  12.344 -0.0134  0.5225  0.7194
   53TMC2    O2  820   2.056   0.851  12.319  0.1334  0.1339 -0.5623
   53TMC2    O5  821   2.111   0.663  12.207 -0.1010  0.0818 -0.0853
   53TMC2    H5  822   2.069   0.588  12.158  1.6154 -1.3216  0.6089
   54MPD2     C  823   1.641   0.429  11.678  0.0745 -0.2924  0.6744
   54MPD2    C1  824   1.555   0.493  11.761  0.0897 -0.0301 -0.2803
   54MPD2    C2  825   1.417   0.493  11.729  0.3583  0.3123 -0.3158
   54MPD2    C3  826   1.375   0.443  11.607  0.1060 -0.5800 -0.4585
   54MPD2    C4  827   1.468   0.384  11.525  0.0213 -0.0356 -0.1841
   54MPD2    C5  828   1.594   0.375  11.565  0.3897 -0.1019 -0.7052
   54MPD2     H  829   1.355   0.536  11.807  2.1232  0.7434  0.8613
   54MPD2    H1  830   1.436   0.346  11.429 -1.4535 -0.7502  0.5934
   54MPD2    H2  831   1.749   0.435  11.689  0.3065 -3.1398 -0.0889
   54MPD2    H3  832   1.663   0.321  11.502  1.3772  0.8115 -0.4253
   54MPD2     N  833   1.232   0.440  11.571  0.2880 -0.8961  0.4376
   54MPD2    H5  834   1.200   0.414  11.478  0.9107  0.1337 -0.0632
   54MPD2    N1  835   1.603   0.562  11.875  0.2362  0.0412  0.1133
   54MPD2    H7  836   1.539   0.602  11.943 -0.6589 -2.3194  0.6707
   55MPD2     C  837   2.032   3.511   0.736  0.4630  0.1464  0.2301
   55MPD2    C1  838   1.986   3.515   0.867 -0.5855  0.4874 -0.3518
   55MPD2    C2  839   1.852   3.536   0.885  0.8665 -0.2637 -0.1006
   55MPD2    C3  840   1.759   3.558   0.790 -0.0028 -0.3876 -0.2412
   55MPD2    C4  841   1.801   3.536   0.660 -0.4679 -0.0393  0.0897
   55MPD2    C5  842   1.934   3.516   0.633 -0.3126  0.2177 -0.4186
   55MPD2     H  843   1.803   3.525   0.982  0.1198 -0.3441 -0.4860
   55MPD2    H1  844   1.739   3.547   0.571  1.1264  0.4345 -0.9615
   55MPD2    H2  845   2.137   3.506   0.709 -0.2399  0.5540 -2.5499
   55MPD2    H3  846   1.971   3.532   0.532  0.2813  1.0251 -0.0787
   55MPD2     N  847   1.621   3.560   0.821  0.3473 -0.1907  0.4002
   55MPD2    H5  848   1.593   3.556   0.918  1.6357  1.6208  0.8366
   55MPD2    N1  849   2.087   3.501   0.964  0.0345 -0.1377  0.6610
   55MPD2    H7  850   2.181   3.477   0.933 -0.6710 -2.1619  0.0931
   56TCq2    C1  851   2.067   3.509   1.095  0.0002  0.2931  0.1447
   56TCq2    O2  852   1.964   3.531   1.155  0.4077  0.7788 -0.8543
   56TCq2    C2  853   2.180   3.461   1.176 -0.1838 -0.0453  0.0291
   56TCq2    C3  854   2.299   3.448   1.120  0.3186 -0.0694  0.3756
   56TCq2    C4  855   2.382   3.352   1.161  0.2783 -0.0416  0.2457
   56TCq2    C5  856   2.355   3.276   1.267 -0.0616  0.0653  0.3580
   56TCq2    C6  857   2.232   3.292   1.332  0.5527  0.3590 -0.5989
   56TCq2    C7  858   2.142   3.383   1.284  0.0548  0.4132  1.1451
   56TCq2    C8  859   2.200   3.188   1.433  0.2941 -0.3189  0.2394
   56TCq2    O4  860   2.294   3.125   1.484 -0.0718  1.0242 -0.2002
   56TCq2    C9  861   2.495   3.319   1.088  0.2721  0.4075  0.4532
   56TCq2    O5  862   2.542   3.397   1.002 -0.7279 -0.3567  0.0844
   56TCq2    O6  863   2.535   3.202   1.103  0.0917 -0.1685 -0.1628
   56TCq2    H2  864   2.326   3.518   1.042  0.9487  0.6407  1.2212
   56TCq2    H3  865   2.416   3.190   1.293 -0.0093  0.1481  0.5102
   56TCq2    H4  866   2.042   3.392   1.325 -0.4988  1.2050 -0.3797
   57TMC2    C1  867   1.743   4.194  14.133  0.2126  0.4821  0.2895
   57TMC2    C2  868   1.803   4.272  14.225 -0.7707 -0.5867  0.0978
   57TMC2    C3  869   1.932   4.232  14.266  0.0463  0.2372 -0.2915
   57TMC2    C4  870   1.800   4.088  14.073 -0.1220 -0.9858  0.2692
   57TMC2    C5  871   1.918   4.049  14.120  0.4727 -0.3311 -0.2239
   57TMC2    C6  872   1.995   4.118  14.213  0.7725  0.1705 -0.8977
   57TMC2     C  873   1.597   4.201  14.132 -0.3069  0.6965 -0.1723
   57TMC2     O  874   1.553   4.298  14.191  0.3187 -0.4836 -0.2007
   57TMC2     H  875   1.755   4.363  14.258  1.1105  1.1289 -1.8840
   57TMC2    H1  876   1.743   4.037  13.997  0.0522  1.9375 -1.8344
   57TMC2    H2  877   2.095   4.083  14.239 -0.1363  0.2774  2.7919
   57TMC2    C7  878   1.964   3.915  14.096 -0.5706  0.0143 -0.0790
   57TMC2    C8  879   1.986   4.282  14.390  0.7771  0.1309 -0.0481
   57TMC2    O1  880   2.027   3.874  14.191  0.0904  0.0225  0.3473
   57TMC2    O2  881   2.099   4.282  14.418 -0.0138  0.5176 -0.3856
   57TMC2    O5  882   1.879   4.275  14.474 -0.0106 -0.3028  0.5331
   57TMC2    H5  883   1.799   4.230  14.439  0.0953 -0.8904  1.0391
   58MPD2     C  884   1.113   4.099  14.029  0.3982 -0.6547  0.0950
   58MPD2    C1  885   1.165   4.169  14.137  0.2422  0.1002  0.0268
   58MPD2    C2  886   1.302   4.174  14.143  0.2837 -0.2692  0.0709
   58MPD2    C3  887   1.382   4.099  14.061 -0.3267  0.8713  0.4203
   58MPD2    C4  888   1.327   4.026  13.959 -0.7773 -0.1573 -0.3531
   58MPD2    C5  889   1.190   4.025  13.946 -0.2402 -0.1171  0.2039
   58MPD2     H  890   1.344   4.228  14.227  2.4179 -2.2303  0.2555
   58MPD2    H1  891   1.388   3.965  13.893 -2.1680 -0.2493 -1.5634
   58MPD2    H2  892   1.007   4.094  14.008  0.3484 -0.2810  0.2552
   58MPD2    H3  893   1.144   3.970  13.865 -1.0457  1.9335 -0.7278
   58MPD2     N  894   1.526   4.104  14.066 -0.0331  0.1463  0.2146
   58MPD2    H5  895   1.579   4.036  14.012  1.5956  1.5475  0.0250
   58MPD2    N1  896   1.082   4.223  14.240 -0.2309  0.8080 -0.0610
   58MPD2    H7  897   1.136   4.285  14.300  0.2919 -2.0082  2.3543
   59MPD2     C  898   3.671   4.291  13.763  0.5622 -0.0756  0.2743
   59MPD2    C1  899   3.760   4.318  13.663  0.4169  0.5642 -0.5359
   59MPD2    C2  900   3.847   4.423  13.684 -0.2296 -1.3675 -0.8169
   59MPD2    C3  901   3.857   4.493  13.804 -0.5064  0.5475 -0.0746
   59MPD2    C4  902   3.763   4.464  13.900  0.2138  0.2437 -0.0468
   59MPD2    C5  903   3.674   4.359  13.881 -0.2210  0.1552 -0.3142
   59MPD2     H  904   3.920   4.439  13.606 -0.0426  0.6194 -0.2523
   59MPD2    H1  905   3.758   4.512  13.997 -1.3870 -0.9314  0.4567
   59MPD2    H2  906   3.601   4.209  13.758 -1.5431  1.7159  0.3736
   59MPD2    H3  907   3.616   4.324  13.965  2.6745 -1.0247  1.2183
   59MPD2     N  908   3.958   4.588  13.827 -0.0487  0.0941 -0.6188
   59MPD2    H5  909   3.961   4.632  13.919 -0.4968 -0.5076 -0.3119
   59MPD2    N1  910   3.762   4.252  13.534  0.1470  0.4178 -0.3812
   59MPD2    H7  911   3.817   4.278  13.453 -0.1095  0.4452 -0.5481
   60TCq2    C1  912   3.692   4.133  13.522 -0.3811  0.3607 -0.4905
   60TCq2    O2  913   3.624   4.070  13.600  0.2193  0.0196  0.4198
   60TCq2    C2  914   3.748   4.067  13.412 -0.3697 -0.3445 -0.2894
   60TCq2    C3  915   3.757   3.929  13.416 -0.3657 -0.3458  0.7738
   60TCq2    C4  916   3.772   3.854  13.305 -0.8812 -0.0775  0.7445
   60TCq2    C5  917   3.802   3.918  13.187 -0.2108 -0.0366 -0.1288
   60TCq2    C6  918   3.821   4.053  13.189 -0.2413  0.3949  0.7734
   60TCq2    C7  919   3.794   4.130  13.298 -0.4085 -0.6786 -0.5172
   60TCq2    C8  920   3.870   4.102  13.062  0.2277 -0.3495 -0.6327
   60TCq2    O4  921   3.922   4.015  12.996  0.7924 -0.0065  0.1477
   60TCq2    C9  922   3.742   3.716  13.301 -0.9396 -0.6649 -0.0984
   60TCq2    O5  923   3.776   3.654  13.200 -0.3097 -0.1310 -0.6378
   60TCq2    O6  924   3.730   3.656  13.410  0.1018  0.1161 -0.2296
   60TCq2    H2  925   3.735   3.877  13.509 -1.2886  1.7742  1.7437
   60TCq2    H3  926   3.810   3.856  13.098  1.4706 -0.9342  0.6410
   60TCq2    H4  927   3.818   4.234  13.282  0.3491 -0.8195 -0.2648
   61MPD2     C  928   2.846   0.765  16.275  0.3087  0.3723 -0.1386
   61MPD2    C1  929   2.889   0.878  16.223  0.0657 -0.3016 -0.7285
   61MPD2    C2  930   2.967   0.881  16.108  0.1759  0.2887 -0.3162
   61MPD2    C3  931   2.993   0.758  16.041  0.3306 -0.4007 -0.1758
   61MPD2    C4  932   2.937   0.646  16.089 -0.3509 -0.3174 -0.5244
   61MPD2    C5  933   2.867   0.647  16.210  0.0545 -0.5412  0.2033
   61MPD2     H  934   3.002   0.972  16.061 -2.8604  0.9495 -1.3145
   61MPD2    H1  935   2.953   0.547  16.048 -0.5568 -0.4838 -0.2013
   61MPD2    H2  936   2.793   0.766  16.370  1.8079 -0.3720  0.7185
   61MPD2    H3  937   2.820   0.557  16.249  2.0234 -3.0760 -3.3167
   61MPD2     N  938   3.066   0.762  15.920  0.2060  0.3844 -0.0876
   61MPD2    H5  939   3.104   0.855  15.906 -1.3660  0.9673 -0.4391
   61MPD2    N1  940   2.855   1.000  16.281 -0.0807  0.1356 -0.4749
   61MPD2    H7  941   2.901   1.079  16.236  1.6493 -1.3176 -1.2655
   62TCq2    C1  942   2.774   1.024  16.389 -0.0073 -0.0947  0.3690
   62TCq2    O2  943   2.705   0.946  16.451  0.1929 -0.3588  0.1635
   62TCq2    C2  944   2.775   1.163  16.432  0.1444  1.1132 -0.1323
   62TCq2    C3  945   2.743   1.188  16.564  0.1744  0.1979 -0.9490
   62TCq2    C4  946   2.786   1.303  16.620 -1.0361  0.1314  0.4216
   62TCq2    C5  947   2.831   1.412  16.550  0.0023  0.2361  0.5786
   62TCq2    C6  948   2.854   1.385  16.414  0.1043 -0.5183  0.2350
   62TCq2    C7  949   2.829   1.261  16.358 -0.7060  0.4714 -0.9259
   62TCq2    C8  950   2.932   1.466  16.330  0.2104  0.2852  0.2113
   62TCq2    O4  951   3.005   1.403  16.252 -0.0461 -0.4010  0.1392
   62TCq2    C9  952   2.766   1.320  16.760 -0.7497 -0.3594  0.2816
   62TCq2    O5  953   2.691   1.239  16.820 -0.1645 -0.3666  0.0772
   62TCq2    O6  954   2.802   1.429  16.813  0.0902  0.2317  0.1044
   62TCq2    H2  955   2.728   1.106  16.633  2.1397  2.8355  2.6070
   62TCq2    H3  956   2.865   1.504  16.596  1.7570 -0.7860  1.3582
   62TCq2    H4  957   2.830   1.252  16.250  0.2978  0.1781 -0.8908
   63TMC2    C1  958   2.957   1.055  10.810 -0.8781 -0.0524  0.0217
   63TMC2    C2  959   3.046   1.067  10.909 -1.2871 -0.3733  1.2952
   63TMC2    C3  960   3.162   1.133  10.881 -1.2952 -0.3939  0.1451
   63TMC2    C4  961   2.980   1.075  10.678 -0.1889 -0.0046 -0.6219
   63TMC2    C5  962   3.085   1.155  10.659 -0.4054  0.4063 -0.2207
   63TMC2    C6  963   3.177   1.193  10.759 -0.4247  0.6700 -1.1907
   63TMC2     C  964   2.840   0.986  10.831 -0.2712 -0.0706  0.5347
   63TMC2     O  965   2.819   0.876  10.774 -0.2565  0.6534 -0.2423
   63TMC2     H  966   3.023   1.033  11.010  1.7467 -0.1305  2.0632
   63TMC2    H1  967   2.905   1.066  10.601 -1.6392 -0.7627  0.8807
   63TMC2    H2  968   3.257   1.262  10.736  1.2272 -1.0600 -0.6057
   63TMC2    C7  969   3.102   1.207  10.521 -0.2517  0.4644  0.1979
   63TMC2    C8  970   3.277   1.122  10.963 -0.5447 -0.1655  0.4433
   63TMC2    O1  971   3.000   1.229  10.456 -0.1080 -0.2080  0.3886
   63TMC2    O2  972   3.260   1.118  11.084  0.2357 -0.1568 -0.1845
   63TMC2    O5  973   3.388   1.149  10.894  0.4874 -0.5355  0.3541
   63TMC2    H5  974   3.395   1.103  10.807  0.1305  1.0631 -0.5128
   64MPD2     C  975   2.377   0.953  11.055 -0.5544  0.2293  0.4115
   64MPD2    C1  976   2.451   0.862  10.988  0.3027  0.5058  0.2236
   64MPD2    C2  977   2.564   0.897  10.929  0.5842  0.4565 -0.4951
   64MPD2    C3  978   2.620   1.027  10.947 -0.2358 -0.2488 -0.1689
   64MPD2    C4  979   2.541   1.115  11.013  0.5207 -0.0039  0.5192
   64MPD2    C5  980   2.416   1.086  11.060  0.4045 -0.0388  0.9710
   64MPD2     H  981   2.614   0.826  10.864 -0.1564 -1.5974  1.1946
   64MPD2    H1  982   2.582   1.215  11.021  2.0472 -0.4510 -1.9285
   64MPD2    H2  983   2.283   0.939  11.106 -0.1029 -0.9275  0.9450
   64MPD2    H3  984   2.365   1.167  11.110 -0.2171  1.1600 -1.5915
   64MPD2     N  985   2.754   1.063  10.911 -0.6605  0.4183  0.4146
   64MPD2    H5  986   2.786   1.152  10.947  0.1606  1.1224 -2.0638
   64MPD2    N1  987   2.400   0.727  10.972 -0.3121  0.6636 -0.2814
   64MPD2    H7  988   2.462   0.655  10.935  0.4318  2.2219 -2.0941
   65MPD2     C  989   3.094   0.503  16.504 -0.1188 -0.5564  0.1108
   65MPD2    C1  990   3.158   0.539  16.386 -0.0968 -0.2411 -0.7324
   65MPD2    C2  991   3.196   0.445  16.288  1.2681 -0.1278  0.2682
   65MPD2    C3  992   3.156   0.312  16.306 -0.0628 -0.2616 -0.0866
   65MPD2    C4  993   3.096   0.275  16.424 -0.2020  0.3608 -1.0175
   65MPD2    C5  994   3.069   0.366  16.521 -0.1819  0.5143 -0.1228
   65MPD2     H  995   3.242   0.478  16.195 -2.1305 -1.0348 -1.7616
   65MPD2    H1  996   3.072   0.171  16.443 -1.8941  0.5867 -1.9038
   65MPD2    H2  997   3.069   0.577  16.579 -1.1579 -1.2583  0.4538
   65MPD2    H3  998   3.015   0.334  16.609 -1.9327  1.1853 -0.9584
   65MPD2     N  999   3.174   0.216  16.203  0.2188 -0.0714  0.0454
   65MPD2    H5 1000   3.138   0.123  16.225 -0.2076  0.4450  1.5666
   65MPD2    N1 1001   3.192   0.672  16.365  0.1645 -0.1257 -0.2846
   65MPD2    H7 1002   3.253   0.693  16.286 -0.4744  0.1414 -0.7110
   66TCq2    C1 1003   3.145   0.779  16.433  0.2972 -0.4831  0.3735
   66TCq2    O2 1004   3.070   0.786  16.528 -0.1614 -0.7536  0.1253
   66TCq2    C2 1005   3.177   0.908  16.371 -0.1847  0.1719 -0.4117
   66TCq2    C3 1006   3.232   0.909  16.244 -0.1598  0.3111  0.5510
   66TCq2    C4 1007   3.298   1.029  16.220 -0.6487  0.2597  0.1337
   66TCq2    C5 1008   3.296   1.140  16.300 -0.3553 -0.0914  0.1168
   66TCq2    C6 1009   3.241   1.130  16.424 -0.3108 -0.1968  0.0492
   66TCq2    C7 1010   3.181   1.012  16.461  0.1059  0.1563  0.2673
   66TCq2    C8 1011   3.253   1.230  16.524 -0.7415 -0.0665  0.7186
   66TCq2    O4 1012   3.246   1.193  16.640  0.1249 -0.5711 -0.3868
   66TCq2    C9 1013   3.365   1.045  16.093  0.0903 -0.4262  0.1960
   66TCq2    O5 1014   3.354   0.954  16.012 -0.7511  0.7938  0.1680
   66TCq2    O6 1015   3.395   1.163  16.060  0.2776 -0.1512  0.1000
   66TCq2    H2 1016   3.232   0.831  16.168  0.9902  0.0121  0.8681
   66TCq2    H3 1017   3.346   1.234  16.282  0.3643 -0.5281 -0.1806
   66TCq2    H4 1018   3.136   1.007  16.560 -0.7355  1.3691 -0.0542
   67MPD2     C 1019   3.718   4.231  14.517  0.5672  0.7942  0.0576
   67MPD2    C1 1020   3.649   4.286  14.621 -0.7492  0.4688 -0.6703
   67MPD2    C2 1021   3.523   4.336  14.594 -0.4589  0.4952 -0.5586
   67MPD2    C3 1022   3.461   4.325  14.471  0.6869  0.0861 -0.4560
   67MPD2    C4 1023   3.528   4.270  14.366  0.1851  0.1013 -0.2340
   67MPD2    C5 1024   3.661   4.229  14.393  0.0499 -0.5386  0.4876
   67MPD2     H 1025   3.460   4.366  14.677  2.1906  0.5407  1.4290
   67MPD2    H1 1026   3.481   4.270  14.268  0.0529 -0.8426 -0.1712
   67MPD2    H2 1027   3.818   4.189  14.518  0.8062  1.3679  0.0006
   67MPD2    H3 1028   3.720   4.189  14.312  0.7661 -0.3846  0.9408
   67MPD2     N 1029   3.328   4.378  14.450 -0.2425 -0.2063  0.7226
   67MPD2    H5 1030   3.279   4.355  14.364  0.9582 -1.9189  0.5043
   67MPD2    N1 1031   3.698   4.297  14.755 -0.2264 -0.0507  0.3118
   67MPD2    H7 1032   3.671   4.376  14.813  0.8560  1.2375 -0.9367
   68TCq2    C1 1033   3.815   4.243  14.806  0.4741 -0.7925 -0.6079
   68TCq2    O2 1034   3.898   4.169  14.746  0.0299 -0.1352 -0.3299
   68TCq2    C2 1035   3.835   4.304  14.940 -0.1585 -0.6015 -0.5409
   68TCq2    C3 1036   3.733   4.370  15.005  0.9546 -0.1903 -0.6822
   68TCq2    C4 1037   3.764   4.441  15.119 -0.3149 -0.4627  0.2344
   68TCq2    C5 1038   3.887   4.438  15.175  0.3998 -0.1447  0.1703
   68TCq2    C6 1039   3.982   4.356  15.117 -0.1200 -0.0930 -0.2545
   68TCq2    C7 1040   3.956   4.291  14.996 -0.1032  0.5722  0.1941
   68TCq2    C8 1041   4.101   4.329  15.191  0.7242  0.4909 -0.5628
   68TCq2    O4 1042   4.193   4.273  15.130 -0.2254  0.1309  0.9671
   68TCq2    C9 1043   3.665   4.531  15.170  0.2254  0.0367 -0.8128
   68TCq2    O5 1044   3.579   4.568  15.086  0.1729 -0.4017 -0.1669
   68TCq2    O6 1045   3.691   4.596  15.277 -0.3972  0.3450  0.7842
   68TCq2    H2 1046   3.631   4.384  14.973  1.1626 -3.2241 -2.6418
   68TCq2    H3 1047   3.909   4.495  15.265  1.1153 -0.5599  0.2574
   68TCq2    H4 1048   4.036   4.228  14.958  0.5160  0.7294  1.2376
   69TMC2    C1 1049   2.226   1.209  13.308 -0.8078 -0.5665  0.6018
   69TMC2    C2 1050   2.168   1.333  13.322 -0.3440 -0.5786  0.1544
   69TMC2    C3 1051   2.202   1.434  13.231 -0.1986 -0.0544  0.1212
   69TMC2    C4 1052   2.305   1.188  13.204 -0.0738 -0.8018 -0.5118
   69TMC2    C5 1053   2.328   1.284  13.111  0.9311  0.1181 -0.1070
   69TMC2    C6 1054   2.290   1.415  13.133 -0.6021  0.6036 -0.8559
   69TMC2     C 1055   2.138   1.096  13.329  0.9214  0.0874 -0.1020
   69TMC2     O 1056   2.123   1.023  13.233  0.2922  0.4358  0.0594
   69TMC2     H 1057   2.108   1.359  13.408  2.4217  1.3486  1.4639
   69TMC2    H1 1058   2.328   1.086  13.174  0.5890 -0.8477  0.1391
   69TMC2    H2 1059   2.299   1.496  13.061 -0.9210  0.8008 -0.6766
   69TMC2    C7 1060   2.338   1.244  12.972  0.2864  0.0444  0.9291
   69TMC2    C8 1061   2.147   1.562  13.261  0.1466 -0.2847  0.1353
   69TMC2    O1 1062   2.375   1.335  12.895 -0.1038  0.2962  0.7684
   69TMC2    O2 1063   2.200   1.637  13.342 -0.4058 -0.2547  0.4054
   69TMC2    O5 1064   2.091   1.607  13.145 -0.1049 -0.5078  0.1922
   69TMC2    H5 1065   2.089   1.535  13.079  3.6398 -0.0402 -0.4179
   70MPD2     C 1066   1.974   1.024  13.643  0.0328  0.3592 -0.2944
   70MPD2    C1 1067   1.986   1.023  13.507  0.2574  0.0019 -0.2402
   70MPD2    C2 1068   1.901   0.941  13.437 -0.3864  1.1593 -0.2869
   70MPD2    C3 1069   1.803   0.864  13.497  0.6235 -0.0997 -0.1066
   70MPD2    C4 1070   1.792   0.872  13.631  1.0196 -0.7312  0.0672
   70MPD2    C5 1071   1.877   0.956  13.702 -0.4648  0.7668  0.3917
   70MPD2     H 1072   1.908   0.945  13.329 -1.4713 -0.0472 -0.3965
   70MPD2    H1 1073   1.708   0.828  13.683 -0.3090 -0.2636 -1.6749
   70MPD2    H2 1074   2.045   1.066  13.713 -0.3619 -0.5750  0.6662
   70MPD2    H3 1075   1.854   0.980  13.805  3.1066  1.4030  1.0183
   70MPD2     N 1076   1.714   0.778  13.424 -0.2471  0.3278  0.5299
   70MPD2    H5 1077   1.638   0.737  13.478  0.0589  1.4056  1.7795
   70MPD2    N1 1078   2.090   1.100  13.456 -0.3948 -0.4759 -0.0732
   70MPD2    H7 1079   2.143   1.154  13.523 -1.3040 -2.1544  1.9755
   71TMC2    C1 1080   4.329   0.709   1.206 -0.9170 -0.6421 -0.4615
   71TMC2    C2 1081   4.424   0.664   1.118  0.4248  0.0831  0.3502
   71TMC2    C3 1082   4.458   0.537   1.128 -0.0888 -0.3717  0.3778
   71TMC2    C4 1083   4.285   0.628   1.309 -0.2508 -0.2124  0.9377
   71TMC2    C5 1084   4.307   0.498   1.305 -0.2551  0.1943 -0.2585
   71TMC2    C6 1085   4.398   0.451   1.217  0.6163 -0.1377 -0.0431
   71TMC2     C 1086   4.298   0.854   1.214 -0.7810 -0.2165 -0.3618
   71TMC2     O 1087   4.214   0.885   1.297  0.1854 -0.2237  0.3979
   71TMC2     H 1088   4.470   0.722   1.040 -3.0129  1.2893 -0.8085
   71TMC2    H1 1089   4.222   0.668   1.387 -0.3435  0.6080  0.4503
   71TMC2    H2 1090   4.415   0.344   1.216 -0.8249 -0.3552 -1.9468
   71TMC2    C7 1091   4.300   0.427   1.428  0.5312  0.5077  0.4478
   71TMC2    C8 1092   4.558   0.494   1.035 -0.2435 -0.9233  0.7155
   71TMC2    O1 1093   4.399   0.371   1.472 -0.9774 -0.0886  0.1846
   71TMC2    O2 1094   4.601   0.561   0.943 -0.7766 -0.3479  0.1274
   71TMC2    O5 1095   4.611   0.382   1.082  0.2896 -0.1648 -0.0680
   71TMC2    H5 1096   4.596   0.363   1.177  2.0094 -1.5726 -0.0982
   72MPD2     C 1097   4.397   1.344   1.091 -0.2918  0.0950 -0.9087
   72MPD2    C1 1098   4.285   1.291   1.146 -0.2398  0.0946 -0.7003
   72MPD2    C2 1099   4.287   1.157   1.165  0.3351 -0.7662 -0.1493
   72MPD2    C3 1100   4.395   1.074   1.132  0.7505  0.3736 -0.1262
   72MPD2    C4 1101   4.504   1.134   1.069 -0.1384 -0.0786 -0.2198
   72MPD2    C5 1102   4.507   1.272   1.060  1.0664 -0.3532  0.1446
   72MPD2     H 1103   4.195   1.113   1.202 -0.3359 -1.5130 -2.7057
   72MPD2    H1 1104   4.591   1.074   1.049  0.5425  0.5251  0.8966
   72MPD2    H2 1105   4.403   1.449   1.062  1.7215 -0.2823 -1.8180
   72MPD2    H3 1106   4.592   1.323   1.017  0.8171  0.3877  0.5282
   72MPD2     N 1107   4.394   0.931   1.142  0.1794 -0.2575  0.0136
   72MPD2    H5 1108   4.467   0.882   1.092  1.5471  0.2760  1.4724
   72MPD2    N1 1109   4.166   1.354   1.179  0.0033  0.5425  0.0580
   72MPD2    H7 1110   4.082   1.301   1.202  0.7318 -0.5428  0.2131
   73TMC2    C1 1111   3.137   3.129  14.451  0.8732  0.2021  0.0026
   73TMC2    C2 1112   3.038   3.177  14.527 -0.0165 -0.1796  0.0427
   73TMC2    C3 1113   3.068   3.274  14.622 -0.3231  0.9598 -0.2215
   73TMC2    C4 1114   3.267   3.172  14.479 -0.0347 -0.2410  0.1528
   73TMC2    C5 1115   3.288   3.280  14.560 -0.0630 -0.0991  0.3385
   73TMC2    C6 1116   3.195   3.324  14.639  0.4897 -0.3438  0.6607
   73TMC2     C 1117   3.106   3.117  14.310 -0.8484  0.1905 -0.2500
   73TMC2     O 1118   3.203   3.128  14.232 -0.1622 -0.2073  0.0347
   73TMC2     H 1119   2.940   3.133  14.515 -0.0584 -0.3378  0.9523
   73TMC2    H1 1120   3.345   3.126  14.420 -0.1210  0.5333 -0.5505
   73TMC2    H2 1121   3.208   3.412  14.701 -1.3688  0.7932 -0.5425
   73TMC2    C7 1122   3.367   3.385  14.493 -0.4058  0.5069  0.5636
   73TMC2    C8 1123   2.970   3.339  14.708 -0.1158 -0.0247 -0.3596
   73TMC2    O1 1124   3.396   3.492  14.537 -0.2969 -0.5033  0.1811
   73TMC2    O2 1125   3.000   3.391  14.815 -0.1433 -0.5091  0.1635
   73TMC2    O5 1126   2.844   3.335  14.663  0.0509 -0.1880  0.4929
   73TMC2    H5 1127   2.821   3.288  14.579  2.9938 -0.8095  0.0468
   74MPD2     C 1128   2.810   3.035  13.897 -0.1781 -0.1137  0.2131
   74MPD2    C1 1129   2.916   3.115  13.916 -0.2416 -0.6236 -0.5906
   74MPD2    C2 1130   2.972   3.119  14.042  0.3227  0.1795 -0.4460
   74MPD2    C3 1131   2.929   3.055  14.154 -0.1709 -0.0343  0.4382
   74MPD2    C4 1132   2.816   2.986  14.131 -0.0651  0.5182  0.2102
   74MPD2    C5 1133   2.757   2.971  14.007  0.1785  0.3104 -0.2885
   74MPD2     H 1134   3.046   3.195  14.068  1.5479 -1.3816  0.6162
   74MPD2    H1 1135   2.779   2.921  14.211  1.9478  2.1141  2.4412
   74MPD2    H2 1136   2.757   3.032  13.802 -0.2261 -1.9884  0.2895
   74MPD2    H3 1137   2.668   2.910  13.993  1.8009 -2.1935  0.3536
   74MPD2     N 1138   2.980   3.074  14.285  1.1453  0.0327 -0.1965
   74MPD2    H5 1139   2.922   3.030  14.355 -1.5794  1.8790 -1.3092
   74MPD2    N1 1140   2.980   3.187  13.815  0.3454  0.1957 -0.3419
   74MPD2    H7 1141   2.942   3.174  13.722  0.3238  1.5117 -0.5082
   75TCq2    C1 1142   3.238   4.408  14.547  0.0557  0.2228 -0.1620
   75TCq2    O2 1143   3.249   4.405  14.668 -0.3217  0.5353 -0.0779
   75TCq2    C2 1144   3.107   4.440  14.482 -0.9569  0.2735 -0.0931
   75TCq2    C3 1145   2.998   4.432  14.561 -0.5568 -0.2906 -0.2950
   75TCq2    C4 1146   2.884   4.490  14.512  0.0948  0.1187  0.0707
   75TCq2    C5 1147   2.886   4.559  14.393 -0.0829 -0.7726  1.0291
   75TCq2    C6 1148   2.999   4.559  14.317 -0.1943 -0.6008 -0.4811
   75TCq2    C7 1149   3.116   4.495  14.356 -0.2169  0.3003  0.3442
   75TCq2    C8 1150   2.985   4.619  14.187  0.2720 -0.1350 -0.1324
   75TCq2    O4 1151   3.054   4.576  14.096 -0.1759  0.2589  0.6780
   75TCq2    C9 1152   2.758   4.472  14.572 -0.8653  0.0761 -0.2014
   75TCq2    O5 1153   2.653   4.485  14.502  0.3686 -0.1586  0.2546
   75TCq2    O6 1154   2.760   4.401  14.673  0.3108 -0.2879 -0.3746
   75TCq2    H2 1155   3.005   4.387  14.660  0.2377  1.1579  0.3081
   75TCq2    H3 1156   2.793   4.605  14.360  0.2890  1.7158  3.5122
   75TCq2    H4 1157   3.204   4.522  14.298 -0.3340  1.7858  0.8632
   76MPD2     C 1158   2.814   0.608  12.206  0.4455 -0.5755 -0.3243
   76MPD2    C1 1159   2.676   0.615  12.220 -0.2794  0.0613  0.2116
   76MPD2    C2 1160   2.605   0.499  12.259 -0.1013  0.2558 -0.2539
   76MPD2    C3 1161   2.672   0.384  12.254 -0.8087 -0.4299  0.0149
   76MPD2    C4 1162   2.805   0.380  12.223 -0.1804 -0.5718  0.2822
   76MPD2    C5 1163   2.880   0.490  12.221  0.1607  0.3801  0.9621
   76MPD2     H 1164   2.498   0.506  12.275 -0.2885 -0.6613 -1.1709
   76MPD2    H1 1165   2.855   0.285  12.210 -0.7202 -1.2101  2.9189
   76MPD2    H2 1166   2.870   0.700  12.191  1.0917 -0.9194 -0.0242
   76MPD2    H3 1167   2.986   0.482  12.199 -0.3162 -2.4295 -0.3644
   76MPD2     N 1168   2.605   0.260  12.276  0.3514  0.6118  0.0039
   76MPD2    H5 1169   2.661   0.176  12.269 -1.8686 -0.8851 -0.0381
   76MPD2    N1 1170   2.606   0.740  12.209 -1.3738  1.1340 -0.2889
   76MPD2    H7 1171   2.511   0.731  12.243 -0.2738  0.2900  2.5362
   77TCq2    C1 1172   2.471   0.236  12.271 -0.2334  0.6360  0.3352
   77TCq2    O2 1173   2.375   0.307  12.248 -0.0888  0.2818  0.4072
   77TCq2    C2 1174   2.439   0.093  12.279 -0.9426  0.7567 -0.1359
   77TCq2    C3 1175   2.322   0.053  12.216  0.5799 -0.6677 -0.4918
   77TCq2    C4 1176   2.297   4.647  12.214 -0.0596  0.0122  0.3854
   77TCq2    C5 1177   2.383   4.551  12.262  0.4111 -0.6121 -1.0439
   77TCq2    C6 1178   2.497   4.601  12.324  0.2071 -0.5606  0.4517
   77TCq2    C7 1179   2.525   0.010  12.335  0.4893 -0.1453  0.2845
   77TCq2    C8 1180   2.584   4.499  12.382  0.4417  0.8520  0.1115
   77TCq2    O4 1181   2.537   4.393  12.411  0.0633  0.1463  0.3617
   77TCq2    C9 1182   2.169   4.608  12.151  0.3798  0.0537 -0.4132
   77TCq2    O5 1183   2.148   4.483  12.134 -1.0672  0.2894  0.2579
   77TCq2    O6 1184   2.083   4.695  12.131 -0.0393  0.1644 -0.1368
   77TCq2    H2 1185   2.263   0.131  12.170  3.4306  1.0075 -1.2904
   77TCq2    H3 1186   2.347   4.449  12.270  2.8751 -1.4025 -0.2153
   77TCq2    H4 1187   2.611   0.047  12.390  0.0212  0.4502  0.6073
   78MPD1     C 1188   4.185   3.778   2.620 -0.0908  0.3054  0.0002
   78MPD1    C1 1189   4.213   3.891   2.691  0.6122 -0.1088  0.9725
   78MPD1    C2 1190   4.345   3.929   2.701 -0.2305 -0.0997  0.1328
   78MPD1    C3 1191   4.443   3.874   2.622 -0.2263 -0.3873  0.1843
   78MPD1    C4 1192   4.409   3.764   2.539  0.6188 -0.4111 -0.8766
   78MPD1    C5 1193   4.280   3.720   2.542 -0.6687  0.6485  0.1103
   78MPD1     H 1194   4.367   4.011   2.768  1.0913 -0.3416  0.0070
   78MPD1    H1 1195   4.481   3.719   2.471  3.3358  1.1457  0.9970
   78MPD1    H2 1196   4.086   3.743   2.594  0.4446 -1.2020  0.0178
   78MPD1    H3 1197   4.246   3.651   2.467 -0.2071  1.1541 -0.5703
   78MPD1     N 1198   4.574   3.928   2.619 -1.1282  0.4436 -0.3546
   78MPD1    H5 1199   4.638   3.882   2.555 -2.6227  1.1170 -2.3346
   78MPD1    N1 1200   4.107   3.942   2.768 -0.6260  0.2392 -0.2703
   78MPD1    H6 1201   4.017   3.902   2.745 -0.0305 -2.2541  1.6492
   78MPD1    H7 1202   4.092   4.042   2.755 -0.1263  0.2490 -0.7653
   79TCq2    C1 1203   4.621   4.039   2.682  0.4270  0.2274  0.0879
   79TCq2    O2 1204   4.564   4.118   2.754 -0.0517 -0.1511 -0.0132
   79TCq2    C2 1205   0.044   4.049   2.654 -0.0227 -0.1832 -0.7852
   79TCq2    C3 1206   0.098   3.951   2.576  0.5563  0.0017 -0.0872
   79TCq2    C4 1207   0.230   3.958   2.548 -0.2119 -0.1805  0.0679
   79TCq2    C5 1208   0.299   4.055   2.593 -0.8814 -0.5825  0.2203
   79TCq2    C6 1209   0.256   4.153   2.670  0.4407  0.2512 -0.1479
   79TCq2    C7 1210   0.122   4.155   2.704  0.9864  0.6550 -0.1297
   79TCq2    C8 1211   0.330   4.276   2.713  0.4590 -0.0310  0.5740
   79TCq2    O4 1212   0.265   4.373   2.761 -0.3443  0.2253  0.3849
   79TCq2    C9 1213   0.279   3.862   2.449  0.3835  0.7700 -0.6164
   79TCq2    O5 1214   0.204   3.776   2.396 -0.5370  1.3736 -0.1591
   79TCq2    O6 1215   0.400   3.876   2.414  0.3480  0.6538 -0.4426
   79TCq2    H2 1216   0.050   3.871   2.521 -3.7194  1.3924  1.6810
   79TCq2    H3 1217   0.400   4.059   2.553 -1.4599 -2.5832 -1.3970
   79TCq2    H4 1218   0.075   4.229   2.768 -1.7320 -0.9542 -0.2297
   80MPD2     C 1219   1.302   0.256  12.859 -0.3045 -0.5914 -0.1140
   80MPD2    C1 1220   1.276   0.314  12.737  0.4079 -0.0926 -0.1895
   80MPD2    C2 1221   1.145   0.310  12.686  0.4898 -0.3610  0.0069
   80MPD2    C3 1222   1.037   0.255  12.761 -0.1609 -0.5009 -0.4020
   80MPD2    C4 1223   1.068   0.194  12.880 -0.4916  0.6683  0.1501
   80MPD2    C5 1224   1.195   0.196  12.930 -0.7037 -0.3777  0.0617
   80MPD2     H 1225   1.120   0.355  12.591  2.8174  2.0014  0.5365
   80MPD2    H1 1226   0.991   0.148  12.940  0.3482 -0.4482  0.3709
   80MPD2    H2 1227   1.401   0.244  12.901 -0.4530  1.2071  0.7438
   80MPD2    H3 1228   1.214   0.151  13.027 -1.0404 -0.6023  0.0231
   80MPD2     N 1229   0.904   0.240  12.715  0.2460  0.6967 -0.0347
   80MPD2    H5 1230   0.836   0.197  12.777  0.5894  2.7461  1.7972
   80MPD2    N1 1231   1.376   0.368  12.656 -0.2914 -0.3595 -0.9755
   80MPD2    H7 1232   1.357   0.413  12.567 -4.7439  0.5475  0.4276
   81TCq2    C1 1233   1.509   0.337  12.664  0.5036 -0.6487 -0.2807
   81TCq2    O2 1234   1.568   0.272  12.747  0.6936  0.3511  0.3805
   81TCq2    C2 1235   1.565   0.347  12.529  0.6703  0.1705 -0.1593
   81TCq2    C3 1236   1.701   0.346  12.527 -0.1237  0.8911  0.1632
   81TCq2    C4 1237   1.769   0.339  12.414  0.6672  0.1706  0.2866
   81TCq2    C5 1238   1.700   0.332  12.297 -0.3086 -0.5229 -0.3383
   81TCq2    C6 1239   1.563   0.326  12.296  0.7491 -0.2210 -0.3830
   81TCq2    C7 1240   1.490   0.333  12.412  0.0111 -0.7474  0.5237
   81TCq2    C8 1241   1.497   0.289  12.179  0.3347 -0.6459 -0.1870
   81TCq2    O4 1242   1.516   0.354  12.080  0.5554 -0.2596 -0.2989
   81TCq2    C9 1243   1.913   0.337  12.408 -0.1455 -0.2900 -0.3292
   81TCq2    O5 1244   1.969   0.292  12.304  0.4535  0.1799  0.0665
   81TCq2    O6 1245   1.979   0.379  12.508  0.5755  0.2006  0.3445
   81TCq2    H2 1246   1.766   0.358  12.613  1.5652  0.3015 -1.0169
   81TCq2    H3 1247   1.755   0.316  12.204  1.0149 -2.8327  0.8450
   81TCq2    H4 1248   1.383   0.326  12.401 -0.1165  1.4687  0.3791
   82MPD2     C 1249   3.127   4.260  11.271  0.8694 -0.0811 -0.0836
   82MPD2    C1 1250   3.229   4.253  11.180 -0.8223 -0.3957 -0.3716
   82MPD2    C2 1251   3.363   4.268  11.229  0.0892  0.2034  0.6774
   82MPD2    C3 1252   3.383   4.280  11.366  0.7747 -0.2752 -0.4212
   82MPD2    C4 1253   3.279   4.283  11.452 -0.4502  1.0781 -0.0005
   82MPD2    C5 1254   3.151   4.264  11.404  0.2160 -0.2524 -0.1457
   82MPD2     H 1255   3.448   4.274  11.162 -0.6752 -0.4877 -0.3431
   82MPD2    H1 1256   3.295   4.288  11.559 -3.4695 -2.1746  0.5923
   82MPD2    H2 1257   3.021   4.261  11.245  0.0582  0.2160  3.1941
   82MPD2    H3 1258   3.074   4.260  11.481 -0.8335  0.4877 -1.1422
   82MPD2     N 1259   3.516   4.278  11.419  0.4843  0.6371 -0.4899
   82MPD2    H5 1260   3.520   4.250  11.517 -1.8899  3.7276  0.4677
   82MPD2    N1 1261   3.197   4.233  11.045 -0.0784 -0.1627 -0.0629
   82MPD2    H7 1262   3.098   4.240  11.023  0.0037  0.9407 -0.0594
   83TCq2    C1 1263   3.638   4.281  11.351  0.0212 -0.9058 -0.3401
   83TCq2    O2 1264   3.661   4.261  11.231  0.0157 -0.1087 -0.8428
   83TCq2    C2 1265   3.750   4.266  11.448 -0.5028 -0.0289 -0.2204
   83TCq2    C3 1266   3.722   4.292  11.581 -0.3551  0.7669 -0.8777
   83TCq2    C4 1267   3.814   4.242  11.673  0.4645  0.1986  0.2195
   83TCq2    C5 1268   3.924   4.175  11.632 -0.1034  0.4677 -0.9561
   83TCq2    C6 1269   3.952   4.151  11.502  0.4497 -0.3830 -0.3865
   83TCq2    C7 1270   3.856   4.193  11.409 -0.2683 -0.0580  0.3987
   83TCq2    C8 1271   4.012   4.015  11.496 -0.1730  0.2002  0.3171
   83TCq2    O4 1272   4.082   3.979  11.592 -0.0241 -0.3100  0.2662
   83TCq2    C9 1273   3.804   4.270  11.816  0.4358 -0.4240  0.3567
   83TCq2    O5 1274   3.887   4.219  11.889 -0.0193  0.0853  0.6612
   83TCq2    O6 1275   3.708   4.339  11.861  0.2673 -0.1189  0.0592
   83TCq2    H2 1276   3.643   4.356  11.617 -1.3599 -0.5206 -0.7740
   83TCq2    H3 1277   4.001   4.158  11.706 -0.2364  2.6423 -0.3359
   83TCq2    H4 1278   3.887   4.177  11.306 -0.5189  1.3284  0.0974
   84TCq2    C1 1279   0.449   2.852  10.703  0.4604  0.3620 -0.0851
   84TCq2    O2 1280   0.552   2.908  10.734  0.3343  0.4740  0.1994
   84TCq2    C2 1281   0.362   2.808  10.809 -0.7658  0.4791 -0.2546
   84TCq2    C3 1282   0.260   2.722  10.782 -0.1028  0.3102 -0.3725
   84TCq2    C4 1283   0.196   2.665  10.884 -0.2597 -0.5056 -0.1310
   84TCq2    C5 1284   0.230   2.698  11.015 -0.5076  0.9966  0.4140
   84TCq2    C6 1285   0.333   2.786  11.033  0.0293  0.0266 -0.0648
   84TCq2    C7 1286   0.392   2.846  10.930 -0.8095 -0.4447  0.5569
   84TCq2    C8 1287   0.339   2.866  11.154  0.3668  0.9717  0.0265
   84TCq2    O4 1288   0.356   2.987  11.149  0.0913  0.4005  0.1329
   84TCq2    C9 1289   0.088   2.572  10.868 -0.5095 -0.8894  0.4351
   84TCq2    O5 1290   0.004   2.572  10.963 -0.3938 -0.2910 -0.2557
   84TCq2    O6 1291   0.090   2.503  10.760 -0.0923  0.9173 -0.1093
   84TCq2    H2 1292   0.229   2.680  10.687  0.9684 -0.2609 -0.4803
   84TCq2    H3 1293   0.163   2.665  11.093  1.0006 -0.3210  1.1464
   84TCq2    H4 1294   0.468   2.922  10.948  0.0301 -0.7801 -1.5551
   85MPD2     C 1295   1.174   0.852  16.706 -0.5193  0.1277 -0.6809
   85MPD2    C1 1296   1.069   0.883  16.617 -0.9261  0.4069  0.3170
   85MPD2    C2 1297   1.077   0.998  16.541 -0.0153 -0.3830  0.3989
   85MPD2    C3 1298   1.185   1.082  16.548  0.0944 -0.0849  0.1003
   85MPD2    C4 1299   1.288   1.043  16.639 -0.4539 -0.2354 -1.0264
   85MPD2    C5 1300   1.283   0.932  16.718 -0.2472  0.4808  1.0847
   85MPD2     H 1301   1.000   1.025  16.470  0.6660  0.1687 -0.1282
   85MPD2    H1 1302   1.372   1.110  16.658  0.1955 -1.6507  1.0542
   85MPD2    H2 1303   1.178   0.758  16.758  0.6227 -0.0102 -1.0216
   85MPD2    H3 1304   1.366   0.904  16.781 -0.8102 -1.9275  0.7804
   85MPD2     N 1305   1.180   1.203  16.475  0.4113  0.0889 -0.0230
   85MPD2    H5 1306   1.089   1.231  16.440 -0.0872 -0.4006  0.8759
   85MPD2    N1 1307   0.951   0.803  16.606 -0.4682 -0.6084 -0.7836
   85MPD2    H7 1308   0.889   0.823  16.528  0.1209 -3.3947 -1.9606
   86TCq2    C1 1309   1.282   1.278  16.427  0.1179 -0.1779  0.5874
   86TCq2    O2 1310   1.405   1.260  16.435 -0.2482 -0.3925  0.0472
   86TCq2    C2 1311   1.235   1.394  16.351  0.0624  0.4724 -0.0873
   86TCq2    C3 1312   1.124   1.471  16.375 -1.1079  0.3748  0.5644
   86TCq2    C4 1313   1.095   1.583  16.309 -0.2033 -0.0023 -0.7439
   86TCq2    C5 1314   1.171   1.615  16.203 -0.0289 -0.2022 -0.4503
   86TCq2    C6 1315   1.286   1.536  16.170 -0.4951 -0.2378  0.7523
   86TCq2    C7 1316   1.325   1.429  16.251 -0.2384 -0.0034  0.1774
   86TCq2    C8 1317   1.323   1.549  16.027 -0.9831 -0.5408  0.3249
   86TCq2    O4 1318   1.244   1.616  15.967  0.4971  0.2914 -0.3543
   86TCq2    C9 1319   0.972   1.657  16.339  0.8986  0.3646  0.7132
   86TCq2    O5 1320   0.917   1.630  16.450  0.4297  0.4816  0.4886
   86TCq2    O6 1321   0.925   1.721  16.243 -0.1412  0.4164  0.4776
   86TCq2    H2 1322   1.061   1.445  16.459  0.0944  2.6141  2.1691
   86TCq2    H3 1323   1.141   1.699  16.143  0.6117 -1.6923 -2.8563
   86TCq2    H4 1324   1.404   1.357  16.233  0.7689  1.2469 -0.3512
   87MPD2     C 1325   3.372   0.069   1.969 -0.0432 -0.8634 -0.4814
   87MPD2    C1 1326   3.447   0.066   1.861  0.8567  0.6279  0.1063
   87MPD2    C2 1327   3.397   0.099   1.736  0.2757  0.2180  0.5508
   87MPD2    C3 1328   3.270   0.153   1.724  0.8859  0.4229  0.0077
   87MPD2    C4 1329   3.196   0.166   1.835  0.1659  0.2942 -0.0589
   87MPD2    C5 1330   3.251   0.116   1.954  0.3199 -0.6284  0.2666
   87MPD2     H 1331   3.449   0.076   1.643 -0.0675  0.2555  0.3521
   87MPD2    H1 1332   3.093   0.199   1.836 -0.5715 -1.8690 -3.4553
   87MPD2    H2 1333   3.416   0.052   2.067 -0.4447 -0.0179 -0.1474
   87MPD2    H3 1334   3.191   0.132   2.042 -0.0498 -2.6078  0.3583
   87MPD2     N 1335   3.207   0.204   1.605 -1.0028 -0.4239  0.4000
   87MPD2    H5 1336   3.121   0.257   1.608 -1.0517 -0.3798 -1.8882
   87MPD2    N1 1337   3.578   0.013   1.876  0.4322  0.2414  0.1794
   87MPD2    H7 1338   3.609   4.702   1.965 -2.0475  0.8133  1.2853
   88TCq2    C1 1339   3.680   0.036   1.782 -0.1210  0.0394  0.5419
   88TCq2    O2 1340   3.671   0.074   1.665  0.8973  0.3867  0.1784
   88TCq2    C2 1341   3.816   0.004   1.829 -0.0355 -0.8734  0.8075
   88TCq2    C3 1342   3.845   0.017   1.961 -0.1249 -0.2149  0.0962
   88TCq2    C4 1343   3.971   0.010   2.009  0.5087  0.1149 -0.0848
   88TCq2    C5 1344   4.074   4.722   1.923 -0.8079  0.0893  0.0440
   88TCq2    C6 1345   4.046   4.712   1.791 -0.6753  0.0124 -0.0183
   88TCq2    C7 1346   3.917   4.715   1.743 -1.3528 -0.1201  0.1925
   88TCq2    C8 1347   4.149   0.013   1.693  0.9342 -0.0859  0.7054
   88TCq2    O4 1348   4.264   4.723   1.728 -0.3632 -0.0788 -0.1543
   88TCq2    C9 1349   3.994   0.009   2.149 -0.1107 -0.5786 -0.1304
   88TCq2    O5 1350   3.890   0.016   2.225 -0.0070  0.4014 -0.0090
   88TCq2    O6 1351   4.116   4.720   2.182  0.0932  0.5249  0.3310
   88TCq2    H2 1352   3.767   0.036   2.034  0.2546  1.7182  0.0170
   88TCq2    H3 1353   4.179   4.715   1.949 -0.5264  0.6832 -0.9575
   88TCq2    H4 1354   3.892   4.697   1.639 -1.0735  0.8251 -0.0396
   89MPD2     C 1355   0.115   2.594   2.609 -0.9245 -0.0144  0.6482
   89MPD2    C1 1356   0.008   2.581   2.526 -0.0195 -0.3813 -0.3877
   89MPD2    C2 1357   4.718   2.660   2.416  0.0810  0.0239 -0.3215
   89MPD2    C3 1358   0.084   2.765   2.381 -0.4669 -0.4284  0.1097
   89MPD2    C4 1359   0.195   2.765   2.459 -0.1369  0.5241 -0.3269
   89MPD2    C5 1360   0.205   2.692   2.575  0.3970  0.0942  0.2759
   89MPD2     H 1361   4.629   2.641   2.357  0.0893 -0.2786 -0.2351
   89MPD2    H1 1362   0.266   2.845   2.445  1.1973 -0.6630 -0.3243
   89MPD2    H2 1363   0.131   2.541   2.702 -1.2847 -0.6027  0.3762
   89MPD2    H3 1364   0.293   2.720   2.632  1.6851 -0.0527 -1.6563
   89MPD2     N 1365   0.064   2.828   2.257  0.1288  0.1704  0.0438
   89MPD2    H5 1366   4.708   2.800   2.203 -0.7698  2.1732  0.3258
   89MPD2    N1 1367   4.634   2.482   2.562 -0.4268  0.1474  0.6150
   89MPD2    H7 1368   4.550   2.488   2.505  0.2212  0.0266 -0.3458
   90TCq2    C1 1369   0.123   2.947   2.231 -0.2768 -0.4296  0.1911
   90TCq2    O2 1370   0.184   3.016   2.310 -0.2842  0.3149  0.2051
   90TCq2    C2 1371   0.111   3.011   2.100 -0.3549 -0.8531  0.4957
   90TCq2    C3 1372   0.158   3.135   2.082  0.3202  0.8425 -0.1344
   90TCq2    C4 1373   0.150   3.194   1.964 -0.3998 -0.1188 -0.6004
   90TCq2    C5 1374   0.097   3.130   1.852 -0.2913 -0.0563 -0.3682
   90TCq2    C6 1375   0.056   3.000   1.874 -0.4796 -0.3321 -0.3011
   90TCq2    C7 1376   0.068   2.939   1.996  0.0618 -0.5917  0.3385
   90TCq2    C8 1377   0.032   2.912   1.758  0.0130 -0.0054 -0.4837
   90TCq2    O4 1378   0.059   2.794   1.773 -0.3158  0.2446  0.0485
   90TCq2    C9 1379   0.187   3.337   1.956 -0.5594  0.0619  0.8624
   90TCq2    O5 1380   0.161   3.399   1.848  0.5546  0.0854  0.2851
   90TCq2    O6 1381   0.249   3.390   2.055  0.2984  0.1016 -0.0223
   90TCq2    H2 1382   0.185   3.184   2.174 -0.0027  0.7194  0.0284
   90TCq2    H3 1383   0.080   3.183   1.759 -0.0371 -1.7863 -1.3815
   90TCq2    H4 1384   0.007   2.850   2.009  1.8434 -1.9620 -0.7779
   91TMC2    C1 1385   1.610   2.195  16.978  0.2984 -0.0331 -0.3179
   91TMC2    C2 1386   1.656   2.296  16.896 -0.1509  0.0887 -0.2020
   91TMC2    C3 1387   1.567   2.381  16.836 -0.0277  0.0807 -0.0620
   91TMC2    C4 1388   1.478   2.178  16.998 -0.2515 -0.6032 -0.3391
   91TMC2    C5 1389   1.397   2.266  16.928  0.8904  0.3025  0.2697
   91TMC2    C6 1390   1.433   2.363  16.846  0.0556 -0.2954  0.3801
   91TMC2     C 1391   1.686   2.078  17.018 -0.1613  0.1637  0.3662
   91TMC2     O 1392   1.624   1.972  17.026  0.1583  0.3938 -0.4718
   91TMC2     H 1393   1.763   2.308  16.885  0.3966 -0.7982  4.0815
   91TMC2    H1 1394   1.430   2.107  17.063 -0.9885  0.1290 -0.0844
   91TMC2    H2 1395   1.363   2.425  16.792  0.4233 -0.0726  0.1576
   91TMC2    C7 1396   1.257   2.237  16.951  0.5965  0.1388  1.1321
   91TMC2    C8 1397   1.612   2.490  16.756  0.2341 -0.2139 -0.8870
   91TMC2    O1 1398   1.232   2.198  17.064 -0.4549 -0.3263 -0.1525
   91TMC2    O2 1399   1.725   2.532  16.763 -0.3604 -0.1972  0.2213
   91TMC2    O5 1400   1.539   2.491  16.643  0.6207  0.4746 -0.3568
   91TMC2    H5 1401   1.460   2.435  16.655  0.8198  0.4047  0.6653
   92MPD2     C 1402   1.914   1.887  17.049 -0.6221 -0.3633  0.3620
   92MPD2    C1 1403   1.917   2.023  17.071  0.3250  0.4278 -0.1407
   92MPD2    C2 1404   2.035   2.075  17.120 -0.1981 -0.0403  0.0265
   92MPD2    C3 1405   2.151   1.994  17.134 -0.0159 -0.1046  0.2061
   92MPD2    C4 1406   2.141   1.854  17.119  0.0071  0.1629 -0.8202
   92MPD2    C5 1407   2.015   1.802  17.091 -0.1621 -0.2838  0.3962
   92MPD2     H 1408   2.038   2.183  17.132  1.1297 -0.4062  3.0010
   92MPD2    H1 1409   2.218   1.781  17.135  0.8878  1.4756  0.8934
   92MPD2    H2 1410   1.829   1.836  17.004  0.7269 -3.1331  0.9708
   92MPD2    H3 1411   2.017   1.694  17.080  1.9153 -0.1504 -0.5442
   92MPD2     N 1412   2.270   2.057  17.170  0.3399 -0.1340  0.0516
   92MPD2    H5 1413   2.264   2.151  17.209  1.3261 -0.1384  0.2021
   92MPD2    N1 1414   1.810   2.115  17.045 -0.3508  0.7828  0.1576
   92MPD2    H7 1415   1.831   2.211  17.071  0.3720  0.4477  0.8090
   93MPD2     C 1416   2.932   2.676  13.927  0.1619 -0.0750  0.3073
   93MPD2    C1 1417   2.902   2.651  14.056 -0.3236  0.0002 -0.2848
   93MPD2    C2 1418   2.775   2.616  14.089 -0.3253 -0.6017  0.1310
   93MPD2    C3 1419   2.675   2.597  13.989 -0.2030  0.1203  0.6890
   93MPD2    C4 1420   2.710   2.617  13.863  0.4696  0.0041 -0.2733
   93MPD2    C5 1421   2.833   2.663  13.836  0.5238  0.6663 -0.0604
   93MPD2     H 1422   2.745   2.601  14.192  0.2097  2.4471  0.7566
   93MPD2    H1 1423   2.642   2.616  13.779 -0.4197 -1.4791  0.4585
   93MPD2    H2 1424   3.030   2.701  13.889 -0.4503  0.6662 -0.7624
   93MPD2    H3 1425   2.850   2.685  13.731 -0.5310 -1.0115 -0.5773
   93MPD2     N 1426   2.541   2.563  14.013 -0.2571 -0.3668  0.1220
   93MPD2    H5 1427   2.484   2.541  13.932 -1.6504  0.4683  0.8694
   93MPD2    N1 1428   3.004   2.669  14.155 -0.4119  0.5135 -0.1681
   93MPD2    H7 1429   2.974   2.673  14.252 -0.2280 -1.8523 -0.0266
   94TCq2    C1 1430   3.124   2.726  14.134 -0.6531  0.6748 -0.3031
   94TCq2    O2 1431   3.177   2.768  14.032  0.0642  0.4693  0.3510
   94TCq2    C2 1432   3.190   2.772  14.254  0.1801  0.1866  0.5837
   94TCq2    C3 1433   3.142   2.736  14.377  0.2862  0.0037  0.3108
   94TCq2    C4 1434   3.219   2.752  14.487  1.1455 -0.5443 -0.2688
   94TCq2    C5 1435   3.346   2.800  14.481 -0.1664 -0.4262  0.6562
   94TCq2    C6 1436   3.395   2.834  14.352 -0.2549 -0.2104 -0.4204
   94TCq2    C7 1437   3.318   2.825  14.240 -0.5489  0.2816 -0.4441
   94TCq2    C8 1438   3.528   2.892  14.345  0.1755 -1.1478 -0.0744
   94TCq2    O4 1439   3.597   2.867  14.440  0.4639 -0.2080 -0.1779
   94TCq2    C9 1440   3.154   2.749  14.617 -0.3167  0.3115 -0.8249
   94TCq2    O5 1441   3.222   2.802  14.705  0.0968 -0.2620  0.1672
   94TCq2    O6 1442   3.032   2.748  14.606 -0.8279  0.1309  0.0829
   94TCq2    H2 1443   3.045   2.688  14.386  0.4613 -0.5165 -0.4956
   94TCq2    H3 1444   3.401   2.832  14.568 -0.4188 -0.1294  0.7084
   94TCq2    H4 1445   3.357   2.850  14.142  0.2397  2.5699  0.4678
   95TMC2    C1 1446   3.010   4.066  16.587  0.0295 -0.0151  0.5660
   95TMC2    C2 1447   3.053   4.096  16.712 -0.3740 -0.2227  0.2670
   95TMC2    C3 1448   2.991   4.051  16.824 -0.1515 -0.1800  0.2490
   95TMC2    C4 1449   2.895   4.001  16.571 -0.7173  0.2002  0.5415
   95TMC2    C5 1450   2.819   3.969  16.685  0.3467 -0.2556  0.1768
   95TMC2    C6 1451   2.871   3.988  16.815 -0.2382 -0.4366 -0.4278
   95TMC2     C 1452   3.082   4.113  16.470 -0.0430  0.1207  0.6942
   95TMC2     O 1453   3.145   4.219  16.480  0.4168  0.1999 -0.9225
   95TMC2     H 1454   3.141   4.159  16.717 -1.0284  0.5507  2.3153
   95TMC2    H1 1455   2.857   3.999  16.469  1.3107  2.5284 -0.2651
   95TMC2    H2 1456   2.823   3.948  16.903  0.6773 -0.6120 -0.0024
   95TMC2    C7 1457   2.683   3.916  16.687  0.7302 -1.0079  0.1262
   95TMC2    C8 1458   3.051   4.076  16.953 -0.6100 -0.2308 -0.2337
   95TMC2    O1 1459   2.621   3.922  16.794  0.2679 -0.5213 -0.2969
   95TMC2    O2 1460   3.147   4.150  16.960 -0.2744  0.6520 -0.1585
   95TMC2    O5 1461   2.956   4.059  17.044  0.4767  1.0313 -0.3824
   95TMC2    H5 1462   2.869   4.022  17.020  0.2033  1.0453  0.6095
   96MPD2     C 1463   3.145   4.135  15.956 -0.4525  0.2948  0.1002
   96MPD2    C1 1464   3.151   4.235  16.049  1.1028  0.6777 -0.2723
   96MPD2    C2 1465   3.136   4.201  16.182  0.3557 -0.3842  0.2152
   96MPD2    C3 1466   3.100   4.071  16.218  0.0282  0.4871 -0.4053
   96MPD2    C4 1467   3.081   3.975  16.124  0.1087 -0.7231 -0.0830
   96MPD2    C5 1468   3.107   4.005  15.993 -0.6160 -0.1023 -0.0127
   96MPD2     H 1469   3.139   4.266  16.269 -0.4644  0.9419 -0.7502
   96MPD2    H1 1470   3.046   3.875  16.147 -0.4040 -0.6702 -0.6305
   96MPD2    H2 1471   3.150   4.160  15.850  0.6856  2.1895  0.5950
   96MPD2    H3 1472   3.099   3.934  15.912 -1.3787  0.5909 -0.5347
   96MPD2     N 1473   3.070   4.038  16.356 -0.3305  0.5191  0.1434
   96MPD2    H5 1474   3.035   3.943  16.362 -1.7673  1.0779  0.4607
   96MPD2    N1 1475   3.172   4.363  15.995  0.0785 -0.5151  0.1415
   96MPD2    H7 1476   3.197   4.361  15.897 -1.4188 -1.4028 -0.2222
   97MPD2     C 1477   0.624   1.071   1.619 -0.3001 -0.3297 -0.1883
   97MPD2    C1 1478   0.642   1.203   1.600 -0.4877 -0.2916  0.7639
   97MPD2    C2 1479   0.679   1.247   1.472 -0.9609 -0.1613 -0.9276
   97MPD2    C3 1480   0.701   1.165   1.364  0.0290  0.7722  0.2620
   97MPD2    C4 1481   0.693   1.030   1.388 -0.3299 -0.8594  0.2494
   97MPD2    C5 1482   0.655   0.986   1.512  0.3347  0.3194  0.3040
   97MPD2     H 1483   0.696   1.354   1.460  2.7123 -0.8605 -1.9415
   97MPD2    H1 1484   0.712   0.952   1.315  3.7929  0.8257 -0.4441
   97MPD2    H2 1485   0.597   1.035   1.718  2.3535 -1.9560 -0.0652
   97MPD2    H3 1486   0.672   0.881   1.535 -1.3592 -0.0109  0.1008
   97MPD2     N 1487   0.745   1.210   1.242  0.0122  0.3752  0.1240
   97MPD2    H5 1488   0.758   1.143   1.167 -1.4988 -0.6682  0.8157
   97MPD2    N1 1489   0.633   1.289   1.711  0.5950 -0.0931  0.7637
   97MPD2    H7 1490   0.616   1.242   1.800 -1.1505 -0.4557  0.2461
   98TCq2    C1 1491   0.744   1.336   1.201  1.3556  0.1441 -0.6569
   98TCq2    O2 1492   0.688   1.423   1.257 -0.4212  0.0638  0.0707
   98TCq2    C2 1493   0.821   1.358   1.081 -0.4553 -0.1651 -0.0404
   98TCq2    C3 1494   0.870   1.265   0.998  0.0511  0.2217 -0.1680
   98TCq2    C4 1495   0.963   1.298   0.899 -0.1454 -0.7373  0.2045
   98TCq2    C5 1496   0.989   1.429   0.876  0.2642 -0.1683  0.3649
   98TCq2    C6 1497   0.928   1.526   0.952  0.0413 -0.1271 -0.2587
   98TCq2    C7 1498   0.833   1.493   1.051 -0.5473  0.2342 -0.3594
   98TCq2    C8 1499   0.951   1.664   0.936  0.2565  0.0190  0.0494
   98TCq2    O4 1500   0.861   1.733   0.983 -0.0276 -0.7418  0.3263
   98TCq2    C9 1501   1.008   1.190   0.810  0.3429 -0.3514  0.6258
   98TCq2    O5 1502   0.935   1.083   0.805  0.6227 -0.7443  0.8545
   98TCq2    O6 1503   1.120   1.208   0.755  0.1584 -0.0885  0.5077
   98TCq2    H2 1504   0.838   1.161   0.995 -0.8060  0.4822  0.2022
   98TCq2    H3 1505   1.046   1.443   0.784  0.1964  1.5967  0.5935
   98TCq2    H4 1506   0.780   1.569   1.107 -0.3335  0.6133 -0.6666
   99MPD2     C 1507   4.646   3.747   2.134  0.1591  0.3349  0.2744
   99MPD2    C1 1508   4.529   3.815   2.113 -0.6664 -0.2719 -0.1890
   99MPD2    C2 1509   4.433   3.779   2.018  0.5698 -0.4794 -0.9307
   99MPD2    C3 1510   4.450   3.659   1.952 -0.0612  0.7158  0.0020
   99MPD2    C4 1511   4.566   3.588   1.971 -0.7015 -0.4648 -0.3934
   99MPD2    C5 1512   4.656   3.630   2.067 -0.7780 -0.0910  0.0339
   99MPD2     H 1513   4.343   3.836   1.995  3.4136  4.3415 -0.1765
   99MPD2    H1 1514   4.604   3.503   1.915  1.2154  1.2140 -1.6188
   99MPD2    H2 1515   4.704   3.759   2.224  1.3471  0.2445 -0.4745
   99MPD2    H3 1516   0.009   3.559   2.093  0.5851  0.9872 -1.2257
   99MPD2     N 1517   4.364   3.619   1.850  0.2072  0.2904  0.6646
   99MPD2    H5 1518   4.287   3.684   1.839 -0.1767 -0.0980  1.0547
   99MPD2    N1 1519   4.495   3.924   2.193 -0.2093 -0.2079 -0.0778
   99MPD2    H7 1520   4.402   3.961   2.176 -0.8021 -2.2343 -1.2207
  100TCq2    C1 1521   4.582   4.001   2.269 -0.8119  0.0007 -0.2746
  100TCq2    O2 1522   4.700   3.975   2.290  0.4923  0.1650  0.2002
  100TCq2    C2 1523   4.523   4.120   2.320 -0.2851  0.2641  0.0992
  100TCq2    C3 1524   4.607   4.214   2.365 -0.3322 -0.6739 -0.3007
  100TCq2    C4 1525   4.552   4.314   2.436 -1.1460 -0.4339  0.8984
  100TCq2    C5 1526   4.421   4.331   2.461  0.7783  0.4999 -0.1614
  100TCq2    C6 1527   4.341   4.230   2.421 -0.1401 -0.7153 -0.3656
  100TCq2    C7 1528   4.384   4.122   2.345 -0.5360 -0.4676 -0.0115
  100TCq2    C8 1529   4.194   4.233   2.436 -0.6767  0.0446  0.2046
  100TCq2    O4 1530   4.147   4.296   2.526 -0.0509 -0.5659 -0.6347
  100TCq2    C9 1531   4.636   4.411   2.494  0.1105  0.0706  0.1884
  100TCq2    O5 1532   0.020   4.441   2.435  0.4631 -0.2122  0.3825
  100TCq2    O6 1533   4.576   4.479   2.582  0.5069  0.6776  0.1501
  100TCq2    H2 1534   4.714   4.210   2.347 -0.2705  0.4029 -0.1296
  100TCq2    H3 1535   4.383   4.409   2.525  0.9837  1.5114 -1.2834
  100TCq2    H4 1536   4.322   4.036   2.326  0.1244 -0.6053 -1.4641
  101MPD2     C 1537   0.092   0.345  13.397  0.4644 -0.5724 -0.0666
  101MPD2    C1 1538   0.077   0.403  13.524 -0.4332 -0.1457 -0.2402
  101MPD2    C2 1539   4.722   0.347  13.618  0.3788 -0.3079 -0.0098
  101MPD2    C3 1540   4.647   0.238  13.588  0.1910  0.2277  0.1348
  101MPD2    C4 1541   4.659   0.179  13.463  0.6721  0.2630 -0.0320
  101MPD2    C5 1542   0.006   0.246  13.364 -0.1487  0.7473 -0.2432
  101MPD2     H 1543   4.695   0.391  13.713 -1.3449  0.5829 -0.9039
  101MPD2    H1 1544   4.609   0.085  13.442  1.2104 -0.3149  1.3333
  101MPD2    H2 1545   0.164   0.375  13.321  0.1960  0.5878  0.1508
  101MPD2    H3 1546   0.004   0.214  13.260 -1.9185 -2.8185  0.9197
  101MPD2     N 1547   4.560   0.186  13.688 -0.2560  0.0847 -0.3880
  101MPD2    H5 1548   4.556   0.246  13.770 -1.0486  0.0891 -0.4302
  101MPD2    N1 1549   0.161   0.515  13.552 -0.1873 -0.3459 -0.5882
  101MPD2    H7 1550   0.220   0.542  13.474 -1.0403 -0.2442 -1.1972
  102TCq2    C1 1551   0.331   0.728  13.282  0.5969  0.3546  0.8096
  102TCq2    O2 1552   0.439   0.777  13.248 -0.1304  0.5049 -0.5532
  102TCq2    C2 1553   0.278   0.782  13.405 -0.1425  0.5299  0.1948
  102TCq2    C3 1554   0.160   0.847  13.398 -0.0658  0.0194  0.2350
  102TCq2    C4 1555   0.067   0.852  13.505  0.3398  0.3321  0.1216
  102TCq2    C5 1556   0.105   0.799  13.618  0.8783  0.2873 -0.0778
  102TCq2    C6 1557   0.214   0.718  13.623 -0.9041 -0.3099 -0.2408
  102TCq2    C7 1558   0.302   0.703  13.515  0.5712  0.5835 -0.2521
  102TCq2    C8 1559   0.152   0.591  13.663  0.3932  0.2347  0.1774
  102TCq2    O4 1560   0.075   0.591  13.758 -0.0723 -0.1672  0.1592
  102TCq2    C9 1561   4.664   0.910  13.478 -0.9092 -0.5023  0.7737
  102TCq2    O5 1562   4.642   1.021  13.541  0.7031  0.0311 -0.6827
  102TCq2    O6 1563   4.590   0.842  13.398 -0.0965 -0.0950  0.1742
  102TCq2    H2 1564   0.129   0.886  13.302  2.7355  2.7992  0.4813
  102TCq2    H3 1565   0.037   0.796  13.702 -2.0691 -1.2810 -2.5158
  102TCq2    H4 1566   0.383   0.631  13.514  0.7260  0.7506  0.8965
  103TMC2    C1 1567   3.277   4.704  12.746 -0.2720 -0.8077  0.5418
  103TMC2    C2 1568   3.334   4.595  12.802  0.2376  0.7213 -0.0086
  103TMC2    C3 1569   3.379   4.604  12.934  0.6742  0.0820 -0.0461
  103TMC2    C4 1570   3.248   0.090  12.823  0.1339 -0.0720  0.4847
  103TMC2    C5 1571   3.283   0.092  12.955  0.2823 -0.1471  0.1075
  103TMC2    C6 1572   3.347   4.712  13.013  0.4164 -0.3454 -0.6626
  103TMC2     C 1573   3.179   4.665  12.646  0.3804  0.4377 -0.5252
  103TMC2     O 1574   3.123   0.036  12.595  0.3608  0.7070  0.0240
  103TMC2     H 1575   3.366   4.513  12.739 -0.5210  0.8236 -0.5187
  103TMC2    H1 1576   3.179   0.168  12.791  0.0732 -0.5251 -0.5060
  103TMC2    H2 1577   3.375   4.716  13.118  0.2866  0.0422 -0.6418
  103TMC2    C7 1578   3.201   0.175  13.041  0.3762  0.5264 -0.5158
  103TMC2    C8 1579   3.404   4.483  13.002 -0.3230 -0.9430  0.7552
  103TMC2    O1 1580   3.174   0.127  13.150 -0.1067 -0.2801  0.5401
  103TMC2    O2 1581   3.321   4.394  13.009 -0.7530 -0.4035  0.3141
  103TMC2    O5 1582   3.521   4.460  12.940 -0.3852 -0.3487 -0.5936
  103TMC2    H5 1583   3.552   4.547  12.906  0.3378 -0.9733 -1.5066
  104MPD2     C 1584   3.014   4.336  12.603 -0.0823 -0.4773 -0.4460
  104MPD2    C1 1585   3.029   4.471  12.588 -0.2983  0.0078  0.5557
  104MPD2    C2 1586   2.932   4.544  12.520 -0.1652 -0.2506 -0.4388
  104MPD2    C3 1587   2.815   4.474  12.485  0.5262 -0.1339  0.5270
  104MPD2    C4 1588   2.807   4.337  12.498  0.7200  0.7013 -0.5519
  104MPD2    C5 1589   2.910   4.265  12.552 -0.3875  0.7619  0.0569
  104MPD2     H 1590   2.931   4.652  12.522 -1.8412 -0.2391 -1.2034
  104MPD2    H1 1591   2.722   4.274  12.473  2.3465 -1.0983 -1.5807
  104MPD2    H2 1592   3.092   4.283  12.655 -2.9316 -2.0787  2.2232
  104MPD2    H3 1593   2.898   4.159  12.575  0.9583  0.7840  0.8819
  104MPD2     N 1594   2.710   4.546  12.419  0.2827  0.3075 -0.0684
  104MPD2    H5 1595   2.728   4.642  12.395  1.7345  0.5627  2.1040
  104MPD2    N1 1596   3.132   4.538  12.661  0.3283  0.1918  0.2981
  104MPD2    H7 1597   3.189   4.472  12.712  1.1370  0.9395  0.3644
  105MPD2     C 1598   0.311   4.155   0.593 -0.3674  0.2906 -0.4338
  105MPD2    C1 1599   0.211   4.240   0.561 -0.5066 -0.7787 -0.2245
  105MPD2    C2 1600   0.183   4.326   0.666 -0.3423  0.1192 -0.0821
  105MPD2    C3 1601   0.243   4.329   0.790  0.2404  0.2945 -0.1304
  105MPD2    C4 1602   0.348   4.237   0.815  0.8327 -0.7223 -0.2362
  105MPD2    C5 1603   0.387   4.164   0.708 -0.8560 -0.7123  0.4117
  105MPD2     H 1604   0.103   4.397   0.653 -0.3293 -0.5444 -3.6276
  105MPD2    H1 1605   0.406   4.249   0.906 -0.1069  0.4589  0.2062
  105MPD2    H2 1606   0.351   4.086   0.519 -0.6311  1.9358 -2.1206
  105MPD2    H3 1607   0.465   4.093   0.731 -0.1144 -0.5691 -1.6295
  105MPD2     N 1608   0.182   4.410   0.892  0.2373  0.7738  0.7552
  105MPD2    H5 1609   0.108   4.469   0.856  1.5151  2.7354  1.3674
  105MPD2    N1 1610   0.141   4.256   0.438 -0.7504 -0.4950 -0.4386
  105MPD2    H7 1611   0.075   4.333   0.433  0.3844  0.4570 -0.8196
  106TCq2    C1 1612   0.210   4.403   1.029  0.4832  0.1052  1.0313
  106TCq2    O2 1613   0.296   4.336   1.082 -0.0416  0.4066  0.1522
  106TCq2    C2 1614   0.147   4.494   1.119 -1.1419 -0.1519  0.2313
  106TCq2    C3 1615   0.214   4.529   1.225 -0.2700 -0.3154  0.6630
  106TCq2    C4 1616   0.152   4.606   1.322 -0.3860 -1.0934 -0.3427
  106TCq2    C5 1617   0.021   4.647   1.309 -0.7083 -0.2751  0.2101
  106TCq2    C6 1618   4.682   4.616   1.194  0.4431  0.4058 -0.1887
  106TCq2    C7 1619   0.019   4.545   1.097 -0.8212  0.1705  0.2805
  106TCq2    C8 1620   4.551   4.665   1.168 -0.2489 -0.2108 -0.1460
  106TCq2    O4 1621   4.513   4.672   1.049  0.8320  0.2868  1.0897
  106TCq2    C9 1622   0.234   4.637   1.446  0.4322  0.6870 -0.7036
  106TCq2    O5 1623   0.359   4.637   1.430 -0.5677 -0.0400 -0.1371
  106TCq2    O6 1624   0.177   4.706   1.529 -0.3715 -0.6373 -0.1140
  106TCq2    H2 1625   0.312   4.489   1.246  0.3213 -0.2881 -2.1084
  106TCq2    H3 1626   4.701   4.688   1.398 -0.0119 -0.5929  0.7146
  106TCq2    H4 1627   4.690   4.518   1.007 -1.3777  1.2758  0.2869
  107TMC2    C1 1628   0.299   3.479  11.928 -0.2901 -0.0997 -0.1949
  107TMC2    C2 1629   0.414   3.533  11.878 -0.2381 -0.4014  0.5632
  107TMC2    C3 1630   0.469   3.467  11.771 -0.0487 -0.3869  0.4309
  107TMC2    C4 1631   0.235   3.374  11.868 -0.1418  0.3837 -0.5305
  107TMC2    C5 1632   0.276   3.327  11.751 -0.2166 -0.2723  0.0359
  107TMC2    C6 1633   0.398   3.365  11.709 -0.5318  0.1907  0.3628
  107TMC2     C 1634   0.220   3.568  12.019  0.1828  0.1649  0.1531
  107TMC2     O 1635   0.137   3.520  12.097  0.4808  0.2555  0.2099
  107TMC2     H 1636   0.480   3.593  11.940  0.6003 -2.2061  1.4103
  107TMC2    H1 1637   0.136   3.353  11.908 -0.5591 -0.3347 -1.9309
  107TMC2    H2 1638   0.439   3.326  11.617 -0.8359 -1.9887  1.1444
  107TMC2    C7 1639   0.247   3.187  11.729  0.0369 -0.3275 -0.0548
  107TMC2    C8 1640   0.596   3.498  11.720 -0.5250  0.2899  0.5225
  107TMC2    O1 1641   0.170   3.140  11.817 -0.8944  0.3992 -0.3113
  107TMC2    O2 1642   0.626   3.616  11.719  0.2426 -0.7727 -0.8357
  107TMC2    O5 1643   0.655   3.392  11.674 -0.7397  0.3577  0.2741
  107TMC2    H5 1644   0.612   3.306  11.695 -0.7953  0.1932 -0.5156
  108MPD2     C 1645   0.168   3.924  11.977 -0.1970  0.0636 -0.2626
  108MPD2    C1 1646   0.172   3.804  12.049 -0.1707 -0.1562  0.0028
  108MPD2    C2 1647   0.131   3.799  12.180  0.0544 -0.2744  0.2739
  108MPD2    C3 1648   0.068   3.914  12.237 -0.3778 -1.0069 -0.2713
  108MPD2    C4 1649   0.046   4.022  12.150 -0.4600  0.2689 -0.0716
  108MPD2    C5 1650   0.099   4.030  12.026 -0.5940 -0.3110 -0.1376
  108MPD2     H 1651   0.147   3.713  12.244 -0.0203 -0.6366 -0.1953
  108MPD2    H1 1652   4.712   4.109  12.174  0.1416  0.2691  1.3844
  108MPD2    H2 1653   0.210   3.934  11.877 -0.3578  0.6100 -0.2743
  108MPD2    H3 1654   0.086   4.111  11.954 -0.0624 -0.9054 -0.9076
  108MPD2     N 1655   0.010   3.920  12.369 -0.2377 -0.0820  0.3033
  108MPD2    H5 1656   4.694   4.006  12.402 -0.1108 -0.1406  0.6196
  108MPD2    N1 1657   0.237   3.694  11.981  0.3666  0.4043 -0.0940
  108MPD2    H7 1658   0.275   3.709  11.888 -0.9620 -0.4572 -0.7809
  109MPD2     C 1659   1.096   0.350   2.736 -0.1307 -0.5919  0.5462
  109MPD2    C1 1660   1.002   0.442   2.686 -0.0211  0.4501 -0.2145
  109MPD2    C2 1661   1.033   0.578   2.678  0.4761  0.0657  0.4223
  109MPD2    C3 1662   1.159   0.627   2.714 -0.2450  0.3858 -0.3293
  109MPD2    C4 1663   1.250   0.538   2.758 -0.2201  0.1435  0.0350
  109MPD2    C5 1664   1.220   0.406   2.768 -0.7800  0.9883  0.7497
  109MPD2     H 1665   0.957   0.653   2.663  1.3547  0.4254 -2.1425
  109MPD2    H1 1666   1.349   0.567   2.794 -1.1610  0.5398  2.3082
  109MPD2    H2 1667   1.073   0.244   2.741  1.2209 -0.9916 -1.4400
  109MPD2    H3 1668   1.306   0.342   2.784 -0.6595  0.8400 -0.4568
  109MPD2     N 1669   1.173   0.765   2.723 -0.9008  0.2120  0.6929
  109MPD2    H5 1670   1.092   0.826   2.736 -1.6311 -1.5441  4.4223
  109MPD2    N1 1671   0.873   0.386   2.673  0.0710 -0.3911  0.0737
  109MPD2    H7 1672   0.864   0.286   2.691 -2.0505 -0.2374 -0.1545
  110TCq2    C1 1673   1.294   0.829   2.743  0.5018 -0.1974  0.2609
  110TCq2    O2 1674   1.403   0.786   2.778 -0.7649 -0.1885  0.7287
  110TCq2    C2 1675   1.278   0.975   2.747  0.6813  0.2956  0.3541
  110TCq2    C3 1676   1.394   1.049   2.779 -0.3770 -0.1424  0.0710
  110TCq2    C4 1677   1.395   1.184   2.753  0.2217 -0.1639  0.3961
  110TCq2    C5 1678   1.292   1.245   2.692  0.1323  0.0797 -0.0625
  110TCq2    C6 1679   1.182   1.163   2.657 -0.5850  0.4232 -0.6348
  110TCq2    C7 1680   1.169   1.033   2.685  0.3476  0.6130  0.2344
  110TCq2    C8 1681   1.076   1.233   2.587  0.5016  0.0778 -0.3839
  110TCq2    O4 1682   1.104   1.335   2.525 -0.4277  0.0081  0.2719
  110TCq2    C9 1683   1.500   1.269   2.791 -0.0703  0.0113  0.5651
  110TCq2    O5 1684   1.485   1.388   2.762  0.6188  0.0187  0.0955
  110TCq2    O6 1685   1.559   1.227   2.892  0.1271 -0.0780 -0.4694
  110TCq2    H2 1686   1.473   1.000   2.834  1.0761  1.4975 -0.5720
  110TCq2    H3 1687   1.301   1.345   2.653  4.0083 -0.7933 -1.4658
  110TCq2    H4 1688   1.078   0.984   2.652  0.4457  0.4550  0.1959
  111TMC2    C1 1689   4.612   0.663  12.139  0.4852 -0.2977 -0.2992
  111TMC2    C2 1690   4.499   0.669  12.220 -0.4640 -0.0621  0.0833
  111TMC2    C3 1691   4.514   0.732  12.341 -0.5511  0.1062 -0.1209
  111TMC2    C4 1692   0.006   0.720  12.169 -0.5742  0.4782  0.2142
  111TMC2    C5 1693   0.016   0.781  12.289  0.2626 -0.4934  0.5827
  111TMC2    C6 1694   4.635   0.788  12.377  0.9023 -0.5154 -0.3688
  111TMC2     C 1695   4.598   0.612  12.011 -0.1648 -0.2281 -0.8800
  111TMC2     O 1696   4.683   0.636  11.931  0.5387 -0.2555  0.0393
  111TMC2     H 1697   4.402   0.630  12.191 -0.7650  0.3882  0.4903
  111TMC2    H1 1698   0.098   0.699  12.117 -0.9528 -0.6744  0.0103
  111TMC2    H2 1699   4.656   0.829  12.475 -0.1597  3.0754 -1.6325
  111TMC2    C7 1700   0.148   0.820  12.338 -0.3483 -1.0047 -0.3954
  111TMC2    C8 1701   4.389   0.786  12.401 -0.5698  0.0680 -0.3315
  111TMC2    O1 1702   0.164   0.827  12.458  0.0652 -0.0724 -0.9390
  111TMC2    O2 1703   4.303   0.810  12.316  0.6496  0.3128  0.2824
  111TMC2    O5 1704   4.430   0.874  12.497 -0.1832 -0.7221 -0.3044
  111TMC2    H5 1705   4.488   0.827  12.561 -1.1072  1.1931  1.9108
  112MPD2     C 1706   4.259   0.490  11.646  0.2123 -0.8318 -0.6710
  112MPD2    C1 1707   4.397   0.509  11.631 -0.3031  0.5600  1.1802
  112MPD2    C2 1708   4.479   0.521  11.745  0.4875  0.0682  0.2475
  112MPD2    C3 1709   4.423   0.513  11.869  0.1339  0.1500 -0.9114
  112MPD2    C4 1710   4.285   0.490  11.882  0.3655  0.1380  0.0782
  112MPD2    C5 1711   4.201   0.484  11.772 -0.1668 -0.3155 -0.2157
  112MPD2     H 1712   4.585   0.544  11.732  0.3247  1.0392  0.6364
  112MPD2    H1 1713   4.243   0.479  11.981 -0.7267 -1.2900 -0.5479
  112MPD2    H2 1714   4.191   0.463  11.565  0.1015  0.7273 -1.0911
  112MPD2    H3 1715   4.097   0.458  11.785 -0.0920 -0.5053  0.0180
  112MPD2     N 1716   4.487   0.538  11.991 -0.0777 -0.6264 -0.0394
  112MPD2    H5 1717   4.429   0.505  12.068 -0.7601 -0.7670 -0.6153
  112MPD2    N1 1718   4.464   0.510  11.503 -0.4652 -0.1735  0.1206
  112MPD2    H7 1719   4.565   0.520  11.499 -0.4722 -0.7905 -1.2563
  113MPD2     C 1720   3.119   4.557   1.452  0.5512 -0.7086 -0.0316
  113MPD2    C1 1721   3.099   4.444   1.535 -0.0628 -0.6987  0.3178
  113MPD2    C2 1722   3.131   4.318   1.491 -0.1990  0.2755  0.4566
  113MPD2    C3 1723   3.162   4.301   1.361  0.4575  0.0030 -0.3159
  113MPD2    C4 1724   3.186   4.408   1.282 -0.3907  0.3690 -0.4101
  113MPD2    C5 1725   3.164   4.535   1.327 -0.5366  0.3458 -1.1463
  113MPD2     H 1726   3.125   4.236   1.562 -1.0865  0.2477  0.3500
  113MPD2    H1 1727   3.237   4.386   1.189 -2.2313 -4.0777 -0.3912
  113MPD2    H2 1728   3.098   4.657   1.488  5.1235 -0.4331  1.9537
  113MPD2    H3 1729   3.194   4.613   1.258  0.9453  1.2260  0.4851
  113MPD2     N 1730   3.191   4.169   1.319  0.3204 -0.7991 -0.1770
  113MPD2    H5 1731   3.234   4.148   1.230 -0.8714 -1.0120 -0.6982
  113MPD2    N1 1732   3.075   4.455   1.673  0.2595  1.1594  0.4455
  113MPD2    H7 1733   3.112   4.377   1.726 -1.3752 -0.3645 -0.6533
  114TCq2    C1 1734   3.128   4.054   1.374 -0.8353  0.0429 -0.8282
  114TCq2    O2 1735   3.041   4.052   1.460  0.3756 -0.2547 -0.2780
  114TCq2    C2 1736   3.154   3.930   1.310  0.4070 -0.4649  0.2273
  114TCq2    C3 1737   3.283   3.904   1.268  0.4277  0.2212 -0.4889
  114TCq2    C4 1738   3.322   3.771   1.271  0.2160 -0.2731  0.3345
  114TCq2    C5 1739   3.236   3.671   1.293  0.0148  0.0476 -0.2992
  114TCq2    C6 1740   3.109   3.702   1.332  0.3114  0.3879  0.2482
  114TCq2    C7 1741   3.062   3.832   1.343 -0.2436 -0.5583 -0.0154
  114TCq2    C8 1742   3.028   3.592   1.362 -0.9341 -0.2969  0.0208
  114TCq2    O4 1743   3.088   3.492   1.392  0.0768 -0.2403  0.0726
  114TCq2    C9 1744   3.457   3.744   1.229 -0.3314 -0.5101 -1.2780
  114TCq2    O5 1745   3.530   3.844   1.213  0.5087  0.3209 -0.7374
  114TCq2    O6 1746   3.496   3.620   1.226  0.2405  0.1669 -0.0335
  114TCq2    H2 1747   3.353   3.983   1.246  2.5210 -1.1327  1.2968
  114TCq2    H3 1748   3.264   3.567   1.284  0.9729  0.3011 -0.2296
  114TCq2    H4 1749   2.960   3.845   1.377 -0.8050 -1.4050 -1.3684
  115TMC2    C1 1750   3.970   1.340   0.397 -0.1862 -0.6640 -0.6351
  115TMC2    C2 1751   4.105   1.287   0.391  0.2212  0.1376  0.1456
  115TMC2    C3 1752   4.213   1.371   0.414  0.2578  0.3583  0.4469
  115TMC2    C4 1753   3.948   1.471   0.421 -0.3308  0.2003  0.4665
  115TMC2    C5 1754   4.050   1.548   0.440  0.1231 -0.3125  0.6191
  115TMC2    C6 1755   4.183   1.503   0.433 -0.5652  0.0798 -0.2144
  115TMC2     C 1756   3.856   1.250   0.372  0.8531 -0.5059  0.2620
  115TMC2     O 1757   3.886   1.132   0.351  0.2437  0.1757 -0.1031
  115TMC2     H 1758   4.129   1.182   0.378 -1.8117 -0.5737  2.1039
  115TMC2    H1 1759   3.855   1.526   0.431 -0.4293  0.2003 -0.5304
  115TMC2    H2 1760   4.270   1.565   0.449  0.1205 -1.0408  0.4923
  115TMC2    C7 1761   4.036   1.693   0.444 -0.3695  0.6913  0.3351
  115TMC2    C8 1762   4.356   1.332   0.409 -0.1553  0.2248  0.5920
  115TMC2    O1 1763   3.951   1.744   0.513  0.0307 -0.1899 -0.6524
  115TMC2    O2 1764   4.436   1.411   0.352 -0.2972 -0.6726  0.2739
  115TMC2    O5 1765   4.374   1.202   0.417  1.1251  1.0159  0.4696
  115TMC2    H5 1766   4.304   1.160   0.471  2.1254 -0.0974  0.9197
  116MPD2     C 1767   3.356   1.131   0.367 -0.1979  0.2844 -0.1573
  116MPD2    C1 1768   3.460   1.063   0.308  0.4191  0.4472 -0.2009
  116MPD2    C2 1769   3.587   1.122   0.315  0.0619  0.2588  0.4499
  116MPD2    C3 1770   3.606   1.245   0.376  0.1726  0.4152 -0.2164
  116MPD2    C4 1771   3.499   1.303   0.431  0.4023 -0.8563  0.0983
  116MPD2    C5 1772   3.371   1.253   0.418 -0.1072 -0.3504  0.5201
  116MPD2     H 1773   3.677   1.080   0.270 -0.7881  0.4172 -1.4002
  116MPD2    H1 1774   3.504   1.390   0.495  0.7770 -0.8112  0.0030
  116MPD2    H2 1775   3.257   1.086   0.362  0.0807 -0.4282  1.0114
  116MPD2    H3 1776   3.288   1.306   0.463 -0.6562 -1.6188  0.9970
  116MPD2     N 1777   3.733   1.305   0.392 -0.4164  0.0962 -0.0501
  116MPD2    H5 1778   3.732   1.393   0.443 -1.6278  0.4673 -0.7386
  116MPD2    N1 1779   3.435   0.941   0.245  0.3535  0.2422  0.2421
  116MPD2    H7 1780   3.339   0.913   0.226  0.2143  0.8668  0.0102
  117TMC2    C1 1781   2.361   2.935  14.407  0.4713 -0.0917 -0.0074
  117TMC2    C2 1782   2.359   2.916  14.545 -0.6650 -0.0984 -0.2056
  117TMC2    C3 1783   2.457   2.980  14.619  0.1065 -0.4115  0.9192
  117TMC2    C4 1784   2.453   3.022  14.360 -0.0819 -0.0213 -0.3400
  117TMC2    C5 1785   2.549   3.080  14.441 -0.0982 -0.1016 -0.0171
  117TMC2    C6 1786   2.547   3.071  14.578 -0.3835  0.4208  0.6063
  117TMC2     C 1787   2.243   2.906  14.326 -0.2318 -0.2545 -0.8800
  117TMC2     O 1788   2.196   2.798  14.342 -0.2342  0.3267  0.0537
  117TMC2     H 1789   2.287   2.858  14.600  0.8398 -0.0702  1.8081
  117TMC2    H1 1790   2.460   3.028  14.252  0.7634  3.3165 -0.1024
  117TMC2    H2 1791   2.614   3.114  14.652 -0.3545 -0.0065  0.8291
  117TMC2    C7 1792   2.638   3.181  14.393 -0.4116 -0.3711 -0.6129
  117TMC2    C8 1793   2.452   2.959  14.771 -0.2903  0.4886  0.3687
  117TMC2    O1 1794   2.717   3.230  14.469 -0.2205 -0.3377 -0.1634
  117TMC2    O2 1795   2.411   2.853  14.813 -0.1228  0.1109 -0.0091
  117TMC2    O5 1796   2.444   3.081  14.828 -0.2476 -0.3820  0.0540
  117TMC2    H5 1797   2.451   3.150  14.759 -0.4110  0.5870  1.0029
  118MPD2     C 1798   2.601   3.319  14.048 -0.1552  0.2039  0.3830
  118MPD2    C1 1799   2.657   3.307  14.176  0.1525  0.4320  0.0085
  118MPD2    C2 1800   2.777   3.365  14.199 -0.5500 -0.3480  0.8605
  118MPD2    C3 1801   2.831   3.450  14.102  0.4438  0.3270 -0.6667
  118MPD2    C4 1802   2.773   3.465  13.980 -0.7920 -0.5914 -0.4832
  118MPD2    C5 1803   2.654   3.400  13.954  0.3162 -0.3366  0.5333
  118MPD2     H 1804   2.828   3.337  14.290  0.3579  1.0646  0.7946
  118MPD2    H1 1805   2.816   3.526  13.901  0.1947 -1.6918 -0.7893
  118MPD2    H2 1806   2.507   3.276  14.015  0.0898  1.4627 -1.9848
  118MPD2    H3 1807   2.608   3.416  13.857 -0.1082 -0.0369  0.7859
  118MPD2     N 1808   2.949   3.523  14.118 -0.1840 -0.0799 -0.3225
  118MPD2    H5 1809   2.961   3.599  14.053 -1.5609 -0.9590 -1.6032
  118MPD2    N1 1810   2.593   3.224  14.269  0.4151 -0.2781 -0.1806
  118MPD2    H7 1811   2.506   3.199  14.225 -1.2390 -0.7593  3.3690
  119MPD2     C 1812   1.300   4.592  14.276  0.1287 -0.1348  0.6517
  119MPD2    C1 1813   1.159   4.596  14.286 -0.9794 -0.4117 -1.3146
  119MPD2    C2 1814   1.082   4.565  14.173  0.0466 -0.0597  0.0298
  119MPD2    C3 1815   1.135   4.525  14.054 -0.1078 -0.8189  0.4479
  119MPD2    C4 1816   1.272   4.508  14.046  0.1273 -0.5570 -0.5405
  119MPD2    C5 1817   1.352   4.540  14.156  0.0373  0.9414 -0.5632
  119MPD2     H 1818   0.977   4.591  14.172 -0.0012 -0.2198  0.9923
  119MPD2    H1 1819   1.317   4.464  13.958  0.7120 -1.2331  0.0973
  119MPD2    H2 1820   1.367   4.627  14.354  0.6404 -2.0574  1.0887
  119MPD2    H3 1821   1.458   4.521  14.148  0.0967  0.6585  0.8301
  119MPD2     N 1822   1.055   4.479  13.943  0.4389 -0.1294  0.2083
  119MPD2    H5 1823   1.105   4.442  13.863 -1.8847  1.1019 -1.8166
  119MPD2    N1 1824   1.097   4.655  14.406 -0.2274 -0.1940 -0.6989
  119MPD2    H7 1825   1.156   4.703  14.473 -3.2351  0.8580  1.1728
  120TCq2    C1 1826   0.916   4.468  13.937 -0.4806 -0.3743  0.7176
  120TCq2    O2 1827   0.836   4.491  14.027 -0.1312  0.0194 -0.4835
  120TCq2    C2 1828   0.866   4.400  13.825  0.0649  0.0120 -0.4292
  120TCq2    C3 1829   0.939   4.395  13.714 -0.3869  0.0663 -0.2853
  120TCq2    C4 1830   0.886   4.333  13.603  0.5170 -0.8013 -1.5248
  120TCq2    C5 1831   0.755   4.294  13.596  0.0047  0.7926  0.0285
  120TCq2    C6 1832   0.680   4.303  13.712  0.2153  0.1219 -0.9271
  120TCq2    C7 1833   0.732   4.367  13.830  0.0168  0.1908 -0.2814
  120TCq2    C8 1834   0.531   4.292  13.700  0.3259  0.3973  0.0385
  120TCq2    O4 1835   0.477   4.313  13.594 -0.6082 -0.2524 -1.0723
  120TCq2    C9 1836   0.983   4.285  13.508 -0.5070 -0.2941 -0.6857
  120TCq2    O5 1837   1.106   4.299  13.536 -0.0258 -0.2410  0.3692
  120TCq2    O6 1838   0.935   4.230  13.405 -0.3109  0.4817  0.5083
  120TCq2    H2 1839   1.043   4.426  13.717 -0.2936 -0.3319  0.6193
  120TCq2    H3 1840   0.706   4.256  13.507 -1.4613  1.2684  0.6358
  120TCq2    H4 1841   0.668   4.380  13.917 -0.4030  1.3298 -0.7547
  121TMC2    C1 1842   2.216   1.485  14.203 -0.1903  0.1021  0.0693
  121TMC2    C2 1843   2.172   1.456  14.329 -0.7413  0.5335 -0.1976
  121TMC2    C3 1844   2.034   1.461  14.362 -0.2180  0.2318  0.1482
  121TMC2    C4 1845   2.135   1.549  14.118 -0.2934 -0.5058 -0.3039
  121TMC2    C5 1846   2.003   1.573  14.158  0.0137  0.4657 -0.4269
  121TMC2    C6 1847   1.947   1.530  14.280 -0.0427  0.1665 -0.1576
  121TMC2     C 1848   2.366   1.495  14.188 -0.0324  0.0663 -0.0446
  121TMC2     O 1849   2.430   1.450  14.281  0.8120 -0.9226  0.5989
  121TMC2     H 1850   2.239   1.393  14.387  0.2405  0.7488 -1.0932
  121TMC2    H1 1851   2.165   1.587  14.021 -2.2400 -0.3972 -0.8632
  121TMC2    H2 1852   1.844   1.542  14.309  0.3951  1.0742  1.0247
  121TMC2    C7 1853   1.922   1.632  14.057 -0.0706  0.1388 -0.6444
  121TMC2    C8 1854   1.980   1.419  14.483  0.1614  0.1224 -0.0039
  121TMC2    O1 1855   1.977   1.690  13.965  0.1039  0.1531  0.1054
  121TMC2    O2 1856   1.867   1.375  14.492 -0.2317 -1.0114  0.0415
  121TMC2    O5 1857   2.085   1.390  14.561  0.1654  0.4449  0.6885
  121TMC2    H5 1858   2.152   1.461  14.562  0.1956  0.4107  1.7362
  122MPD2     C 1859   2.643   1.519  14.087  0.0859  0.9561  0.8688
  122MPD2    C1 1860   2.532   1.563  14.013  0.4225  0.0199  0.4848
  122MPD2    C2 1861   2.553   1.606  13.881 -0.4950 -0.0983 -0.1244
  122MPD2    C3 1862   2.683   1.614  13.828  0.6565  0.0465 -0.1920
  122MPD2    C4 1863   2.779   1.542  13.896  0.2803 -0.0379  0.3101
  122MPD2    C5 1864   2.765   1.517  14.027 -0.0459 -0.1676  0.3453
  122MPD2     H 1865   2.468   1.638  13.822  0.3530  3.0738  0.4211
  122MPD2    H1 1866   2.881   1.530  13.859 -0.2091 -2.0050 -0.4103
  122MPD2    H2 1867   2.631   1.482  14.188 -0.9048  1.0818  0.8028
  122MPD2    H3 1868   2.847   1.464  14.075  0.4806  1.0458  0.7927
  122MPD2     N 1869   2.714   1.688  13.711  0.6028 -0.1186  0.3070
  122MPD2    H5 1870   2.810   1.677  13.679 -0.0963 -0.4252 -1.6680
  122MPD2    N1 1871   2.411   1.554  14.068  0.5540 -0.1693 -0.6766
  122MPD2    H7 1872   2.337   1.588  14.007 -1.0717 -1.1846  0.7237
  123MPD2     C 1873   0.249   3.365   9.112 -0.5807  0.0586 -0.7481
  123MPD2    C1 1874   0.277   3.443   9.221  1.2411  0.6004 -0.0858
  123MPD2    C2 1875   0.362   3.544   9.214  0.4665 -0.0792 -0.2728
  123MPD2    C3 1876   0.413   3.584   9.091  0.4363 -0.1594  0.5096
  123MPD2    C4 1877   0.376   3.511   8.979 -0.5727  0.5344 -0.0874
  123MPD2    C5 1878   0.299   3.406   8.992  0.4932  0.6045  0.3619
  123MPD2     H 1879   0.378   3.603   9.304 -2.9497  0.8322 -0.2639
  123MPD2    H1 1880   0.417   3.537   8.882  0.1025  0.0090  0.0514
  123MPD2    H2 1881   0.180   3.283   9.126 -0.4229 -0.1442 -1.1625
  123MPD2    H3 1882   0.271   3.341   8.909  0.1023  2.1379 -0.6934
  123MPD2     N 1883   0.486   3.703   9.089  0.1551  0.3084  0.1045
  123MPD2    H5 1884   0.519   3.750   9.173  0.2631  0.3509  0.0395
  123MPD2    N1 1885   0.224   3.390   9.341  0.4724  0.3010  0.0038
  123MPD2    H7 1886   0.162   3.312   9.323 -0.1748  0.6732  0.6052
  124TCq2    C1 1887   0.532   3.767   8.972 -0.8485  0.2778 -0.0791
  124TCq2    O2 1888   0.513   3.727   8.859  0.0581  0.5436  0.1226
  124TCq2    C2 1889   0.601   3.892   8.987 -0.4522 -0.5577 -0.4119
  124TCq2    C3 1890   0.629   3.966   8.877  0.5893 -0.3123  0.4004
  124TCq2    C4 1891   0.707   4.080   8.883  0.0551 -0.3416  0.2647
  124TCq2    C5 1892   0.767   4.123   9.001 -0.0636  0.7588 -0.8395
  124TCq2    C6 1893   0.751   4.040   9.112  0.3774 -0.4096 -0.0936
  124TCq2    C7 1894   0.673   3.919   9.105 -0.5788  0.0922 -0.5662
  124TCq2    C8 1895   0.803   4.069   9.241  0.5747 -0.3575 -0.3173
  124TCq2    O4 1896   0.794   3.983   9.326  0.7802 -0.6423 -0.0638
  124TCq2    C9 1897   0.726   4.151   8.755  0.4676  0.3858  0.4140
  124TCq2    O5 1898   0.784   4.264   8.767  0.4724  0.3066 -0.1168
  124TCq2    O6 1899   0.680   4.102   8.649 -0.3911 -0.5421  0.8149
  124TCq2    H2 1900   0.583   3.929   8.786 -1.5356  1.7748  0.6377
  124TCq2    H3 1901   0.841   4.203   8.999  2.2517 -1.2122  4.8192
  124TCq2    H4 1902   0.664   3.855   9.192 -0.4938  0.8600  0.0041
  125TMC2    C1 1903   1.398   0.555   9.620 -0.4562  0.2639  0.0092
  125TMC2    C2 1904   1.332   0.658   9.684  0.4554 -0.6148 -0.1865
  125TMC2    C3 1905   1.407   0.767   9.710  0.6556 -0.6812  0.2792
  125TMC2    C4 1906   1.529   0.558   9.588  0.5070  0.3230 -0.2255
  125TMC2    C5 1907   1.599   0.673   9.614 -0.5043 -0.5028  0.0148
  125TMC2    C6 1908   1.543   0.777   9.687 -0.4187 -0.7064  0.4821
  125TMC2     C 1909   1.311   0.443   9.607 -0.0379 -0.0384 -0.2450
  125TMC2     O 1910   1.191   0.466   9.611  0.2422  0.3527  0.4279
  125TMC2     H 1911   1.230   0.647   9.720  1.2777 -0.3151  2.2448
  125TMC2    H1 1912   1.579   0.476   9.539 -1.1096 -0.8453  0.0528
  125TMC2    H2 1913   1.596   0.868   9.715  1.4642 -0.9657 -2.2522
  125TMC2    C7 1914   1.742   0.661   9.590 -0.2511  0.6256 -0.0260
  125TMC2    C8 1915   1.343   0.860   9.787  0.4630 -0.9937 -0.3517
  125TMC2    O1 1916   1.780   0.567   9.527 -0.1329 -0.0073 -0.6591
  125TMC2    O2 1917   1.235   0.834   9.843  0.2558 -0.0653  0.1826
  125TMC2    O5 1918   1.360   0.977   9.731  0.0675  0.2151 -0.0245
  125TMC2    H5 1919   1.428   0.975   9.661  0.5660  0.2705  0.4537
  126MPD1     C 1920   1.217   4.665   9.553 -0.4939 -0.0257 -0.2752
  126MPD1    C1 1921   1.355   4.692   9.562  0.1311  0.1476 -0.3368
  126MPD1    C2 1922   1.394   0.091   9.606 -0.0716  0.1268 -0.5126
  126MPD1    C3 1923   1.303   0.196   9.597 -0.3432  0.1365  1.0255
  126MPD1    C4 1924   1.169   0.183   9.566 -0.0448  0.0685 -0.0279
  126MPD1    C5 1925   1.129   0.049   9.560 -0.5694 -0.2359  1.0588
  126MPD1     H 1926   1.495   0.112   9.637 -0.1278  0.0270 -0.2650
  126MPD1    H1 1927   1.100   0.266   9.560  0.6799  0.7033  0.3960
  126MPD1    H2 1928   1.172   4.569   9.531  0.8953 -0.6676 -0.3472
  126MPD1    H3 1929   1.023   0.031   9.545 -0.6040  1.8304 -1.1261
  126MPD1     N 1930   1.373   0.322   9.609 -0.2396  0.1383 -0.4550
  126MPD1    H5 1931   1.471   0.317   9.632  0.2557  0.9150 -2.4062
  126MPD1    N1 1932   1.444   4.581   9.559  0.2655  0.2474  0.5383
  126MPD1    H6 1933   1.419   4.506   9.496 -1.7843  0.5948  0.9450
  126MPD1    H7 1934   1.536   4.615   9.531  1.0600  0.5769  3.5191
  127MPD2     C 1935   2.015   4.139  10.309 -0.3058  0.3133 -0.3330
  127MPD2    C1 1936   2.100   4.071  10.222 -0.4996 -0.0218  0.3843
  127MPD2    C2 1937   2.229   4.101  10.201  0.0102 -0.0555  0.2060
  127MPD2    C3 1938   2.279   4.217  10.263  0.6202 -0.7874  0.2669
  127MPD2    C4 1939   2.192   4.290  10.348 -0.1085 -0.1343  0.2164
  127MPD2    C5 1940   2.062   4.251  10.371  0.3529  0.0062  0.3004
  127MPD2     H 1941   2.301   4.046  10.141 -1.0388 -1.2455  0.0637
  127MPD2    H1 1942   2.230   4.381  10.393  0.0575  0.7122 -1.6408
  127MPD2    H2 1943   1.915   4.098  10.320 -0.5034  0.7009 -0.7241
  127MPD2    H3 1944   1.998   4.311  10.434 -0.5124  0.7219 -1.2920
  127MPD2     N 1945   2.404   4.257  10.255  0.1304  0.7694 -0.0231
  127MPD2    H5 1946   2.470   4.188  10.220 -0.9454  0.5591 -1.6467
  127MPD2    N1 1947   2.040   3.961  10.164  0.3834 -0.4783  0.6574
  127MPD2    H7 1948   1.943   3.939  10.187  1.0297 -1.9742  2.0192
  128TCq2    C1 1949   2.089   3.872  10.070 -0.0099  0.0427 -0.4049
  128TCq2    O2 1950   2.204   3.867  10.026  0.2172 -0.3494 -1.0344
  128TCq2    C2 1951   1.988   3.767  10.048  0.4998 -0.4432 -0.0575
  128TCq2    C3 1952   1.878   3.759  10.129  0.0142  0.4165 -0.8619
  128TCq2    C4 1953   1.769   3.678  10.099 -0.1962  0.1759 -0.2625
  128TCq2    C5 1954   1.787   3.596   9.987 -0.0675  0.2100  0.6038
  128TCq2    C6 1955   1.901   3.597   9.911 -0.0815 -0.1087  0.4146
  128TCq2    C7 1956   2.008   3.682   9.940  0.1535 -0.4348 -0.3712
  128TCq2    C8 1957   1.923   3.500   9.806 -0.0129 -0.3166 -0.2032
  128TCq2    O4 1958   2.015   3.512   9.727  0.5036  0.2186 -0.2092
  128TCq2    C9 1959   1.662   3.661  10.190 -0.6416 -0.0001  0.6356
  128TCq2    O5 1960   1.567   3.583  10.159  0.2432  0.0844  0.0523
  128TCq2    O6 1961   1.666   3.720  10.306  0.8271 -0.1617  0.1282
  128TCq2    H2 1962   1.871   3.803  10.228  2.1353  0.4648 -0.7425
  128TCq2    H3 1963   1.706   3.525   9.974  1.3487 -1.2065 -0.4869
  128TCq2    H4 1964   2.097   3.682   9.879 -0.5245 -0.6722 -1.3619
  129MPD2     C 1965   0.727   0.715   2.144 -0.7349 -0.0636  0.1150
  129MPD2    C1 1966   0.812   0.632   2.067  0.0176  0.1110  0.3623
  129MPD2    C2 1967   0.873   0.685   1.957  0.2700  0.5230 -0.6805
  129MPD2    C3 1968   0.855   0.821   1.925 -0.0273 -0.8017 -0.6774
  129MPD2    C4 1969   0.764   0.899   1.998  0.2804  0.3367 -0.0386
  129MPD2    C5 1970   0.706   0.846   2.107  0.3888  0.0857  0.4522
  129MPD2     H 1971   0.935   0.628   1.889 -0.1614 -0.9915  0.1863
  129MPD2    H1 1972   0.736   1.004   1.998 -0.7516  0.0500 -0.8177
  129MPD2    H2 1973   0.682   0.682   2.237 -2.3898  1.3288 -0.1761
  129MPD2    H3 1974   0.638   0.909   2.163  2.2629  2.8866 -0.4358
  129MPD2     N 1975   0.933   0.882   1.814 -0.2774  0.0387  0.0622
  129MPD2    H5 1976   0.998   0.822   1.766  0.5342  0.5973  0.4573
  129MPD2    N1 1977   0.845   0.499   2.101 -0.3655 -0.4838 -0.3839
  129MPD2    H7 1978   0.911   0.453   2.039  0.1660  0.2718 -0.3794
  130TCq2    C1 1979   0.793   0.433   2.210 -0.0912  0.3083 -0.5990
  130TCq2    O2 1980   0.701   0.463   2.282 -0.3888 -0.2488 -0.3262
  130TCq2    C2 1981   0.849   0.308   2.243  0.3279  0.0843 -0.0045
  130TCq2    C3 1982   0.977   0.275   2.205 -0.6954  0.2813 -0.1511
  130TCq2    C4 1983   1.027   0.148   2.238  0.0501  0.4437 -0.6928
  130TCq2    C5 1984   0.948   0.059   2.304  0.9541  0.7189  0.4707
  130TCq2    C6 1985   0.814   0.083   2.322 -0.0134 -0.2082 -0.4704
  130TCq2    C7 1986   0.768   0.211   2.298  0.1180  0.1746 -0.7879
  130TCq2    C8 1987   0.714   4.703   2.342 -0.3958  0.2857 -0.3204
  130TCq2    O4 1988   0.596   0.011   2.327 -0.4909  0.0528 -0.3779
  130TCq2    C9 1989   1.163   0.114   2.210  0.5164 -0.1281 -0.2375
  130TCq2    O5 1990   1.194   4.716   2.215 -0.0708  0.5631  0.1216
  130TCq2    O6 1991   1.230   0.203   2.154  0.9951  0.1255 -0.0741
  130TCq2    H2 1992   1.048   0.340   2.155  0.2264 -1.2787 -0.8673
  130TCq2    H3 1993   0.996   4.687   2.319 -0.0644  0.2981  1.0122
  130TCq2    H4 1994   0.667   0.245   2.315 -0.3088 -1.2349 -0.5277
  131MPD2     C 1995   0.433   3.707  10.274  0.2118  0.7767 -1.0608
  131MPD2    C1 1996   0.423   3.781  10.154  0.0181  0.3323  0.4802
  131MPD2    C2 1997   0.349   3.722  10.058  0.9029 -0.2129 -0.2623
  131MPD2    C3 1998   0.277   3.603  10.070 -0.3818  0.1148 -0.4996
  131MPD2    C4 1999   0.269   3.543  10.194  0.2516  0.2064 -0.3505
  131MPD2    C5 2000   0.358   3.594  10.287  0.1390 -0.0161  0.2153
  131MPD2     H 2001   0.338   3.781   9.967 -1.0902  1.3169  0.9695
  131MPD2    H1 2002   0.221   3.448  10.213  0.9531  0.7823  4.1673
  131MPD2    H2 2003   0.495   3.742  10.356  0.3671 -1.3541 -0.2680
  131MPD2    H3 2004   0.350   3.540  10.380 -1.2089  0.1774  0.2081
  131MPD2     N 2005   0.199   3.562   9.957 -0.0870 -0.1169  0.8226
  131MPD2    H5 2006   0.210   3.618   9.873 -2.0110  0.0655  0.6897
  131MPD2    N1 2007   0.493   3.899  10.133  0.2745  0.0382  0.1617
  131MPD2    H7 2008   0.555   3.936  10.205  0.8683 -1.1847  0.2713
  132TCq2    C1 2009   0.654   4.417   9.883  0.3252  0.3814 -0.3933
  132TCq2    O2 2010   0.604   4.402   9.775 -0.2448  0.2973  0.2498
  132TCq2    C2 2011   0.649   4.312   9.983 -0.0140  0.0751 -0.0720
  132TCq2    C3 2012   0.740   4.315  10.087  0.2888  0.1363  0.5212
  132TCq2    C4 2013   0.753   4.205  10.166  0.0646  0.2683 -0.1137
  132TCq2    C5 2014   0.679   4.094  10.134 -0.0116  0.2305 -0.4597
  132TCq2    C6 2015   0.586   4.097  10.034 -0.0319  0.6462  0.3159
  132TCq2    C7 2016   0.583   4.202   9.944 -0.5751  0.2756 -0.1638
  132TCq2    C8 2017   0.493   3.987  10.020 -0.3940 -0.1478  0.0500
  132TCq2    O4 2018   0.436   3.972   9.912  0.3409  0.0835 -0.2235
  132TCq2    C9 2019   0.835   4.212  10.285  0.9350 -0.4766  0.2396
  132TCq2    O5 2020   0.844   4.107  10.353  0.2349 -0.6358  0.0911
  132TCq2    O6 2021   0.909   4.316  10.300 -0.5397  0.6035  0.5194
  132TCq2    H2 2022   0.793   4.404  10.122  0.8367  0.0634 -0.1272
  132TCq2    H3 2023   0.698   4.006  10.195 -1.2967 -0.5125 -1.1136
  132TCq2    H4 2024   0.514   4.195   9.861  2.4201 -1.7547 -2.4596
  133MPD2     C 2025   4.535   3.492   9.515  0.1299 -0.0167 -0.1312
  133MPD2    C1 2026   4.614   3.606   9.510  0.9543 -0.1601  0.5521
  133MPD2    C2 2027   4.647   3.668   9.634  0.2076 -0.0979  0.2891
  133MPD2    C3 2028   4.585   3.630   9.748 -0.2451 -0.4449 -0.1641
  133MPD2    C4 2029   4.503   3.518   9.743  0.4123 -0.0913  1.0225
  133MPD2    C5 2030   4.480   3.442   9.631  0.5342  0.9284  0.0761
  133MPD2     H 2031   4.700   3.762   9.624 -0.0788  0.3432  3.0062
  133MPD2    H1 2032   4.460   3.475   9.833  0.7258 -0.6580  0.8988
  133MPD2    H2 2033   4.529   3.440   9.420 -0.2004  1.1047 -0.7307
  133MPD2    H3 2034   4.408   3.361   9.634  1.4020  0.1108 -1.0417
  133MPD2     N 2035   4.591   3.699   9.873 -0.0570 -1.0506  0.1305
  133MPD2    H5 2036   4.523   3.660   9.938 -0.5176 -0.4632  0.0097
  133MPD2    N1 2037   4.670   3.658   9.388  1.1225 -0.2711 -0.2027
  133MPD2    H7 2038   4.639   3.607   9.306  2.2855 -0.9730 -0.2125
  134TCq2    C1 2039   0.028   3.768   9.367  0.2144  0.0337 -0.6899
  134TCq2    O2 2040   0.103   3.828   9.447 -0.0668 -0.0064 -0.0910
  134TCq2    C2 2041   0.031   3.802   9.226 -0.6766 -0.1494  0.1967
  134TCq2    C3 2042   4.690   3.725   9.135 -0.4046  0.8277 -0.3629
  134TCq2    C4 2043   4.716   3.736   9.001  0.1456  0.6462 -0.5048
  134TCq2    C5 2044   0.087   3.826   8.960 -0.0691 -0.0884  0.0904
  134TCq2    C6 2045   0.154   3.904   9.053  0.6537  0.2885 -0.1487
  134TCq2    C7 2046   0.129   3.886   9.185 -0.3687 -0.4374 -0.6599
  134TCq2    C8 2047   0.243   4.007   8.995  0.1071 -0.2769 -0.1279
  134TCq2    O4 2048   0.261   4.018   8.877  0.3904 -0.2744  0.1744
  134TCq2    C9 2049   4.673   3.638   8.899 -0.2806 -0.8829 -0.0892
  134TCq2    O5 2050   4.688   3.677   8.782 -0.0175  0.4830 -0.5064
  134TCq2    O6 2051   4.590   3.549   8.944 -0.0093 -0.4797  0.1114
  134TCq2    H2 2052   4.616   3.649   9.157  0.1127  0.5641  0.4656
  134TCq2    H3 2053   0.103   3.845   8.855 -2.6289 -0.2053 -0.3306
  134TCq2    H4 2054   0.163   3.958   9.259  2.5813 -2.6070  0.0971
  135MPD2     C 2055   2.091   1.405   9.906  0.5395  0.5118  0.1602
  135MPD2    C1 2056   1.974   1.366   9.856  0.5213 -0.5400 -0.2398
  135MPD2    C2 2057   1.972   1.291   9.739  0.6237  0.4025  0.2974
  135MPD2    C3 2058   2.085   1.261   9.673  0.6258  0.4528 -0.2087
  135MPD2    C4 2059   2.206   1.304   9.727 -0.3733 -0.7196 -0.3133
  135MPD2    C5 2060   2.212   1.379   9.844  0.8263 -0.1612  0.3504
  135MPD2     H 2061   1.876   1.263   9.699  0.9050 -0.1943  0.0490
  135MPD2    H1 2062   2.299   1.278   9.679  0.5037  0.4584  0.7401
  135MPD2    H2 2063   2.099   1.475   9.988  2.2531  0.9977 -0.4083
  135MPD2    H3 2064   2.304   1.410   9.891  1.2233 -1.8867  0.7037
  135MPD2     N 2065   2.096   1.178   9.560  0.0488 -0.4083  0.3967
  135MPD2    H5 2066   2.188   1.142   9.537 -0.3387 -0.5132 -1.0218
  135MPD2    N1 2067   1.853   1.403   9.918 -0.2460  0.6016 -0.3412
  135MPD2    H7 2068   1.766   1.364   9.882  1.0326 -2.5361 -0.0440
  136TCq2    C1 2069   1.837   1.475  10.027  0.1435  0.2923  0.1821
  136TCq2    O2 2070   1.914   1.497  10.125 -0.2324 -0.3796 -0.1832
  136TCq2    C2 2071   1.698   1.514  10.048 -0.5072 -0.0771  0.8004
  136TCq2    C3 2072   1.626   1.562   9.938  0.2855  1.3052 -0.3721
  136TCq2    C4 2073   1.501   1.623   9.948  0.2347 -0.3592  0.1271
  136TCq2    C5 2074   1.456   1.646  10.074  0.0478 -0.1986 -0.1973
  136TCq2    C6 2075   1.533   1.605  10.178 -0.0380 -0.4674  0.4879
  136TCq2    C7 2076   1.654   1.529  10.175 -0.1021  0.2272  0.7533
  136TCq2    C8 2077   1.483   1.628  10.313 -0.2771  0.7196  0.1112
  136TCq2    O4 2078   1.396   1.716  10.320  0.3627 -0.2772  0.1430
  136TCq2    C9 2079   1.427   1.674   9.834 -0.7631  0.0545  0.3776
  136TCq2    O5 2080   1.373   1.789   9.849  0.0327 -0.5255 -0.0675
  136TCq2    O6 2081   1.412   1.606   9.731 -0.1783 -0.2392  0.0381
  136TCq2    H2 2082   1.663   1.552   9.836  0.7901 -1.6152  0.0828
  136TCq2    H3 2083   1.356   1.685  10.087 -0.2022 -0.3311 -1.7588
  136TCq2    H4 2084   1.722   1.520  10.259 -0.4129  0.4422  1.0286
  137MPD2     C 2085   2.729   0.421  10.148  0.1975  0.6355  0.0338
  137MPD2    C1 2086   2.603   0.478  10.141  0.1010  0.2205 -0.0535
  137MPD2    C2 2087   2.571   0.572  10.237 -0.7249 -0.0996  0.0575
  137MPD2    C3 2088   2.659   0.631  10.322  0.0024 -0.6482  0.1876
  137MPD2    C4 2089   2.784   0.570  10.327  0.6685  0.1725  0.8022
  137MPD2    C5 2090   2.815   0.466  10.245  0.2304  0.2509 -0.4336
  137MPD2     H 2091   2.471   0.612  10.250 -0.1973  0.7538  1.5027
  137MPD2    H1 2092   2.861   0.606  10.395  1.6475 -3.3379  1.5633
  137MPD2    H2 2093   2.761   0.350  10.074 -0.7530 -0.9261  1.1251
  137MPD2    H3 2094   2.910   0.414  10.249  0.5134  1.0874  3.6100
  137MPD2     N 2095   2.611   0.731  10.408  0.2058 -0.5670  0.0505
  137MPD2    H5 2096   2.511   0.743  10.420  0.1256 -0.9976 -0.1903
  137MPD2    N1 2097   2.501   0.420  10.050 -0.2813 -0.1599 -0.5088
  137MPD2    H7 2098   2.506   0.325  10.016 -2.8705 -0.8443  1.0101
  138TCq2    C1 2099   2.395   0.499  10.010 -0.2538 -0.0493  0.2438
  138TCq2    O2 2100   2.367   0.613  10.044  0.2320  0.1291 -0.1863
  138TCq2    C2 2101   2.307   0.423   9.926 -0.5556 -0.2853  0.6670
  138TCq2    C3 2102   2.347   0.304   9.862  0.8059 -0.5804 -0.2948
  138TCq2    C4 2103   2.246   0.257   9.783  0.3047  1.1301 -0.1088
  138TCq2    C5 2104   2.118   0.311   9.778 -0.5143 -0.3321  0.4595
  138TCq2    C6 2105   2.086   0.430   9.830  0.6005 -0.3818 -0.5020
  138TCq2    C7 2106   2.184   0.492   9.904 -0.4806 -0.1705 -0.1417
  138TCq2    C8 2107   1.947   0.457   9.862  0.4169  0.7167  0.6519
  138TCq2    O4 2108   1.865   0.367   9.845  0.1311 -0.8655  0.3910
  138TCq2    C9 2109   2.275   0.142   9.702  0.1701 -1.2926  0.1280
  138TCq2    O5 2110   2.394   0.098   9.692  0.0873 -0.1509  0.0600
  138TCq2    O6 2111   2.187   0.099   9.620 -0.1438  0.6465  0.1418
  138TCq2    H2 2112   2.440   0.249   9.872 -0.1474 -2.3847 -1.2095
  138TCq2    H3 2113   2.047   0.248   9.727 -1.0690  1.7271 -1.3059
  138TCq2    H4 2114   2.163   0.589   9.947 -1.4913 -0.2142 -0.5435
  139TMC2    C1 2115   2.221   3.587  13.583 -1.0432 -0.0146 -0.8146
  139TMC2    C2 2116   2.226   3.615  13.447  0.0332 -0.7218  0.5879
  139TMC2    C3 2117   2.240   3.743  13.404  0.2661  0.8417 -0.9709
  139TMC2    C4 2118   2.215   3.683  13.678 -0.2880 -0.2724  0.4977
  139TMC2    C5 2119   2.211   3.813  13.631  0.3595 -0.4170  0.4443
  139TMC2    C6 2120   2.234   3.845  13.499 -0.0974  0.1491 -0.8342
  139TMC2     C 2121   2.231   3.450  13.628  0.3324  0.2433  0.1757
  139TMC2     O 2122   2.266   3.434  13.745  0.6524 -0.2956 -0.3063
  139TMC2     H 2123   2.240   3.548  13.363 -0.1550  0.1653 -0.1456
  139TMC2    H1 2124   2.215   3.656  13.783 -0.0427 -1.2746  0.2438
  139TMC2    H2 2125   2.231   3.950  13.471  0.2082  0.4685  0.3217
  139TMC2    C7 2126   2.195   3.931  13.714 -0.0611 -0.5536  0.1958
  139TMC2    C8 2127   2.290   3.769  13.269  0.1966  0.7847 -0.1672
  139TMC2    O1 2128   2.171   4.041  13.665  0.2982  0.2083  0.4374
  139TMC2    O2 2129   2.245   3.711  13.172  0.0878 -0.7069  0.1650
  139TMC2    O5 2130   2.320   3.900  13.261  0.3301  0.0103  0.8524
  139TMC2    H5 2131   2.365   3.927  13.343  0.5217  2.3465 -0.0065
  140MPD2     C 2132   2.299   3.157  13.625 -0.2016  0.5125 -0.3155
  140MPD2    C1 2133   2.224   3.215  13.532  0.1067  0.0723  0.2429
  140MPD2    C2 2134   2.163   3.132  13.435 -0.1690  0.4465 -0.2871
  140MPD2    C3 2135   2.178   2.994  13.435 -0.4009 -0.5673 -0.7895
  140MPD2    C4 2136   2.248   2.938  13.538 -0.5905 -0.0367 -0.0035
  140MPD2    C5 2137   2.310   3.018  13.626  0.4301  0.1238  0.4061
  140MPD2     H 2138   2.103   3.183  13.361 -0.1126  1.9449  0.6964
  140MPD2    H1 2139   2.259   2.830  13.541 -1.5250 -0.1383 -0.3737
  140MPD2    H2 2140   2.350   3.225  13.694  0.1326 -1.4692  1.4090
  140MPD2    H3 2141   2.380   2.965  13.691  1.7979 -1.2579 -2.2026
  140MPD2     N 2142   2.114   2.922  13.330  0.1967 -0.1636 -0.3212
  140MPD2    H5 2143   2.072   2.982  13.260  0.7578  1.5237  0.7778
  140MPD2    N1 2144   2.193   3.359  13.533  0.4050  0.1178 -0.8015
  140MPD2    H7 2145   2.147   3.399  13.452 -2.1029 -0.5621  0.2652
  141TCq2    C1 2146   3.095   0.146  14.425 -0.2302  0.2278  0.3336
  141TCq2    O2 2147   2.984   0.180  14.388  0.5168  0.4310  0.4897
  141TCq2    C2 2148   3.114   0.095  14.559  0.7148  0.0218 -0.1308
  141TCq2    C3 2149   3.239   0.060  14.608  0.3719  0.8704 -0.7014
  141TCq2    C4 2150   3.255   0.068  14.743  0.2380 -0.0373 -0.0516
  141TCq2    C5 2151   3.159   0.096  14.836 -0.2228  1.0788  0.1566
  141TCq2    C6 2152   3.037   0.111  14.784 -0.5387  0.1077  0.5223
  141TCq2    C7 2153   3.011   0.123  14.652 -0.0739  0.4491  0.3747
  141TCq2    C8 2154   2.946   0.189  14.866  0.3243  0.7844 -0.2245
  141TCq2    O4 2155   2.829   0.161  14.851  0.4370 -0.8820  0.6815
  141TCq2    C9 2156   3.386   0.035  14.801  0.4338  0.0324  0.1146
  141TCq2    O5 2157   3.483   0.021  14.718 -0.7308  0.8063  0.3058
  141TCq2    O6 2158   3.393   0.032  14.928  0.0012  0.1012  0.0709
  141TCq2    H2 2159   3.323   0.015  14.556 -2.0742 -2.5614 -1.7314
  141TCq2    H3 2160   3.181   0.087  14.942 -0.0912  1.4932  0.1628
  141TCq2    H4 2161   2.913   0.155  14.618  0.0229 -2.2451 -2.4936
  142MPD2     C 2162   0.761   3.481  10.480  0.6224 -0.3815  0.0649
  142MPD2    C1 2163   0.742   3.475  10.340 -0.9873  0.5952 -0.0574
  142MPD2    C2 2164   0.805   3.571  10.265 -0.1317  0.3083  0.5167
  142MPD2    C3 2165   0.903   3.653  10.317 -0.0529 -0.3041  0.0802
  142MPD2    C4 2166   0.925   3.647  10.452 -0.3860  0.3747 -0.3241
  142MPD2    C5 2167   0.846   3.568  10.536 -1.0501 -0.2986  0.0112
  142MPD2     H 2168   0.793   3.576  10.158  3.2905  0.4589  0.1493
  142MPD2    H1 2169   0.990   3.727  10.486  0.7421 -0.1304 -1.2962
  142MPD2    H2 2170   0.702   3.421  10.549 -1.4600  1.3695 -0.2085
  142MPD2    H3 2171   0.871   3.565  10.641 -0.2622 -0.8224 -0.1934
  142MPD2     N 2172   0.947   3.764  10.245 -0.0933 -0.2369  0.4412
  142MPD2    H5 2173   0.993   3.842  10.291  2.0837 -1.4168  0.2724
  142MPD2    N1 2174   0.640   3.392  10.289 -0.9334  0.7954  0.2511
  142MPD2    H7 2175   0.585   3.340  10.356  0.6922  2.0957  2.5808
  143TCq2    C1 2176   0.935   3.776  10.110 -0.3053  0.4683 -0.3706
  143TCq2    O2 2177   0.899   3.698  10.019  0.2672 -0.2908  0.0835
  143TCq2    C2 2178   0.996   3.898  10.056 -0.0470  0.1609 -0.0524
  143TCq2    C3 2179   1.058   3.995  10.137  0.2720 -0.3255  1.0418
  143TCq2    C4 2180   1.094   4.112  10.075  0.5421 -0.1089 -0.7720
  143TCq2    C5 2181   1.069   4.138   9.946  0.0608  0.4631  0.0291
  143TCq2    C6 2182   1.000   4.048   9.877  0.0798 -0.2762 -0.0072
  143TCq2    C7 2183   0.953   3.930   9.936 -0.4300 -0.9002 -0.0992
  143TCq2    C8 2184   0.935   4.085   9.753  0.1227  0.2087  0.9274
  143TCq2    O4 2185   0.865   4.005   9.695 -0.0743  0.0741  0.0923
  143TCq2    C9 2186   1.178   4.196  10.150  0.4816  0.7247  0.5053
  143TCq2    O5 2187   1.236   4.290  10.087  0.4940  0.4638 -0.7665
  143TCq2    O6 2188   1.191   4.177  10.277 -0.6122 -0.4650  0.2204
  143TCq2    H2 2189   1.085   3.981  10.241  2.5537  1.2026  0.6528
  143TCq2    H3 2190   1.120   4.220   9.898  1.2007  0.6137  1.4742
  143TCq2    H4 2191   0.886   3.871   9.874 -0.8651  0.5243 -0.9942
  144MPD2     C 2192   3.092   3.137   1.061  0.3376  0.5158  0.0286
  144MPD2    C1 2193   3.099   3.000   1.069 -0.5136 -0.1248  0.0732
  144MPD2    C2 2194   3.200   2.938   1.147  0.4529  0.4013 -0.4756
  144MPD2    C3 2195   3.292   3.013   1.218  0.5716  0.1103 -0.5204
  144MPD2    C4 2196   3.279   3.151   1.210 -0.6648 -0.6303  0.2354
  144MPD2    C5 2197   3.183   3.212   1.136  0.6653  0.1860 -0.1752
  144MPD2     H 2198   3.198   2.830   1.158 -1.4100  0.4404 -0.3011
  144MPD2    H1 2199   3.349   3.216   1.263 -2.8645  2.1555 -0.2798
  144MPD2    H2 2200   3.017   3.190   1.003 -0.4738 -0.2670  0.3719
  144MPD2    H3 2201   3.178   3.321   1.138  0.8153  0.1977 -0.5986
  144MPD2     N 2202   3.415   2.959   1.272 -0.8312 -0.1635  0.8108
  144MPD2    H5 2203   3.478   3.024   1.317  0.7035 -0.5678 -0.7800
  144MPD2    N1 2204   2.999   2.910   1.010  0.1876  0.3113 -0.2498
  144MPD2    H7 2205   3.016   2.812   1.030  0.6366  0.2226 -1.0775
  145TCq2    C1 2206   3.454   2.830   1.267  0.3903 -0.3530  0.0959
  145TCq2    O2 2207   3.396   2.735   1.218 -0.0376 -0.0409  0.0046
  145TCq2    C2 2208   3.586   2.811   1.320 -0.5066 -0.4828 -1.2440
  145TCq2    C3 2209   3.657   2.706   1.273 -0.5736 -0.9854  0.1778
  145TCq2    C4 2210   3.788   2.685   1.317 -0.7143 -0.3411 -0.6743
  145TCq2    C5 2211   3.843   2.779   1.395 -1.0912 -0.0413  0.5200
  145TCq2    C6 2212   3.768   2.886   1.442  0.1548 -0.4967 -0.0095
  145TCq2    C7 2213   3.641   2.910   1.400  0.3783 -0.1831  0.0013
  145TCq2    C8 2214   3.838   2.961   1.546  0.3105 -0.3398  0.1103
  145TCq2    O4 2215   3.932   2.909   1.602  0.3253 -0.5058 -0.2016
  145TCq2    C9 2216   3.862   2.573   1.272  0.2416 -0.1449 -0.4380
  145TCq2    O5 2217   3.811   2.521   1.172  0.3701  0.5000  0.3078
  145TCq2    O6 2218   3.969   2.540   1.335  0.3624 -0.0844  0.2994
  145TCq2    H2 2219   3.610   2.637   1.203 -0.5745 -1.3069  0.5010
  145TCq2    H3 2220   3.950   2.774   1.412 -0.7683  1.0893 -1.1240
  145TCq2    H4 2221   3.574   2.977   1.453  0.8363  1.7700 -1.8577
  146TMC2    C1 2222   0.378   1.249  12.506  0.0278 -0.0084  0.5606
  146TMC2    C2 2223   0.333   1.261  12.378 -0.2346  0.0373  0.4083
  146TMC2    C3 2224   0.417   1.213  12.283  0.4697  0.1526  0.5124
  146TMC2    C4 2225   0.500   1.196  12.544 -0.0832 -0.3774  0.1603
  146TMC2    C5 2226   0.579   1.156  12.449 -0.1943  0.8795  0.3264
  146TMC2    C6 2227   0.544   1.185  12.319 -0.6543 -0.3240 -0.4088
  146TMC2     C 2228   0.299   1.310  12.606  0.0722 -0.0048  0.0485
  146TMC2     O 2229   0.216   1.390  12.564 -0.5176  0.0889 -0.1779
  146TMC2     H 2230   0.246   1.321  12.352 -0.6695 -0.1316  1.5093
  146TMC2    H1 2231   0.536   1.191  12.646  1.1138 -0.7899 -0.2784
  146TMC2    H2 2232   0.619   1.153  12.247  0.6290  4.7377 -1.3277
  146TMC2    C7 2233   0.718   1.138  12.476  0.0915 -0.8060  0.5000
  146TMC2    C8 2234   0.412   1.263  12.144  0.1167 -0.0377 -0.5704
  146TMC2    O1 2235   0.798   1.164  12.384  0.2098  0.0429  0.2485
  146TMC2    O2 2236   0.494   1.276  12.056 -0.6621 -0.5791  0.6646
  146TMC2    O5 2237   0.278   1.255  12.117  0.1899  0.0675 -0.1552
  146TMC2    H5 2238   0.221   1.219  12.188 -1.0667 -0.6928 -1.5564
  147MPD2     C 2239   1.100   1.026  12.793 -0.3920 -0.3506 -0.1954
  147MPD2    C1 2240   0.979   0.994  12.855  0.1219  0.1528 -0.1284
  147MPD2    C2 2241   0.863   1.023  12.787  0.3061 -0.2482 -0.0373
  147MPD2    C3 2242   0.861   1.074  12.663 -0.1128  0.2453  1.3802
  147MPD2    C4 2243   0.981   1.100  12.601  0.1969  0.5169 -0.0140
  147MPD2    C5 2244   1.100   1.081  12.666 -0.2501 -0.6331  0.5417
  147MPD2     H 2245   0.770   0.991  12.832 -0.7860  2.5934 -0.2588
  147MPD2    H1 2246   0.994   1.153  12.507  0.8416 -3.0879 -1.9654
  147MPD2    H2 2247   1.196   1.023  12.842  0.5906 -0.9501 -2.1856
  147MPD2    H3 2248   1.190   1.124  12.623 -0.5368 -0.1433  0.4322
  147MPD2     N 2249   0.738   1.099  12.603 -0.0112 -0.0275  0.9933
  147MPD2    H5 2250   0.656   1.073  12.658 -1.3726  0.2555 -0.8834
  147MPD2    N1 2251   0.983   0.940  12.993 -0.3223 -0.1679 -0.0971
  147MPD2    H7 2252   1.077   0.940  13.031 -0.5277 -2.0680  0.4326
  148MPD2     C 2253   4.550   0.186  10.467 -0.0530  0.3214 -0.2718
  148MPD2    C1 2254   4.606   0.144  10.586  0.7114 -0.6148  0.0771
  148MPD2    C2 2255   4.574   0.017  10.634 -0.4929 -0.4725 -0.2026
  148MPD2    C3 2256   4.467   4.674  10.589 -0.1733 -0.0452 -1.0270
  148MPD2    C4 2257   4.400   0.002  10.486  0.9997 -0.0579 -0.0406
  148MPD2    C5 2258   4.438   0.114  10.421 -0.2193  0.2840  0.4175
  148MPD2     H 2259   4.640   4.704  10.711 -0.7744 -1.1322 -0.2844
  148MPD2    H1 2260   4.314   4.665  10.464  0.2625  0.5997  1.0174
  148MPD2    H2 2261   4.583   0.264  10.400  2.4244 -0.1255  0.4325
  148MPD2    H3 2262   4.387   0.147  10.331  1.6661  0.7272 -0.4712
  148MPD2     N 2263   4.428   4.542  10.633 -0.1204  0.0480  0.3003
  148MPD2    H5 2264   4.346   4.501  10.589  0.8790 -0.8505 -0.7278
  148MPD2    N1 2265   4.715   0.199  10.654  0.3613  0.0147 -0.2727
  148MPD2    H7 2266   0.027   0.148  10.734  1.6282  0.6085 -0.4716
  149TCq2    C1 2267   0.062   0.312  10.626  0.1455 -0.2926  0.4417
  149TCq2    O2 2268   0.047   0.394  10.538  0.1378  0.1683  0.3426
  149TCq2    C2 2269   0.154   0.337  10.742 -0.5974 -0.3056  0.0417
  149TCq2    C3 2270   0.273   0.394  10.702 -1.2706 -0.5940 -0.3804
  149TCq2    C4 2271   0.352   0.438  10.809 -0.2148 -0.4034 -0.3648
  149TCq2    C5 2272   0.319   0.412  10.943  0.6900 -0.3936  0.6104
  149TCq2    C6 2273   0.202   0.338  10.966  0.3800 -0.2313 -0.8223
  149TCq2    C7 2274   0.112   0.310  10.867  0.5023  0.1827  0.4274
  149TCq2    C8 2275   0.175   0.304  11.103 -0.1387 -0.0422  0.4245
  149TCq2    O4 2276   0.077   0.234  11.116 -0.3682  0.0343 -0.0282
  149TCq2    C9 2277   0.494   0.474  10.787  0.0443 -0.0091 -0.1528
  149TCq2    O5 2278   0.525   0.503  10.669 -0.2328  0.0598  0.4410
  149TCq2    O6 2279   0.576   0.445  10.882 -0.5429 -0.4827  0.1725
  149TCq2    H2 2280   0.305   0.408  10.599  0.5396 -1.3938  0.0674
  149TCq2    H3 2281   0.386   0.454  11.017 -0.5522  0.4471  1.2585
  149TCq2    H4 2282   0.018   0.264  10.894 -0.3498  1.6561 -0.0371
  150MPD2     C 2283   1.691   4.040  12.476  0.3680 -0.1745 -0.0494
  150MPD2    C1 2284   1.708   4.137  12.384  0.6727 -0.2662 -0.4800
  150MPD2    C2 2285   1.823   4.220  12.394  0.2100  0.2764  0.0963
  150MPD2    C3 2286   1.909   4.210  12.499  0.3191 -0.6989 -0.0241
  150MPD2    C4 2287   1.881   4.110  12.587  0.5031  0.0766 -0.0570
  150MPD2    C5 2288   1.775   4.027  12.575 -0.6343 -0.0037 -0.3754
  150MPD2     H 2289   1.855   4.291  12.318  0.6420  1.1743  1.1135
  150MPD2    H1 2290   1.938   4.083  12.676 -0.8584  0.2817  0.8778
  150MPD2    H2 2291   1.602   3.977  12.479 -0.0007  0.3680  0.4376
  150MPD2    H3 2292   1.766   3.942  12.642  0.2686  1.3078  1.3966
  150MPD2     N 2293   2.011   4.314  12.513  0.0099  0.3374 -0.0726
  150MPD2    H5 2294   2.013   4.394  12.451 -2.0869 -0.3736 -1.0663
  150MPD2    N1 2295   1.622   4.137  12.267  0.5941  0.4596 -0.7377
  150MPD2    H7 2296   1.550   4.067  12.279  2.8955 -1.7061  0.4388
  151TCq2    C1 2297   2.111   4.307  12.607  0.6082 -0.1484  0.3640
  151TCq2    O2 2298   2.135   4.212  12.677 -0.1123 -0.0110  0.1752
  151TCq2    C2 2299   2.188   4.434  12.608  0.7940 -0.3419  0.5163
  151TCq2    C3 2300   2.130   4.544  12.547 -0.4519  0.0124 -0.4445
  151TCq2    C4 2301   2.205   4.658  12.558 -1.1283 -0.0434  0.1756
  151TCq2    C5 2302   2.327   4.653  12.621  0.2263 -0.3945  0.4880
  151TCq2    C6 2303   2.378   4.543  12.674  0.2770 -0.1680 -0.3677
  151TCq2    C7 2304   2.305   4.431  12.677  0.2156  0.2214 -0.1140
  151TCq2    C8 2305   2.520   4.551  12.721  0.3859 -0.3722  0.3842
  151TCq2    O4 2306   2.570   4.661  12.732  0.1394 -0.0298  0.2013
  151TCq2    C9 2307   2.153   0.056  12.506  0.3086  0.4725  0.5472
  151TCq2    O5 2308   2.224   0.161  12.520  0.5125 -0.4387  0.1805
  151TCq2    O6 2309   2.039   0.050  12.456  0.0808 -0.8140  0.3773
  151TCq2    H2 2310   2.032   4.554  12.504  1.3481  1.4006 -4.1802
  151TCq2    H3 2311   2.379   0.023  12.633 -0.4466 -0.1023  1.0702
  151TCq2    H4 2312   2.346   4.340  12.718 -0.2461  0.8275  1.6795
  152MPD2     C 2313   1.349   3.803  12.806  0.5832 -0.1710 -0.3159
  152MPD2    C1 2314   1.410   3.933  12.783  0.2203 -0.6821  0.3238
  152MPD2    C2 2315   1.369   4.010  12.675 -0.4889  0.3193  0.0458
  152MPD2    C3 2316   1.259   3.967  12.606 -0.2641 -0.2534 -0.5133
  152MPD2    C4 2317   1.191   3.848  12.629 -0.1412  0.5910 -0.6498
  152MPD2    C5 2318   1.244   3.765  12.728  0.6570 -0.2098 -0.3941
  152MPD2     H 2319   1.420   4.101  12.644 -1.0729  0.2482 -1.1152
  152MPD2    H1 2320   1.113   3.811  12.564 -0.2087 -2.5276  1.2064
  152MPD2    H2 2321   1.372   3.743  12.894  0.8621  1.2266  0.5652
  152MPD2    H3 2322   1.203   3.668  12.755 -0.1070  0.8874  2.4445
  152MPD2     N 2323   1.217   4.052  12.502  0.6904 -0.0215  0.4094
  152MPD2    H5 2324   1.282   4.130  12.500 -0.0273  0.5448 -0.8052
  152MPD2    N1 2325   1.513   3.967  12.870 -0.5667  0.0040  0.2165
  152MPD2    H7 2326   1.541   3.901  12.943  0.3886 -2.3227 -2.2250
  153TCq2    C1 2327   1.580   4.088  12.867 -0.3404  0.1011  0.1756
  153TCq2    O2 2328   1.546   4.197  12.825 -0.4045 -0.3819  0.9729
  153TCq2    C2 2329   1.714   4.087  12.933 -0.5841 -0.4859 -0.5441
  153TCq2    C3 2330   1.778   3.968  12.930 -0.3154  0.4303 -0.6314
  153TCq2    C4 2331   1.915   3.976  12.915 -0.2080 -0.2041 -0.6763
  153TCq2    C5 2332   1.979   4.094  12.923  0.8234 -1.1275  0.1272
  153TCq2    C6 2333   1.910   4.209  12.945 -0.3922  0.2027  0.7919
  153TCq2    C7 2334   1.777   4.207  12.945 -0.0387  0.2074 -0.5159
  153TCq2    C8 2335   1.974   4.343  12.943 -0.0859  0.5126  0.3602
  153TCq2    O4 2336   1.919   4.427  12.881  0.7863 -0.0492 -0.1528
  153TCq2    C9 2337   1.989   3.851  12.918 -0.1682  0.6402 -0.4617
  153TCq2    O5 2338   2.115   3.865  12.932 -0.3567  0.2380  0.0273
  153TCq2    O6 2339   1.925   3.737  12.919  0.8809 -0.0105 -0.0431
  153TCq2    H2 2340   1.735   3.869  12.921 -0.0184  0.2823 -0.4461
  153TCq2    H3 2341   2.085   4.103  12.904  0.8338  2.3594  1.9536
  153TCq2    H4 2342   1.711   4.293  12.953  0.2275  0.5874 -2.2233
  154MPD2     C 2343   1.588   0.805   1.819 -0.2525  0.1515 -0.1704
  154MPD2    C1 2344   1.610   0.742   1.697  0.1728 -0.0668 -1.0025
  154MPD2    C2 2345   1.722   0.656   1.691 -0.6743  0.0758  0.5437
  154MPD2    C3 2346   1.800   0.631   1.800 -0.1586  0.1365 -0.2734
  154MPD2    C4 2347   1.774   0.694   1.923  0.8298 -0.1282 -0.2731
  154MPD2    C5 2348   1.669   0.783   1.926 -0.3934 -0.0202 -0.6336
  154MPD2     H 2349   1.748   0.598   1.603 -0.4058  0.5637  0.3050
  154MPD2    H1 2350   1.828   0.664   2.012 -1.7650  1.7032  1.9206
  154MPD2    H2 2351   1.502   0.868   1.837  0.0602  0.4785  0.1765
  154MPD2    H3 2352   1.629   0.807   2.024 -0.0046 -0.0982 -0.4534
  154MPD2     N 2353   1.896   0.527   1.783  0.1629  0.1028 -0.5104
  154MPD2    H5 2354   1.905   0.486   1.691  1.1433  0.4793 -0.5830
  154MPD2    N1 2355   1.526   0.767   1.591  0.1701 -0.3390  0.3796
  154MPD2    H7 2356   1.441   0.815   1.617 -0.4083 -0.3660 -1.4798
  155TCq2    C1 2357   1.526   0.699   1.471  0.3353 -0.4527  0.0151
  155TCq2    O2 2358   1.595   0.608   1.434 -0.8520  0.1251  0.2275
  155TCq2    C2 2359   1.448   0.767   1.371 -0.3959  0.2797 -0.0485
  155TCq2    C3 2360   1.420   0.898   1.385  0.6905  0.0234 -0.8644
  155TCq2    C4 2361   1.364   0.961   1.281 -0.3006 -0.5040  0.2240
  155TCq2    C5 2362   1.325   0.888   1.167  0.6092 -0.5018  1.3096
  155TCq2    C6 2363   1.353   0.756   1.161  0.3180  0.2902 -0.2536
  155TCq2    C7 2364   1.426   0.693   1.261  0.5593 -1.1672  0.8674
  155TCq2    C8 2365   1.338   0.679   1.035  0.2069  0.2786 -0.3722
  155TCq2    O4 2366   1.385   0.568   1.041 -0.1015  0.1861 -0.9340
  155TCq2    C9 2367   1.337   1.101   1.291  0.4031 -0.1847 -0.3395
  155TCq2    O5 2368   1.387   1.148   1.401 -0.5022  0.3339 -0.3173
  155TCq2    O6 2369   1.324   1.159   1.177 -0.3431 -0.2248 -0.0104
  155TCq2    H2 2370   1.456   0.953   1.471  0.5462  3.9001 -3.2891
  155TCq2    H3 2371   1.255   0.936   1.099  0.0532 -1.4113  1.2420
  155TCq2    H4 2372   1.438   0.585   1.262 -0.7737 -1.3177  0.1586
  156MPD2     C 2373   2.647   1.745  12.420 -0.0489  0.6316 -0.7302
  156MPD2    C1 2374   2.546   1.820  12.351  0.0242 -0.2076 -0.5053
  156MPD2    C2 2375   2.417   1.830  12.411  0.5781 -0.2221  0.4957
  156MPD2    C3 2376   2.393   1.770  12.533 -0.4617  0.6954 -0.3612
  156MPD2    C4 2377   2.487   1.687  12.589  0.6821  0.0042 -0.5436
  156MPD2    C5 2378   2.612   1.672  12.529  0.7656  0.5110  0.8203
  156MPD2     H 2379   2.336   1.890  12.371  2.1333  1.5903  0.0194
  156MPD2    H1 2380   2.473   1.623  12.675 -1.3251  0.1074 -0.7978
  156MPD2    H2 2381   2.743   1.734  12.370  0.2204  0.0861 -0.0922
  156MPD2    H3 2382   2.683   1.602  12.570  0.3692  0.5578  1.5821
  156MPD2     N 2383   2.263   1.767  12.588  0.2565  0.4537  0.1549
  156MPD2    H5 2384   2.187   1.812  12.537  0.3711  0.1701 -0.2574
  156MPD2    N1 2385   2.573   1.873  12.226 -0.2844  0.9418 -0.2347
  156MPD2    H7 2386   2.672   1.879  12.206  0.1771  0.0424  1.7090
  157TCq2    C1 2387   2.482   1.910  12.125 -0.8673  0.1259 -0.4523
  157TCq2    O2 2388   2.360   1.921  12.126  0.6514 -0.0801  0.1719
  157TCq2    C2 2389   2.540   1.929  11.996  0.4213  0.3120 -0.1623
  157TCq2    C3 2390   2.672   1.920  11.978  0.3072  0.3350  0.4883
  157TCq2    C4 2391   2.726   1.888  11.856 -0.1709  0.2424  0.0858
  157TCq2    C5 2392   2.640   1.869  11.753  0.6662 -0.0899 -0.1459
  157TCq2    C6 2393   2.507   1.891  11.768  0.2401 -0.0576 -0.9278
  157TCq2    C7 2394   2.457   1.919  11.891  0.4347  0.1093  0.1416
  157TCq2    C8 2395   2.421   1.851  11.653 -0.3330 -0.5565  0.2046
  157TCq2    O4 2396   2.460   1.753  11.599  0.2178 -0.0032  0.3198
  157TCq2    C9 2397   2.875   1.863  11.860  0.4510  0.3527 -0.4197
  157TCq2    O5 2398   2.939   1.851  11.971  0.0268  0.0848 -0.1606
  157TCq2    O6 2399   2.915   1.828  11.746  0.1137  0.3649  0.4081
  157TCq2    H2 2400   2.741   1.950  12.057  0.3480 -2.6451  1.5760
  157TCq2    H3 2401   2.681   1.836  11.658 -1.2421  0.7749 -1.2578
  157TCq2    H4 2402   2.349   1.913  11.904  0.2188  0.0121 -1.7161
  158TMC2    C1 2403   2.331   0.939  13.890 -0.6631  0.4865  0.1031
  158TMC2    C2 2404   2.431   1.004  13.836  0.0511 -1.3303  0.7024
  158TMC2    C3 2405   2.454   0.984  13.707 -0.0293  0.1704  0.1653
  158TMC2    C4 2406   2.248   0.852  13.823 -0.1837 -0.3891 -0.1094
  158TMC2    C5 2407   2.262   0.839  13.691 -0.0034  0.3374 -0.0909
  158TMC2    C6 2408   2.369   0.903  13.632  0.3148  0.8537 -0.5308
  158TMC2     C 2409   2.279   0.992  14.011 -0.1428  0.5589  0.3727
  158TMC2     O 2410   2.309   1.112  14.039  1.0469 -0.4512  0.0807
  158TMC2     H 2411   2.501   1.065  13.892  0.7880 -1.7800  0.2591
  158TMC2    H1 2412   2.169   0.796  13.873  1.5721 -3.2362 -0.5735
  158TMC2    H2 2413   2.384   0.881  13.527  1.8929 -2.8315  0.4547
  158TMC2    C7 2414   2.201   0.724  13.627 -0.1332 -0.0265  0.5713
  158TMC2    C8 2415   2.576   1.025  13.652  0.0882  0.1504  0.0076
  158TMC2    O1 2416   2.211   0.718  13.505 -0.4997 -0.6430 -1.0760
  158TMC2    O2 2417   2.678   0.956  13.662 -0.0377  0.2671  0.4959
  158TMC2    O5 2418   2.522   1.084  13.542 -0.0856 -0.8274  0.3309
  158TMC2    H5 2419   2.432   1.118  13.564 -0.0996 -1.4176  1.1874
  159MPD2     C 2420   2.003   0.966  14.447 -0.8421  0.3070  0.6603
  159MPD2    C1 2421   2.046   0.844  14.418  0.6835  0.4805 -0.3496
  159MPD2    C2 2422   2.111   0.823  14.298 -0.8213  0.5542  0.1090
  159MPD2    C3 2423   2.137   0.922  14.210 -0.1093 -0.0878  0.2367
  159MPD2    C4 2424   2.097   1.051  14.242 -0.2547 -0.0690  0.0518
  159MPD2    C5 2425   2.032   1.076  14.363  0.4489  0.4380 -0.0944
  159MPD2     H 2426   2.144   0.725  14.267 -0.7022  0.1959  1.3859
  159MPD2    H1 2427   2.132   1.139  14.191  1.2374 -0.9899 -0.5135
  159MPD2    H2 2428   1.946   0.985  14.538 -1.1501 -1.1825  0.7791
  159MPD2    H3 2429   2.004   1.178  14.384 -1.9952 -0.5990  1.7431
  159MPD2     N 2430   2.222   0.894  14.089  0.2010  0.0589  0.3611
  159MPD2    H5 2431   2.238   0.799  14.057 -0.3270  0.5333 -1.3070
  159MPD2    N1 2432   1.999   0.739  14.500  0.5797  0.6012 -1.3033
  159MPD2    H7 2433   1.949   0.765  14.585  1.6985 -0.5132 -0.3021
  160TMC2    C1 2434   2.183   3.220   1.903  0.4007 -0.3965 -0.3170
  160TMC2    C2 2435   2.315   3.194   1.920  0.3148  0.1120 -0.2901
  160TMC2    C3 2436   2.400   3.261   1.842  0.3730 -0.2284  0.0686
  160TMC2    C4 2437   2.133   3.313   1.812  1.6333 -0.6400 -0.5422
  160TMC2    C5 2438   2.230   3.383   1.748 -0.2521  0.2933  0.1321
  160TMC2    C6 2439   2.364   3.352   1.756  0.5239  0.0576 -0.8167
  160TMC2     C 2440   2.089   3.131   1.960  0.1577 -0.2299 -1.0284
  160TMC2     O 2441   2.137   3.029   2.016 -0.3171 -0.2567  0.2525
  160TMC2     H 2442   2.357   3.124   1.992  1.3697  0.0889 -0.9204
  160TMC2    H1 2443   2.027   3.334   1.813  1.8500  0.5136 -1.3386
  160TMC2    H2 2444   2.441   3.400   1.697  2.4496 -0.6618  1.0960
  160TMC2    C7 2445   2.177   3.482   1.655 -0.2734  0.5587  0.7759
  160TMC2    C8 2446   2.539   3.244   1.856 -1.1819 -0.2022  0.5591
  160TMC2    O1 2447   2.062   3.456   1.623 -0.3868 -0.1409  1.0314
  160TMC2    O2 2448   2.615   3.339   1.854  0.1367 -0.3387  0.3210
  160TMC2    O5 2449   2.557   3.116   1.900  0.0324  0.3497 -0.5953
  160TMC2    H5 2450   2.486   3.058   1.864  2.0635 -2.1059 -0.6238
  161MPD2     C 2451   1.861   2.975   2.074  0.1579 -0.8867 -0.5862
  161MPD2    C1 2452   1.851   3.109   2.045 -0.1282 -0.0829  0.5035
  161MPD2    C2 2453   1.732   3.177   2.071  0.1357 -0.0348  0.0546
  161MPD2    C3 2454   1.622   3.108   2.122 -0.0934  0.8493  0.7266
  161MPD2    C4 2455   1.636   2.972   2.143 -0.2083 -0.0942 -0.2135
  161MPD2    C5 2456   1.752   2.905   2.121 -0.0970  0.0075  0.0913
  161MPD2     H 2457   1.723   3.282   2.042  0.6993  0.2157  0.7982
  161MPD2    H1 2458   1.551   2.908   2.165 -0.0690 -0.8962 -2.0272
  161MPD2    H2 2459   1.952   2.921   2.049 -1.1637 -2.9963 -0.8036
  161MPD2    H3 2460   1.756   2.798   2.141  2.7788  0.1205  0.1068
  161MPD2     N 2461   1.496   3.166   2.143 -0.6917  0.1002  0.9472
  161MPD2    H5 2462   1.415   3.107   2.158 -1.0463  0.9075  2.2525
  161MPD2    N1 2463   1.961   3.181   1.987  0.2580  0.4530 -0.0714
  161MPD2    H7 2464   1.939   3.272   1.949  0.0384  0.4486  0.0426
  162TMC2    C1 2465   4.639   0.522   1.699  0.4686  0.6782  0.7262
  162TMC2    C2 2466   4.531   0.610   1.671  0.3430  0.0291 -0.9750
  162TMC2    C3 2467   4.453   0.628   1.776 -0.1629  0.3180 -0.2489
  162TMC2    C4 2468   4.646   0.447   1.812  0.8162  0.1296  0.0928
  162TMC2    C5 2469   4.549   0.464   1.901  0.2253 -0.3392  0.1275
  162TMC2    C6 2470   4.457   0.561   1.888 -0.0645  0.5030  0.1497
  162TMC2     C 2471   0.007   0.498   1.594  0.4028 -0.3126  0.1332
  162TMC2     O 2472   0.084   0.404   1.608 -0.3914  0.3770 -0.2779
  162TMC2     H 2473   4.501   0.649   1.574 -1.5543  0.1618 -0.3372
  162TMC2    H1 2474   0.004   0.381   1.837 -0.6517 -0.7825  2.6521
  162TMC2    H2 2475   4.374   0.570   1.957  0.7367 -0.6884  1.2559
  162TMC2    C7 2476   4.565   0.406   2.031 -0.5304  0.5043 -0.0231
  162TMC2    C8 2477   4.358   0.736   1.767 -0.3144  0.0438  0.4180
  162TMC2    O1 2478   4.543   0.485   2.121  0.0959 -0.2410  0.2750
  162TMC2    O2 2479   4.316   0.780   1.664 -0.1806  0.3204  0.0208
  162TMC2    O5 2480   4.348   0.795   1.891  0.5478  0.1950  0.4587
  162TMC2    H5 2481   4.393   0.748   1.965 -0.1944 -1.3163 -0.0318
  163MPD2     C 2482   0.180   0.593   1.112  0.2450  0.0549  0.3308
  163MPD2    C1 2483   0.185   0.473   1.187  0.2977  0.5913 -0.0981
  163MPD2    C2 2484   0.139   0.479   1.317  0.1929  0.2381 -0.3649
  163MPD2    C3 2485   0.071   0.590   1.373  0.2342  0.0187  0.2032
  163MPD2    C4 2486   0.067   0.702   1.289  0.0282  0.6543 -0.1425
  163MPD2    C5 2487   0.124   0.708   1.168 -0.1043  0.4424  1.0125
  163MPD2     H 2488   0.144   0.382   1.365 -2.4961  0.0003 -0.5946
  163MPD2    H1 2489   0.010   0.793   1.305  0.2297  0.6997  0.3339
  163MPD2    H2 2490   0.208   0.586   1.007  0.6714  0.6974  0.4012
  163MPD2    H3 2491   0.108   0.795   1.106 -0.1156  0.5317  1.1409
  163MPD2     N 2492   0.002   0.595   1.495  0.7280 -0.1352 -0.5388
  163MPD2    H5 2493   4.666   0.676   1.499  1.5147  0.4687 -0.7394
  163MPD2    N1 2494   0.224   0.353   1.117  0.2343  0.1707 -0.1922
  163MPD2    H7 2495   0.217   0.370   1.017 -0.5739  2.0610  0.2015
  164TCq2    C1 2496   0.604   4.312  11.656 -0.0545 -0.2176 -0.2847
  164TCq2    O2 2497   0.602   4.223  11.740 -0.0364  0.4192  0.2613
  164TCq2    C2 2498   0.595   4.450  11.690 -0.6327  0.0191  0.1079
  164TCq2    C3 2499   0.662   4.551  11.620  0.4109  0.5270  0.3994
  164TCq2    C4 2500   0.644   4.685  11.651  0.2790 -0.2218  1.0231
  164TCq2    C5 2501   0.544   4.721  11.739  0.1973  0.7588 -0.1153
  164TCq2    C6 2502   0.470   4.619  11.796  0.4878 -0.0998  0.1054
  164TCq2    C7 2503   0.493   4.484  11.770 -0.5983  0.5511  0.7505
  164TCq2    C8 2504   0.333   4.657  11.833 -0.3535 -0.2514  0.7756
  164TCq2    O4 2505   0.241   4.592  11.782  0.4151 -0.3819  0.2754
  164TCq2    C9 2506   0.715   0.060  11.583  0.0446 -0.3131 -0.5183
  164TCq2    O5 2507   0.682   0.176  11.606  0.4124  0.7901  0.1756
  164TCq2    O6 2508   0.807   0.021  11.505 -0.1668 -0.8356 -0.0404
  164TCq2    H2 2509   0.735   4.521  11.546  0.2974 -1.2289  1.0084
  164TCq2    H3 2510   0.526   0.100  11.765 -2.8237  0.3339 -0.6042
  164TCq2    H4 2511   0.416   4.417  11.806  1.5497 -2.4277 -0.2105
  165MPD2     C 2512   1.201   2.532   1.530 -0.2792 -0.2290  0.6767
  165MPD2    C1 2513   1.317   2.481   1.574  0.5418  0.1285  0.5460
  165MPD2    C2 2514   1.446   2.542   1.555  0.5247 -0.4717  0.6537
  165MPD2    C3 2515   1.447   2.651   1.471 -0.3657  0.2103 -0.4968
  165MPD2    C4 2516   1.322   2.696   1.423  0.2001 -0.4331 -0.7632
  165MPD2    C5 2517   1.203   2.632   1.444 -0.0659  0.1243  0.0221
  165MPD2     H 2518   1.528   2.502   1.613  1.5123 -0.1486 -0.5300
  165MPD2    H1 2519   1.327   2.784   1.360 -1.0263 -0.7994 -1.3637
  165MPD2    H2 2520   1.104   2.487   1.550 -0.9385  1.1939  0.6679
  165MPD2    H3 2521   1.111   2.668   1.400 -2.8638 -1.7060  4.4100
  165MPD2     N 2522   1.562   2.719   1.433 -0.4536  0.3923  0.1370
  165MPD2    H5 2523   1.551   2.798   1.370 -1.4484  1.2925  1.4312
  165MPD2    N1 2524   1.308   2.369   1.656 -0.7363  0.2966 -0.0089
  165MPD2    H7 2525   1.217   2.327   1.668  0.8226 -2.5904  1.6028
  166TCq2    C1 2526   1.698   2.677   1.465 -0.4962 -0.0067 -1.2512
  166TCq2    O2 2527   1.739   2.599   1.545  0.8416 -0.2112 -0.1065
  166TCq2    C2 2528   1.790   2.743   1.380 -0.2656  0.4027 -0.2811
  166TCq2    C3 2529   1.754   2.794   1.254 -0.1460 -0.1650 -0.4939
  166TCq2    C4 2530   1.843   2.859   1.174  0.5736  0.1965 -0.4150
  166TCq2    C5 2531   1.976   2.874   1.224  0.2223  0.8258 -0.4651
  166TCq2    C6 2532   2.011   2.815   1.341  0.2030 -0.3508 -0.7358
  166TCq2    C7 2533   1.924   2.742   1.420  0.4151  0.6247  0.0963
  166TCq2    C8 2534   2.155   2.787   1.358 -0.0531 -0.1870 -0.6497
  166TCq2    O4 2535   2.238   2.845   1.291  0.0619  0.1373  0.0223
  166TCq2    C9 2536   1.801   2.894   1.038 -0.0388 -0.3293  0.6185
  166TCq2    O5 2537   1.697   2.846   1.004  0.5157 -0.3780  0.5073
  166TCq2    O6 2538   1.890   2.948   0.962 -0.4241  0.0534 -0.0101
  166TCq2    H2 2539   1.655   2.788   1.209  0.0709  0.4038 -1.0291
  166TCq2    H3 2540   2.053   2.931   1.173  0.6209 -0.3452 -1.1831
  166TCq2    H4 2541   1.937   2.710   1.523 -1.4945  3.6094  1.2698
  167TMC2    C1 2542   4.423   0.178  13.020 -0.1775 -0.3130 -0.0152
  167TMC2    C2 2543   4.356   0.233  13.127 -0.2700  0.0504 -0.3005
  167TMC2    C3 2544   4.329   0.144  13.229  0.5995 -0.2130  0.3533
  167TMC2    C4 2545   4.474   0.049  13.012 -0.3965  0.3373  0.2167
  167TMC2    C5 2546   4.431   4.685  13.115 -0.0010  1.1316 -0.4736
  167TMC2    C6 2547   4.377   0.015  13.228 -0.5725  0.0409  0.9547
  167TMC2     C 2548   4.486   0.283  12.939  0.2357  0.3010  0.0796
  167TMC2     O 2549   4.475   0.398  12.971  0.0798 -0.2536  0.3736
  167TMC2     H 2550   4.323   0.336  13.134 -2.6868 -0.7576 -0.0496
  167TMC2    H1 2551   4.552   0.023  12.942  0.2554 -2.2096  1.8830
  167TMC2    H2 2552   4.353   4.675  13.311  1.0567 -0.0372  1.3664
  167TMC2    C7 2553   4.492   4.554  13.132  0.2995  0.1571  0.4138
  167TMC2    C8 2554   4.280   0.207  13.347 -0.3395  0.2553  0.7880
  167TMC2    O1 2555   4.495   4.506  13.248  0.4844  0.3957 -0.0482
  167TMC2    O2 2556   4.291   0.325  13.375 -0.1864 -0.1450 -0.5722
  167TMC2    O5 2557   4.172   0.146  13.388  0.0501 -0.6315  0.2462
  167TMC2    H5 2558   4.157   0.056  13.352 -1.3356  0.0624 -0.8961
  168MPD2     C 2559   4.703   0.425  12.781 -0.4015 -0.3077  0.9120
  168MPD2    C1 2560   4.651   0.301  12.746  0.1600  0.3958  0.6892
  168MPD2    C2 2561   4.701   0.246  12.625 -0.3264 -0.5808  0.1370
  168MPD2    C3 2562   0.070   0.314  12.543  0.3841  0.3038 -0.3292
  168MPD2    C4 2563   0.107   0.447  12.576  0.2445  0.1325 -0.0857
  168MPD2    C5 2564   0.047   0.502  12.686 -0.1455 -0.5182 -0.3432
  168MPD2     H 2565   4.665   0.148  12.597  0.5066 -0.3945 -1.5666
  168MPD2    H1 2566   0.189   0.499  12.528 -0.2155  1.0429  0.1058
  168MPD2    H2 2567   4.676   0.470  12.876  1.9800  1.2178  0.8673
  168MPD2    H3 2568   0.085   0.598  12.719 -0.2959 -0.2749 -0.8615
  168MPD2     N 2569   0.127   0.259  12.423 -0.6267 -0.6994  0.8122
  168MPD2    H5 2570   0.215   0.296  12.391  1.1139 -3.0145  2.9188
  168MPD2    N1 2571   4.559   0.234  12.832 -0.6354  0.6418 -0.0123
  168MPD2    H7 2572   4.552   0.137  12.804 -1.2969  0.7057 -0.0857
  169MPD1     C 2573   2.961   3.924  10.076  0.6038  0.3336 -0.0008
  169MPD1    C1 2574   2.842   3.950  10.017  0.2378 -1.2346 -0.3545
  169MPD1    C2 2575   2.760   3.850   9.991 -0.8545  0.2239  0.5519
  169MPD1    C3 2576   2.796   3.717  10.012  0.1527  0.5041 -0.6265
  169MPD1    C4 2577   2.922   3.690  10.065  0.6061 -0.0027 -0.4318
  169MPD1    C5 2578   2.998   3.797  10.110 -0.6598 -0.5309 -0.1979
  169MPD1     H 2579   2.667   3.873   9.940 -2.0484  1.5359  3.3332
  169MPD1    H1 2580   2.950   3.587  10.087  0.6499 -0.0870 -0.8786
  169MPD1    H2 2581   3.037   3.999  10.094 -0.0429  0.7391  1.0915
  169MPD1    H3 2582   3.095   3.769  10.150 -0.4147  0.6048 -0.0064
  169MPD1     N 2583   2.704   3.616   9.965  0.4427  0.1889 -0.7541
  169MPD1    H5 2584   2.609   3.649   9.964 -0.7605 -3.3131 -0.8521
  169MPD1    N1 2585   2.800   4.080  10.001 -0.0987 -0.3100 -0.7772
  169MPD1    H6 2586   2.727   4.089   9.931  0.6865  1.9316 -1.3014
  169MPD1    H7 2587   2.875   4.148   9.992  1.1202 -1.8692 -2.1399
  170MPD1     C 2588   0.393   2.364  13.136 -0.1120  0.8474  0.0442
  170MPD1    C1 2589   0.453   2.482  13.137 -0.2900 -0.6946  0.4220
  170MPD1    C2 2590   0.506   2.525  13.257  0.5906  0.1875  0.2520
  170MPD1    C3 2591   0.520   2.437  13.362  0.2484 -0.5735 -0.5075
  170MPD1    C4 2592   0.471   2.309  13.341 -0.0765 -0.4463  0.1633
  170MPD1    C5 2593   0.402   2.277  13.236  0.1112  0.2097  0.3053
  170MPD1     H 2594   0.550   2.624  13.265 -0.3727  0.5812  0.7915
  170MPD1    H1 2595   0.465   2.235  13.420  0.4808  0.0059  0.6320
  170MPD1    H2 2596   0.353   2.328  13.041  1.5556 -0.3898 -0.1771
  170MPD1    H3 2597   0.362   2.176  13.233  1.1568 -0.1648 -0.9547
  170MPD1     N 2598   0.575   2.478  13.485  0.0328 -0.3282  0.3098
  170MPD1    H5 2599   0.611   2.572  13.492 -1.2960  0.0013  2.9070
  170MPD1    N1 2600   0.428   2.571  13.035 -0.6712 -0.3839  0.2258
  170MPD1    H6 2601   0.420   2.523  12.946 -0.0769  0.3509 -0.2144
  170MPD1    H7 2602   0.509   2.631  13.042 -1.4498  0.5053  1.7157
  171MPD1     C 2603   4.202   3.758  15.818 -0.2849  1.3007  0.5456
  171MPD1    C1 2604   4.162   3.647  15.743 -0.5681 -0.3356  0.2942
  171MPD1    C2 2605   4.201   3.522  15.782 -0.5443 -0.1482  0.4589
  171MPD1    C3 2606   4.301   3.505  15.885  0.2109  0.3988  0.0436
  171MPD1    C4 2607   4.331   3.611  15.962 -0.1559 -0.1101  0.4919
  171MPD1    C5 2608   4.281   3.739  15.935 -0.1789 -0.2508  0.9298
  171MPD1     H 2609   4.156   3.431  15.745 -0.0716  0.2920 -1.2249
  171MPD1    H1 2610   4.400   3.599  16.045 -0.9552 -2.3461  0.8449
  171MPD1    H2 2611   4.167   3.857  15.791  3.2554  2.5594  0.5892
  171MPD1    H3 2612   4.300   3.818  16.006  0.9498  0.0984  0.2338
  171MPD1     N 2613   4.355   3.384  15.925  0.0535 -0.4796  0.0027
  171MPD1    H5 2614   4.424   3.384  16.000  1.9898  1.2873 -1.7948
  171MPD1    N1 2615   4.053   3.662  15.653  0.1068 -0.5727  0.7970
  171MPD1    H6 2616   4.056   3.588  15.583 -0.9175  0.4980 -0.3845
  171MPD1    H7 2617   4.057   3.751  15.604 -1.9593 -0.1511  1.3989
  172MPD1     C 2618   2.955   2.157   0.943 -0.1230  0.3743  0.1332
  172MPD1    C1 2619   2.950   2.275   1.015 -0.3646 -0.5557  0.1914
  172MPD1    C2 2620   3.034   2.376   0.990  0.0621 -0.2894  0.3655
  172MPD1    C3 2621   3.120   2.372   0.879 -0.3402  0.7098  0.2929
  172MPD1    C4 2622   3.101   2.271   0.788 -0.0008 -0.3595 -0.6127
  172MPD1    C5 2623   3.020   2.163   0.824  0.2014  0.5413  0.6399
  172MPD1     H 2624   3.050   2.458   1.059  0.6224 -0.6053  0.6142
  172MPD1    H1 2625   3.169   2.262   0.704  3.0448 -1.2215  1.9393
  172MPD1    H2 2626   2.885   2.077   0.965  2.1961 -1.4489  0.9082
  172MPD1    H3 2627   3.002   2.083   0.753  2.4138  1.0215 -0.4451
  172MPD1     N 2628   3.217   2.472   0.859 -0.0156  0.0449  0.2973
  172MPD1    H5 2629   3.272   2.454   0.775  0.4933  1.3798  0.3531
  172MPD1    N1 2630   2.875   2.281   1.131  0.0381  0.1112  0.1390
  172MPD1    H6 2631   2.863   2.376   1.166  2.8366  0.5611 -0.1288
  172MPD1    H7 2632   2.784   2.238   1.113  1.0351 -1.4274 -1.2538
  173MPD1     C 2633   4.578   2.832  14.803  0.9769  0.2811 -0.5352
  173MPD1    C1 2634   4.496   2.790  14.904  0.0052  0.4806 -0.0287
  173MPD1    C2 2635   4.501   2.658  14.956 -0.3922  0.3762 -0.3206
  173MPD1    C3 2636   4.603   2.574  14.919 -0.1071  0.0414  0.3296
  173MPD1    C4 2637   4.696   2.623  14.829 -0.0662  0.0115 -0.3290
  173MPD1    C5 2638   4.677   2.751  14.772  0.0867  0.3813  0.2183
  173MPD1     H 2639   4.434   2.624  15.033 -0.3589 -0.8597 -0.8367
  173MPD1    H1 2640   0.066   2.575  14.807  0.3810  1.0356 -0.6352
  173MPD1    H2 2641   4.583   2.930  14.758 -1.1762  0.7963  0.3526
  173MPD1    H3 2642   0.022   2.782  14.696 -1.8555  0.6957 -1.4607
  173MPD1     N 2643   4.615   2.451  14.993 -0.5466  0.4122 -0.3813
  173MPD1    H5 2644   4.541   2.424  15.058  0.6156  2.3279  1.7371
  173MPD1    N1 2645   4.385   2.865  14.929  0.0809  0.3254 -0.2525
  173MPD1    H6 2646   4.400   2.966  14.921 -0.9049  0.5652  0.8834
  173MPD1    H7 2647   4.346   2.841  15.020  1.8151  1.0864  0.7097
  174MPD1     C 2648   0.238   1.421  14.969  0.4111  0.6171 -0.4436
  174MPD1    C1 2649   0.268   1.527  14.884 -0.5063  0.3429 -0.1375
  174MPD1    C2 2650   0.193   1.639  14.901  0.2297  0.1310  0.3418
  174MPD1    C3 2651   0.109   1.653  15.016 -1.0029  0.3986  0.0098
  174MPD1    C4 2652   0.101   1.555  15.113 -0.1690 -0.1154 -0.6361
  174MPD1    C5 2653   0.163   1.439  15.086  0.1153 -0.4399  0.3898
  174MPD1     H 2654   0.193   1.713  14.822  1.0908 -1.9223 -1.5781
  174MPD1    H1 2655   0.048   1.574  15.205  0.0667  0.4856 -0.6282
  174MPD1    H2 2656   0.267   1.318  14.950  1.1882  0.7129  0.2462
  174MPD1    H3 2657   0.156   1.353  15.151 -0.0668  0.3839  1.4623
  174MPD1     N 2658   0.035   1.770  15.049 -0.2905  0.2362 -0.6270
  174MPD1    H5 2659   4.708   1.775  15.136 -1.7615 -2.1128 -1.3825
  174MPD1    N1 2660   0.346   1.511  14.763  0.1003 -0.2252  0.1777
  174MPD1    H6 2661   0.433   1.461  14.778 -1.9531 -3.9214 -0.1535
  174MPD1    H7 2662   0.379   1.605  14.742 -3.5595  0.8611 -0.6951
  175MPD1     C 2663   3.171   3.779  15.147  0.5818  0.1311 -0.2346
  175MPD1    C1 2664   3.161   3.866  15.253  0.5671  1.0851 -0.0873
  175MPD1    C2 2665   3.154   3.819  15.386 -0.3851 -0.6217  0.0087
  175MPD1    C3 2666   3.152   3.683  15.405 -0.5806  0.1357 -0.4132
  175MPD1    C4 2667   3.162   3.601  15.296  0.3153 -0.4219  0.3103
  175MPD1    C5 2668   3.170   3.643  15.170  0.9421  0.0551 -0.5081
  175MPD1     H 2669   3.164   3.882  15.473 -0.1347 -0.0387 -0.4462
  175MPD1    H1 2670   3.176   3.494  15.312 -2.8319 -0.9835 -0.6364
  175MPD1    H2 2671   3.164   3.821  15.047  1.5951 -0.9526 -0.7555
  175MPD1    H3 2672   3.188   3.576  15.086 -1.7787 -1.5313  0.1791
  175MPD1     N 2673   3.135   3.618  15.536 -0.2448 -0.3650 -0.2679
  175MPD1    H5 2674   3.128   3.517  15.536  0.4287 -0.4153 -0.8972
  175MPD1    N1 2675   3.214   3.994  15.228  0.0645 -0.7255 -0.6730
  175MPD1    H6 2676   3.185   4.033  15.139 -0.2953  0.2312 -0.1443
  175MPD1    H7 2677   3.181   4.069  15.290  1.2426  0.0104 -0.9442
  176MPD1     C 2678   4.619   0.096  17.243 -0.1742  0.3617  0.5668
  176MPD1    C1 2679   4.538   0.204  17.225  0.1336  0.0580 -0.4910
  176MPD1    C2 2680   4.556   0.311  17.307 -1.2075  0.4531 -0.2622
  176MPD1    C3 2681   4.649   0.306  17.412  0.1071 -0.2979 -0.2021
  176MPD1    C4 2682   4.722   0.186  17.430 -0.3809 -0.0814 -0.1351
  176MPD1    C5 2683   4.710   0.087  17.335 -0.3698  0.1143  0.3266
  176MPD1     H 2684   4.508   0.402  17.270  1.1678  2.9178  2.6881
  176MPD1    H1 2685   0.081   0.179  17.498  0.6440 -2.4282 -1.6315
  176MPD1    H2 2686   4.609   0.009  17.179  0.4672  1.5743 -1.1648
  176MPD1    H3 2687   0.046   4.723  17.340  0.3200  0.5083 -1.1775
  176MPD1     N 2688   4.660   0.409  17.505 -0.5819 -0.2343 -0.3845
  176MPD1    H5 2689   4.594   0.485  17.492  0.1637  0.9566  2.7346
  176MPD1    N1 2690   4.462   0.205  17.107 -0.1986 -0.6558  0.4124
  176MPD1    H6 2691   4.401   0.286  17.098  0.1385 -0.7336 -2.5581
  176MPD1    H7 2692   4.421   0.124  17.061  1.2215 -0.7567 -0.6770
  177MPD1     C 2693   3.346   3.979  10.452 -0.0207  0.2059  0.0295
  177MPD1    C1 2694   3.371   4.075  10.354 -0.9501 -0.4443 -0.6528
  177MPD1    C2 2695   3.258   4.136  10.313  0.0709 -0.2011 -0.3504
  177MPD1    C3 2696   3.128   4.107  10.345  0.1529  0.1318 -0.5405
  177MPD1    C4 2697   3.101   4.007  10.432  0.3639 -0.0955 -0.4223
  177MPD1    C5 2698   3.215   3.955  10.489  0.0185 -0.0540  0.1218
  177MPD1     H 2699   3.269   4.224  10.250 -0.4981 -1.1348 -1.7507
  177MPD1    H1 2700   3.004   3.969  10.461 -1.0485  2.4034 -1.8463
  177MPD1    H2 2701   3.425   3.917  10.493  0.3933  0.9327  0.3257
  177MPD1    H3 2702   3.197   3.866  10.549  1.5026 -0.8125 -0.5555
  177MPD1     N 2703   3.023   4.175  10.279 -0.0806  0.8697 -0.7299
  177MPD1    H5 2704   3.045   4.230  10.197  0.7022 -0.0821 -1.1689
  177MPD1    N1 2705   3.506   4.126  10.328 -0.1159 -0.3295 -0.2430
  177MPD1    H6 2706   3.581   4.059  10.344  0.1403 -0.0692 -0.3644
  177MPD1    H7 2707   3.511   4.177  10.241  1.7780  0.6010  0.4263
  178MPD1     C 2708   0.078   1.499   0.330  0.4190  0.0177  0.2005
  178MPD1    C1 2709   0.051   1.374   0.293 -0.4810  0.0162  0.4267
  178MPD1    C2 2710   0.141   1.308   0.216 -0.2556  0.4086  0.4667
  178MPD1    C3 2711   0.242   1.375   0.145 -0.6024 -0.0866 -0.1204
  178MPD1    C4 2712   0.261   1.511   0.175 -0.5634 -0.5705  0.1294
  178MPD1    C5 2713   0.180   1.573   0.266  0.1872 -0.3180 -0.5761
  178MPD1     H 2714   0.116   1.205   0.196  2.0955 -0.3839  1.6780
  178MPD1    H1 2715   0.341   1.568   0.128 -1.8180  0.9398 -0.1511
  178MPD1    H2 2716   0.014   1.550   0.401  0.5573 -0.1406  0.4390
  178MPD1    H3 2717   0.191   1.679   0.287 -1.0045 -0.7064  1.9781
  178MPD1     N 2718   0.335   1.314   0.051  0.6895  0.7485  0.4264
  178MPD1    H5 2719   0.401   1.380   0.013  2.0936 -1.4999 -0.9914
  178MPD1    N1 2720   4.685   1.303   0.368 -0.4922  0.1496 -0.5847
  178MPD1    H6 2721   4.599   1.356   0.380 -1.7313 -1.3859 -2.8086
  178MPD1    H7 2722   4.659   1.208   0.341 -0.3353 -0.1289  0.2229
  179MPD1     C 2723   1.067   4.487  16.143 -0.2352  0.3910 -0.1851
  179MPD1    C1 2724   0.942   4.549  16.147  0.9589 -0.6298 -0.2605
  179MPD1    C2 2725   0.833   4.472  16.185  0.2160 -0.7507 -0.9046
  179MPD1    C3 2726   0.843   4.337  16.208  0.7842 -0.5345  0.4039
  179MPD1    C4 2727   0.964   4.281  16.199  0.0575  0.3520  0.2948
  179MPD1    C5 2728   1.074   4.356  16.166 -0.5189  0.3029  0.2237
  179MPD1     H 2729   0.750   4.535  16.214  1.2131 -0.3437  1.0543
  179MPD1    H1 2730   0.981   4.176  16.219 -0.1341 -0.1679 -2.2033
  179MPD1    H2 2731   1.157   4.542  16.118  0.5459  0.3362  2.5234
  179MPD1    H3 2732   1.172   4.310  16.176 -0.4849  0.9860  3.2493
  179MPD1     N 2733   0.731   4.257  16.242 -0.3197 -0.5059  0.1112
  179MPD1    H5 2734   0.746   4.157  16.254 -1.2164 -0.3147  2.8210
  179MPD1    N1 2735   0.949   4.688  16.145 -0.0923  0.8303 -0.2814
  179MPD1    H6 2736   0.860   0.005  16.121  0.3399  1.5628 -0.5814
  179MPD1    H7 2737   1.022   0.003  16.087  0.4099 -0.2222 -0.3806
  180MPD1     C 2738   4.060   0.421  15.573  0.3535  0.4223  0.4653
  180MPD1    C1 2739   4.191   0.454  15.562  0.1684  0.1587  0.6665
  180MPD1    C2 2740   4.253   0.435  15.433 -0.2671  0.2182 -0.3244
  180MPD1    C3 2741   4.189   0.385  15.324  0.3152 -0.0075  0.2999
  180MPD1    C4 2742   4.055   0.351  15.342 -0.1471  0.7877  0.3246
  180MPD1    C5 2743   3.997   0.360  15.465  0.5327  0.4443 -0.2462
  180MPD1     H 2744   4.359   0.456  15.421 -0.1766 -0.1210 -0.1481
  180MPD1    H1 2745   3.996   0.302  15.266  0.5116  2.4779 -1.2860
  180MPD1    H2 2746   4.002   0.425  15.665  0.6934 -1.6535  0.7748
  180MPD1    H3 2747   3.895   0.332  15.488  0.8539 -0.5175  0.0067
  180MPD1     N 2748   4.265   0.355  15.207 -0.2802 -0.0036  0.2075
  180MPD1    H5 2749   4.362   0.382  15.220 -0.3431  0.1281  0.3930
  180MPD1    N1 2750   4.256   0.487  15.679 -0.3003  0.6178  0.1907
  180MPD1    H6 2751   4.194   0.509  15.756  0.9056  0.2556  1.2681
  180MPD1    H7 2752   4.316   0.567  15.660  1.2974 -0.5722  0.2842
  181MPD1     C 2753   1.808   2.279  10.331 -0.0523 -0.3624 -0.5165
  181MPD1    C1 2754   1.819   2.416  10.317  0.4526 -0.3912  0.2870
  181MPD1    C2 2755   1.921   2.470  10.246 -0.1034 -0.1699 -0.1243
  181MPD1    C3 2756   2.012   2.384  10.190 -0.1558  0.2307  0.6894
  181MPD1    C4 2757   2.008   2.250  10.213 -0.1988 -0.2257 -0.1693
  181MPD1    C5 2758   1.907   2.201  10.291  0.7417 -0.1640  0.3091
  181MPD1     H 2759   1.926   2.577  10.227 -2.3143 -0.4007 -2.0837
  181MPD1    H1 2760   2.083   2.189  10.163 -0.1759 -0.2538 -0.1007
  181MPD1    H2 2761   1.719   2.240  10.380 -0.4645 -0.4760 -1.3546
  181MPD1    H3 2762   1.913   2.098  10.326  1.8336 -0.3877 -0.5550
  181MPD1     N 2763   2.119   2.429  10.109  0.5286 -0.0563  0.1913
  181MPD1    H5 2764   2.199   2.372  10.086  0.1425 -1.0223  1.2468
  181MPD1    N1 2765   1.704   2.483  10.359 -0.7450  0.1258 -0.4044
  181MPD1    H6 2766   1.655   2.432  10.433  1.4758  0.6518  1.4187
  181MPD1    H7 2767   1.716   2.580  10.388 -1.6839  0.7339 -2.0681
  182MPD1     C 2768   3.722   0.693   1.958 -0.4573 -0.2335  0.0224
  182MPD1    C1 2769   3.614   0.695   2.052 -0.3470  1.0592 -0.5998
  182MPD1    C2 2770   3.497   0.765   2.026  0.3935  0.1868 -0.8812
  182MPD1    C3 2771   3.473   0.811   1.894 -1.1942 -0.4148  0.1247
  182MPD1    C4 2772   3.580   0.812   1.803 -0.1995  0.3131 -0.8346
  182MPD1    C5 2773   3.702   0.750   1.835  0.4342 -0.2418  0.3447
  182MPD1     H 2774   3.416   0.770   2.097  1.2334  0.0583  0.0840
  182MPD1    H1 2775   3.581   0.846   1.701 -1.8596 -2.5357 -1.7953
  182MPD1    H2 2776   3.818   0.652   1.984  0.4343  0.5305 -2.0883
  182MPD1    H3 2777   3.783   0.745   1.763 -0.1191  0.7120 -0.3489
  182MPD1     N 2778   3.350   0.874   1.854 -0.2240  0.1956  0.3433
  182MPD1    H5 2779   3.339   0.899   1.757  0.2714 -0.5835  0.0788
  182MPD1    N1 2780   3.640   0.659   2.189  0.8893 -0.0724  0.7335
  182MPD1    H6 2781   3.558   0.621   2.236  0.1791  0.1944 -0.2920
  182MPD1    H7 2782   3.712   0.587   2.196  2.7016  1.7041  0.5290
  183MPD1     C 2783   2.911   0.639   8.912 -0.2774 -0.9764 -0.1407
  183MPD1    C1 2784   2.878   0.753   8.844  0.1486 -0.8182 -0.1891
  183MPD1    C2 2785   2.916   0.866   8.907  0.7562  0.1544  0.0436
  183MPD1    C3 2786   3.004   0.859   9.014  0.3377  0.2569 -0.6425
  183MPD1    C4 2787   3.039   0.735   9.073 -0.1830 -0.0287 -0.1343
  183MPD1    C5 2788   2.996   0.626   9.016  0.5059  0.0816  0.4389
  183MPD1     H 2789   2.882   0.964   8.876 -0.3525 -0.6433 -1.2647
  183MPD1    H1 2790   3.115   0.724   9.150  1.4808 -0.5201 -1.8484
  183MPD1    H2 2791   2.866   0.547   8.879 -2.2791 -0.1310  0.1992
  183MPD1    H3 2792   3.010   0.526   9.055  2.2885 -1.6422 -4.7205
  183MPD1     N 2793   3.043   0.986   9.065  0.5195 -0.1944  0.1678
  183MPD1    H5 2794   3.001   1.069   9.024 -3.1759 -0.1723  3.9836
  183MPD1    N1 2795   2.779   0.753   8.746  0.1754 -0.0300 -0.7117
  183MPD1    H6 2796   2.771   0.835   8.686  0.6322  1.5256  1.3567
  183MPD1    H7 2797   2.766   0.664   8.698  1.6035 -0.2343 -0.7048
  184MPD1     C 2798   2.156   1.123  10.139  0.0893  0.1798  0.9245
  184MPD1    C1 2799   2.040   1.067  10.176  1.0421  0.4738  0.2722
  184MPD1    C2 2800   2.057   0.934  10.214 -1.0056  0.0912  0.1421
  184MPD1    C3 2801   2.163   0.853  10.193 -0.5573 -0.4946 -0.4768
  184MPD1    C4 2802   2.274   0.914  10.147 -0.2818  0.0570  0.0698
  184MPD1    C5 2803   2.264   1.048  10.114 -0.2224 -0.2008 -0.0548
  184MPD1     H 2804   1.961   0.890  10.241 -0.3176 -1.1327  0.5792
  184MPD1    H1 2805   2.364   0.860  10.120 -1.0773 -1.6054  0.7676
  184MPD1    H2 2806   2.167   1.228  10.116  1.1093 -0.0310  0.4453
  184MPD1    H3 2807   2.350   1.100  10.074 -0.1450  0.1728  0.5972
  184MPD1     N 2808   2.172   0.716  10.222 -0.4999  0.2447 -0.5988
  184MPD1    H5 2809   2.249   0.661  10.184 -0.7906 -1.0398  0.6893
  184MPD1    N1 2810   1.922   1.147  10.190  0.0394  0.1767 -0.0853
  184MPD1    H6 2811   1.916   1.218  10.117  0.7771  0.4616  0.1298
  184MPD1    H7 2812   1.835   1.097  10.204  1.0428 -1.5328  0.1221
  185MPD1     C 2813   1.734   4.464  10.124  0.0197 -0.4463  0.1940
  185MPD1    C1 2814   1.670   4.586  10.115  0.2011 -0.5004 -0.2304
  185MPD1    C2 2815   1.747   4.691  10.160 -0.4167 -0.6589  1.2963
  185MPD1    C3 2816   1.879   4.681  10.204  0.0519 -0.5917  0.8104
  185MPD1    C4 2817   1.943   4.556  10.205  0.3087 -0.0814 -0.4816
  185MPD1    C5 2818   1.863   4.451  10.167  0.4034  0.2412 -0.3828
  185MPD1     H 2819   1.701   0.064  10.161  2.0151  0.5172  0.1877
  185MPD1    H1 2820   2.047   4.546  10.237  0.9807  2.4926 -1.8136
  185MPD1    H2 2821   1.692   4.372  10.085  0.4730 -0.3356 -0.5735
  185MPD1    H3 2822   1.907   4.351  10.167  1.6748  0.8181  3.7235
  185MPD1     N 2823   1.960   0.066  10.249 -0.1518 -0.0426  0.1649
  185MPD1    H5 2824   2.052   0.050  10.289 -0.1189 -2.2775 -0.8408
  185MPD1    N1 2825   1.533   4.588  10.076  0.1916 -0.5556 -0.0568
  185MPD1    H6 2826   1.495   4.532  10.001 -0.5211 -0.1753  0.0178
  185MPD1    H7 2827   1.505   4.686  10.070 -1.0535 -0.8655  0.5979
  186MPD1     C 2828   1.050   3.748  16.373  0.2493  0.4411 -0.0104
  186MPD1    C1 2829   1.149   3.843  16.357  0.5969 -0.0096 -0.2556
  186MPD1    C2 2830   1.119   3.974  16.405 -0.8150 -0.9081 -0.2011
  186MPD1    C3 2831   1.007   4.003  16.480  0.1470  0.0073  0.2542
  186MPD1    C4 2832   0.917   3.899  16.495  0.2825  0.2747 -0.2514
  186MPD1    C5 2833   0.937   3.778  16.443  0.1457  0.5209  0.1754
  186MPD1     H 2834   1.180   4.062  16.384  1.5099 -2.2153  1.0371
  186MPD1    H1 2835   0.843   3.912  16.573 -1.5050  2.2199 -2.3040
  186MPD1    H2 2836   1.057   3.650  16.328 -1.2730  0.7141 -0.8487
  186MPD1    H3 2837   0.868   3.695  16.459  0.4169  0.9096  3.1921
  186MPD1     N 2838   0.979   4.126  16.542 -0.7611  0.3046 -0.2738
  186MPD1    H5 2839   0.894   4.136  16.596 -1.3265  1.4877 -1.3830
  186MPD1    N1 2840   1.269   3.810  16.294 -0.1961 -0.6662  0.0161
  186MPD1    H6 2841   1.257   3.750  16.212 -1.5961 -0.6686  0.2317
  186MPD1    H7 2842   1.315   3.894  16.259 -0.5448 -0.6715 -0.4483
  187MPD1     C 2843   4.445   2.183   0.776 -0.1764  0.7414  0.7643
  187MPD1    C1 2844   4.433   2.046   0.788 -0.6679 -0.3487 -0.0008
  187MPD1    C2 2845   4.475   1.965   0.687 -0.5184  0.1180  0.0628
  187MPD1    C3 2846   4.529   2.020   0.574  0.4432  0.2236 -0.3778
  187MPD1    C4 2847   4.550   2.157   0.567  0.7688  0.6298  0.9249
  187MPD1    C5 2848   4.513   2.240   0.668  0.2733 -0.0173  0.1163
  187MPD1     H 2849   4.458   1.860   0.704  1.7266 -0.3267 -0.4012
  187MPD1    H1 2850   4.588   2.195   0.474  0.2960 -3.3721 -0.9326
  187MPD1    H2 2851   4.411   2.250   0.855  0.7394  0.0436  1.7486
  187MPD1    H3 2852   4.529   2.347   0.670 -0.7594  0.1214  1.3439
  187MPD1     N 2853   4.556   1.946   0.456  0.4084  0.2890 -0.4366
  187MPD1    H5 2854   4.591   2.001   0.378  2.4560  3.0643  2.4657
  187MPD1    N1 2855   4.364   1.997   0.902 -0.3246 -0.1414 -0.4302
  187MPD1    H6 2856   4.380   1.898   0.920  2.0669  0.0619 -1.4613
  187MPD1    H7 2857   4.371   2.050   0.988 -2.6389 -0.5003 -0.0089
  188MPD1     C 2858   4.163   0.971   9.440  0.1853  0.7364  0.0695
  188MPD1    C1 2859   4.290   0.998   9.477  0.2064 -0.2228  0.1282
  188MPD1    C2 2860   4.367   0.900   9.528 -0.3246 -0.1264 -0.1974
  188MPD1    C3 2861   4.321   0.767   9.525 -0.1929  0.4563  0.2488
  188MPD1    C4 2862   4.196   0.736   9.478  0.1945 -0.3119  0.6956
  188MPD1    C5 2863   4.108   0.845   9.447  0.2105 -0.0111 -0.0211
  188MPD1     H 2864   4.465   0.933   9.561 -0.5094  1.3079 -1.0856
  188MPD1    H1 2865   4.150   0.638   9.479 -1.3773  0.4065 -1.4494
  188MPD1    H2 2866   4.099   1.054   9.414 -2.4126 -0.8939  1.2866
  188MPD1    H3 2867   4.005   0.825   9.422 -0.0431  2.0912 -0.6546
  188MPD1     N 2868   4.393   0.658   9.581  0.5337 -0.0351 -0.2956
  188MPD1    H5 2869   4.366   0.563   9.559  0.0221 -0.1571  0.8695
  188MPD1    N1 2870   4.339   1.130   9.486 -0.6554 -0.1973 -0.1491
  188MPD1    H6 2871   4.439   1.140   9.502 -0.8246  2.5113 -0.7091
  188MPD1    H7 2872   4.311   1.183   9.403  1.9321 -0.3297 -1.0899
  189MPD1     C 2873   0.254   2.758   1.409  0.1623 -0.4852  0.4942
  189MPD1    C1 2874   0.246   2.779   1.269 -0.3881 -0.1594  0.2319
  189MPD1    C2 2875   0.349   2.730   1.186  0.1349 -0.1303  0.3408
  189MPD1    C3 2876   0.450   2.650   1.240 -0.0996 -0.1754 -0.6816
  189MPD1    C4 2877   0.453   2.626   1.374  0.5536  0.3299  0.3770
  189MPD1    C5 2878   0.357   2.678   1.454 -0.4088 -0.5271  0.2901
  189MPD1     H 2879   0.348   2.741   1.078  2.5451  2.1520  0.5536
  189MPD1    H1 2880   0.530   2.566   1.422  0.4482  0.1292  0.2990
  189MPD1    H2 2881   0.183   2.789   1.485  0.1287  3.1165 -1.0358
  189MPD1    H3 2882   0.367   2.653   1.559  0.2228  4.5170  1.4238
  189MPD1     N 2883   0.555   2.608   1.151 -0.5193 -0.4231  0.2947
  189MPD1    H5 2884   0.538   2.622   1.051  1.2057  2.2098  0.3896
  189MPD1    N1 2885   0.141   2.865   1.217  0.1629  0.6790 -0.5388
  189MPD1    H6 2886   0.049   2.848   1.257  0.4713  0.7684  0.2081
  189MPD1    H7 2887   0.124   2.834   1.121 -0.4741  0.3149 -0.3065
  190MPD1     C 2888   4.644   0.498  15.745 -0.1712 -0.0224  0.5372
  190MPD1    C1 2889   4.657   0.461  15.876 -0.1380  0.0100 -0.5591
  190MPD1    C2 2890   0.043   0.498  15.948 -0.2099 -0.0053 -0.5411
  190MPD1    C3 2891   0.151   0.563  15.885 -0.2370  0.1076 -0.2728
  190MPD1    C4 2892   0.144   0.589  15.753 -0.0403 -0.1677 -0.2373
  190MPD1    C5 2893   0.023   0.560  15.685 -0.1207  0.1353 -0.1473
  190MPD1     H 2894   0.043   0.482  16.055 -1.3321  1.3510 -0.3308
  190MPD1    H1 2895   0.226   0.631  15.695  0.3836 -1.4957 -0.5992
  190MPD1    H2 2896   4.563   0.472  15.678 -0.2668  0.4786  0.4517
  190MPD1    H3 2897   0.014   0.584  15.579  2.0623  1.4109 -0.0326
  190MPD1     N 2898   0.263   0.608  15.967 -0.1544 -0.1100  0.0869
  190MPD1    H5 2899   0.265   0.579  16.065 -0.9047  0.4796  0.2825
  190MPD1    N1 2900   4.553   0.412  15.947  0.5562 -0.7597  0.6468
  190MPD1    H6 2901   4.570   0.352  16.027 -3.5380  1.5070  3.2124
  190MPD1    H7 2902   4.484   0.358  15.895  1.2393 -0.8959 -0.1273
  191MPD1     C 2903   4.623   2.695  13.529 -0.1539  0.8495 -0.3410
  191MPD1    C1 2904   4.699   2.752  13.430  0.7347  0.0568  0.0182
  191MPD1    C2 2905   4.631   2.813  13.322 -0.1468 -0.0094 -0.3378
  191MPD1    C3 2906   4.493   2.811  13.312 -0.5513  0.2407 -0.1861
  191MPD1    C4 2907   4.417   2.745  13.405  0.6474 -0.0719 -0.0361
  191MPD1    C5 2908   4.485   2.701  13.516  0.0141 -0.2131  0.3713
  191MPD1     H 2909   4.694   2.869  13.253  0.5050  0.7637  0.8871
  191MPD1    H1 2910   4.309   2.740  13.416  0.5292  1.5571 -0.3940
  191MPD1    H2 2911   4.673   2.644  13.610 -3.4640 -0.9996  0.5556
  191MPD1    H3 2912   4.436   2.647  13.596 -1.9334  3.0325  1.3382
  191MPD1     N 2913   4.433   2.874  13.203 -0.4106  0.0987 -0.1620
  191MPD1    H5 2914   4.496   2.909  13.131  0.0841 -3.0472 -1.2738
  191MPD1    N1 2915   0.110   2.773  13.445 -0.5512  0.0900  0.0410
  191MPD1    H6 2916   0.148   2.719  13.523  0.9259  2.2917  0.8606
  191MPD1    H7 2917   0.156   2.744  13.358  1.9120  1.2759  0.9399
  192MPD1     C 2918   3.452   3.096  12.936 -0.1750 -0.3354 -0.2315
  192MPD1    C1 2919   3.530   3.217  12.939 -0.8608 -0.2213 -0.5724
  192MPD1    C2 2920   3.663   3.203  12.944 -0.9991  0.7246  0.1981
  192MPD1    C3 2921   3.724   3.082  12.965  0.1817  0.3024 -0.0596
  192MPD1    C4 2922   3.645   2.972  12.981  0.1178 -0.7950  0.0974
  192MPD1    C5 2923   3.507   2.978  12.958 -0.4855 -0.0186 -0.2220
  192MPD1     H 2924   3.718   3.294  12.925 -1.3143  0.2165 -3.1801
  192MPD1    H1 2925   3.693   2.876  12.997  3.6926  0.8651 -0.8237
  192MPD1    H2 2926   3.345   3.095  12.924 -0.3028 -1.3436  1.0004
  192MPD1    H3 2927   3.443   2.891  12.962 -2.1277  1.2294  1.0849
  192MPD1     N 2928   3.861   3.060  12.976 -0.4867 -0.4698  0.3761
  192MPD1    H5 2929   3.893   2.965  12.992 -0.8570 -0.8354 -1.0382
  192MPD1    N1 2930   3.475   3.341  12.902  0.3211 -0.2149  0.1586
  192MPD1    H6 2931   3.517   3.422  12.948 -2.2308  0.4449  1.3444
  192MPD1    H7 2932   3.376   3.353  12.920 -0.0402 -0.4869 -1.6915
  193MPD1     C 2933   3.924   2.956  16.379  0.6838 -0.0202  0.3693
  193MPD1    C1 2934   3.889   3.023  16.495  0.1625 -0.4026  0.0259
  193MPD1    C2 2935   3.990   3.043  16.586 -0.0122  0.0957  0.1869
  193MPD1    C3 2936   4.122   3.022  16.564 -0.5854  0.1625  0.9615
  193MPD1    C4 2937   4.150   2.956  16.443 -0.0801 -0.2101 -0.4073
  193MPD1    C5 2938   4.054   2.919  16.355  0.6196 -0.0557 -0.5732
  193MPD1     H 2939   3.962   3.106  16.669  1.1800 -0.9909  1.3937
  193MPD1    H1 2940   4.253   2.940  16.412 -0.3931 -1.5380 -0.7386
  193MPD1    H2 2941   3.852   2.936  16.301 -0.3329  1.6179  0.8899
  193MPD1    H3 2942   4.088   2.858  16.272  1.0212 -2.5429  1.4192
  193MPD1     N 2943   4.230   3.048  16.655 -0.1703 -0.3421  0.0134
  193MPD1    H5 2944   4.317   2.998  16.643  0.8161  1.1337  0.9836
  193MPD1    N1 2945   3.761   3.077  16.519  0.5008 -0.2669  0.6582
  193MPD1    H6 2946   3.732   3.081  16.617 -0.9818 -2.5522  0.3082
  193MPD1    H7 2947   3.693   3.032  16.458 -0.1519  2.2213 -0.4305
  194MPD1     C 2948   2.676   0.244  16.504  0.2281 -0.1436  0.0086
  194MPD1    C1 2949   2.598   0.128  16.500  0.8817 -0.2800 -0.6644
  194MPD1    C2 2950   2.572   0.065  16.610 -0.6239  0.4084  0.5888
  194MPD1    C3 2951   2.611   0.121  16.733  0.2086  0.0375  0.0221
  194MPD1    C4 2952   2.685   0.233  16.741  0.3458 -0.2037 -0.2075
  194MPD1    C5 2953   2.713   0.294  16.623  0.2332 -0.7565  0.2788
  194MPD1     H 2954   2.512   4.700  16.603  1.4134 -0.9036  0.1533
  194MPD1    H1 2955   2.736   0.271  16.829 -0.1664 -2.0224  0.8776
  194MPD1    H2 2956   2.700   0.296  16.412 -0.4782  1.7754  0.9083
  194MPD1    H3 2957   2.777   0.382  16.625 -1.6576  0.5744  1.3506
  194MPD1     N 2958   2.588   0.056  16.855 -0.5633  0.2432 -0.1167
  194MPD1    H5 2959   2.624   0.100  16.939 -1.3072 -0.8343  0.7774
  194MPD1    N1 2960   2.548   0.082  16.378 -0.6516 -0.3686 -0.3867
  194MPD1    H6 2961   2.590   0.113  16.291  3.4019 -1.9136  0.9988
  194MPD1    H7 2962   2.539   4.705  16.376 -0.2946 -0.4344  1.1982
  195MPD1     C 2963   0.476   2.076   1.027 -0.1763  0.9884 -0.0891
  195MPD1    C1 2964   0.359   2.024   1.081  0.8232  0.0406 -0.3566
  195MPD1    C2 2965   0.279   1.934   1.011  0.4918  1.0758  0.7752
  195MPD1    C3 2966   0.321   1.900   0.884  0.4334  0.5878 -0.5147
  195MPD1    C4 2967   0.444   1.938   0.829  0.0228  0.0430  0.1604
  195MPD1    C5 2968   0.511   2.034   0.902 -1.1724  0.6854  0.2780
  195MPD1     H 2969   0.192   1.889   1.057  0.7875 -0.2763  0.0199
  195MPD1    H1 2970   0.468   1.909   0.727 -2.2039  0.7805 -0.5677
  195MPD1    H2 2971   0.527   2.161   1.072 -0.6259  0.9956  0.4097
  195MPD1    H3 2972   0.603   2.071   0.858 -1.0453 -2.8422 -2.4953
  195MPD1     N 2973   0.247   1.804   0.818  0.6035 -0.5223  0.2962
  195MPD1    H5 2974   0.284   1.763   0.733  0.9401 -1.7904  1.0567
  195MPD1    N1 2975   0.332   2.044   1.224  0.6918  0.1438 -0.7088
  195MPD1    H6 2976   0.365   2.137   1.250  0.2375  0.2717 -0.5814
  195MPD1    H7 2977   0.231   2.029   1.234  0.6040  0.3739 -1.2271
  196MPD1     C 2978   3.460   0.978   0.951 -0.5522  0.4166  0.2031
  196MPD1    C1 2979   3.472   1.086   0.858 -0.3548 -0.3547 -0.9485
  196MPD1    C2 2980   3.559   1.191   0.897 -0.2263  0.5924 -0.2586
  196MPD1    C3 2981   3.623   1.197   1.021  0.1667  0.6368  0.3705
  196MPD1    C4 2982   3.625   1.080   1.096  0.1679 -0.0191  0.0602
  196MPD1    C5 2983   3.532   0.984   1.068 -0.3329  0.7498  0.4823
  196MPD1     H 2984   3.569   1.275   0.829  1.2715  0.4287 -0.2432
  196MPD1    H1 2985   3.696   1.075   1.177  0.4751 -1.4298 -0.2941
  196MPD1    H2 2986   3.385   0.899   0.948  0.0757 -0.1305 -1.1899
  196MPD1    H3 2987   3.517   0.912   1.148  0.6762 -0.8434 -0.7679
  196MPD1     N 2988   3.703   1.304   1.061  0.0417 -0.0509 -0.3434
  196MPD1    H5 2989   3.771   1.286   1.135  0.1783  1.2145 -0.1621
  196MPD1    N1 2990   3.413   1.075   0.730 -0.2675  0.0553 -0.6293
  196MPD1    H6 2991   3.381   1.165   0.694 -1.0046  0.5174  1.1835
  196MPD1    H7 2992   3.341   1.002   0.726 -0.9302  0.7882 -2.2511
  197MPD1     C 2993   2.912   2.996   0.252 -0.1807 -0.7691  0.0546
  197MPD1    C1 2994   3.043   3.047   0.257 -0.1884  0.3748  0.4081
  197MPD1    C2 2995   3.080   3.132   0.159  0.2003  0.2543 -0.2795
  197MPD1    C3 2996   3.007   3.164   0.055  0.1745 -0.3593 -0.1292
  197MPD1    C4 2997   2.880   3.120   0.047  0.7370 -0.0985 -0.0708
  197MPD1    C5 2998   2.825   3.048   0.156  0.2511  0.5551 -0.2718
  197MPD1     H 2999   3.180   3.173   0.156  0.1391  0.6280  2.8051
  197MPD1    H1 3000   2.825   3.155  17.662 -0.8525  1.8175  1.7040
  197MPD1    H2 3001   2.882   2.934   0.336  1.6892  0.3153  1.5263
  197MPD1    H3 3002   2.722   3.016   0.145  0.6631 -1.1994  0.9371
  197MPD1     N 3003   3.044   3.257  17.655  0.3239  0.3454  0.3933
  197MPD1    H5 3004   2.988   3.255  17.571 -0.2271 -0.2007  0.7727
  197MPD1    N1 3005   3.121   3.017   0.369 -0.2295 -0.4201  0.3585
  197MPD1    H6 3006   3.122   2.921   0.402 -0.5244  0.2220  2.2429
  197MPD1    H7 3007   3.218   3.040   0.348 -0.5816  1.7788  1.0970
  198MPD1     C 3008   0.102   1.581  16.635  0.0741  0.1065 -0.0441
  198MPD1    C1 3009   0.179   1.658  16.729 -0.2607 -0.7542 -1.0142
  198MPD1    C2 3010   0.255   1.756  16.669  0.0421 -0.1005 -0.3604
  198MPD1    C3 3011   0.255   1.779  16.533  0.3749 -0.2375  0.1093
  198MPD1    C4 3012   0.172   1.711  16.451  0.2300  0.1245  0.1642
  198MPD1    C5 3013   0.107   1.601  16.501 -0.2896  0.8955 -0.0658
  198MPD1     H 3014   0.313   1.823  16.731 -3.0832 -0.0738  2.5472
  198MPD1    H1 3015   0.167   1.739  16.346  2.6107  0.2242  0.0765
  198MPD1    H2 3016   0.048   1.495  16.672 -0.9733  1.3624  1.3664
  198MPD1    H3 3017   0.036   1.544  16.444  2.5167 -1.8699 -0.7756
  198MPD1     N 3018   0.337   1.888  16.492 -0.3181 -0.0848 -0.1657
  198MPD1    H5 3019   0.398   1.935  16.558  1.3372 -2.2720 -0.1910
  198MPD1    N1 3020   0.191   1.616  16.865  0.9525 -0.2450  0.3166
  198MPD1    H6 3021   0.227   1.685  16.930 -0.4643  0.3528  0.4859
  198MPD1    H7 3022   0.094   1.601  16.895  0.7211 -0.6766 -0.6326
  199MPD1     C 3023   1.873   1.815  10.105 -0.1515 -0.2165  0.6700
  199MPD1    C1 3024   1.985   1.847  10.031  0.1056  0.2755  0.0357
  199MPD1    C2 3025   2.012   1.977   9.990  0.4812  0.0084 -1.0304
  199MPD1    C3 3026   1.906   2.066   9.994 -0.3974  0.2799  0.7813
  199MPD1    C4 3027   1.788   2.028  10.056 -0.7790 -0.3079 -0.7162
  199MPD1    C5 3028   1.770   1.905  10.109  1.0693  0.1787 -0.7715
  199MPD1     H 3029   2.105   1.991   9.937 -0.4847  0.4567 -2.5859
  199MPD1    H1 3030   1.703   2.096  10.056  0.2460  0.9587  1.8831
  199MPD1    H2 3031   1.865   1.719  10.155 -0.6724 -0.8521 -0.6265
  199MPD1    H3 3032   1.675   1.880  10.154  0.5483 -0.2826 -2.1046
  199MPD1     N 3033   1.901   2.190   9.926 -0.1247 -0.2808 -0.1457
  199MPD1    H5 3034   1.816   2.242   9.946 -0.1679 -0.6004  0.4839
  199MPD1    N1 3035   2.087   1.749  10.026 -0.1974 -0.6088 -0.1809
  199MPD1    H6 3036   2.043   1.657  10.026  0.7918 -1.0750 -1.2800
  199MPD1    H7 3037   2.160   1.761   9.956  0.8704  0.2877  1.0877
  200MPD1     C 3038   1.113   3.019  15.264 -0.7312 -0.2117 -0.1484
  200MPD1    C1 3039   1.205   3.125  15.281 -0.2129 -0.8675  0.3287
  200MPD1    C2 3040   1.277   3.156  15.168 -0.5679 -0.3141 -0.2701
  200MPD1    C3 3041   1.289   3.073  15.064 -0.2256  0.6208  0.2318
  200MPD1    C4 3042   1.200   2.972  15.051  0.6490 -0.0181  0.6259
  200MPD1    C5 3043   1.103   2.949  15.147  0.0010  0.8800 -0.4238
  200MPD1     H 3044   1.341   3.242  15.179 -0.6253 -0.2558 -0.3989
  200MPD1    H1 3045   1.196   2.917  14.958  2.0702 -1.9353  1.6837
  200MPD1    H2 3046   1.041   2.989  15.339  1.2561  1.3111  2.3363
  200MPD1    H3 3047   1.036   2.865  15.137 -0.3208  1.1728 -0.7158
  200MPD1     N 3048   1.382   3.120  14.965  0.7295  0.1455  0.0168
  200MPD1    H5 3049   1.444   3.192  14.999 -1.3175  2.0643 -0.2944
  200MPD1    N1 3050   1.190   3.204  15.395  0.4770  0.1292 -0.0550
  200MPD1    H6 3051   1.264   3.271  15.417 -0.1522  1.2334 -1.3040
  200MPD1    H7 3052   1.172   3.147  15.478 -0.5223  2.5537  1.3905
  201MPD1     C 3053   3.311   2.467  13.833  0.1439  0.1523 -0.1217
  201MPD1    C1 3054   3.427   2.518  13.876 -0.5510 -0.3339 -0.6660
  201MPD1    C2 3055   3.549   2.449  13.875  0.6662  1.1081 -0.2914
  201MPD1    C3 3056   3.559   2.330  13.809 -0.1661  0.3972  0.1923
  201MPD1    C4 3057   3.436   2.280  13.758  0.6830 -0.2245  0.1329
  201MPD1    C5 3058   3.317   2.351  13.769 -0.0307  0.0694  0.4377
  201MPD1     H 3059   3.641   2.486  13.918  1.1026 -2.5503  1.8359
  201MPD1    H1 3060   3.431   2.185  13.706 -1.6619  0.5095 -0.9758
  201MPD1    H2 3061   3.215   2.516  13.842 -1.2966 -2.4498 -1.6357
  201MPD1    H3 3062   3.225   2.304  13.736  0.6661 -0.6185 -0.5263
  201MPD1     N 3063   3.684   2.260  13.804 -0.1825 -0.7990 -0.4208
  201MPD1    H5 3064   3.769   2.304  13.840 -0.4986 -0.7880  0.3276
  201MPD1    N1 3065   3.425   2.633  13.964 -0.0567 -0.2271  0.4560
  201MPD1    H6 3066   3.505   2.691  13.939 -1.3633  1.7649  0.8908
  201MPD1    H7 3067   3.337   2.681  13.948  0.3879  0.6627  0.6418
  202MPD1     C 3068   3.394   0.319   9.207  0.1608  0.5924 -0.3463
  202MPD1    C1 3069   3.514   0.255   9.231 -0.4120 -0.0306 -0.4991
  202MPD1    C2 3070   3.605   0.318   9.309 -0.9194  0.1898 -0.0745
  202MPD1    C3 3071   3.572   0.427   9.386 -0.4031 -0.7106  0.4171
  202MPD1    C4 3072   3.449   0.486   9.371 -0.4785 -0.1497  0.2470
  202MPD1    C5 3073   3.365   0.434   9.278 -0.1475 -0.0253  0.1548
  202MPD1     H 3074   3.703   0.274   9.320 -1.2934 -0.4824  0.5553
  202MPD1    H1 3075   3.414   0.565   9.436  2.6827 -0.6263  2.5871
  202MPD1    H2 3076   3.323   0.283   9.133  2.7674 -0.6000 -2.2798
  202MPD1    H3 3077   3.277   0.494   9.259  0.0156 -0.4655 -2.0843
  202MPD1     N 3078   3.660   0.493   9.475  0.3457 -1.0003  0.1891
  202MPD1    H5 3079   3.643   0.583   9.519 -0.8575 -2.0777  1.9089
  202MPD1    N1 3080   3.562   0.163   9.133  0.3520 -0.4939  0.5851
  202MPD1    H6 3081   3.489   0.098   9.103 -2.3778  1.3707  3.0759
  202MPD1    H7 3082   3.632   0.101   9.174  1.0738 -0.4092 -0.5426
  203MPD1     C 3083   2.357   3.305  12.491 -0.2844 -0.4176 -0.0219
  203MPD1    C1 3084   2.439   3.251  12.400 -0.1532  0.4320 -0.4720
  203MPD1    C2 3085   2.473   3.120  12.429 -0.0956  0.7899  0.4549
  203MPD1    C3 3086   2.429   3.047  12.540 -0.1274 -0.1612 -0.8261
  203MPD1    C4 3087   2.329   3.107  12.620 -0.2297  0.1979  0.2127
  203MPD1    C5 3088   2.292   3.237  12.592  0.0627 -0.5845 -0.1522
  203MPD1     H 3089   2.544   3.073  12.361  0.7575  0.8167  1.3219
  203MPD1    H1 3090   2.286   3.057  12.706  0.4030 -0.6504  0.0378
  203MPD1    H2 3091   2.335   3.411  12.491  0.5507 -0.2492 -0.5892
  203MPD1    H3 3092   2.230   3.294  12.660 -0.3861  0.8655 -1.7949
  203MPD1     N 3093   2.480   2.916  12.558 -0.7884 -0.0304 -0.3193
  203MPD1    H5 3094   2.562   2.879  12.512 -1.5815 -2.0172 -0.1345
  203MPD1    N1 3095   2.516   3.338  12.315  0.1547 -0.1526 -0.4272
  203MPD1    H6 3096   2.457   3.415  12.286  0.0891 -0.7088 -1.7815
  203MPD1    H7 3097   2.538   3.279  12.234 -2.0292 -0.6101 -0.6950
  204MPD1     C 3098   0.850   2.708   0.257 -0.6923 -0.4996  0.4438
  204MPD1    C1 3099   0.921   2.599   0.295 -0.2293  0.0525  0.5471
  204MPD1    C2 3100   1.026   2.567   0.203  0.2645  0.1898 -0.0041
  204MPD1    C3 3101   1.075   2.653   0.104  0.6736  0.0231 -0.5530
  204MPD1    C4 3102   1.003   2.769   0.086  0.0985  0.8149  0.1445
  204MPD1    C5 3103   0.889   2.791   0.157 -0.0209  0.0102 -0.2959
  204MPD1     H 3104   1.074   2.470   0.209 -1.9668 -0.8052  1.7354
  204MPD1    H1 3105   1.032   2.846   0.014  0.0025 -0.7695 -1.5788
  204MPD1    H2 3106   0.752   2.725   0.301 -1.0112 -0.5577 -0.2371
  204MPD1    H3 3107   0.837   2.883   0.135 -1.5592 -1.4442 -2.7088
  204MPD1     N 3108   1.196   2.614   0.028  0.0094 -0.1097 -0.1725
  204MPD1    H5 3109   1.232   2.520   0.030 -1.9455 -0.8365  0.9835
  204MPD1    N1 3110   0.876   2.512   0.394  0.4421 -0.2086 -0.3958
  204MPD1    H6 3111   0.843   2.563   0.476  1.3493  0.8719 -0.6973
  204MPD1    H7 3112   0.952   2.450   0.424  0.9623  0.1604 -0.9368
  205MPD1     C 3113   2.846   2.511  17.470  0.6643 -0.6292 -0.4817
  205MPD1    C1 3114   2.884   2.398  17.542 -0.2386 -0.2596  0.0015
  205MPD1    C2 3115   2.785   2.311  17.594 -0.2111 -0.0223  0.4804
  205MPD1    C3 3116   2.649   2.339  17.584  0.0437 -0.7982 -1.0778
  205MPD1    C4 3117   2.616   2.455  17.521  0.4139 -0.0793  0.7027
  205MPD1    C5 3118   2.712   2.534  17.466  0.3038 -0.1513  0.0061
  205MPD1     H 3119   2.816   2.220  17.645 -0.2763 -1.5710 -2.2088
  205MPD1    H1 3120   2.514   2.491  17.519  0.7452  0.7854 -0.5511
  205MPD1    H2 3121   2.911   2.581  17.419  1.0938 -0.5108  0.2305
  205MPD1    H3 3122   2.677   2.621  17.412 -0.3267 -0.5009 -0.1469
  205MPD1     N 3123   2.550   2.262  17.643 -0.6387  0.2152 -0.0376
  205MPD1    H5 3124   2.454   2.293  17.632 -0.6835  0.7859  1.8579
  205MPD1    N1 3125   3.023   2.376  17.562 -0.5753 -0.8538  0.3048
  205MPD1    H6 3126   3.082   2.391  17.481 -1.8489 -0.7009 -0.5954
  205MPD1    H7 3127   3.034   2.277  17.585 -0.0317 -0.8345  0.1304
  206MPD1     C 3128   1.894   0.389  16.762  0.3286 -0.1202 -0.0280
  206MPD1    C1 3129   1.797   0.485  16.729 -0.1555 -0.5109 -0.8807
  206MPD1    C2 3130   1.793   0.545  16.606 -0.1593 -0.0873  0.0663
  206MPD1    C3 3131   1.896   0.516  16.518 -0.4692  0.8223  0.1261
  206MPD1    C4 3132   1.999   0.423  16.553 -0.0099  0.4841 -0.1667
  206MPD1    C5 3133   1.982   0.353  16.669 -0.0676 -0.6771  0.1353
  206MPD1     H 3134   1.701   0.590  16.573  0.1076  1.1516  1.0281
  206MPD1    H1 3135   2.085   0.401  16.492 -0.3300  2.2939 -1.2765
  206MPD1    H2 3136   1.884   0.337  16.856  1.9096 -3.4850 -1.7245
  206MPD1    H3 3137   2.052   0.277  16.703  0.6517 -0.0825 -0.0226
  206MPD1     N 3138   1.900   0.569  16.395  0.0786 -0.1145 -0.2382
  206MPD1    H5 3139   1.971   0.536  16.330  0.7184 -1.0185  0.9141
  206MPD1    N1 3140   1.684   0.501  16.807 -0.1747  0.6454  0.0767
  206MPD1    H6 3141   1.704   0.492  16.907 -0.8733  1.3181  0.2753
  206MPD1    H7 3142   1.644   0.593  16.791 -0.9215  0.1203 -1.0145
  207MPD1     C 3143   0.395   3.036   9.376  0.2089 -0.0539  0.2482
  207MPD1    C1 3144   0.315   2.960   9.456 -0.5337  0.6982 -0.2047
  207MPD1    C2 3145   0.312   2.989   9.591 -0.7449 -1.3249 -0.1947
  207MPD1    C3 3146   0.378   3.103   9.638 -0.9505  0.7463 -0.7211
  207MPD1    C4 3147   0.457   3.182   9.554  0.5577 -0.3782 -0.2837
  207MPD1    C5 3148   0.464   3.147   9.419  0.5376 -0.2726 -0.4413
  207MPD1     H 3149   0.256   2.925   9.659 -0.4830  0.3677  1.6289
  207MPD1    H1 3150   0.519   3.263   9.590  1.1648 -0.9009 -0.1526
  207MPD1    H2 3151   0.408   3.014   9.271  1.5703  1.2049  0.1478
  207MPD1    H3 3152   0.526   3.205   9.353  0.8519  1.0210  0.9914
  207MPD1     N 3153   0.388   3.144   9.774 -0.3909 -0.6045  0.1336
  207MPD1    H5 3154   0.438   3.228   9.799  0.8913 -1.2312 -0.3615
  207MPD1    N1 3155   0.258   2.845   9.405  0.1811  0.2102  0.4284
  207MPD1    H6 3156   0.249   2.840   9.304 -0.5574  0.0995  0.5010
  207MPD1    H7 3157   0.171   2.817   9.451  0.8605  0.4382  1.8733
  208MPD1     C 3158   3.529   1.955   0.742  0.0651 -0.2315 -0.8306
  208MPD1    C1 3159   3.533   1.830   0.806 -0.2369 -0.1829  0.4188
  208MPD1    C2 3160   3.418   1.775   0.859 -0.8408  0.0720 -0.9304
  208MPD1    C3 3161   3.293   1.825   0.820  0.3042  0.0439 -0.4170
  208MPD1    C4 3162   3.290   1.938   0.745 -0.6016 -0.2000  0.0988
  208MPD1    C5 3163   3.406   2.004   0.709 -0.4169  0.1047 -0.0004
  208MPD1     H 3164   3.418   1.679   0.911  1.8004  1.0281  0.7880
  208MPD1    H1 3165   3.200   1.979   0.702  0.7923  2.8074  0.0258
  208MPD1    H2 3166   3.613   2.010   0.701  0.6997 -1.6643 -1.4930
  208MPD1    H3 3167   3.406   2.098   0.655  3.6643 -0.8676 -1.6267
  208MPD1     N 3168   3.180   1.752   0.863  0.0228 -0.0570  0.7591
  208MPD1    H5 3169   3.203   1.669   0.917  2.4091  1.3736  1.9102
  208MPD1    N1 3170   3.653   1.776   0.855  0.0272 -0.3066  0.1557
  208MPD1    H6 3171   3.654   1.674   0.850 -3.4910 -0.4038  1.1143
  208MPD1    H7 3172   3.735   1.819   0.813 -0.9711  1.5019  0.0587
  209MPD1     C 3173   4.453   2.445  11.427 -0.4071 -0.8746 -0.4181
  209MPD1    C1 3174   4.403   2.487  11.306  0.2086 -0.2313  0.5003
  209MPD1    C2 3175   4.472   2.597  11.242 -0.7407  0.4042  0.2689
  209MPD1    C3 3176   4.568   2.668  11.306  0.5823 -0.6840 -0.1195
  209MPD1    C4 3177   4.613   2.634  11.426  0.3107  0.7076  0.0262
  209MPD1    C5 3178   4.557   2.524  11.486  0.3394  0.1926  0.1524
  209MPD1     H 3179   4.464   2.629  11.139  0.1585  2.1438  0.7412
  209MPD1    H1 3180   4.693   2.676  11.486 -0.3071  0.7099  0.8496
  209MPD1    H2 3181   4.422   2.356  11.480  1.9450 -1.9649 -0.8870
  209MPD1    H3 3182   4.595   2.502  11.585 -0.5577 -0.6133  0.3324
  209MPD1     N 3183   4.634   2.775  11.236  0.0415 -0.3246  0.0773
  209MPD1    H5 3184   4.596   2.794  11.144  2.3031  1.9095 -0.3640
  209MPD1    N1 3185   4.327   2.397  11.231  0.1109  0.2335 -0.1385
  209MPD1    H6 3186   4.285   2.437  11.148 -1.4617  1.3247  1.1863
  209MPD1    H7 3187   4.257   2.352  11.290  0.5123  0.8514  0.8127
  210MPD1     C 3188   0.160   3.663  11.634 -0.0375 -0.0593 -0.2609
  210MPD1    C1 3189   0.240   3.637  11.524 -0.3507  0.4905 -0.2576
  210MPD1    C2 3190   0.203   3.540  11.432  0.8931  0.9285 -0.2751
  210MPD1    C3 3191   0.098   3.460  11.459 -0.4269 -0.5232  0.3274
  210MPD1    C4 3192   0.021   3.483  11.572 -0.1123 -0.5047  0.1496
  210MPD1    C5 3193   0.053   3.585  11.663  0.2474 -0.1455  0.6188
  210MPD1     H 3194   0.251   3.518  11.337 -0.6656 -2.2359 -0.3479
  210MPD1    H1 3195   4.662   3.418  11.593 -0.2618 -0.7014 -1.0449
  210MPD1    H2 3196   0.182   3.737  11.710 -0.7233  2.1398 -2.1928
  210MPD1    H3 3197   4.723   3.612  11.752  1.2055  0.6719  0.9578
  210MPD1     N 3198   0.055   3.354  11.373  0.7955 -0.4120  0.3159
  210MPD1    H5 3199   4.693   3.307  11.395  1.8804 -1.7177  1.8410
  210MPD1    N1 3200   0.364   3.705  11.504 -0.1346  0.0048  0.1248
  210MPD1    H6 3201   0.442   3.649  11.470 -0.6330 -2.1172  2.4200
  210MPD1    H7 3202   0.396   3.726  11.599 -1.1138 -1.8080  0.8624
  211MPD1     C 3203   3.332   2.159  17.420  0.4726  0.7274  0.2062
  211MPD1    C1 3204   3.295   2.245  17.322 -0.8100 -0.5655  0.8389
  211MPD1    C2 3205   3.165   2.249  17.293  0.0682 -0.1767 -0.0506
  211MPD1    C3 3206   3.073   2.159  17.339  0.5740 -0.4031  0.5182
  211MPD1    C4 3207   3.115   2.070  17.434 -0.3192  0.7071 -0.1554
  211MPD1    C5 3208   3.244   2.067  17.472  0.3222  0.1966  0.0988
  211MPD1     H 3209   3.140   2.319  17.214 -1.8652  0.2917  0.9842
  211MPD1    H1 3210   3.053   2.002  17.491 -0.3511  1.4463  0.7155
  211MPD1    H2 3211   3.435   2.153  17.450  0.2625 -1.1282  0.5674
  211MPD1    H3 3212   3.277   1.997  17.547  1.2553 -0.7003 -1.1471
  211MPD1     N 3213   2.938   2.165  17.298  0.2204 -0.0053  0.2880
  211MPD1    H5 3214   2.921   2.246  17.239  2.6237  0.2651 -0.0433
  211MPD1    N1 3215   3.383   2.339  17.267 -0.1960  0.1128  0.3724
  211MPD1    H6 3216   3.475   2.298  17.256 -0.4443 -0.7734  1.6802
  211MPD1    H7 3217   3.352   2.375  17.177 -0.6403 -0.5606  0.2573
  212MPD1     C 3218   1.908   0.614  17.058  0.1797  0.0989 -0.1339
  212MPD1    C1 3219   1.778   0.651  17.074  0.6735 -0.3979  0.5192
  212MPD1    C2 3220   1.704   0.568  17.151 -0.1308  0.5026 -0.3243
  212MPD1    C3 3221   1.753   0.452  17.209 -0.3335 -0.0928  0.3992
  212MPD1    C4 3222   1.882   0.416  17.190 -0.0736  0.0893 -0.5211
  212MPD1    C5 3223   1.956   0.492  17.103 -0.3559 -0.7772 -0.2818
  212MPD1     H 3224   1.597   0.585  17.162  0.1875  1.7534  0.7738
  212MPD1    H1 3225   1.921   0.331  17.246 -3.4904 -1.0662  0.1296
  212MPD1    H2 3226   1.979   0.683  17.014 -0.3860 -0.1990 -1.5279
  212MPD1    H3 3227   2.060   0.470  17.079 -0.3765 -0.3737 -0.7347
  212MPD1     N 3228   1.667   0.368  17.287 -0.4759 -0.4618  0.2990
  212MPD1    H5 3229   1.713   0.279  17.304  2.3143  0.9322  0.1437
  212MPD1    N1 3230   1.726   0.765  17.010 -0.2447  0.5912 -0.0553
  212MPD1    H6 3231   1.801   0.825  16.979 -0.8545 -0.7307 -4.0266
  212MPD1    H7 3232   1.675   0.816  17.082 -0.4742  1.0857 -0.5747
  213MPD1     C 3233   4.334   1.847  16.447  0.7951 -0.4636  0.7164
  213MPD1    C1 3234   4.252   1.773  16.367  0.2578  0.4112 -0.4680
  213MPD1    C2 3235   4.293   1.771  16.229 -0.4277 -0.1895 -0.4442
  213MPD1    C3 3236   4.426   1.779  16.201  0.4659 -0.2832 -0.8656
  213MPD1    C4 3237   4.515   1.817  16.298 -0.1307 -0.6912 -0.0166
  213MPD1    C5 3238   4.467   1.855  16.421  0.2595 -0.0219 -0.2643
  213MPD1     H 3239   4.231   1.741  16.146 -2.7117  1.7584  0.5736
  213MPD1    H1 3240   4.620   1.831  16.277  0.0601  0.8314  1.8732
  213MPD1    H2 3241   4.289   1.881  16.540 -2.1576 -0.5991 -0.6508
  213MPD1    H3 3242   4.533   1.900  16.493  0.5914  1.1351 -1.2878
  213MPD1     N 3243   4.462   1.745  16.072  0.8249 -0.0247  0.1520
  213MPD1    H5 3244   4.385   1.701  16.022  0.6887 -0.4859  0.7624
  213MPD1    N1 3245   4.114   1.769  16.403 -0.8251  0.0409 -0.7897
  213MPD1    H6 3246   4.070   1.693  16.351 -0.4296  0.1981 -1.3503
  213MPD1    H7 3247   4.098   1.746  16.501 -0.1519  0.1457 -0.6565
  214MPD1     C 3248   4.202   0.961  16.037  0.2530  0.3981  0.7870
  214MPD1    C1 3249   4.246   0.963  15.909 -0.1278  0.3063 -0.3429
  214MPD1    C2 3250   4.313   1.081  15.882 -0.4501  0.1158 -0.0025
  214MPD1    C3 3251   4.372   1.157  15.971  0.6632 -0.9671 -0.2996
  214MPD1    C4 3252   4.353   1.132  16.102  0.5563  1.0424 -0.0213
  214MPD1    C5 3253   4.253   1.047  16.129  0.2984  0.2782  0.2155
  214MPD1     H 3254   4.318   1.108  15.777 -1.5789 -0.0374 -0.0975
  214MPD1    H1 3255   4.386   1.198  16.182  2.0848 -1.4418  1.4005
  214MPD1    H2 3256   4.122   0.894  16.068  1.1532 -0.9494  0.2209
  214MPD1    H3 3257   4.214   1.042  16.230  2.2449  1.5557  1.0263
  214MPD1     N 3258   4.433   1.278  15.936 -0.1806 -0.1687  0.0220
  214MPD1    H5 3259   4.476   1.326  16.014  1.1217  1.0038 -1.4239
  214MPD1    N1 3260   4.175   0.878  15.821  0.3925  0.2508  0.3073
  214MPD1    H6 3261   4.229   0.852  15.739 -0.3090 -1.7215  0.4763
  214MPD1    H7 3262   4.143   0.787  15.854 -0.2399 -0.1645 -1.4170
  215MPD1     C 3263   3.527   2.587  11.139 -0.3217  0.1286  0.4256
  215MPD1    C1 3264   3.623   2.634  11.050  0.3241 -0.1766 -0.3036
  215MPD1    C2 3265   3.751   2.647  11.096  0.0968 -0.3427 -0.0178
  215MPD1    C3 3266   3.787   2.620  11.225  0.1822 -0.0446 -0.3225
  215MPD1    C4 3267   3.685   2.580  11.316 -0.5839 -0.8135  0.4270
  215MPD1    C5 3268   3.559   2.566  11.270 -0.2548 -0.3968 -0.0523
  215MPD1     H 3269   3.840   2.661  11.036  1.1687 -0.6874  1.5101
  215MPD1    H1 3270   3.702   2.553  11.420  1.5745 -2.4943 -0.3696
  215MPD1    H2 3271   3.432   2.568  11.091 -1.0975  0.0115  2.0362
  215MPD1    H3 3272   3.485   2.538  11.345 -2.8760 -0.7022 -2.7671
  215MPD1     N 3273   3.922   2.641  11.260  0.1474 -0.4761  0.0402
  215MPD1    H5 3274   3.985   2.674  11.188  1.0058 -0.4094  0.8334
  215MPD1    N1 3275   3.595   2.629  10.915  0.5879 -0.3253  0.6244
  215MPD1    H6 3276   3.630   2.712  10.868  2.7908 -1.3428  0.4702
  215MPD1    H7 3277   3.494   2.635  10.906  0.6888 -0.5763 -0.6187
  216MPD1     C 3278   1.686   3.911  17.244  0.1868  1.0541 -0.4416
  216MPD1    C1 3279   1.626   3.858  17.357 -0.1868 -0.3622  0.4150
  216MPD1    C2 3280   1.697   3.804  17.464 -0.4629 -0.1812  0.3510
  216MPD1    C3 3281   1.839   3.795  17.445 -0.0352 -0.1906 -1.0950
  216MPD1    C4 3282   1.898   3.852  17.340  0.1320  0.1453 -0.1528
  216MPD1    C5 3283   1.819   3.901  17.244 -0.3518  0.2753  0.5649
  216MPD1     H 3284   1.643   3.764  17.549 -0.8245 -0.5502 -0.0483
  216MPD1    H1 3285   2.004   3.844  17.320  0.1486 -0.2369  0.0840
  216MPD1    H2 3286   1.639   3.954  17.157  0.3507 -0.9188 -1.5236
  216MPD1    H3 3287   1.872   3.933  17.155 -1.3448  0.8970  0.1985
  216MPD1     N 3288   1.907   3.740  17.553  0.9217 -0.2213  0.1813
  216MPD1    H5 3289   1.854   3.700  17.629  0.4387 -0.4719 -0.2877
  216MPD1    N1 3290   1.491   3.879  17.366 -0.5344 -0.1806  0.2902
  216MPD1    H6 3291   1.448   3.799  17.412  1.1830 -1.6771 -0.7131
  216MPD1    H7 3292   1.446   3.893  17.276 -0.6633  0.4850  0.4598
  217MPD1     C 3293   1.559   0.554   8.803 -0.0648 -0.1065 -0.0220
  217MPD1    C1 3294   1.522   0.595   8.927  0.0787  0.0197 -0.3285
  217MPD1    C2 3295   1.616   0.679   8.996  0.2224 -0.0044  0.3830
  217MPD1    C3 3296   1.745   0.710   8.945  0.5683  0.4846 -0.4878
  217MPD1    C4 3297   1.776   0.664   8.816  0.0166  0.6334 -0.4729
  217MPD1    C5 3298   1.675   0.597   8.750 -0.1410 -0.0035  0.0271
  217MPD1     H 3299   1.584   0.708   9.096  0.0205  2.4896 -0.3965
  217MPD1    H1 3300   1.872   0.688   8.772  0.2905  1.2795  0.4645
  217MPD1    H2 3301   1.493   0.502   8.734 -1.6803  0.7682  0.8637
  217MPD1    H3 3302   1.689   0.566   8.647 -1.6102  1.6949 -0.6956
  217MPD1     N 3303   1.840   0.787   9.025 -0.2019 -0.3879 -0.4190
  217MPD1    H5 3304   1.933   0.806   8.988 -0.2264  1.2855  0.4109
  217MPD1    N1 3305   1.393   0.567   8.983 -0.2033  0.2054  0.4436
  217MPD1    H6 3306   1.401   0.559   9.085 -2.9778  0.9554  0.7043
  217MPD1    H7 3307   1.347   0.483   8.951  0.4346 -0.0107  0.0984
  218MPD1     C 3308   4.072   2.595  13.627 -0.9014  0.3413 -0.1435
  218MPD1    C1 3309   4.148   2.480  13.656  0.0382  0.4394 -0.5922
  218MPD1    C2 3310   4.202   2.405  13.553 -0.1344 -1.1202 -0.0200
  218MPD1    C3 3311   4.157   2.419  13.425  0.4163  0.3429  0.2326
  218MPD1    C4 3312   4.066   2.523  13.398 -0.1937 -0.0414 -0.8635
  218MPD1    C5 3313   4.044   2.618  13.495  0.3255 -0.6656  0.7710
  218MPD1     H 3314   4.262   2.318  13.577  1.0420 -0.4200 -0.3886
  218MPD1    H1 3315   4.036   2.550  13.297 -0.2380 -0.7249 -1.0330
  218MPD1    H2 3316   4.039   2.671  13.698  0.4372  0.0729  0.7634
  218MPD1    H3 3317   3.979   2.701  13.471 -2.2713 -2.3536  1.9685
  218MPD1     N 3318   4.208   2.330  13.324  0.2207  0.8721  0.2244
  218MPD1    H5 3319   4.277   2.265  13.359 -1.9729 -2.1104 -0.8848
  218MPD1    N1 3320   4.172   2.431  13.787  0.1173 -0.3273 -0.7272
  218MPD1    H6 3321   4.220   2.341  13.783  0.3690 -0.1875 -0.7841
  218MPD1    H7 3322   4.229   2.496  13.840 -1.0053 -1.4471  1.8769
  219MPD1     C 3323   4.582   2.622  12.472 -0.2900  0.1130  0.4461
  219MPD1    C1 3324   4.671   2.528  12.527  0.4639  0.6561  0.6545
  219MPD1    C2 3325   4.628   2.443  12.624  0.4028 -0.2781  0.3096
  219MPD1    C3 3326   4.493   2.441  12.665  0.2631 -0.4054 -0.2771
  219MPD1    C4 3327   4.400   2.528  12.606 -0.6922 -0.2438  0.2649
  219MPD1    C5 3328   4.451   2.614  12.512 -0.1449  0.5681 -0.8509
  219MPD1     H 3329   4.706   2.382  12.667 -1.5734 -2.6564  0.5461
  219MPD1    H1 3330   4.299   2.531  12.644 -0.3232  0.2695  1.1896
  219MPD1    H2 3331   4.614   2.690  12.394  0.0940  0.0157  0.5205
  219MPD1    H3 3332   4.390   2.697  12.478  1.2426  1.8170 -0.3478
  219MPD1     N 3333   4.435   2.353  12.755  0.2603 -0.5684 -0.1038
  219MPD1    H5 3334   4.339   2.379  12.779  0.1452 -0.7389 -0.3862
  219MPD1    N1 3335   0.085   2.547  12.507 -0.1006 -0.4779 -0.3482
  219MPD1    H6 3336   0.106   2.583  12.414 -4.3249 -0.8073 -1.4578
  219MPD1    H7 3337   0.131   2.457  12.517  4.3895  1.9685  1.1700
  220MPD1     C 3338   4.257   3.142   9.593  0.4867  0.0074 -0.4858
  220MPD1    C1 3339   4.163   3.220   9.665  0.2651  0.5157 -0.1555
  220MPD1    C2 3340   4.148   3.190   9.801  0.0616  0.1235  0.4939
  220MPD1    C3 3341   4.237   3.113   9.872 -0.0170 -0.5490 -0.7123
  220MPD1    C4 3342   4.340   3.051   9.804 -0.1892 -0.0762  0.4647
  220MPD1    C5 3343   4.343   3.059   9.662  0.5315  0.0328  0.0299
  220MPD1     H 3344   4.060   3.231   9.850 -1.3978 -1.4576 -0.7957
  220MPD1    H1 3345   4.411   2.995   9.864  2.0582  0.9587 -1.2255
  220MPD1    H2 3346   4.258   3.137   9.485 -1.5377 -0.8944 -0.4725
  220MPD1    H3 3347   4.418   3.001   9.608  0.6715  1.6740 -1.5441
  220MPD1     N 3348   4.219   3.105  10.008  0.3459  0.1753  0.1237
  220MPD1    H5 3349   4.146   3.158  10.054 -0.4093 -0.3408 -0.4880
  220MPD1    N1 3350   4.079   3.311   9.606 -0.3671 -0.2018 -0.1769
  220MPD1    H6 3351   4.043   3.377   9.675 -1.6843 -1.8323  0.6867
  220MPD1    H7 3352   4.122   3.355   9.525  1.0874 -0.7154  0.3045
  221MPD1     C 3353   1.291   2.017  16.401 -0.3153  0.5320 -0.4278
  221MPD1    C1 3354   1.370   2.122  16.371 -0.4183 -0.2134  0.6855
  221MPD1    C2 3355   1.490   2.119  16.433 -0.2772  0.2077 -0.2806
  221MPD1    C3 3356   1.550   1.996  16.467 -0.5763  0.5096  0.2679
  221MPD1    C4 3357   1.472   1.886  16.456 -0.0410 -0.2538  0.0582
  221MPD1    C5 3358   1.347   1.895  16.418  0.5959 -0.0867 -0.0530
  221MPD1     H 3359   1.544   2.211  16.448 -0.5107 -0.0883  2.3395
  221MPD1    H1 3360   1.503   1.786  16.484  0.7000  0.0989  0.5076
  221MPD1    H2 3361   1.184   2.021  16.379 -0.3508 -0.9056 -0.4996
  221MPD1    H3 3362   1.293   1.801  16.414 -0.7698  0.7345 -1.0831
  221MPD1     N 3363   1.677   1.986  16.535 -0.0864 -0.4332  0.0716
  221MPD1    H5 3364   1.705   1.891  16.560 -0.2884 -0.4000  0.4125
  221MPD1    N1 3365   1.316   2.247  16.338 -0.5572  0.3737 -0.0436
  221MPD1    H6 3366   1.384   2.321  16.323 -0.5388  0.3520 -0.0649
  221MPD1    H7 3367   1.242   2.236  16.269  0.8199 -1.6667 -1.1551
  222MPD1     C 3368   2.101   4.286  17.401 -0.0617 -0.6856 -0.9176
  222MPD1    C1 3369   2.084   4.403  17.471 -0.3077 -0.6689 -0.6149
  222MPD1    C2 3370   1.962   4.420  17.532 -0.5830  1.0809  0.7385
  222MPD1    C3 3371   1.869   4.321  17.544  0.9335 -0.4180  0.4800
  222MPD1    C4 3372   1.888   4.201  17.471 -0.0876 -0.3199  0.8479
  222MPD1    C5 3373   2.002   4.190  17.395  1.1727  0.1659 -0.0272
  222MPD1     H 3374   1.942   4.511  17.587  2.8763  2.9589 -1.0781
  222MPD1    H1 3375   1.821   4.118  17.483  0.9389 -0.9349  2.3781
  222MPD1    H2 3376   2.194   4.268  17.348 -1.9598 -0.6002 -4.2835
  222MPD1    H3 3377   2.026   4.105  17.332 -0.9518  0.8152 -1.7042
  222MPD1     N 3378   1.748   4.341  17.609  0.1227  0.1358  0.2504
  222MPD1    H5 3379   1.685   4.262  17.602 -0.0297  0.3563 -0.8774
  222MPD1    N1 3380   2.170   4.512  17.450  0.2802  0.0152 -0.0935
  222MPD1    H6 3381   2.265   4.483  17.427  0.9372  2.5558 -0.4884
  222MPD1    H7 3382   2.176   4.565  17.537  0.7644  2.1942 -1.4709
  223MPD1     C 3383   1.209   3.880   0.605  0.4650  0.3827  0.2291
  223MPD1    C1 3384   1.138   3.999   0.603  1.0857 -0.0001 -0.4851
  223MPD1    C2 3385   1.172   4.094   0.505  0.1497  0.4692 -0.1896
  223MPD1    C3 3386   1.287   4.083   0.430  0.5678 -0.2233  0.4174
  223MPD1    C4 3387   1.362   3.968   0.440  0.2075 -0.2670 -0.0532
  223MPD1    C5 3388   1.324   3.869   0.530 -0.1609  0.8536  0.0788
  223MPD1     H 3389   1.115   4.186   0.495 -0.2586  0.1586 -0.7012
  223MPD1    H1 3390   1.452   3.940   0.386  1.3964  1.4607  1.0391
  223MPD1    H2 3391   1.190   3.798   0.673  0.8289  2.7669  3.1936
  223MPD1    H3 3392   1.390   3.783   0.538 -0.9489  0.2026 -0.3301
  223MPD1     N 3393   1.311   4.186   0.340 -0.5806 -0.4661  0.2866
  223MPD1    H5 3394   1.249   4.266   0.347  0.8035  0.5586  0.8649
  223MPD1    N1 3395   1.015   4.003   0.674  0.1871 -0.0702  0.1274
  223MPD1    H6 3396   1.018   3.942   0.755  0.3833  1.1622  1.0514
  223MPD1    H7 3397   1.003   4.100   0.703  1.9669 -0.2302  1.3681
  224MPD1     C 3398   1.788   1.639   9.598 -0.2850 -0.5510 -0.0253
  224MPD1    C1 3399   1.851   1.540   9.529 -0.7688 -0.3075  0.1860
  224MPD1    C2 3400   1.984   1.554   9.518 -0.1334 -0.6879 -0.6178
  224MPD1    C3 3401   2.057   1.634   9.602  0.6313 -0.2227  0.2186
  224MPD1    C4 3402   1.991   1.723   9.688  0.0246 -0.1006  0.4237
  224MPD1    C5 3403   1.855   1.726   9.675 -0.2488 -0.0438  0.1183
  224MPD1     H 3404   2.032   1.489   9.446  0.5324 -1.2210  0.3114
  224MPD1    H1 3405   2.035   1.794   9.757  0.9539  1.5913 -1.8976
  224MPD1    H2 3406   1.681   1.650   9.608 -0.1077  1.5985 -0.5644
  224MPD1    H3 3407   1.801   1.800   9.734  1.5061  1.3443 -0.0205
  224MPD1     N 3408   2.199   1.648   9.598  0.3629  0.6745  0.0023
  224MPD1    H5 3409   2.245   1.703   9.670 -1.0621  0.3606  1.1593
  224MPD1    N1 3410   1.774   1.448   9.460  0.0515 -0.2195  0.1936
  224MPD1    H6 3411   1.817   1.356   9.462 -0.6335 -0.5630 -0.7995
  224MPD1    H7 3412   1.686   1.432   9.507 -0.8641  2.2327 -0.6855
  225MPD1     C 3413   4.493   3.423  12.340  0.3330 -0.1691  0.5470
  225MPD1    C1 3414   4.423   3.317  12.304  0.4270  0.1549  0.6330
  225MPD1    C2 3415   4.291   3.304  12.350 -0.1845  0.2300 -0.6347
  225MPD1    C3 3416   4.239   3.396  12.441 -0.0375 -0.2593  0.0733
  225MPD1    C4 3417   4.312   3.503  12.477  0.2550  0.4287  0.2047
  225MPD1    C5 3418   4.442   3.520  12.424 -0.8240  0.5232 -0.2525
  225MPD1     H 3419   4.225   3.224  12.318 -0.0717 -0.2758  0.4271
  225MPD1    H1 3420   4.279   3.573  12.553  1.5608  1.9946 -0.6743
  225MPD1    H2 3421   4.596   3.430  12.308  0.4499  0.9553  1.1686
  225MPD1    H3 3422   4.501   3.601  12.464  0.1831 -0.9589  1.2373
  225MPD1     N 3423   4.110   3.381  12.493 -0.1497  0.4045  0.3208
  225MPD1    H5 3424   4.086   3.443  12.569 -0.1339  0.7308  0.0596
  225MPD1    N1 3425   4.462   3.224  12.206  0.0593  1.0729  0.2720
  225MPD1    H6 3426   4.418   3.133  12.218 -0.4027  1.2627 -0.0034
  225MPD1    H7 3427   4.562   3.211  12.197 -0.5200 -2.7341 -0.7093
  226MPD1     C 3428   1.887   1.166   9.017 -0.6652 -0.0273  0.2960
  226MPD1    C1 3429   1.805   1.281   9.036 -0.0240  1.0675  0.7466
  226MPD1    C2 3430   1.860   1.401   9.085  0.3692 -0.1616 -0.4640
  226MPD1    C3 3431   1.994   1.404   9.116  0.1756 -0.2646 -0.2992
  226MPD1    C4 3432   2.076   1.299   9.106  0.0132  0.1447  0.2351
  226MPD1    C5 3433   2.026   1.187   9.056 -0.6425 -0.7253  0.5398
  226MPD1     H 3434   1.787   1.481   9.090  0.6993  0.0832  0.6267
  226MPD1    H1 3435   2.181   1.304   9.129  0.3545  0.8773 -1.4743
  226MPD1    H2 3436   1.850   1.076   8.970 -0.6937  0.1349  0.0104
  226MPD1    H3 3437   2.091   1.101   9.045  0.8224  0.5507 -0.6238
  226MPD1     N 3438   2.044   1.530   9.153  0.3392 -0.5157 -0.2732
  226MPD1    H5 3439   1.980   1.609   9.156 -0.4474 -1.1427 -0.6120
  226MPD1    N1 3440   1.674   1.278   8.985 -0.0877  0.2441 -0.0265
  226MPD1    H6 3441   1.614   1.338   9.041 -0.4448 -1.1014  1.0044
  226MPD1    H7 3442   1.637   1.186   8.965 -0.7828  0.8012 -1.3117
  227MPD1     C 3443   1.624   2.218   9.508  0.0993  0.4466 -0.6598
  227MPD1    C1 3444   1.613   2.080   9.513 -0.5406 -0.2521  0.0082
  227MPD1    C2 3445   1.727   2.011   9.467 -0.3709  0.1870 -0.3125
  227MPD1    C3 3446   1.843   2.066   9.415 -0.0712 -0.7420 -0.8433
  227MPD1    C4 3447   1.844   2.200   9.411 -0.2827  0.3958 -0.4544
  227MPD1    C5 3448   1.735   2.272   9.457  0.1517 -0.0068  0.1902
  227MPD1     H 3449   1.725   1.902   9.465 -0.1365  0.1645  0.5551
  227MPD1    H1 3450   1.930   2.255   9.374 -1.0550  1.1672 -1.1115
  227MPD1    H2 3451   1.553   2.283   9.558 -0.3883 -0.7429  0.1885
  227MPD1    H3 3452   1.738   2.380   9.465  1.8119 -0.0603  0.2909
  227MPD1     N 3453   1.945   1.969   9.378 -0.2872 -0.7851 -0.0763
  227MPD1    H5 3454   1.910   1.874   9.378  1.3453 -1.3939  0.9244
  227MPD1    N1 3455   1.510   2.013   9.585 -0.0058  0.1224  0.7316
  227MPD1    H6 3456   1.420   2.060   9.593 -0.8079 -1.3921  0.5330
  227MPD1    H7 3457   1.497   1.914   9.566 -2.5293  0.3778  1.0610
  228MPD1     C 3458   1.603   1.117  13.537  0.2287  0.1878 -0.2085
  228MPD1    C1 3459   1.573   1.135  13.407 -0.5261  0.7940 -0.9612
  228MPD1    C2 3460   1.444   1.097  13.365  0.6171 -0.2529  0.3910
  228MPD1    C3 3461   1.353   1.027  13.446 -0.5179  0.9168  0.8095
  228MPD1    C4 3462   1.399   1.002  13.575  0.5735  0.0678 -0.8390
  228MPD1    C5 3463   1.517   1.050  13.616  0.9163 -0.1826  0.1667
  228MPD1     H 3464   1.414   1.119  13.263  0.8616 -0.1562  0.3414
  228MPD1    H1 3465   1.341   0.943  13.645 -0.8887 -0.4020 -2.4495
  228MPD1    H2 3466   1.696   1.141  13.586  0.2583  1.3564 -0.8566
  228MPD1    H3 3467   1.551   1.028  13.717 -1.9560  3.0040  1.8434
  228MPD1     N 3468   1.233   0.975  13.382  0.2054 -0.3067 -0.3429
  228MPD1    H5 3469   1.222   0.984  13.282 -0.3927  0.5183 -0.2060
  228MPD1    N1 3470   1.654   1.203  13.322  0.0433  0.6392  0.2295
  228MPD1    H6 3471   1.637   1.203  13.222 -0.9559  0.4591  0.3966
  228MPD1    H7 3472   1.750   1.176  13.342  0.0565  1.0861  0.7729
  229MPD1     C 3473   0.316   4.479  14.788 -0.8864 -0.4490  0.0434
  229MPD1    C1 3474   0.434   4.446  14.729 -0.1195  0.4667  0.1693
  229MPD1    C2 3475   0.535   4.408  14.809  0.3976 -0.2516 -0.2753
  229MPD1    C3 3476   0.524   4.382  14.948  0.0314 -0.4120  0.3127
  229MPD1    C4 3477   0.392   4.400  14.997 -0.0405  0.4242 -0.1246
  229MPD1    C5 3478   0.296   4.454  14.921 -0.9492 -0.1861 -0.1615
  229MPD1     H 3479   0.637   4.404  14.773  0.6360 -2.0339  0.5941
  229MPD1    H1 3480   0.372   4.383  15.102  0.3484  2.2820  0.2548
  229MPD1    H2 3481   0.231   4.518  14.733  0.9380  1.2628 -1.5953
  229MPD1    H3 3482   0.197   4.478  14.959 -1.3280  0.8454 -1.8002
  229MPD1     N 3483   0.627   4.332  15.031 -0.1993 -0.0179 -0.6704
  229MPD1    H5 3484   0.596   4.304  15.123 -0.3476  0.2002 -0.6523
  229MPD1    N1 3485   0.459   4.477  14.595 -0.6086  0.3675 -0.7107
  229MPD1    H6 3486   0.380   4.467  14.532 -2.3441  1.7027  1.2347
  229MPD1    H7 3487   0.537   4.421  14.561  0.1794 -1.2774  3.8442
  230MPD1     C 3488   0.664   4.387  15.888  0.1436 -0.3269  0.9549
  230MPD1    C1 3489   0.594   4.434  15.777 -0.2777 -0.1980 -0.1361
  230MPD1    C2 3490   0.609   4.376  15.654 -0.1519  0.4161  0.0565
  230MPD1    C3 3491   0.697   4.272  15.636 -0.2095  0.0569 -0.1668
  230MPD1    C4 3492   0.785   4.243  15.740  0.2099 -0.3223  0.5561
  230MPD1    C5 3493   0.760   4.295  15.869  0.2893  0.8200  0.9235
  230MPD1     H 3494   0.548   4.419  15.576  1.9334 -0.7629 -2.1930
  230MPD1    H1 3495   0.862   4.166  15.742  3.0210  2.4583 -0.6846
  230MPD1    H2 3496   0.637   4.412  15.990 -2.6017  1.4794 -0.2129
  230MPD1    H3 3497   0.816   4.248  15.948 -1.0278 -3.2799 -0.5577
  230MPD1     N 3498   0.721   4.227  15.501 -0.3866  0.1725  0.2416
  230MPD1    H5 3499   0.656   4.260  15.431  0.1258 -0.3886 -0.5003
  230MPD1    N1 3500   0.482   4.522  15.800 -0.3733 -0.1859 -0.4325
  230MPD1    H6 3501   0.444   4.563  15.715  0.2948  1.8783  0.2622
  230MPD1    H7 3502   0.516   4.599  15.858  3.5318 -1.2216 -1.3675
  231MPD1     C 3503   3.604   1.831  16.347  0.7578  0.2712 -0.8571
  231MPD1    C1 3504   3.695   1.911  16.282 -0.0876  0.2683 -0.8009
  231MPD1    C2 3505   3.757   1.858  16.166 -0.4105 -0.0202 -0.5253
  231MPD1    C3 3506   3.731   1.732  16.116 -0.2847  0.1251  0.7696
  231MPD1    C4 3507   3.621   1.666  16.172  0.4082 -0.4620  0.5897
  231MPD1    C5 3508   3.566   1.713  16.291 -0.6451 -0.0858 -0.4179
  231MPD1     H 3509   3.841   1.904  16.116 -0.1745  1.2011  0.9937
  231MPD1    H1 3510   3.585   1.579  16.119 -0.8941  0.9930 -0.9139
  231MPD1    H2 3511   3.566   1.861  16.445  0.5160  0.1283 -0.9058
  231MPD1    H3 3512   3.484   1.653  16.327 -0.2725 -0.2854  0.1054
  231MPD1     N 3513   3.800   1.692  16.002 -0.3741  0.0206  0.7736
  231MPD1    H5 3514   3.872   1.756  15.970 -2.2755  0.2432 -2.9842
  231MPD1    N1 3515   3.739   2.029  16.339  0.0651  0.4495  0.1747
  231MPD1    H6 3516   3.748   2.099  16.266  0.7117 -0.3909 -0.5441
  231MPD1    H7 3517   3.663   2.062  16.400 -0.7579  2.3055 -1.8535
  232MPD1     C 3518   1.130   3.158   0.076  0.1315  0.0907  0.4024
  232MPD1    C1 3519   1.092   3.199   0.201 -0.4001 -0.4598 -0.0109
  232MPD1    C2 3520   0.969   3.243   0.224 -0.3694 -0.2056  1.1115
  232MPD1    C3 3521   0.876   3.245   0.123 -0.6327 -0.0415 -0.2649
  232MPD1    C4 3522   0.911   3.204  17.701  0.0523 -0.0970 -0.4584
  232MPD1    C5 3523   1.038   3.164  17.676  0.4000  0.0688  0.1452
  232MPD1     H 3524   0.936   3.281   0.320  0.5136 -1.6338  1.9769
  232MPD1    H1 3525   0.844   3.203  17.616 -2.1652  2.7435  1.2550
  232MPD1    H2 3526   1.232   3.134   0.048  0.2064  0.2306  0.5586
  232MPD1    H3 3527   1.051   3.145  17.570 -2.3855 -0.0157 -0.1776
  232MPD1     N 3528   0.744   3.294   0.152  0.6061  0.0565  0.4025
  232MPD1    H5 3529   0.726   3.333   0.244  1.3415 -1.7750  1.3428
  232MPD1    N1 3530   1.190   3.207   0.301  0.2157  0.2115  0.2970
  232MPD1    H6 3531   1.251   3.126   0.303  0.3443  0.3242  0.9982
  232MPD1    H7 3532   1.163   3.237   0.395 -2.4896  1.1247 -0.7635
  233MPD1     C 3533   2.007   0.420   2.883 -0.3140 -0.8585  0.2523
  233MPD1    C1 3534   2.059   0.293   2.868 -0.6146 -0.0323  0.1499
  233MPD1    C2 3535   2.138   0.274   2.761 -0.4290 -0.1228 -0.1102
  233MPD1    C3 3536   2.179   0.376   2.669  0.2474 -0.5575 -0.7616
  233MPD1    C4 3537   2.122   0.500   2.684  0.1152 -0.2387  0.1204
  233MPD1    C5 3538   2.031   0.514   2.785 -0.9804  0.6240  0.5423
  233MPD1     H 3539   2.175   0.172   2.748  1.5616  0.3085  2.3011
  233MPD1    H1 3540   2.130   0.558   2.593  0.4009 -0.3523  0.0743
  233MPD1    H2 3541   1.947   0.450   2.969  2.8549 -1.4284  2.6678
  233MPD1    H3 3542   1.974   0.606   2.787 -3.2191 -0.7890  0.7081
  233MPD1     N 3543   2.278   0.360   2.564  0.4199 -0.0150  0.0830
  233MPD1    H5 3544   2.278   0.426   2.487  1.5727 -0.5906 -0.4095
  233MPD1    N1 3545   2.047   0.206   2.977  0.2680 -0.1867  0.5238
  233MPD1    H6 3546   1.970   0.221   3.042 -1.5897 -0.5023 -1.6403
  233MPD1    H7 3547   2.029   0.112   2.944 -1.3202 -0.2700  1.6235
  234MPD1     C 3548   3.595   0.265   9.755  0.2646  0.2323  0.5758
  234MPD1    C1 3549   3.565   0.380   9.821  0.4753 -0.1382 -1.0790
  234MPD1    C2 3550   3.437   0.441   9.810 -0.3744 -0.4033 -0.1281
  234MPD1    C3 3551   3.351   0.399   9.709 -0.0954 -1.1393 -0.2941
  234MPD1    C4 3552   3.389   0.287   9.630  0.5907 -0.2693  0.1826
  234MPD1    C5 3553   3.508   0.225   9.653  0.0616 -0.1713  0.1757
  234MPD1     H 3554   3.415   0.527   9.873 -0.2496 -2.2506  2.4397
  234MPD1    H1 3555   3.317   0.253   9.557  2.9588 -0.5531 -2.0197
  234MPD1    H2 3556   3.679   0.201   9.780 -0.9009 -1.4312  0.2662
  234MPD1    H3 3557   3.536   0.140   9.592  1.5691  1.2277 -1.0469
  234MPD1     N 3558   3.236   0.477   9.683  0.3793  0.0051 -0.0923
  234MPD1    H5 3559   3.229   0.563   9.737 -0.0773  1.3566 -2.2727
  234MPD1    N1 3560   3.650   0.419   9.934  0.2730 -0.5942  0.1463
  234MPD1    H6 3561   3.744   0.383   9.923  1.6114  2.2905  2.1356
  234MPD1    H7 3562   3.655   0.518   9.960 -3.7356 -0.5570  0.7909
  235MPD1     C 3563   4.653   2.644   9.371  0.0157  0.5764 -0.0233
  235MPD1    C1 3564   4.614   2.759   9.297 -0.3541 -0.1883  0.5112
  235MPD1    C2 3565   4.626   2.885   9.348 -0.4400 -0.6224  0.1638
  235MPD1    C3 3566   4.667   2.900   9.475  0.6128 -0.7946  0.1649
  235MPD1    C4 3567   4.709   2.788   9.554  0.0123  0.5323  0.5888
  235MPD1    C5 3568   4.703   2.668   9.500 -0.0315  0.1405  0.3063
  235MPD1     H 3569   4.594   2.972   9.290 -2.7154 -2.2614 -1.0409
  235MPD1    H1 3570   0.016   2.803   9.656 -0.8161 -1.6165  1.1670
  235MPD1    H2 3571   4.667   2.543   9.335  0.0913  1.5896 -2.8895
  235MPD1    H3 3572   4.712   2.584   9.568 -0.3730 -0.5728 -0.5449
  235MPD1     N 3573   4.687   3.035   9.522  0.4483 -0.5955  0.6483
  235MPD1    H5 3574   4.675   3.110   9.456 -0.1280 -0.3277  1.0602
  235MPD1    N1 3575   4.567   2.735   9.168 -0.3399  0.0171  0.1353
  235MPD1    H6 3576   4.532   2.641   9.152 -2.1309  0.9289 -1.3339
  235MPD1    H7 3577   4.516   2.808   9.119 -4.3408 -1.7314  1.7207
  236MPD1     C 3578   4.622   3.644  11.273  0.7110  0.1734  0.0560
  236MPD1    C1 3579   4.647   3.776  11.294  0.3234  0.2252 -0.0085
  236MPD1    C2 3580   4.606   3.872  11.208 -0.3748 -0.7322 -0.9200
  236MPD1    C3 3581   4.537   3.833  11.092  0.8433  0.2385  0.0213
  236MPD1    C4 3582   4.514   3.701  11.064 -0.1073 -0.6996 -0.0482
  236MPD1    C5 3583   4.559   3.610  11.158 -0.2786 -0.2792 -0.3351
  236MPD1     H 3584   4.619   3.976  11.233 -2.2176 -0.4423 -1.2079
  236MPD1    H1 3585   4.471   3.668  10.970 -2.0010 -0.5468  0.7743
  236MPD1    H2 3586   4.641   3.566  11.345  2.1233 -0.0229 -0.5181
  236MPD1    H3 3587   4.541   3.505  11.140 -0.8653 -0.1529 -0.4987
  236MPD1     N 3588   4.495   3.926  10.990 -0.3622  0.8338  0.0651
  236MPD1    H5 3589   4.452   3.884  10.908 -1.3023  1.0423  0.4532
  236MPD1    N1 3590   4.710   3.819  11.414  0.0728  0.5245  0.1583
  236MPD1    H6 3591   0.048   3.754  11.460 -0.1232  1.5298  1.8811
  236MPD1    H7 3592   0.029   3.911  11.408  0.6294  0.2951  0.7625
  237MPD1     C 3593   3.933   3.076  15.955 -0.2126 -0.1145 -0.3399
  237MPD1    C1 3594   3.864   3.107  15.842  0.7756 -0.8073  0.4325
  237MPD1    C2 3595   3.836   3.000  15.750  0.5127  0.2046  0.0676
  237MPD1    C3 3596   3.895   2.878  15.767 -1.0040  0.3317  0.0778
  237MPD1    C4 3597   3.956   2.847  15.888  0.5328  0.2154  0.3041
  237MPD1    C5 3598   3.962   2.946  15.986  0.1152  0.2244  0.1401
  237MPD1     H 3599   3.774   3.014  15.662 -0.9485 -1.7616  0.7787
  237MPD1    H1 3600   4.017   2.760  15.910 -1.5663 -1.5230 -0.8052
  237MPD1    H2 3601   3.954   3.149  16.032 -1.9405 -2.7464  2.6220
  237MPD1    H3 3602   4.016   2.914  16.074 -1.4967  0.7478  1.3233
  237MPD1     N 3603   3.865   2.764  15.688 -0.1865  0.3273  0.4942
  237MPD1    H5 3604   3.908   2.677  15.718  0.3206  0.5592  0.4348
  237MPD1    N1 3605   3.826   3.243  15.816  0.6781  0.7276 -0.4363
  237MPD1    H6 3606   3.742   3.237  15.758  2.4543 -0.5623 -2.9142
  237MPD1    H7 3607   3.803   3.295  15.900  1.2859 -2.5307  1.7437
  238MPD1     C 3608   0.590   2.260  15.574  0.7026  0.1430 -1.1010
  238MPD1    C1 3609   0.631   2.198  15.462 -0.4151  0.2473 -0.0503
  238MPD1    C2 3610   0.623   2.061  15.456 -0.8639 -0.6273 -0.0447
  238MPD1    C3 3611   0.581   1.987  15.566  0.5153 -0.2687 -0.9632
  238MPD1    C4 3612   0.533   2.049  15.682 -0.3907 -0.5928  0.6589
  238MPD1    C5 3613   0.551   2.186  15.682  0.1366 -0.0586  0.9037
  238MPD1     H 3614   0.629   2.012  15.359 -0.2025  2.8065 -1.7437
  238MPD1    H1 3615   0.489   2.001  15.769  0.2300 -2.8462 -0.2536
  238MPD1    H2 3616   0.607   2.366  15.593  0.3948 -0.0518  0.3159
  238MPD1    H3 3617   0.531   2.246  15.770 -3.2148 -0.6683  0.5471
  238MPD1     N 3618   0.569   1.847  15.565  0.2359  0.6861  0.1522
  238MPD1    H5 3619   0.510   1.806  15.637  0.3972  0.8436  0.3738
  238MPD1    N1 3620   0.696   2.272  15.362 -0.0550  0.6315  0.1264
  238MPD1    H6 3621   0.689   2.373  15.366 -0.4012  0.5694  0.9915
  238MPD1    H7 3622   0.686   2.242  15.265 -0.0251  1.4597 -0.1280
  239MPD1     C 3623   1.367   2.119  14.903  0.3166  0.6609  0.4547
  239MPD1    C1 3624   1.233   2.142  14.911  0.1691 -0.7131 -0.5699
  239MPD1    C2 3625   1.175   2.238  14.830  0.5192  1.0078  0.4080
  239MPD1    C3 3626   1.254   2.323  14.760  0.4043 -0.0898 -0.2278
  239MPD1    C4 3627   1.382   2.297  14.753 -0.8047  0.6646  0.1864
  239MPD1    C5 3628   1.443   2.193  14.818 -0.0749 -0.2689  0.4074
  239MPD1     H 3629   1.067   2.246  14.834  0.2541 -2.0286 -0.2308
  239MPD1    H1 3630   1.439   2.357  14.682 -0.0526 -0.6620 -0.3290
  239MPD1    H2 3631   1.407   2.032  14.956 -0.6222  1.0272  1.7671
  239MPD1    H3 3632   1.550   2.176  14.823 -0.0836 -0.4403  0.0549
  239MPD1     N 3633   1.204   2.430  14.686  0.8918  0.2242  0.5229
  239MPD1    H5 3634   1.259   2.469  14.611 -1.0700  0.2442 -0.8969
  239MPD1    N1 3635   1.149   2.046  14.985 -0.0047  0.8668 -0.5588
  239MPD1    H6 3636   1.055   2.083  14.997  0.6739  1.6517  2.3260
  239MPD1    H7 3637   1.181   2.005  15.072 -1.4301  0.4166 -0.2569
  240MPD1     C 3638   4.635   2.472  13.011  0.5654  0.1631 -0.0751
  240MPD1    C1 3639   4.552   2.488  13.121 -0.0697  0.0017 -0.1453
  240MPD1    C2 3640   4.569   2.414  13.236  0.2757 -0.3188 -0.5482
  240MPD1    C3 3641   4.668   2.320  13.242 -0.1827  0.3660  0.3781
  240MPD1    C4 3642   0.034   2.318  13.139 -0.2513 -0.3456 -0.4135
  240MPD1    C5 3643   0.022   2.403  13.030  0.4582 -0.0797  0.2672
  240MPD1     H 3644   4.492   2.410  13.312  1.7507 -1.3194  0.8983
  240MPD1    H1 3645   0.113   2.244  13.136  0.7398  0.6110  1.5864
  240MPD1    H2 3646   4.618   2.513  12.912 -1.5266 -0.4003  0.0606
  240MPD1    H3 3647   0.112   2.400  12.969 -0.8438 -1.0576 -1.5801
  240MPD1     N 3648   4.685   2.227  13.351  0.1729 -0.1909 -0.2165
  240MPD1    H5 3649   0.043   2.168  13.347  0.2150 -0.0864 -0.8306
  240MPD1    N1 3650   4.442   2.569  13.108 -0.3757 -0.0642  0.3961
  240MPD1    H6 3651   4.468   2.647  13.048  3.5735 -0.1438  2.0052
  240MPD1    H7 3652   4.416   2.609  13.198  2.0126  0.1716  0.9850
  241MPD1     C 3653   0.554   2.114  14.094 -0.2092 -0.1892 -0.1900
  241MPD1    C1 3654   0.580   2.080  13.963 -0.1728 -0.0260 -0.5855
  241MPD1    C2 3655   0.472   2.041  13.883 -0.2845 -0.2030  0.2453
  241MPD1    C3 3656   0.346   2.063  13.933 -0.0938  0.6506  0.7947
  241MPD1    C4 3657   0.327   2.083  14.068  0.7568  0.6827 -0.4470
  241MPD1    C5 3658   0.429   2.113  14.148 -0.2251 -0.2743 -0.5964
  241MPD1     H 3659   0.485   2.020  13.778  2.3039  2.1474  0.0944
  241MPD1    H1 3660   0.228   2.076  14.111  1.7209 -0.9157  1.4681
  241MPD1    H2 3661   0.637   2.134  14.161 -0.4170  1.4939 -0.4465
  241MPD1    H3 3662   0.410   2.136  14.252 -1.5543 -1.4707 -0.5734
  241MPD1     N 3663   0.234   2.042  13.853  0.0655 -0.6695 -0.1044
  241MPD1    H5 3664   0.144   2.042  13.899  0.7374  3.0692  1.2454
  241MPD1    N1 3665   0.716   2.065  13.921 -0.3426 -0.2268  0.4643
  241MPD1    H6 3666   0.713   2.056  13.820 -2.6611  1.8073  0.3628
  241MPD1    H7 3667   0.784   2.137  13.948 -1.4048  0.5652  1.0653
  242MPD1     C 3668   4.722   4.596  16.549 -0.1711 -0.2081  0.3224
  242MPD1    C1 3669   4.625   4.688  16.507  0.1181 -0.5487  0.2878
  242MPD1    C2 3670   4.632   4.725  16.371 -0.0044 -0.6971  0.4501
  242MPD1    C3 3671   4.716   4.665  16.280 -0.5122  0.3442  0.2756
  242MPD1    C4 3672   0.074   4.568  16.330 -0.0600  0.0494  0.0532
  242MPD1    C5 3673   0.078   4.530  16.462  0.0984 -0.5493  0.0856
  242MPD1     H 3674   4.562   0.074  16.336 -0.9276 -1.5684  0.4780
  242MPD1    H1 3675   0.150   4.529  16.262 -1.2070 -0.1001 -1.1417
  242MPD1    H2 3676   0.029   4.580  16.651  1.8258 -2.1827 -0.6139
  242MPD1    H3 3677   0.154   4.462  16.500  1.2121  0.1268 -0.9091
  242MPD1     N 3678   0.014   4.704  16.147 -0.3005  0.0443  0.3809
  242MPD1    H5 3679   0.079   4.651  16.090 -0.0806  1.4452 -0.6868
  242MPD1    N1 3680   4.558   0.042  16.601  0.6459  0.7858 -0.0559
  242MPD1    H6 3681   4.548   4.710  16.684  0.2505  0.9894  0.0355
  242MPD1    H7 3682   4.465   0.075  16.573  0.9273  1.1828 -0.5395
  243MPD1     C 3683   2.334   3.156   0.828  0.2805  0.0455  0.4537
  243MPD1    C1 3684   2.309   3.271   0.750  0.4405 -0.5174  0.3483
  243MPD1    C2 3685   2.245   3.257   0.629 -0.0207  0.3380 -0.4187
  243MPD1    C3 3686   2.203   3.130   0.583 -0.3909 -0.6782  0.0057
  243MPD1    C4 3687   2.231   3.015   0.665 -0.4017 -0.2232 -0.8130
  243MPD1    C5 3688   2.283   3.035   0.789 -1.0988 -0.2813 -0.3195
  243MPD1     H 3689   2.237   3.341   0.561  0.0484  0.4092 -0.3389
  243MPD1    H1 3690   2.217   2.911   0.636  3.2318 -0.6567 -1.0487
  243MPD1    H2 3691   2.386   3.161   0.924 -0.1219 -0.1597  0.6809
  243MPD1    H3 3692   2.317   2.944   0.837  0.7700  0.9538  0.6633
  243MPD1     N 3693   2.166   3.120   0.446  0.3254 -0.0689  0.0377
  243MPD1    H5 3694   2.152   3.208   0.397  1.3718  0.4175  0.6219
  243MPD1    N1 3695   2.344   3.390   0.806  0.0955  0.2061 -0.5237
  243MPD1    H6 3696   2.429   3.393   0.862 -0.1571 -0.7151 -0.0923
  243MPD1    H7 3697   2.351   3.469   0.742 -0.0602  0.2684 -0.4629
  244MPD1     C 3698   1.261   2.850   0.378  0.1332  0.1929  0.1286
  244MPD1    C1 3699   1.358   2.861   0.475 -0.4088  0.3510 -0.1120
  244MPD1    C2 3700   1.494   2.872   0.430 -0.5501 -0.3828  0.0328
  244MPD1    C3 3701   1.527   2.905   0.301  0.2758  0.3747 -0.3225
  244MPD1    C4 3702   1.424   2.921   0.212 -0.1063 -0.8869  0.2192
  244MPD1    C5 3703   1.297   2.885   0.251  0.4219  0.1304 -0.8976
  244MPD1     H 3704   1.579   2.871   0.497 -0.8067 -0.9149  0.3590
  244MPD1    H1 3705   1.441   2.943   0.107  1.4336  0.1946  0.6927
  244MPD1    H2 3706   1.162   2.810   0.398 -0.6480  0.5884 -2.8862
  244MPD1    H3 3707   1.221   2.890   0.174 -0.5877  0.0374  0.0935
  244MPD1     N 3708   1.665   2.915   0.251 -0.1884  0.0452  0.2036
  244MPD1    H5 3709   1.736   2.870   0.308 -1.0326 -1.1550  0.3060
  244MPD1    N1 3710   1.338   2.801   0.602  0.1571  0.4401 -0.6093
  244MPD1    H6 3711   1.245   2.823   0.637 -0.6232 -0.1644 -2.3399
  244MPD1    H7 3712   1.408   2.832   0.670 -2.1898 -2.1414  3.0089
  245MPD1     C 3713   3.312   4.568  13.688  0.5535  0.1737  0.5681
  245MPD1    C1 3714   3.270   4.654  13.782  0.1627 -0.4292  0.3432
  245MPD1    C2 3715   3.347   0.026  13.831  0.2782 -0.3166 -0.6858
  245MPD1    C3 3716   3.482   0.029  13.798  0.3734  0.4156  0.2597
  245MPD1    C4 3717   3.528   4.664  13.704 -0.6538  0.5801  0.0431
  245MPD1    C5 3718   3.443   4.570  13.653  0.0917 -0.7422 -0.1993
  245MPD1     H 3719   3.306   0.091  13.908 -0.2345 -1.3835 -0.0662
  245MPD1    H1 3720   3.629   4.667  13.665  0.8335 -0.7333  3.7671
  245MPD1    H2 3721   3.252   4.492  13.640  2.9841 -0.8834 -0.8372
  245MPD1    H3 3722   3.487   4.493  13.590 -2.1326 -2.1278 -0.0283
  245MPD1     N 3723   3.572   0.119  13.860 -0.1899 -0.1982 -0.1336
  245MPD1    H5 3724   3.541   0.164  13.946 -0.7129 -0.5596 -0.1329
  245MPD1    N1 3725   3.129   4.655  13.813 -0.1759 -0.6375 -0.1118
  245MPD1    H6 3726   3.120   4.667  13.914 -1.2044  2.5203 -0.5845
  245MPD1    H7 3727   3.091   4.564  13.788  2.0534 -2.0143  1.4877
  246MPD1     C 3728   0.553   4.398   9.115 -0.0815  0.4760 -0.0862
  246MPD1    C1 3729   0.528   4.327   9.229  0.6643  0.8717 -0.1217
  246MPD1    C2 3730   0.452   4.215   9.219 -0.3149 -0.2675  0.4211
  246MPD1    C3 3731   0.397   4.173   9.102  0.0511 -0.3627 -0.2229
  246MPD1    C4 3732   0.432   4.245   8.987  0.7186  0.4772  0.3323
  246MPD1    C5 3733   0.501   4.361   8.994  0.1367  0.3390  0.3008
  246MPD1     H 3734   0.429   4.167   9.313 -1.4211 -0.5948 -0.0135
  246MPD1    H1 3735   0.387   4.217   8.892  1.3953  3.1217 -0.7617
  246MPD1    H2 3736   0.611   4.489   9.119  1.8554 -0.7205 -1.0438
  246MPD1    H3 3737   0.535   4.407   8.902  2.2242 -2.0108 -0.0999
  246MPD1     N 3738   0.299   4.069   9.104  0.3700  0.2170 -0.2353
  246MPD1    H5 3739   0.275   4.041   9.199  0.7393  0.1473 -0.1579
  246MPD1    N1 3740   0.566   4.377   9.355 -0.3547  0.5718  0.2771
  246MPD1    H6 3741   0.658   4.420   9.363 -1.5911  3.3624 -0.5942
  246MPD1    H7 3742   0.574   4.303   9.425  0.3177 -0.2453 -0.6608
  247MPD1     C 3743   2.240   3.929  16.423  0.6702  0.2096  0.1884
  247MPD1    C1 3744   2.263   3.949  16.560 -0.2423  0.3371  0.4215
  247MPD1    C2 3745   2.396   3.940  16.606 -0.2949 -0.2361 -0.3883
  247MPD1    C3 3746   2.494   3.899  16.515  0.4464  0.6322  0.0204
  247MPD1    C4 3747   2.470   3.880  16.381  0.2179 -0.5837 -0.4760
  247MPD1    C5 3748   2.343   3.899  16.340  0.5895  0.1288 -0.9554
  247MPD1     H 3749   2.416   3.960  16.710 -1.5166  1.4703 -0.4769
  247MPD1    H1 3750   2.538   3.843  16.305  1.7424  1.9406 -0.3650
  247MPD1    H2 3751   2.140   3.943  16.385  0.8132 -0.8324 -0.5654
  247MPD1    H3 3752   2.318   3.876  16.237 -0.5458  1.9633 -1.0809
  247MPD1     N 3753   2.635   3.891  16.557 -0.2344  0.1443  0.1637
  247MPD1    H5 3754   2.703   3.876  16.483 -0.3529  0.8857 -0.0968
  247MPD1    N1 3755   2.162   4.014  16.636  0.1296  0.1236 -0.3512
  247MPD1    H6 3756   2.071   3.971  16.620  0.7904 -0.9148 -1.3307
  247MPD1    H7 3757   2.160   4.003  16.737 -1.6329 -2.0626 -0.6327
  248MPD1     C 3758   1.258   0.599   0.537 -0.0877  0.1900  0.7133
  248MPD1    C1 3759   1.219   0.728   0.565  0.1751 -0.5250  0.4642
  248MPD1    C2 3760   1.220   0.776   0.693 -0.6626  0.2135 -1.0511
  248MPD1    C3 3761   1.261   0.695   0.799 -0.5269 -0.2963 -0.5048
  248MPD1    C4 3762   1.271   0.557   0.774 -0.5798  0.0839 -0.1468
  248MPD1    C5 3763   1.288   0.522   0.646 -0.2126  0.4331 -0.0643
  248MPD1     H 3764   1.202   0.882   0.707  1.0722  0.1001  1.9820
  248MPD1    H1 3765   1.287   0.483   0.852 -1.5445  0.2382  0.2001
  248MPD1    H2 3766   1.277   0.556   0.440  1.9678  1.6270  0.4691
  248MPD1    H3 3767   1.332   0.423   0.638  1.2587  1.2567 -2.0931
  248MPD1     N 3768   1.277   0.745   0.931  0.2051  0.7765  0.0880
  248MPD1    H5 3769   1.252   0.843   0.942  0.4050  0.7096  1.1259
  248MPD1    N1 3770   1.196   0.818   0.457 -0.0945  0.6532 -0.0965
  248MPD1    H6 3771   1.156   0.777   0.372  0.0691 -1.4920  0.8633
  248MPD1    H7 3772   1.144   0.904   0.477 -1.7975 -0.4415  0.2179
  249MPD1     C 3773   1.251   3.436  11.025 -0.0263 -0.4183 -0.5691
  249MPD1    C1 3774   1.293   3.523  10.927  0.2231  0.3429  0.6459
  249MPD1    C2 3775   1.237   3.508  10.799 -0.3298 -0.0989  0.5943
  249MPD1    C3 3776   1.164   3.394  10.765 -0.3287 -0.0116 -0.1452
  249MPD1    C4 3777   1.118   3.312  10.867  0.1771  0.5006 -0.1623
  249MPD1    C5 3778   1.160   3.336  10.997 -0.8101  0.4872  0.4493
  249MPD1     H 3779   1.263   3.582  10.725  0.3579 -0.3977  0.5352
  249MPD1    H1 3780   1.042   3.237  10.849  1.2274 -0.2209 -1.5340
  249MPD1    H2 3781   1.271   3.443  11.131 -1.0492  2.7826 -0.5939
  249MPD1    H3 3782   1.127   3.271  11.077 -0.7508  1.2757  1.1138
  249MPD1     N 3783   1.130   3.371  10.630 -0.2127  0.3538 -0.3526
  249MPD1    H5 3784   1.162   3.438  10.560 -1.1275  1.8673  0.6857
  249MPD1    N1 3785   1.364   3.648  10.954  0.1912 -0.3309 -0.4525
  249MPD1    H6 3786   1.410   3.680  10.870 -0.0805  2.5241  0.4739
  249MPD1    H7 3787   1.434   3.623  11.024 -0.4711  0.2837  0.4381
  250MPD2     C 3788   1.432   2.917  13.685  0.2316 -0.0911  0.5419
  250MPD2    C1 3789   1.445   2.961  13.557  0.3176  1.0608  0.1180
  250MPD2    C2 3790   1.418   2.873  13.457  0.4100  0.4336 -0.3054
  250MPD2    C3 3791   1.380   2.745  13.487  0.0704 -0.2221 -0.0862
  250MPD2    C4 3792   1.379   2.698  13.614  0.3167 -0.6647 -0.6802
  250MPD2    C5 3793   1.399   2.790  13.719  0.0000  0.0462 -0.1685
  250MPD2     H 3794   1.413   2.909  13.355 -1.2349 -2.6086 -1.2849
  250MPD2    H1 3795   1.352   2.597  13.640 -1.9858 -0.3224 -1.7734
  250MPD2    H2 3796   1.439   2.981  13.772  0.3345  1.9694 -0.9701
  250MPD2    H3 3797   1.378   2.786  13.825 -1.3752 -0.7840 -0.4696
  250MPD2     N 3798   1.351   2.651  13.377  1.0306  0.6099  0.0169
  250MPD2    H5 3799   1.339   2.555  13.405  2.4464  0.4483  0.0706
  250MPD2    N1 3800   1.486   3.098  13.541 -0.2106  0.1997 -0.3647
  250MPD2    H7 3801   1.530   3.137  13.624  2.1616 -0.6174 -1.2254
  251TMC3    C1 3802   1.507   3.310  13.433  0.6838 -0.2106  0.3293
  251TMC3    C2 3803   1.583   3.369  13.526 -0.6829 -0.1277  0.1310
  251TMC3    C3 3804   1.639   3.490  13.493 -0.3700 -0.3030  0.0909
  251TMC3    C4 3805   1.471   3.382  13.321  0.0007 -0.0797  0.3603
  251TMC3    C5 3806   1.542   3.496  13.281  0.2958 -0.3488 -0.1749
  251TMC3    C6 3807   1.614   3.559  13.380  0.7219  0.0488  0.9066
  251TMC3     C 3808   1.475   3.170  13.423  0.0028 -0.0556  0.9018
  251TMC3     O 3809   1.430   3.136  13.318  0.0442  0.1673 -0.2495
  251TMC3     H 3810   1.618   3.310  13.610  0.1380 -1.4825 -1.1527
  251TMC3    H1 3811   1.397   3.341  13.253 -0.5604 -1.6386  1.9175
  251TMC3    H2 3812   1.676   3.640  13.342 -1.7531  1.2906 -0.4312
  251TMC3    C7 3813   1.611   3.480  13.156 -0.5471 -0.6193 -0.6411
  251TMC3    C8 3814   1.708   3.567  13.598  0.1235 -0.8522 -0.2225
  251TMC3    O1 3815   1.726   3.515  13.135  0.0735  0.0613  0.5165
  251TMC3    O2 3816   1.713   3.688  13.574  0.1434  0.0307  0.1407
  252TMC3    C1 3817   2.633   3.405   9.924 -0.1759 -0.2291  0.6844
  252TMC3    C2 3818   2.513   3.443   9.967 -0.1968  0.0761 -0.9469
  252TMC3    C3 3819   2.402   3.372   9.926 -0.0811  0.2406  0.5327
  252TMC3    C4 3820   2.652   3.313   9.822  0.3385  0.4496  0.0511
  252TMC3    C5 3821   2.545   3.228   9.796 -0.2017  1.0965  0.7766
  252TMC3    C6 3822   2.417   3.262   9.846  0.4255 -0.1688 -0.3301
  252TMC3     C 3823   2.744   3.487   9.948  0.3512 -0.2106 -0.0530
  252TMC3     O 3824   2.856   3.435   9.937  0.6301  0.1169 -0.4347
  252TMC3     H 3825   2.503   3.517  10.045 -4.1132  1.0051 -2.3248
  252TMC3    H1 3826   2.754   3.277   9.811  0.4289  1.1168 -1.2624
  252TMC3    H2 3827   2.330   3.205   9.814  0.2377  1.1098 -2.0723
  252TMC3    C7 3828   2.572   3.103   9.730 -0.0834 -0.7280 -0.5877
  252TMC3    C8 3829   2.274   3.385   9.993  0.1774 -0.6234  0.1339
  252TMC3    O1 3830   2.684   3.092   9.679 -0.3438  0.2582  0.3401
  252TMC3    O2 3831   2.182   3.318   9.947 -0.2819 -0.0051  0.2364
  253MPD2     C 3832   3.445   2.805  15.936  0.6588  0.6850  0.0476
  253MPD2    C1 3833   3.345   2.898  15.933  0.2100 -0.6799 -0.4449
  253MPD2    C2 3834   3.299   2.966  16.042  0.1041 -0.0539  0.1336
  253MPD2    C3 3835   3.367   2.958  16.161 -0.0232 -0.5803  0.2525
  253MPD2    C4 3836   3.469   2.863  16.168 -0.1246 -0.5478 -0.4078
  253MPD2    C5 3837   3.511   2.794  16.058 -0.1389  0.1675 -0.0642
  253MPD2     H 3838   3.214   3.031  16.021 -0.0691 -0.0350  0.9143
  253MPD2    H1 3839   3.526   2.842  16.257 -1.9611 -2.7781  0.2624
  253MPD2    H2 3840   3.473   2.745  15.850 -1.0776  0.0351 -0.0745
  253MPD2    H3 3841   3.601   2.733  16.060  0.4039  0.9803  0.6773
  253MPD2     N 3842   3.325   3.032  16.281 -0.1946 -0.0001  0.6518
  253MPD2    H5 3843   3.375   3.010  16.367  3.1649  1.4231 -0.9385
  253MPD2    N1 3844   3.273   2.915  15.812 -0.0661 -0.0780 -0.2157
  253MPD2    H7 3845   3.201   2.987  15.811 -0.2696 -0.3179 -1.7587
  254TMC3    C1 3846   3.197   3.170  16.414 -0.0515  0.2088 -0.4997
  254TMC3    C2 3847   3.063   3.188  16.423  0.0475 -0.9246  0.2934
  254TMC3    C3 3848   3.009   3.162  16.547  0.6011  0.3778 -0.1813
  254TMC3    C4 3849   3.277   3.154  16.523 -0.0713 -0.2898  0.0668
  254TMC3    C5 3850   3.213   3.157  16.646 -0.5554  0.5585  1.0028
  254TMC3    C6 3851   3.078   3.141  16.662  0.5096 -0.0340  0.4433
  254TMC3     C 3852   3.238   3.139  16.279  0.3462 -0.2144  0.2950
  254TMC3     O 3853   3.182   3.187  16.181  0.0531 -0.6230 -0.2274
  254TMC3     H 3854   2.996   3.211  16.341 -1.2772 -0.2640  1.5498
  254TMC3    H1 3855   3.382   3.128  16.522  0.2332  0.9200  0.5616
  254TMC3    H2 3856   3.036   3.134  16.761  1.1809  1.5388  0.8511
  254TMC3    C7 3857   3.291   3.158  16.764  0.3115 -0.0683  0.1845
  254TMC3    C8 3858   2.871   3.198  16.559 -0.6036 -0.1236 -0.2564
  254TMC3    O1 3859   3.252   3.085  16.853  0.7330  0.3527 -0.0427
  254TMC3    O2 3860   2.846   3.244  16.670  0.0635 -0.2796  0.7360
  255MPD2     C 3861   1.815   0.572  10.705 -0.1277  0.5892 -0.3540
  255MPD2    C1 3862   1.829   0.685  10.776  0.2600 -0.2321 -0.5021
  255MPD2    C2 3863   1.956   0.746  10.771  0.0755 -0.2457  0.4670
  255MPD2    C3 3864   2.059   0.690  10.699  0.3313  0.5333 -0.4954
  255MPD2    C4 3865   2.046   0.567  10.632  0.4138 -0.4857  0.0017
  255MPD2    C5 3866   1.919   0.510  10.636 -0.1558 -0.7406 -0.4063
  255MPD2     H 3867   1.972   0.840  10.823  1.2608 -1.0929  1.6266
  255MPD2    H1 3868   2.121   0.524  10.566  0.5677  0.3265 -0.3602
  255MPD2    H2 3869   1.722   0.517  10.706  0.8431 -1.0306  1.4390
  255MPD2    H3 3870   1.897   0.420  10.581 -0.8378  0.0269 -1.3736
  255MPD2     N 3871   2.164   0.782  10.679 -0.7433  0.6271 -0.0748
  255MPD2    H5 3872   2.161   0.868  10.733  2.7166  0.8649 -0.3014
  255MPD2    N1 3873   1.710   0.744  10.839  0.0879 -0.1022 -0.2512
  255MPD2    H7 3874   1.628   0.685  10.834 -1.9662  2.9077 -1.4966
  256TMC3    C1 3875   1.578   0.889  10.964 -0.2682 -0.8835  0.0411
  256TMC3    C2 3876   1.545   1.021  10.951 -0.1355  0.1388 -0.3859
  256TMC3    C3 3877   1.415   1.059  10.921 -0.0447  0.8812 -0.0799
  256TMC3    C4 3878   1.481   0.796  10.934 -1.3617 -1.0210  0.2761
  256TMC3    C5 3879   1.352   0.826  10.914 -0.9517 -0.0506  0.8230
  256TMC3    C6 3880   1.318   0.961  10.908 -0.3507  0.0256 -0.6750
  256TMC3     C 3881   1.713   0.860  10.907  0.5404 -0.3775  0.0655
  256TMC3     O 3882   1.789   0.954  10.918 -0.2978  0.4434 -0.5524
  256TMC3     H 3883   1.627   1.092  10.956 -1.1071  1.2048  0.6161
  256TMC3    H1 3884   1.501   0.690  10.944  1.4255 -0.6619 -1.3590
  256TMC3    H2 3885   1.218   0.989  10.876 -0.4113  1.4691  0.7587
  256TMC3    C7 3886   1.266   0.721  10.864  0.0932 -0.7669 -0.1629
  256TMC3    C8 3887   1.378   1.196  10.886  0.3114  0.8936 -0.7181
  256TMC3    O1 3888   1.321   0.614  10.839  0.2590 -0.1490 -0.1368
  256TMC3    O2 3889   1.266   1.234  10.933 -0.6619 -0.5385  0.0883
  257MPD2     C 3890   0.791   3.252  13.538 -0.0482 -0.1296 -0.0746
  257MPD2    C1 3891   0.751   3.160  13.449 -0.7162 -0.3198  0.7443
  257MPD2    C2 3892   0.724   3.031  13.497 -0.2099 -0.0957 -0.1976
  257MPD2    C3 3893   0.730   3.004  13.631  0.0976  1.1271 -0.0970
  257MPD2    C4 3894   0.761   3.109  13.719 -0.2320  0.7759  0.5334
  257MPD2    C5 3895   0.795   3.230  13.668 -0.1201  0.4220 -0.0975
  257MPD2     H 3896   0.694   2.949  13.433  0.8007 -0.4248 -0.2596
  257MPD2    H1 3897   0.768   3.089  13.826 -0.7626  1.1971  0.6536
  257MPD2    H2 3898   0.834   3.344  13.501 -1.6226  0.9760  0.8685
  257MPD2    H3 3899   0.822   3.306  13.741 -1.4357  1.6831 -0.9151
  257MPD2     N 3900   0.697   2.873  13.682 -0.1843 -0.0001  0.9960
  257MPD2    H5 3901   0.651   2.807  13.621  1.1581 -0.1551  0.1465
  257MPD2    N1 3902   0.725   3.207  13.315  0.9838  0.6344  0.6385
  257MPD2    H7 3903   0.765   3.296  13.287  2.1147 -0.2914 -0.6886
  258TMC3    C1 3904   0.655   2.698  13.820  0.2352 -0.4397  0.0119
  258TMC3    C2 3905   0.611   2.625  13.714  0.0608  0.2493  0.1281
  258TMC3    C3 3906   0.638   2.494  13.705  0.3374  0.6396  0.1909
  258TMC3    C4 3907   0.683   2.632  13.939  0.8888 -0.0908  0.0068
  258TMC3    C5 3908   0.697   2.494  13.933 -0.6272 -0.4498  0.5967
  258TMC3    C6 3909   0.688   2.423  13.813  0.2116  0.3083 -0.3825
  258TMC3     C 3910   0.695   2.832  13.812 -0.8927 -0.3213 -0.5058
  258TMC3     O 3911   0.746   2.887  13.913  0.3793  0.0314 -0.1234
  258TMC3     H 3912   0.547   2.676  13.642 -0.6540  2.0729  2.0701
  258TMC3    H1 3913   0.698   2.694  14.027 -0.0362  1.9243 -1.2458
  258TMC3    H2 3914   0.685   2.315  13.809  0.6359  0.3177 -0.9981
  258TMC3    C7 3915   0.747   2.416  14.037 -0.0466 -0.1319 -0.3734
  258TMC3    C8 3916   0.593   2.407  13.597 -0.4151  0.0654  1.5865
  258TMC3    O1 3917   0.816   2.317  14.006 -0.4525 -0.4052 -0.3045
  258TMC3    O2 3918   0.557   2.291  13.619 -0.2386 -0.8415 -0.3359
  259MPD2     C 3919   4.418   4.363   1.527 -0.7029  0.3860 -0.2495
  259MPD2    C1 3920   4.337   4.325   1.427 -0.3471 -0.0132  0.1067
  259MPD2    C2 3921   4.391   4.274   1.312  0.9181 -0.5858  0.4656
  259MPD2    C3 3922   4.528   4.261   1.296  0.5215  0.1540  0.2872
  259MPD2    C4 3923   4.609   4.318   1.391  0.0185  0.0519  0.7476
  259MPD2    C5 3924   4.554   4.358   1.508 -0.0090  0.3869 -0.0766
  259MPD2     H 3925   4.321   4.238   1.238  2.6125 -1.9472 -0.4715
  259MPD2    H1 3926   4.717   4.320   1.383  0.0430 -0.5048  0.9138
  259MPD2    H2 3927   4.383   4.375   1.629  0.8959  0.0453  0.3438
  259MPD2    H3 3928   4.632   4.366   1.582 -0.0815 -0.6895  0.1184
  259MPD2     N 3929   4.583   4.194   1.182  0.1448  0.0528  0.7164
  259MPD2    H5 3930   4.513   4.166   1.114  0.0699  0.2566  0.7127
  259MPD2    N1 3931   4.199   4.330   1.458  0.5735  0.3807 -0.0517
  259MPD2    H7 3932   4.183   4.361   1.554  2.4129  2.2576 -0.3438
  260TMC3    C1 3933   4.725   4.068   1.053 -0.3032 -0.3795  0.4662
  260TMC3    C2 3934   0.120   4.000   1.049  0.0297 -0.5266  0.0550
  260TMC3    C3 3935   0.159   3.931   0.944 -0.0442 -0.3781  0.0547
  260TMC3    C4 3936   4.641   4.051   0.946 -0.1344  0.2342  0.5279
  260TMC3    C5 3937   4.681   3.976   0.838 -0.4156  0.5346 -0.0752
  260TMC3    C6 3938   0.078   3.917   0.831  0.1746 -0.2132 -0.3521
  260TMC3     C 3939   4.711   4.163   1.160 -0.0966  0.6291 -0.3201
  260TMC3     O 3940   0.075   4.183   1.236 -0.5634  0.0331  0.0946
  260TMC3     H 3941   0.192   4.005   1.130 -0.0364  0.0442  0.0773
  260TMC3    H1 3942   4.547   4.105   0.948 -1.5944 -2.1891 -3.5094
  260TMC3    H2 3943   0.116   3.859   0.748 -3.4195  2.2699 -3.7117
  260TMC3    C7 3944   4.610   3.977   0.714  0.0083  0.1328  0.2561
  260TMC3    C8 3945   0.303   3.900   0.933  0.0481 -1.0247  0.0835
  260TMC3    O1 3946   4.614   3.869   0.655 -0.4265  0.3092  0.2400
  260TMC3    O2 3947   0.374   3.920   1.027  0.2060  0.3692  0.1018
  261MPD2     C 3948   1.155   2.565  12.533  0.7038  0.0791  0.8965
  261MPD2    C1 3949   1.236   2.637  12.614  0.3909 -0.0911  0.3855
  261MPD2    C2 3950   1.296   2.755  12.570  0.2202  0.0993  0.1702
  261MPD2    C3 3951   1.275   2.807  12.443 -0.3106 -0.4728  0.0692
  261MPD2    C4 3952   1.184   2.739  12.366 -0.3483 -0.0494  0.2104
  261MPD2    C5 3953   1.127   2.616  12.406 -0.0807  0.7885  0.1292
  261MPD2     H 3954   1.366   2.803  12.637  1.4631  0.3735 -1.3191
  261MPD2    H1 3955   1.173   2.768  12.263 -2.1948  0.2889  0.5008
  261MPD2    H2 3956   1.114   2.467  12.553 -2.1257  0.9600 -0.5337
  261MPD2    H3 3957   1.077   2.560  12.328 -0.0375 -1.4354  1.7150
  261MPD2     N 3958   1.352   2.905  12.382  1.0993 -0.0446 -0.1767
  261MPD2    H5 3959   1.325   2.933  12.288  0.9057  2.2322  0.5439
  261MPD2    N1 3960   1.256   2.610  12.749  1.0936 -0.1424  0.7430
  261MPD2    H7 3961   1.303   2.677  12.809 -0.3441  1.4119  0.1035
  262TMC3    C1 3962   1.523   3.049  12.356 -0.1299 -0.3020  0.2287
  262TMC3    C2 3963   1.463   3.161  12.310 -0.1319  0.7472  0.6280
  262TMC3    C3 3964   1.516   3.229  12.198  0.5838  0.1798 -0.0384
  262TMC3    C4 3965   1.652   3.015  12.312 -0.0654  0.3636 -0.0843
  262TMC3    C5 3966   1.703   3.080  12.202  0.7945 -0.3385  0.1065
  262TMC3    C6 3967   1.635   3.190  12.143 -0.2489 -0.2014 -0.4484
  262TMC3     C 3968   1.458   2.966  12.447  0.4137  0.0050 -0.2582
  262TMC3     O 3969   1.531   2.931  12.537 -0.0553  0.0988 -0.0302
  262TMC3     H 3970   1.366   3.179  12.354 -1.3225 -0.5506 -1.4666
  262TMC3    H1 3971   1.682   2.917  12.348 -3.1919 -1.8761 -3.5880
  262TMC3    H2 3972   1.670   3.246  12.057 -0.5409  0.5918 -0.0516
  262TMC3    C7 3973   1.758   2.980  12.106  0.0234 -0.0879  0.4942
  262TMC3    C8 3974   1.457   3.350  12.154 -0.7449 -0.2183 -0.3928
  262TMC3    O1 3975   1.751   2.860  12.139  0.1809  0.0660  0.4623
  262TMC3    O2 3976   1.532   3.423  12.090 -0.0109  0.0710  0.0349
  263MPD2     C 3977   2.571   2.043  11.320  0.7941 -0.5135 -0.0887
  263MPD2    C1 3978   2.575   2.162  11.386 -0.9164 -0.3061 -1.0023
  263MPD2    C2 3979   2.486   2.257  11.350 -0.1239 -0.2697 -0.1496
  263MPD2    C3 3980   2.390   2.241  11.247  0.8060  0.0762 -0.0765
  263MPD2    C4 3981   2.384   2.119  11.188 -0.6557 -0.5048 -0.3466
  263MPD2    C5 3982   2.470   2.017  11.227 -0.0053 -0.1515  0.3585
  263MPD2     H 3983   2.482   2.354  11.397 -4.0778 -0.2582 -0.4736
  263MPD2    H1 3984   2.322   2.098  11.102 -1.4471  1.4870 -0.2789
  263MPD2    H2 3985   2.646   1.965  11.324  2.9943  1.7779  2.5339
  263MPD2    H3 3986   2.473   1.921  11.177 -1.4353 -0.0134 -0.0030
  263MPD2     N 3987   2.314   2.357  11.210  0.4756 -0.3683 -0.1145
  263MPD2    H5 3988   2.326   2.436  11.272  0.5070 -0.3555 -0.1372
  263MPD2    N1 3989   2.678   2.173  11.488 -0.5997 -0.2228  0.0111
  263MPD2    H7 3990   2.743   2.095  11.497 -1.8875 -1.0939  1.9438
  264TMC3    C1 3991   2.236   2.507  11.066  0.2477 -0.2636 -0.9128
  264TMC3    C2 3992   2.217   2.605  11.155  0.1065 -0.2160 -0.2588
  264TMC3    C3 3993   2.232   2.731  11.118 -0.2708 -0.4758 -0.5247
  264TMC3    C4 3994   2.288   2.537  10.942 -0.3237 -0.1345  0.1039
  264TMC3    C5 3995   2.302   2.669  10.905  0.0108  0.0064  0.9541
  264TMC3    C6 3996   2.283   2.765  11.000  0.0045  0.3610 -0.0780
  264TMC3     C 3997   2.244   2.371  11.100 -0.8858  0.1302 -0.3137
  264TMC3     O 3998   2.228   2.288  11.011 -0.2704 -0.1153 -0.9048
  264TMC3     H 3999   2.200   2.591  11.261  0.9027  1.0342  0.0283
  264TMC3    H1 4000   2.313   2.448  10.885 -0.4952  0.4446 -0.8661
  264TMC3    H2 4001   2.335   2.860  10.992 -1.2986  0.9163 -1.7324
  264TMC3    C7 4002   2.389   2.702  10.787  0.0236 -0.2438  0.5222
  264TMC3    C8 4003   2.294   2.802  11.228  0.1246  0.2583  0.8966
  264TMC3    O1 4004   2.443   2.599  10.746 -0.9736  0.5060 -0.3413
  264TMC3    O2 4005   2.414   2.797  11.227  0.4715 -0.3364 -0.6258
  265MPD2     C 4006   4.408   2.526  15.868  0.2744 -0.0509  0.0473
  265MPD2    C1 4007   4.457   2.648  15.818  0.1159 -0.1464  0.8758
  265MPD2    C2 4008   4.538   2.648  15.703  0.2893 -0.2762  0.0521
  265MPD2    C3 4009   4.569   2.525  15.639 -0.1314  0.7158  0.7625
  265MPD2    C4 4010   4.517   2.406  15.690 -0.6091  0.1265 -0.2469
  265MPD2    C5 4011   4.441   2.411  15.799 -0.1110  0.3218  0.2846
  265MPD2     H 4012   4.593   2.736  15.670  0.9073 -1.5774 -2.4125
  265MPD2    H1 4013   4.551   2.313  15.646 -1.4838 -0.4118  0.2148
  265MPD2    H2 4014   4.339   2.524  15.952 -0.0159 -1.1888 -0.2162
  265MPD2    H3 4015   4.391   2.324  15.841 -1.2796  1.1127  0.5399
  265MPD2     N 4016   4.649   2.504  15.518  0.9872 -0.2723  0.5544
  265MPD2    H5 4017   4.676   2.411  15.488  1.3421 -0.3064  0.9747
  265MPD2    N1 4018   4.429   2.774  15.873  0.3562  0.1416 -0.7077
  265MPD2    H7 4019   4.460   2.864  15.839 -1.0708  0.3248 -1.5118
  266TMC3    C1 4020   4.370   2.927  16.042  0.0499  0.0514  0.7488
  266TMC3    C2 4021   4.392   2.962  16.173  0.4964 -0.2187 -0.8092
  266TMC3    C3 4022   4.377   3.096  16.213  0.0557  0.6744  0.5424
  266TMC3    C4 4023   4.349   3.023  15.947  0.1137  0.5780  0.2510
  266TMC3    C5 4024   4.342   3.155  15.991  0.2027 -0.7625  0.0756
  266TMC3    C6 4025   4.364   3.196  16.117  0.5554  0.7838  0.7458
  266TMC3     C 4026   4.385   2.789  16.003 -0.3171 -0.7401 -0.1412
  266TMC3     O 4027   4.355   2.712  16.091  0.4499 -0.6346  0.2272
  266TMC3     H 4028   4.428   2.893  16.249 -0.1279 -1.2616 -1.4693
  266TMC3    H1 4029   4.333   3.011  15.841  0.9670 -0.8718  0.2878
  266TMC3    H2 4030   4.365   3.300  16.149 -0.0512  1.1549 -0.4515
  266TMC3    C7 4031   4.314   3.254  15.884 -0.2455 -0.4859 -1.1963
  266TMC3    C8 4032   4.463   3.129  16.327  0.3676 -0.3469  0.2500
  266TMC3    O1 4033   4.243   3.222  15.791 -0.6262 -0.1664 -0.0107
  266TMC3    O2 4034   4.537   3.038  16.365  0.4642  0.3331 -0.5434
  267MPD2     C 4035   2.792   3.659   0.514  0.4273 -0.8098 -0.2713
  267MPD2    C1 4036   2.773   3.742   0.401 -0.0916 -0.6799  0.3677
  267MPD2    C2 4037   2.650   3.747   0.341  0.5883  0.5609  0.2144
  267MPD2    C3 4038   2.558   3.651   0.371  0.3164 -0.3997 -0.2312
  267MPD2    C4 4039   2.578   3.565   0.480  0.3516  0.2908  0.6694
  267MPD2    C5 4040   2.699   3.568   0.554 -0.3853  0.4018 -0.4364
  267MPD2     H 4041   2.624   3.815   0.261  1.7271 -0.4548 -1.0170
  267MPD2    H1 4042   2.510   3.486   0.508 -2.1475  1.6723 -1.4864
  267MPD2    H2 4043   2.881   3.665   0.575  0.0154  0.0320  0.2451
  267MPD2    H3 4044   2.707   3.510   0.644  1.1177  0.5059 -0.4934
  267MPD2     N 4045   2.437   3.638   0.298 -0.3540  0.1128  0.2469
  267MPD2    H5 4046   2.372   3.572   0.340 -0.6221  0.7379  0.8082
  267MPD2    N1 4047   2.873   3.844   0.385 -0.2642 -0.1757 -0.0456
  267MPD2    H7 4048   2.953   3.839   0.446  0.2682  0.1109 -0.7283
  268TMC3    C1 4049   2.963   4.053   0.342  0.1039  0.1606  0.3749
  268TMC3    C2 4050   2.984   4.151   0.252  0.3849 -0.0919  0.0643
  268TMC3    C3 4051   3.020   4.276   0.298 -0.4991  0.0150  0.0173
  268TMC3    C4 4052   2.978   4.087   0.479 -0.4330 -0.6564 -0.5198
  268TMC3    C5 4053   3.010   4.216   0.519 -0.5378  0.3046  0.0268
  268TMC3    C6 4054   3.030   4.315   0.425  0.1533 -0.6597  0.1017
  268TMC3     C 4055   2.863   3.956   0.309 -0.0265  0.3520  0.5663
  268TMC3     O 4056   2.780   3.990   0.225  0.1354 -0.4696  0.0592
  268TMC3     H 4057   3.000   4.120   0.150  0.3902  0.3412 -0.0657
  268TMC3    H1 4058   2.953   4.011   0.551  3.2814 -0.6889  0.7269
  268TMC3    H2 4059   3.043   4.420   0.448 -1.5706 -0.5441  0.5222
  268TMC3    C7 4060   2.982   4.254   0.658  0.7070 -0.2723 -0.2517
  268TMC3    C8 4061   3.052   4.380   0.207  0.1701  0.2191  0.0562
  268TMC3    O1 4062   2.949   4.162   0.729  0.7203  0.4567 -0.2206
  268TMC3    O2 4063   3.132   4.468   0.240  0.3755 -0.0302 -1.0327
  269MPD2     C 4064   2.383   2.982  16.038  0.2106  0.0298 -0.9297
  269MPD2    C1 4065   2.267   3.031  16.096  0.6475 -0.2077 -0.4387
  269MPD2    C2 4066   2.236   3.171  16.082  0.1544 -0.4254  0.3613
  269MPD2    C3 4067   2.305   3.250  15.992  0.4037 -0.6582  0.1380
  269MPD2    C4 4068   2.417   3.190  15.932 -0.4096 -1.0531  0.2761
  269MPD2    C5 4069   2.456   3.065  15.959 -0.4200 -0.9537 -0.0101
  269MPD2     H 4070   2.144   3.203  16.130  0.0076  1.0953 -0.9106
  269MPD2    H1 4071   2.463   3.247  15.851  1.5029 -0.7366  1.5692
  269MPD2    H2 4072   2.418   2.881  16.053 -0.6825  0.2165  2.4820
  269MPD2    H3 4073   2.538   3.014  15.912  0.1263 -0.7071  0.6685
  269MPD2     N 4074   2.263   3.380  15.973  0.5597  0.5115  0.3463
  269MPD2    H5 4075   2.176   3.402  16.021  1.1596  1.1905  1.1089
  269MPD2    N1 4076   2.187   2.943  16.166  0.3272  0.7329  0.2118
  269MPD2    H7 4077   2.209   2.844  16.159 -3.3460 -0.1038  0.8079
  270TMC3    C1 4078   1.999   2.854  16.278  0.3068 -0.6048  0.6402
  270TMC3    C2 4079   1.877   2.846  16.205  0.5132  0.4602 -0.0419
  270TMC3    C3 4080   1.841   2.725  16.160 -0.7314  0.0108 -0.2238
  270TMC3    C4 4081   2.081   2.742  16.289 -0.2479  0.2551 -0.3925
  270TMC3    C5 4082   2.030   2.628  16.251  0.0792  0.7790  0.1636
  270TMC3    C6 4083   1.911   2.611  16.186 -0.8017  0.3260  0.0760
  270TMC3     C 4084   2.072   2.975  16.244  0.1945 -0.0225 -0.1451
  270TMC3     O 4085   2.015   3.078  16.265  0.2566 -0.4512 -0.2689
  270TMC3     H 4086   1.815   2.933  16.188  1.4668  0.9027 -1.3098
  270TMC3    H1 4087   2.179   2.758  16.334 -0.5139  1.0071 -0.0813
  270TMC3    H2 4088   1.882   2.511  16.157 -2.5065  0.4998  1.1600
  270TMC3    C7 4089   2.114   2.509  16.286 -0.0382  0.4868  0.2792
  270TMC3    C8 4090   1.744   2.707  16.052 -1.1046 -0.2087 -0.5768
  270TMC3    O1 4091   2.235   2.528  16.298 -0.2257  0.8472 -0.2764
  270TMC3    O2 4092   1.638   2.768  16.066  0.5998 -0.3138 -0.2034
  271MPD2     C 4093   1.315   2.797  14.303  0.5443  0.5719 -0.6015
  271MPD2    C1 4094   1.294   2.843  14.425 -0.1970 -0.0189  0.2487
  271MPD2    C2 4095   1.227   2.968  14.441 -0.7687 -0.0310 -0.2143
  271MPD2    C3 4096   1.168   3.026  14.327 -0.2928  1.0582 -0.4986
  271MPD2    C4 4097   1.179   2.967  14.209 -0.1127  0.5700 -0.2124
  271MPD2    C5 4098   1.256   2.857  14.193  0.2371 -0.5666 -0.4628
  271MPD2     H 4099   1.217   3.014  14.539  0.6295 -0.5872  0.1960
  271MPD2    H1 4100   1.127   2.999  14.120 -1.3722  1.8107  0.9717
  271MPD2    H2 4101   1.384   2.716  14.287  0.1796  0.1130  0.1379
  271MPD2    H3 4102   1.270   2.818  14.094  0.9604 -0.5392 -0.3687
  271MPD2     N 4103   1.087   3.144  14.323 -0.2328 -0.4538  0.0553
  271MPD2    H5 4104   1.037   3.167  14.237 -0.2184 -1.1237 -0.1329
  271MPD2    N1 4105   1.355   2.781  14.536  0.1664 -0.1240  0.2808
  271MPD2    H7 4106   1.356   2.838  14.620 -0.4020 -1.1229  0.9735
  272TMC3    C1 4107   1.476   2.626  14.653  0.0669  1.0424 -0.6435
  272TMC3    C2 4108   1.602   2.572  14.642  0.3997 -0.6952  0.1716
  272TMC3    C3 4109   1.669   2.554  14.754 -0.0546 -0.3268 -0.8584
  272TMC3    C4 4110   1.419   2.663  14.777 -0.0436 -0.5658  0.4174
  272TMC3    C5 4111   1.496   2.647  14.885 -0.5027  0.0355 -0.5668
  272TMC3    C6 4112   1.621   2.596  14.875 -0.2976  0.1529 -1.2723
  272TMC3     C 4113   1.411   2.658  14.531 -0.5188  0.4704 -0.0261
  272TMC3     O 4114   1.385   2.562  14.456  0.6780 -0.1135 -0.5385
  272TMC3     H 4115   1.647   2.551  14.545  1.5322 -0.1778  0.5803
  272TMC3    H1 4116   1.323   2.712  14.772 -0.2883 -1.2025 -0.8568
  272TMC3    H2 4117   1.681   2.582  14.965 -2.0701  0.6126 -0.0115
  272TMC3    C7 4118   1.439   2.695  15.011  0.2467  0.5539 -0.9260
  272TMC3    C8 4119   1.813   2.553  14.737  0.0341 -0.5241  0.0901
  272TMC3    O1 4120   1.321   2.687  15.016 -0.9076  0.0367 -0.0451
  272TMC3    O2 4121   1.845   2.594  14.625 -0.0646  0.1736  0.2523
  273MPD2     C 4122   3.094   1.287  11.928 -0.5373  0.1695 -0.1643
  273MPD2    C1 4123   3.207   1.363  11.938 -0.1816  0.5144 -0.2224
  273MPD2    C2 4124   3.281   1.384  11.820  0.0930  0.5860 -0.1412
  273MPD2    C3 4125   3.237   1.335  11.699 -0.1576  0.1107 -0.5709
  273MPD2    C4 4126   3.115   1.269  11.691 -0.3483  1.0556 -0.2683
  273MPD2    C5 4127   3.043   1.253  11.805  0.1042 -0.2708  0.7039
  273MPD2     H 4128   3.374   1.440  11.816  0.7622 -0.6222 -1.3023
  273MPD2    H1 4129   3.076   1.226  11.600 -0.0619  0.8111 -0.2785
  273MPD2    H2 4130   3.024   1.268  12.008 -1.2747 -0.1036 -0.8734
  273MPD2    H3 4131   2.948   1.201  11.800  1.9075 -3.3017 -1.9919
  273MPD2     N 4132   3.316   1.370  11.585  0.1334  0.3219 -0.5408
  273MPD2    H5 4133   3.401   1.424  11.600  0.2481  0.2389 -0.8858
  273MPD2    N1 4134   3.250   1.391  12.071 -0.4941  0.5698 -0.5741
  273MPD2    H7 4135   3.206   1.331  12.139  1.3927  1.4012  1.3805
  274TMC3    C1 4136   3.342   1.407  11.343 -0.1741  0.3740 -0.2660
  274TMC3    C2 4137   3.273   1.404  11.229  0.9462 -0.1859  0.1308
  274TMC3    C3 4138   3.290   1.507  11.136 -0.4034 -0.4259 -0.2935
  274TMC3    C4 4139   3.429   1.507  11.368 -0.0735 -0.3009 -0.7261
  274TMC3    C5 4140   3.437   1.607  11.284  0.3141 -0.0005 -0.8042
  274TMC3    C6 4141   3.376   1.610  11.160 -0.2497 -0.1576  0.8296
  274TMC3     C 4142   3.284   1.328  11.451  0.0020  0.2695 -0.0130
  274TMC3     O 4143   3.199   1.245  11.420 -0.5850 -0.3149 -0.6200
  274TMC3     H 4144   3.205   1.321  11.211 -0.7783  1.0156  1.1785
  274TMC3    H1 4145   3.497   1.500  11.453 -0.4585 -1.1957 -0.4854
  274TMC3    H2 4146   3.364   1.703  11.106 -3.5621 -0.8721  0.3472
  274TMC3    C7 4147   3.435   1.741  11.345  0.1781  0.2590  0.9353
  274TMC3    C8 4148   3.200   1.506  11.026  0.4706 -0.0383  0.5083
  274TMC3    O1 4149   3.356   1.827  11.301  0.0273  0.0926  0.9632
  274TMC3    O2 4150   3.111   1.423  11.024 -0.5403  0.3215 -0.2226
  275MPD2     C 4151   2.904   3.785  14.835 -0.5869  0.4858 -0.7474
  275MPD2    C1 4152   2.793   3.791  14.917 -0.7019 -0.7545  0.2962
  275MPD2    C2 4153   2.683   3.726  14.874 -0.0661  0.5907 -0.4856
  275MPD2    C3 4154   2.676   3.675  14.746 -0.7733  0.0359  0.2045
  275MPD2    C4 4155   2.788   3.671  14.666  0.2080 -0.5358  0.4296
  275MPD2    C5 4156   2.901   3.734  14.710  0.2084 -0.2228  0.2575
  275MPD2     H 4157   2.597   3.718  14.939  0.7383 -0.6700  0.4310
  275MPD2    H1 4158   2.800   3.610  14.577 -0.2759 -0.1707  0.1174
  275MPD2    H2 4159   2.997   3.833  14.864 -0.6964 -0.3300  0.9739
  275MPD2    H3 4160   2.993   3.731  14.653 -0.1381 -3.3702 -0.1814
  275MPD2     N 4161   2.554   3.632  14.699  0.3910  0.5001  0.3576
  275MPD2    H5 4162   2.564   3.606  14.601  0.0913  3.5200 -0.4667
  275MPD2    N1 4163   2.788   3.851  15.040 -0.0082  0.5081 -0.0741
  275MPD2    H7 4164   2.722   3.808  15.103 -0.1299 -1.0265 -1.2584
  276TMC3    C1 4165   2.837   3.979  15.229 -0.0750 -0.3568 -0.6839
  276TMC3    C2 4166   2.813   3.877  15.305  0.9444 -0.0971  0.3519
  276TMC3    C3 4167   2.757   3.904  15.425 -0.1410  0.4005 -0.6935
  276TMC3    C4 4168   2.803   4.107  15.252  0.2985 -0.4884 -0.2268
  276TMC3    C5 4169   2.737   4.128  15.372 -0.4213 -0.3048  0.7313
  276TMC3    C6 4170   2.723   4.027  15.453  0.3664  0.0607  0.2907
  276TMC3     C 4171   2.875   3.950  15.089  0.4982  0.5879  0.9007
  276TMC3     O 4172   2.939   4.032  15.025 -0.2003 -0.1747 -0.4930
  276TMC3     H 4173   2.855   3.781  15.278  4.5870  1.2334  1.2037
  276TMC3    H1 4174   2.813   4.185  15.178  0.4207  0.1616  0.4654
  276TMC3    H2 4175   2.678   4.052  15.549 -1.4513  0.4201 -0.6480
  276TMC3    C7 4176   2.759   4.259  15.430  0.5304 -0.5876 -0.2914
  276TMC3    C8 4177   2.708   3.793  15.515  0.0561  0.5142  0.4276
  276TMC3    O1 4178   2.796   4.250  15.547  0.6648  0.4362  0.1361
  276TMC3    O2 4179   2.623   3.822  15.598  0.4769 -0.7144 -0.2417
  277MPD2     C 4180   0.025   3.044  13.797 -0.1720  0.4908  0.9352
  277MPD2    C1 4181   4.613   3.026  13.805  0.5295  0.6633 -0.1128
  277MPD2    C2 4182   4.549   3.016  13.929 -0.2549 -0.5440  0.1211
  277MPD2    C3 4183   4.628   3.001  14.038 -0.1486  0.1390  0.3196
  277MPD2    C4 4184   0.039   2.999  14.032 -0.0356 -1.2485 -0.1280
  277MPD2    C5 4185   0.098   3.032  13.912  0.0245  0.5293 -0.5761
  277MPD2     H 4186   4.442   3.014  13.949 -0.0654  1.9878  1.4199
  277MPD2    H1 4187   0.099   2.973  14.118 -1.0664  1.3884  1.3869
  277MPD2    H2 4188   0.075   3.072  13.705  0.2326  0.5730  1.1766
  277MPD2    H3 4189   0.204   3.025  13.892 -0.0623 -0.3507 -0.7211
  277MPD2     N 4190   4.555   2.981  14.156 -0.2900  0.1484 -0.7184
  277MPD2    H5 4191   4.455   2.987  14.139 -0.2563  1.1595 -0.5547
  277MPD2    N1 4192   4.552   3.040  13.683 -0.5396  0.8875  0.2262
  277MPD2    H7 4193   4.611   3.066  13.605  1.6071 -1.2983  1.1155
  278TMC3    C1 4194   4.500   2.915  14.364  0.4072 -0.3900 -0.1166
  278TMC3    C2 4195   4.490   2.781  14.387 -0.0252  0.1888 -0.5532
  278TMC3    C3 4196   4.374   2.712  14.374  0.1854 -0.9648  0.1940
  278TMC3    C4 4197   4.388   2.980  14.322 -0.0419 -0.0823  0.1322
  278TMC3    C5 4198   4.270   2.905  14.304 -0.1868  0.6068 -0.3261
  278TMC3    C6 4199   4.257   2.771  14.317  0.5096 -0.0033  0.5136
  278TMC3     C 4200   4.611   2.944  14.279  0.0277  0.5231 -0.3615
  278TMC3     O 4201   0.004   2.915  14.303 -0.0791 -0.1262  0.5823
  278TMC3     H 4202   4.576   2.726  14.422 -0.0075 -0.0050 -0.8991
  278TMC3    H1 4203   4.394   3.087  14.307  0.8245 -0.1230  0.1633
  278TMC3    H2 4204   4.172   2.709  14.287  1.5589 -1.6462  0.9402
  278TMC3    C7 4205   4.167   2.976  14.227  0.6641  0.8054  0.2183
  278TMC3    C8 4206   4.382   2.567  14.388 -0.2105  0.0380 -0.6592
  278TMC3    O1 4207   4.213   3.054  14.148  0.4388  0.1549  0.1743
  278TMC3    O2 4208   4.481   2.519  14.442 -0.5851 -0.5042  0.0821
  279MPD2     C 4209   3.746   2.314   0.593  0.4663 -0.3730  0.0926
  279MPD2    C1 4210   3.729   2.451   0.598  0.1238 -0.6571 -0.0738
  279MPD2    C2 4211   3.734   2.526   0.482 -0.4069 -0.1673  0.9787
  279MPD2    C3 4212   3.771   2.474   0.366  0.5364  0.6426 -0.0566
  279MPD2    C4 4213   3.792   2.340   0.356  0.1797 -0.5510 -0.1899
  279MPD2    C5 4214   3.775   2.259   0.469 -1.0478 -0.2743  0.2901
  279MPD2     H 4215   3.707   2.630   0.492 -0.7572 -0.0582 -1.1439
  279MPD2    H1 4216   3.812   2.300   0.257  2.1577  1.9225 -0.8057
  279MPD2    H2 4217   3.730   2.246   0.676 -1.2365  1.6242  1.3862
  279MPD2    H3 4218   3.782   2.151   0.463  0.7309 -0.2812  2.2376
  279MPD2     N 4219   3.791   2.561   0.255 -0.2970  0.1443 -0.9035
  279MPD2    H5 4220   3.814   2.504   0.174 -1.0183 -1.8408  0.2764
  279MPD2    N1 4221   3.701   2.505   0.722  0.7582  0.0259 -0.1718
  279MPD2    H7 4222   3.679   2.445   0.800 -1.7056 -0.7120 -1.4410
  280TMC3    C1 4223   3.584   2.676   0.853  0.7631 -0.3355 -0.4407
  280TMC3    C2 4224   3.466   2.603   0.851 -0.0291  0.6264  0.5260
  280TMC3    C3 4225   3.347   2.662   0.861  0.3764  0.3274  0.4305
  280TMC3    C4 4226   3.581   2.811   0.879 -0.4372  0.5126 -0.0164
  280TMC3    C5 4227   3.455   2.874   0.874 -0.0125 -0.4219 -0.2531
  280TMC3    C6 4228   3.341   2.794   0.874 -0.0093  0.5485  0.2560
  280TMC3     C 4229   3.679   2.639   0.750  0.0971  0.2968 -0.8697
  280TMC3     O 4230   3.724   2.735   0.693  0.1333 -0.7265  0.6224
  280TMC3     H 4231   3.471   2.495   0.859  1.0465  0.4694 -2.0905
  280TMC3    H1 4232   3.667   2.876   0.866 -0.5679  0.0391 -3.2720
  280TMC3    H2 4233   3.245   2.844   0.874  0.0171  0.6216  3.0147
  280TMC3    C7 4234   3.458   3.021   0.867 -0.1131 -0.2258  0.5308
  280TMC3    C8 4235   3.233   2.595   0.919  0.5516  0.2890 -0.2666
  280TMC3    O1 4236   3.556   3.079   0.917 -0.1800  0.3579 -0.3709
  280TMC3    O2 4237   3.157   2.650   0.996 -0.0314 -0.6043  0.2086
  281TMC3    C1 4238   2.055   2.756  13.183 -0.1643 -0.1228 -0.8263
  281TMC3    C2 4239   1.998   2.859  13.115  0.5122 -0.3282  0.0575
  281TMC3    C3 4240   1.864   2.854  13.088 -0.5714  0.2210  0.3401
  281TMC3    C4 4241   1.981   2.635  13.207  0.8014 -0.2136  0.5989
  281TMC3    C5 4242   1.842   2.637  13.196  0.0952 -0.6430  0.0478
  281TMC3    C6 4243   1.786   2.742  13.121  0.2426 -0.5040 -0.3883
  281TMC3     C 4244   2.119   2.787  13.307 -0.1060 -0.5170  0.0248
  281TMC3     O 4245   2.137   2.702  13.391  0.3422  0.0556  0.0566
  281TMC3     H 4246   2.052   2.947  13.084 -0.3345 -0.0954 -0.7534
  281TMC3    H1 4247   2.026   2.551  13.259  0.9403 -1.2962 -1.2795
  281TMC3    H2 4248   1.678   2.745  13.133  0.2433  0.1846 -0.5649
  281TMC3    C7 4249   1.768   2.597  13.312 -0.1958  0.1175  0.2368
  281TMC3    C8 4250   1.815   2.991  13.084  0.4675  0.5197 -0.3564
  281TMC3    O1 4251   1.647   2.576  13.294 -0.1781  0.6450  0.5396
  281TMC3    O2 4252   1.863   3.073  13.157  0.5429 -0.6257 -0.1787
  282MPD2     C 4253   4.414   4.440  15.576  0.1126 -0.5528  0.2367
  282MPD2    C1 4254   4.283   4.484  15.613 -0.8936 -0.2974 -0.0468
  282MPD2    C2 4255   4.183   4.456  15.525 -0.4068 -0.2772  0.5768
  282MPD2    C3 4256   4.205   4.394  15.403 -0.4779 -0.4734  0.3085
  282MPD2    C4 4257   4.336   4.363  15.368  0.2376  0.1315  0.6041
  282MPD2    C5 4258   4.438   4.383  15.456  0.3155  0.2634 -0.0106
  282MPD2     H 4259   4.084   4.489  15.554 -0.0522  1.5739 -0.2874
  282MPD2    H1 4260   4.362   4.319  15.273 -1.2235 -1.1454  0.8093
  282MPD2    H2 4261   4.495   4.459  15.645 -0.6145 -0.7852  1.1671
  282MPD2    H3 4262   4.539   4.358  15.424 -0.3735  0.1619 -2.1543
  282MPD2     N 4263   4.095   4.371  15.318  0.2230  0.3837  0.1870
  282MPD2    H5 4264   4.003   4.391  15.355 -0.5263 -0.6789 -1.1121
  282MPD2    N1 4265   4.250   4.545  15.737  0.3353 -0.5572  0.2445
  282MPD2    H7 4266   4.156   4.583  15.744  0.5423  0.3917 -2.2769
  283TMC3    C1 4267   4.256   4.567  15.964  0.0857 -0.0805  0.0531
  283TMC3    C2 4268   4.301   4.646  16.069 -1.0244  0.1381  0.4571
  283TMC3    C3 4269   4.229   4.634  16.187 -0.2125  0.7040 -0.0655
  283TMC3    C4 4270   4.159   4.471  15.983 -0.0418 -0.2132 -0.0437
  283TMC3    C5 4271   4.100   4.463  16.107 -0.0271 -0.0324 -0.1762
  283TMC3    C6 4272   4.130   4.551  16.208  0.5485  0.3870 -0.1067
  283TMC3     C 4273   4.333   4.554  15.842  0.0110  0.5215  0.0060
  283TMC3     O 4274   4.446   4.518  15.864  0.3106  0.1802  0.2588
  283TMC3     H 4275   4.392   4.704  16.054 -1.5072  0.4240 -1.3690
  283TMC3    H1 4276   4.116   4.416  15.900 -1.4738  0.8181 -0.0011
  283TMC3    H2 4277   4.086   4.536  16.306 -3.1866 -0.6499 -1.9345
  283TMC3    C7 4278   4.012   4.356  16.139  0.4893 -0.4614  0.6814
  283TMC3    C8 4279   4.252   0.021  16.281 -0.1367  0.0925  0.2960
  283TMC3    O1 4280   3.944   4.365  16.244  0.1166 -0.5708 -0.4439
  283TMC3    O2 4281   4.261   4.723  16.401  0.6943 -0.6828  0.0413
  284MPD2     C 4282   2.252   3.967  12.451  0.6706 -0.3707 -0.2702
  284MPD2    C1 4283   2.386   3.928  12.422 -0.0259 -0.4206 -0.3158
  284MPD2    C2 4284   2.429   3.823  12.497 -0.9842  0.3890  0.0066
  284MPD2    C3 4285   2.364   3.762  12.607  0.7308  0.2868 -0.3171
  284MPD2    C4 4286   2.229   3.804  12.631 -1.1935  0.7212  0.3083
  284MPD2    C5 4287   2.181   3.909  12.557  0.0281  0.3647  0.1007
  284MPD2     H 4288   2.529   3.787  12.476 -0.3261  2.9868 -1.3622
  284MPD2    H1 4289   2.163   3.760  12.705 -1.3334 -1.6066 -1.1863
  284MPD2    H2 4290   2.196   4.034  12.386  0.2981  0.2210  0.6730
  284MPD2    H3 4291   2.079   3.942  12.565 -0.3701 -0.8514  0.1201
  284MPD2     N 4292   2.435   3.679  12.694 -0.4859 -0.1184  0.0889
  284MPD2    H5 4293   2.528   3.647  12.666 -0.6340 -1.0022  0.5945
  284MPD2    N1 4294   2.469   3.975  12.313 -0.2105  0.0020  0.5189
  284MPD2    H7 4295   2.555   3.924  12.298 -0.0484  0.5433 -0.4223
  285TMC3    C1 4296   2.547   4.113  12.140  0.2396  0.2256 -0.0789
  285TMC3    C2 4297   2.604   3.998  12.091  0.0130  0.4115  0.5630
  285TMC3    C3 4298   2.740   4.009  12.080  0.5693  0.7243 -0.1892
  285TMC3    C4 4299   2.600   4.236  12.141  0.0228  0.1042  0.1337
  285TMC3    C5 4300   2.732   4.238  12.107 -0.0316  0.0044 -0.2639
  285TMC3    C6 4301   2.804   4.126  12.085 -0.2333  0.6786 -0.3204
  285TMC3     C 4302   2.437   4.087  12.235 -0.0857  0.4234  0.0334
  285TMC3     O 4303   2.342   4.159  12.241 -0.2038  0.3340 -0.0075
  285TMC3     H 4304   2.549   3.905  12.082 -1.2143  1.4266 -2.4789
  285TMC3    H1 4305   2.540   4.321  12.171 -0.9277 -0.3560 -0.4675
  285TMC3    H2 4306   2.911   4.140  12.072 -0.1173  0.8246  0.7702
  285TMC3    C7 4307   2.808   4.367  12.117  0.1635  0.6248  0.5059
  285TMC3    C8 4308   2.801   3.899  12.014  0.3996  0.3351  0.6210
  285TMC3    O1 4309   2.748   4.470  12.087  0.1459  0.2116 -0.4639
  285TMC3    O2 4310   2.727   3.845  11.937 -0.0203  0.2859  0.3878
  286MPD2     C 4311   3.275   2.787   2.128 -0.2175  0.0527  0.7157
  286MPD2    C1 4312   3.247   2.722   2.012  0.4856  0.0271 -0.4683
  286MPD2    C2 4313   3.315   2.603   1.983 -0.2773  0.6487  0.0443
  286MPD2    C3 4314   3.410   2.544   2.069  0.6786 -0.8292 -0.0583
  286MPD2    C4 4315   3.444   2.615   2.180  0.2487 -0.3049  0.1920
  286MPD2    C5 4316   3.385   2.738   2.208  0.1715 -0.4538  0.7182
  286MPD2     H 4317   3.280   2.544   1.899  0.4499 -0.6946  0.6779
  286MPD2    H1 4318   3.528   2.584   2.242 -0.3682 -0.5460  0.8980
  286MPD2    H2 4319   3.230   2.877   2.167 -2.1828  0.0097 -1.4892
  286MPD2    H3 4320   3.416   2.790   2.297  0.4496  0.8560 -0.1521
  286MPD2     N 4321   3.474   2.422   2.046  0.2670 -0.2111  0.1118
  286MPD2    H5 4322   3.535   2.382   2.117 -0.8069 -1.5055  0.3038
  286MPD2    N1 4323   3.155   2.761   1.917 -0.1995 -0.5631 -0.1153
  286MPD2    H7 4324   3.132   2.698   1.840 -0.2614 -0.0696 -0.4996
  287TMC3    C1 4325   3.570   2.256   1.919 -0.2370  0.4322 -0.4819
  287TMC3    C2 4326   3.560   2.157   1.823  0.7798 -0.2538 -0.5738
  287TMC3    C3 4327   3.668   2.076   1.797  0.2736  0.1241 -0.4050
  287TMC3    C4 4328   3.688   2.286   1.980  0.4569  0.8586 -0.8869
  287TMC3    C5 4329   3.790   2.191   1.953 -0.4341 -0.2693 -0.4484
  287TMC3    C6 4330   3.779   2.090   1.863  0.7802  0.0000 -0.3438
  287TMC3     C 4331   3.459   2.343   1.929  0.0496 -0.1083 -1.1168
  287TMC3     O 4332   3.385   2.350   1.834  0.1599 -0.1199 -0.0070
  287TMC3     H 4333   3.470   2.144   1.764 -0.2807 -0.1607  1.0263
  287TMC3    H1 4334   3.700   2.359   2.060 -2.0483 -0.6436  0.8637
  287TMC3    H2 4335   3.863   2.022   1.851  1.1360  0.5997 -1.2557
  287TMC3    C7 4336   3.911   2.214   2.034 -0.5127  0.2087 -0.4531
  287TMC3    C8 4337   3.638   1.955   1.731 -0.1917 -0.2796  0.1184
  287TMC3    O1 4338   3.891   2.259   2.145 -0.4293 -0.1137 -0.2373
  287TMC3    O2 4339   3.523   1.939   1.692 -0.1514 -0.1048  0.4979
  288TMC3    C1 4340   4.705   1.999  15.032 -0.0455 -0.1363  0.2958
  288TMC3    C2 4341   4.651   1.993  15.158 -0.5499 -0.5853  0.1343
  288TMC3    C3 4342   4.620   2.117  15.214 -0.5213  0.4230 -0.0067
  288TMC3    C4 4343   0.010   2.123  14.971 -0.5911  0.3693 -0.1355
  288TMC3    C5 4344   4.689   2.237  15.033  0.2272  0.5152  0.0277
  288TMC3    C6 4345   4.631   2.234  15.156  0.2161  0.1329  0.2697
  288TMC3     C 4346   0.027   1.880  14.964  0.7045 -0.4096 -0.5136
  288TMC3     O 4347   0.101   1.908  14.873 -0.2534 -0.4508  0.4065
  288TMC3     H 4348   4.658   1.903  15.218 -1.7560 -1.5595 -1.2086
  288TMC3    H1 4349   0.067   2.134  14.880  0.4725  2.7643  0.8367
  288TMC3    H2 4350   4.614   2.323  15.215 -2.8321  0.4430 -1.0796
  288TMC3    C7 4351   4.714   2.363  14.966 -0.3826 -0.1725 -0.3984
  288TMC3    C8 4352   4.591   2.115  15.360  0.5739  0.0290  0.3690
  288TMC3    O1 4353   0.083   2.364  14.888  0.8656  0.1462  0.0720
  288TMC3    O2 4354   4.631   2.207  15.432 -0.6117 -0.1752  0.2886
  289MPD2     C 4355   4.573   1.543  13.963 -0.8467  0.4573 -0.3606
  289MPD2    C1 4356   4.510   1.658  13.925 -0.9445  0.8190 -0.3947
  289MPD2    C2 4357   4.391   1.688  13.987 -0.4231 -0.0960 -0.0785
  289MPD2    C3 4358   4.336   1.596  14.076 -0.3022 -0.4609 -0.2729
  289MPD2    C4 4359   4.409   1.490  14.125  0.6023 -0.5516  1.1648
  289MPD2    C5 4360   4.525   1.460  14.066 -0.2075 -0.2221  0.0751
  289MPD2     H 4361   4.336   1.780  13.969  2.6551  1.3554 -1.9988
  289MPD2    H1 4362   4.362   1.418  14.191 -1.1132  1.0053  1.6420
  289MPD2    H2 4363   4.666   1.500  13.927 -0.4253  0.2786  0.9027
  289MPD2    H3 4364   4.571   1.365  14.093  3.0976  1.6584  1.1075
  289MPD2     N 4365   4.207   1.630  14.124  0.5091  0.2425  0.2334
  289MPD2    H5 4366   4.179   1.718  14.083 -1.4699 -1.1694 -1.4001
  289MPD2    N1 4367   4.567   1.742  13.834 -0.5535  0.6020 -0.9289
  289MPD2    H7 4368   4.655   1.709  13.796  1.0104  0.6686  2.6327
  290TMC3    C1 4369   3.994   1.610  14.248  0.0453  0.6142  0.2783
  290TMC3    C2 4370   3.928   1.695  14.161 -0.1692 -0.1989 -0.1458
  290TMC3    C3 4371   3.800   1.714  14.192 -0.5054  0.7213  0.3848
  290TMC3    C4 4372   3.935   1.544  14.351 -0.0660 -0.1591 -0.1618
  290TMC3    C5 4373   3.797   1.565  14.374 -0.2974  0.2783  0.0118
  290TMC3    C6 4374   3.736   1.656  14.297 -0.0503  0.7235 -0.0638
  290TMC3     C 4375   4.130   1.563  14.213  0.6036 -0.5351 -0.0601
  290TMC3     O 4376   4.149   1.453  14.263  0.4596 -0.4179 -0.4580
  290TMC3     H 4377   3.971   1.729  14.067  1.6386 -0.7124  0.4959
  290TMC3    H1 4378   3.980   1.483  14.428  0.9100 -1.6568 -1.8969
  290TMC3    H2 4379   3.635   1.691  14.321 -0.1426 -1.1126  2.2543
  290TMC3    C7 4380   3.760   1.568  14.513  0.3447 -0.4295  0.1295
  290TMC3    C8 4381   3.753   1.849  14.166  0.2691  0.3920  0.5524
  290TMC3    O1 4382   3.694   1.664  14.552 -0.1834 -0.5431 -0.4140
  290TMC3    O2 4383   3.660   1.868  14.087  0.6011  0.3009  0.0614
  291MPD2     C 4384   3.978   1.523   0.788 -0.2904 -0.5297  0.1510
  291MPD2    C1 4385   4.052   1.408   0.771 -0.3881 -0.5861 -0.5201
  291MPD2    C2 4386   4.188   1.420   0.772  0.0958 -0.0249 -1.1023
  291MPD2    C3 4387   4.258   1.543   0.784  0.2658  0.8617 -0.0850
  291MPD2    C4 4388   4.173   1.653   0.807  0.6845  0.2568  0.4202
  291MPD2    C5 4389   4.039   1.639   0.811 -0.1093 -0.3550  0.9421
  291MPD2     H 4390   4.241   1.326   0.774 -0.7047 -0.4138  1.5599
  291MPD2    H1 4391   4.214   1.753   0.822  1.4017  0.2460 -1.5396
  291MPD2    H2 4392   3.872   1.518   0.806 -0.5897  1.9922 -0.8540
  291MPD2    H3 4393   3.975   1.727   0.812 -0.3934 -0.5031 -3.1064
  291MPD2     N 4394   4.401   1.568   0.769 -0.4369 -0.4584  0.5922
  291MPD2    H5 4395   4.440   1.649   0.816 -0.4864  2.0276 -3.6007
  291MPD2    N1 4396   3.997   1.284   0.760  0.0188 -0.0343  0.1564
  291MPD2    H7 4397   4.058   1.202   0.764 -0.1933 -0.2316 -0.6139
  292TMC3    C1 4398   3.857   1.112   0.748 -0.2649 -1.1808  0.8832
  292TMC3    C2 4399   3.924   1.065   0.859 -0.0591 -0.2004 -0.1481
  292TMC3    C3 4400   3.927   0.931   0.877  0.2963  0.5213  0.0895
  292TMC3    C4 4401   3.779   1.030   0.673 -0.1852  0.0749 -0.3171
  292TMC3    C5 4402   3.784   0.897   0.701  0.4428 -0.1842  0.4469
  292TMC3    C6 4403   3.860   0.845   0.798 -0.0417 -0.1779 -0.6941
  292TMC3     C 4404   3.866   1.251   0.727  0.2336  0.4571  0.0119
  292TMC3     O 4405   3.778   1.324   0.686 -0.0037 -0.3667 -0.8499
  292TMC3     H 4406   3.957   1.131   0.938 -1.1059 -0.9198  0.8792
  292TMC3    H1 4407   3.731   1.075   0.586  0.0382  0.2383 -0.3577
  292TMC3    H2 4408   3.876   0.738   0.809 -0.4777 -0.1935 -0.1626
  292TMC3    C7 4409   3.758   0.813   0.593 -0.7748 -0.1717  0.2078
  292TMC3    C8 4410   3.957   0.899   1.010  0.0879 -0.1485 -0.5826
  292TMC3    O1 4411   3.841   0.721   0.587  0.1679  0.0825 -0.2824
  292TMC3    O2 4412   4.041   0.964   1.069  0.0752  0.2256 -0.8505
  293MPD2     C 4413   0.940   3.090  12.703  0.4325  0.0321 -0.6495
  293MPD2    C1 4414   0.844   3.026  12.778  0.5518 -0.0995 -0.4910
  293MPD2    C2 4415   0.865   3.007  12.915  0.3711  0.1079  0.0786
  293MPD2    C3 4416   0.972   3.075  12.980  0.0572  0.1295  0.6972
  293MPD2    C4 4417   1.063   3.139  12.905  0.4813 -0.2753 -0.2026
  293MPD2    C5 4418   1.044   3.158  12.771  0.6741  0.2414 -0.4027
  293MPD2     H 4419   0.792   2.960  12.980  0.9957  0.0983  0.7746
  293MPD2    H1 4420   1.155   3.182  12.943 -0.2453  0.6280  0.5273
  293MPD2    H2 4421   0.936   3.110  12.596  0.8692 -2.1857 -1.0764
  293MPD2    H3 4422   1.113   3.219  12.714 -1.1586 -0.9270 -3.9283
  293MPD2     N 4423   0.981   3.075  13.117  0.3102 -0.1775  0.1594
  293MPD2    H5 4424   0.930   3.005  13.169 -1.5053 -0.1491 -1.6124
  293MPD2    N1 4425   0.730   2.979  12.707 -0.2314 -0.2351 -0.0185
  293MPD2    H7 4426   0.722   3.014  12.612 -1.2739  3.6697  1.5144
  294TMC3    C1 4427   0.551   2.835  12.644 -0.0970 -1.0876  0.1904
  294TMC3    C2 4428   0.470   2.727  12.678 -0.0166  0.5537 -0.4246
  294TMC3    C3 4429   0.453   2.628  12.589  0.6055 -0.0379  0.2237
  294TMC3    C4 4430   0.607   2.850  12.513  0.4790  0.8673 -0.0257
  294TMC3    C5 4431   0.587   2.742  12.434  0.6874 -0.1359  0.6482
  294TMC3    C6 4432   0.507   2.636  12.465  0.2700  0.4020 -0.5478
  294TMC3     C 4433   0.628   2.898  12.757 -0.7537  0.1178  0.0936
  294TMC3     O 4434   0.589   2.883  12.873  0.4279  0.8476  0.2748
  294TMC3     H 4435   0.453   2.714  12.784  0.9921 -0.9353 -0.4425
  294TMC3    H1 4436   0.664   2.936  12.482  2.1677  0.5900  2.3194
  294TMC3    H2 4437   0.498   2.560  12.388  1.5316  0.2895 -0.5865
  294TMC3    C7 4438   0.687   2.718  12.336 -0.2334 -0.1598  0.3227
  294TMC3    C8 4439   0.375   2.517  12.645 -0.3108 -0.1121  0.1345
  294TMC3    O1 4440   0.714   2.605  12.325 -0.8710 -0.1128  0.2084
  294TMC3    O2 4441   0.363   2.517  12.771 -0.2621  0.2006  0.4904
  295MPD2     C 4442   1.033   0.399   1.155  0.2579  0.2617 -0.5411
  295MPD2    C1 4443   0.992   0.511   1.088 -0.3415 -0.0333 -0.6347
  295MPD2    C2 4444   1.001   0.633   1.152  0.9795 -0.1563 -0.8543
  295MPD2    C3 4445   1.051   0.644   1.280 -0.6486 -0.0905  0.1629
  295MPD2    C4 4446   1.104   0.533   1.341 -0.4160  0.3919  0.9576
  295MPD2    C5 4447   1.084   0.410   1.282 -0.6698 -0.0216 -0.7721
  295MPD2     H 4448   0.979   0.723   1.096  0.3241  0.0529 -0.2548
  295MPD2    H1 4449   1.158   0.527   1.435  0.4087  0.1267  0.4675
  295MPD2    H2 4450   1.020   0.303   1.106 -1.7692  1.2456 -1.9496
  295MPD2    H3 4451   1.106   0.317   1.334 -0.0911  0.2841 -0.4740
  295MPD2     N 4452   1.068   0.763   1.355 -0.1203  0.1191 -0.3110
  295MPD2    H5 4453   1.102   0.764   1.451  1.0226 -1.2606 -0.6913
  295MPD2    N1 4454   0.942   0.520   0.958 -0.1337  0.3709  0.9175
  295MPD2    H7 4455   0.916   0.609   0.917  0.9870  0.6269  0.7888
  296TMC3    C1 4456   1.038   0.977   1.430  0.1749 -0.1403 -0.2157
  296TMC3    C2 4457   1.046   1.109   1.390 -0.1923 -0.4053  0.2110
  296TMC3    C3 4458   1.026   1.207   1.488  1.0945 -0.5863 -0.1505
  296TMC3    C4 4459   1.001   0.938   1.557  0.3056 -0.1457  0.1170
  296TMC3    C5 4460   0.993   1.040   1.649 -0.0644 -0.2767 -0.0223
  296TMC3    C6 4461   1.007   1.181   1.621 -0.1249 -0.4454 -0.1748
  296TMC3     C 4462   1.025   0.886   1.320 -0.7941  0.1785  0.4467
  296TMC3     O 4463   0.969   0.919   1.216 -0.6413  0.1429  0.4814
  296TMC3     H 4464   1.070   1.142   1.290 -1.3987 -0.2933 -0.0356
  296TMC3    H1 4465   0.976   0.836   1.582  0.9476 -0.5947 -1.0692
  296TMC3    H2 4466   0.992   1.254   1.699  1.6245 -0.0004 -0.2579
  296TMC3    C7 4467   0.924   1.015   1.776 -0.3478  0.1146 -0.3021
  296TMC3    C8 4468   1.044   1.351   1.443  0.5648  0.2543 -0.4995
  296TMC3    O1 4469   0.852   1.105   1.818  0.2924 -0.5948 -0.2207
  296TMC3    O2 4470   1.056   1.362   1.321 -0.0915  0.5636 -0.1205
  297MPD2     C 4471   3.546   3.209  16.041  0.8967  0.4741  0.0530
  297MPD2    C1 4472   3.497   3.331  16.083  0.4776 -0.1032 -0.2788
  297MPD2    C2 4473   3.561   3.403  16.186  0.8027  0.0541  0.8981
  297MPD2    C3 4474   3.681   3.356  16.231 -0.0318  0.7966  0.4672
  297MPD2    C4 4475   3.733   3.240  16.183 -0.6888  0.5289  0.1409
  297MPD2    C5 4476   3.670   3.169  16.086  0.0705  0.0014 -0.2218
  297MPD2     H 4477   3.521   3.497  16.221  1.6990  0.6473  0.3506
  297MPD2    H1 4478   3.829   3.206  16.219 -1.0605  0.5614  1.1726
  297MPD2    H2 4479   3.494   3.148  15.968  2.5116 -0.8276 -0.0425
  297MPD2    H3 4480   3.711   3.072  16.059 -0.2771 -0.1962 -0.0432
  297MPD2     N 4481   3.775   3.435  16.305  0.4373  0.6861  0.9943
  297MPD2    H5 4482   3.867   3.392  16.314 -1.4089 -3.0944  2.0799
  297MPD2    N1 4483   3.382   3.382  16.029 -0.2912 -0.1736 -0.0737
  297MPD2    H7 4484   3.332   3.455  16.078 -0.8654 -0.9605  0.5160
  298TMC3    C1 4485   3.206   3.427  15.888  0.9663  0.2400 -0.0401
  298TMC3    C2 4486   3.204   3.493  15.771 -0.1463 -0.1039 -0.3882
  298TMC3    C3 4487   3.112   3.596  15.764  0.2196 -0.6480 -0.6866
  298TMC3    C4 4488   3.130   3.467  15.997 -0.7250 -0.5126  0.0664
  298TMC3    C5 4489   3.040   3.564  15.979 -0.8374 -0.2030  0.0302
  298TMC3    C6 4490   3.027   3.632  15.865  0.6864 -0.8606  0.7972
  298TMC3     C 4491   3.321   3.337  15.910  0.4368  0.1787  0.0957
  298TMC3     O 4492   3.358   3.271  15.816  0.1999 -0.1885  0.9090
  298TMC3     H 4493   3.261   3.457  15.687 -1.0514 -0.0720 -1.0187
  298TMC3    H1 4494   3.134   3.405  16.085  0.7203  0.0928  0.4213
  298TMC3    H2 4495   2.947   3.705  15.866  0.8065 -0.6856 -1.8059
  298TMC3    C7 4496   2.939   3.582  16.086  0.3364  0.0176  1.0716
  298TMC3    C8 4497   3.115   3.688  15.650  0.1261 -0.0413  0.4592
  298TMC3    O1 4498   2.891   3.694  16.102  0.5281 -0.2802  0.2451
  298TMC3    O2 4499   3.082   3.803  15.672  0.3781 -0.4973  0.1783
  299MPD2     C 4500   3.961   3.082  11.048  0.6553 -0.2326 -0.2541
  299MPD2    C1 4501   3.945   3.203  10.976  0.2447 -0.9247  0.2123
  299MPD2    C2 4502   3.851   3.209  10.871  0.1874  0.8734  0.1603
  299MPD2    C3 4503   3.776   3.097  10.840  0.5737  0.2126 -0.7877
  299MPD2    C4 4504   3.788   2.980  10.914  0.5218 -0.4213 -0.1438
  299MPD2    C5 4505   3.882   2.972  11.012 -0.2343 -0.0817 -0.0524
  299MPD2     H 4506   3.830   3.296  10.809 -1.8838  0.0808 -0.2350
  299MPD2    H1 4507   3.731   2.894  10.880  1.4385 -0.2981 -1.9461
  299MPD2    H2 4508   4.020   3.077  11.138 -1.0397  2.2510  0.9784
  299MPD2    H3 4509   3.877   2.882  11.072 -3.6591 -0.9550 -1.6644
  299MPD2     N 4510   3.701   3.078  10.728 -0.7918  0.2625  0.3078
  299MPD2    H5 4511   3.668   2.983  10.711 -0.0953  0.3004 -1.1935
  299MPD2    N1 4512   4.015   3.316  11.024 -0.0650  0.0234  0.0890
  299MPD2    H7 4513   4.066   3.299  11.110  1.5516  0.6554 -0.7357
  300TMC3    C1 4514   3.564   3.135  10.547 -0.3475  0.4349 -0.0977
  300TMC3    C2 4515   3.493   3.255  10.550  0.4719 -0.1404 -0.5842
  300TMC3    C3 4516   3.360   3.254  10.587 -0.1396  0.6846 -0.1580
  300TMC3    C4 4517   3.505   3.020  10.594 -0.0618  0.8142  0.3764
  300TMC3    C5 4518   3.382   3.023  10.649 -0.6736 -0.8433  0.8719
  300TMC3    C6 4519   3.308   3.137  10.638  0.4777 -0.1606  0.5177
  300TMC3     C 4520   3.692   3.158  10.618 -0.4931  0.0956  0.1006
  300TMC3     O 4521   3.742   3.269  10.599 -0.3571 -0.0446 -0.1453
  300TMC3     H 4522   3.536   3.345  10.508  1.1601 -0.0790  0.2397
  300TMC3    H1 4523   3.564   2.929  10.583 -2.6906 -0.8005 -0.3133
  300TMC3    H2 4524   3.209   3.144  10.681  0.6024  0.5484  0.6781
  300TMC3    C7 4525   3.382   2.952  10.778 -1.1263 -0.1497 -0.6234
  300TMC3    C8 4526   3.313   3.372  10.655 -0.0460 -0.4540  0.2456
  300TMC3    O1 4527   3.474   2.873  10.800 -0.2270 -0.1427 -0.2940
  300TMC3    O2 4528   3.388   3.471  10.649  0.4641 -0.3401 -0.1181
  301MPD2     C 4529   1.222   4.153   2.280 -0.2857 -0.4488  0.5367
  301MPD2    C1 4530   1.117   4.100   2.218 -0.4120 -0.5041 -0.6694
  301MPD2    C2 4531   1.123   3.965   2.189  0.1732 -0.9097 -0.3647
  301MPD2    C3 4532   1.236   3.892   2.221 -0.1368 -0.3796 -0.6633
  301MPD2    C4 4533   1.348   3.951   2.276 -0.6737  0.1523 -0.0783
  301MPD2    C5 4534   1.338   4.079   2.303  0.2664 -0.1556  0.3969
  301MPD2     H 4535   1.034   3.917   2.151  0.7613 -3.1503  1.0768
  301MPD2    H1 4536   1.439   3.897   2.303  0.0010  1.3938  0.1139
  301MPD2    H2 4537   1.231   4.261   2.292  0.8705 -0.3584 -1.0896
  301MPD2    H3 4538   1.432   4.118   2.342 -0.8927  1.6465  1.3568
  301MPD2     N 4539   1.242   3.746   2.199  0.0330 -0.2252  0.2273
  301MPD2    H5 4540   1.329   3.700   2.224 -0.2835 -0.6174  0.6012
  301MPD2    N1 4541   1.002   4.171   2.169  0.7002  0.1071  0.0509
  301MPD2    H7 4542   0.934   4.114   2.121  1.0566 -1.4871  1.4262
  302TMC3    C1 4543   1.183   3.527   2.133  0.0653  1.2080  0.9670
  302TMC3    C2 4544   1.309   3.474   2.158 -0.2757  0.1771  0.4234
  302TMC3    C3 4545   1.335   3.343   2.131 -0.0874 -0.1161 -0.5171
  302TMC3    C4 4546   1.091   3.454   2.057  0.1813 -0.4650  0.7311
  302TMC3    C5 4547   1.120   3.325   2.033  0.5186 -0.7376  0.2353
  302TMC3    C6 4548   1.233   3.263   2.075  0.0221  0.2279  0.1873
  302TMC3     C 4549   1.147   3.667   2.147 -0.0202  0.8087 -0.4056
  302TMC3     O 4550   1.027   3.694   2.126 -0.1591 -0.1102  0.1604
  302TMC3     H 4551   1.385   3.543   2.193 -1.4213  0.8243  1.6609
  302TMC3    H1 4552   0.991   3.492   2.041  1.7526  4.2833  2.2758
  302TMC3    H2 4553   1.256   3.158   2.062 -0.4131  0.0399  0.9030
  302TMC3    C7 4554   1.029   3.255   1.945  0.6822 -0.8712  0.7573
  302TMC3    C8 4555   1.477   3.305   2.134  0.9122 -0.0798 -0.2433
  302TMC3    O1 4556   1.033   3.132   1.945  0.6185  0.4273 -0.2250
  302TMC3    O2 4557   1.557   3.393   2.151  0.1498 -0.2103  0.2603
  303MPD2     C 4558   1.560   2.704  10.850 -0.5173  0.3306  0.2757
  303MPD2    C1 4559   1.459   2.618  10.890  0.5187  0.2035 -0.6785
  303MPD2    C2 4560   1.364   2.571  10.795 -0.5756 -0.5302 -0.9257
  303MPD2    C3 4561   1.375   2.604  10.661 -0.0981 -0.4793 -0.1291
  303MPD2    C4 4562   1.480   2.684  10.618  0.1885 -0.0460  0.0300
  303MPD2    C5 4563   1.569   2.729  10.714 -0.2087 -0.3368 -0.1915
  303MPD2     H 4564   1.290   2.504  10.838  0.6024 -0.1388  1.7340
  303MPD2    H1 4565   1.494   2.713  10.514 -1.2763 -1.3580 -0.5429
  303MPD2    H2 4566   1.628   2.750  10.921 -1.0688  0.2960  0.8234
  303MPD2    H3 4567   1.644   2.791  10.667  1.0266 -0.9481  0.9871
  303MPD2     N 4568   1.278   2.563  10.564  0.0030 -0.3658 -0.0762
  303MPD2    H5 4569   1.315   2.572  10.470 -0.6817 -0.8374 -0.3895
  303MPD2    N1 4570   1.447   2.576  11.027 -0.0038  0.4261  0.0206
  303MPD2    H7 4571   1.359   2.526  11.040 -0.7708  1.0531 -2.7990
  304TMC3    C1 4572   1.522   2.510  11.243 -0.3388 -0.4665 -0.0709
  304TMC3    C2 4573   1.528   2.551  11.374 -0.0226  0.1134 -0.0623
  304TMC3    C3 4574   1.495   2.459  11.473  1.1438 -0.0143  0.2384
  304TMC3    C4 4575   1.497   2.379  11.207 -0.9200  0.0698 -0.2676
  304TMC3    C5 4576   1.493   2.285  11.311  0.4984  0.2113 -0.5731
  304TMC3    C6 4577   1.489   2.327  11.439  0.6931 -0.5779 -0.1975
  304TMC3     C 4578   1.519   2.614  11.140 -0.3800  0.2045  0.5236
  304TMC3     O 4579   1.605   2.701  11.147  0.1949  0.1491 -0.5818
  304TMC3     H 4580   1.558   2.651  11.402  0.4201  0.4373 -1.7123
  304TMC3    H1 4581   1.503   2.347  11.103  2.7363  3.6368 -1.1834
  304TMC3    H2 4582   1.462   2.252  11.511  1.7760 -0.5928  0.1979
  304TMC3    C7 4583   1.400   2.176  11.288 -0.2527  0.1774  0.2674
  304TMC3    C8 4584   1.372   2.504  11.541 -0.9377  0.2595 -0.1973
  304TMC3    O1 4585   1.317   2.163  11.376  0.6666 -0.3507  0.6747
  304TMC3    O2 4586   1.387   2.597  11.621 -0.1167 -0.2364  0.0591
  305MPD2     C 4587   4.712   4.674  14.515 -0.0444 -0.3040  0.2089
  305MPD2    C1 4588   4.577   4.641  14.506 -0.3932  0.1166  0.1344
  305MPD2    C2 4589   4.505   4.664  14.385 -0.2757 -0.3983 -0.4889
  305MPD2    C3 4590   4.568   4.712  14.270 -0.3139 -0.1446 -0.1967
  305MPD2    C4 4591   4.703   0.014  14.278 -0.2591 -0.9160 -0.4847
  305MPD2    C5 4592   0.041   0.005  14.399 -0.5378 -0.7685 -0.8402
  305MPD2     H 4593   4.401   4.634  14.384  0.0391 -1.4629 -1.1252
  305MPD2    H1 4594   0.032   0.035  14.187  0.1246 -0.2781 -0.1079
  305MPD2    H2 4595   0.047   4.663  14.604  0.7897  0.9588 -0.2005
  305MPD2    H3 4596   0.145   0.034  14.399 -0.2318 -1.8946 -2.2758
  305MPD2     N 4597   4.496   4.722  14.144 -0.0857  0.4637 -0.1570
  305MPD2    H5 4598   4.538   0.054  14.071 -0.1703  0.7485  0.0167
  305MPD2    N1 4599   4.529   4.582  14.623 -0.2052  0.1602  0.2818
  305MPD2    H7 4600   4.582   4.579  14.709  0.8790  2.6611 -0.2988
  306TMC3    C1 4601   4.388   4.476  14.763 -0.0442  0.1422 -0.2761
  306TMC3    C2 4602   4.475   4.375  14.805 -0.4614  0.4155 -0.4958
  306TMC3    C3 4603   4.526   4.385  14.934  0.1528 -0.0206  0.5666
  306TMC3    C4 4604   4.354   4.573  14.849 -0.6727 -0.4434 -0.7926
  306TMC3    C5 4605   4.400   4.576  14.977 -0.5480 -0.3162  0.1753
  306TMC3    C6 4606   4.497   4.487  15.021  0.3565  1.0364 -0.0992
  306TMC3     C 4607   4.403   4.527  14.629 -0.0693 -0.0544  0.6276
  306TMC3     O 4608   4.328   4.491  14.539  0.3151  0.3618 -0.2390
  306TMC3     H 4609   4.502   4.293  14.739 -2.3442 -0.1067 -0.6118
  306TMC3    H1 4610   4.287   4.649  14.812 -2.5601 -1.7557 -0.0787
  306TMC3    H2 4611   4.523   4.467  15.125 -1.0221  0.0156  0.0591
  306TMC3    C7 4612   4.309   4.636  15.077 -0.4117 -0.9652 -0.0345
  306TMC3    C8 4613   4.563   4.264  15.007 -0.2290  0.5922 -0.1228
  306TMC3    O1 4614   4.196   4.663  15.044 -0.4611 -0.5694  0.3204
  306TMC3    O2 4615   4.658   4.290  15.081 -0.4147 -0.2491  0.2278
  307MPD2     C 4616   2.081   3.002   1.637  0.2172  0.4898  0.0696
  307MPD2    C1 4617   2.010   3.083   1.554 -0.5519 -0.0532 -0.3667
  307MPD2    C2 4618   1.877   3.101   1.566 -0.3851  0.2643 -0.6476
  307MPD2    C3 4619   1.800   3.030   1.657 -0.4833  0.6763  0.6134
  307MPD2    C4 4620   1.869   2.931   1.725 -0.3573  0.2418 -0.0961
  307MPD2    C5 4621   2.003   2.922   1.718  0.5673 -0.2637 -1.2869
  307MPD2     H 4622   1.830   3.176   1.503  0.1832  2.0872  1.1073
  307MPD2    H1 4623   1.827   2.870   1.804  1.6164  1.2629  1.7338
  307MPD2    H2 4624   2.186   3.011   1.658 -0.0268 -1.6300  2.1558
  307MPD2    H3 4625   2.056   2.845   1.774  0.0280  0.7424  0.6161
  307MPD2     N 4626   1.667   3.067   1.683 -0.6499  0.6271 -0.2360
  307MPD2    H5 4627   1.626   3.144   1.631 -3.0226  0.2997  1.1601
  307MPD2    N1 4628   2.068   3.170   1.454  0.2061  0.5224  1.0132
  307MPD2    H7 4629   1.999   3.215   1.396  0.6061 -1.5370 -1.0416
  308TMC3    C1 4630   1.232   3.034   1.637 -0.8945 -0.8877  0.4955
  308TMC3    C2 4631   1.222   3.175   1.653 -0.1235  0.2121  0.6880
  308TMC3    C3 4632   1.319   3.237   1.727 -0.1556  0.4692 -0.0329
  308TMC3    C4 4633   1.349   2.966   1.672  0.0540  0.6788 -0.3496
  308TMC3    C5 4634   1.441   3.037   1.737  0.0021  0.0946 -0.4869
  308TMC3    C6 4635   1.432   3.172   1.761  1.1096  0.7020 -0.8637
  308TMC3     C 4636   1.114   2.962   1.599  0.3153  0.1449  0.4762
  308TMC3     O 4637   1.083   2.854   1.648 -0.4517  0.2367 -0.1880
  308TMC3     H 4638   1.120   3.211   1.645  0.1668  0.3015 -2.5724
  308TMC3    H1 4639   1.362   2.859   1.660  1.7712  0.8713 -0.2152
  308TMC3    H2 4640   1.511   3.223   1.815  2.5575 -0.2233 -2.1252
  308TMC3    C7 4641   1.574   2.978   1.738 -0.5058  0.9943  0.2229
  308TMC3    C8 4642   1.335   3.380   1.703  0.1248 -0.5947  0.4190
  308TMC3    O1 4643   1.583   2.857   1.760  0.1398 -0.0276 -0.3366
  308TMC3    O2 4644   1.416   3.442   1.767  0.0706  0.1489 -0.6007
  309MPD2     C 4645   1.336   2.509  17.212 -0.2458 -0.2947 -0.1083
  309MPD2    C1 4646   1.346   2.647  17.206  0.7097 -0.2369  0.4442
  309MPD2    C2 4647   1.241   2.725  17.256 -0.3845  0.5277 -0.5603
  309MPD2    C3 4648   1.134   2.662  17.318 -0.3376 -0.5704  0.5997
  309MPD2    C4 4649   1.132   2.525  17.330 -0.3123 -0.6737 -0.6151
  309MPD2    C5 4650   1.238   2.455  17.280 -0.2746 -0.1330 -0.0667
  309MPD2     H 4651   1.257   2.831  17.241 -2.6522  0.8999 -0.2806
  309MPD2    H1 4652   1.052   2.467  17.377 -0.6030 -0.4151 -0.7914
  309MPD2    H2 4653   1.413   2.440  17.179  0.3003  0.0483  0.4578
  309MPD2    H3 4654   1.237   2.347  17.287 -4.1635 -0.2852 -2.9616
  309MPD2     N 4655   1.032   2.734  17.380 -0.0773  0.4891 -0.2060
  309MPD2    H5 4656   0.962   2.674  17.424 -1.3842  0.8765 -1.7639
  309MPD2    N1 4657   1.461   2.703  17.142 -0.0372 -0.1950  0.7082
  309MPD2    H7 4658   1.462   2.803  17.124 -3.9007 -0.8006 -2.7975
  310TMC3    C1 4659   1.679   2.751  17.066  0.3228 -0.4936 -0.1761
  310TMC3    C2 4660   1.641   2.835  16.964 -0.9412  0.5266  0.8319
  310TMC3    C3 4661   1.736   2.912  16.896 -1.0508  0.2212 -0.3443
  310TMC3    C4 4662   1.809   2.730  17.094 -0.1690  0.9868  0.6867
  310TMC3    C5 4663   1.902   2.796  17.014 -0.3088 -0.3745 -0.1717
  310TMC3    C6 4664   1.867   2.893  16.921  0.7107 -0.3560 -0.0850
  310TMC3     C 4665   1.583   2.648  17.123 -0.0594  0.8365  0.4663
  310TMC3     O 4666   1.624   2.536  17.140  0.5430 -0.0679  0.0153
  310TMC3     H 4667   1.535   2.846  16.943 -0.8607 -0.8457 -0.2612
  310TMC3    H1 4668   1.834   2.668  17.179 -3.5477  1.3359  1.9451
  310TMC3    H2 4669   1.942   2.962  16.882  0.7893 -0.6685 -0.4870
  310TMC3    C7 4670   2.031   2.793  17.070 -0.3131 -0.2610  0.3775
  310TMC3    C8 4671   1.697   3.003  16.795 -0.3683 -0.2052  0.4440
  310TMC3    O1 4672   2.043   2.752  17.184  0.1734 -0.2631  0.7029
  310TMC3    O2 4673   1.760   3.028  16.693 -0.8020  0.7032 -1.1179
  311MPD2     C 4674   3.472   4.331  13.333  0.6297 -0.3416 -0.7467
  311MPD2    C1 4675   3.449   4.465  13.329 -0.5302 -0.2376  0.5605
  311MPD2    C2 4676   3.315   4.506  13.354 -0.1358 -1.0334  0.4144
  311MPD2    C3 4677   3.220   4.409  13.390  0.6432 -0.1425 -0.3995
  311MPD2    C4 4678   3.261   4.280  13.409  0.8607 -0.0726  0.3721
  311MPD2    C5 4679   3.380   4.239  13.368 -0.2276  0.4253 -0.4659
  311MPD2     H 4680   3.289   4.610  13.341  1.1220 -0.7512  0.1683
  311MPD2    H1 4681   3.186   4.203  13.426  0.4053  0.0781 -0.9871
  311MPD2    H2 4682   3.572   4.298  13.308  1.2672  1.0922 -0.0822
  311MPD2    H3 4683   3.408   4.134  13.365 -1.7330  0.0570 -1.1839
  311MPD2     N 4684   3.084   4.452  13.410  0.3457 -0.8014  0.0742
  311MPD2    H5 4685   3.072   4.553  13.419  1.3577 -0.8255  1.6503
  311MPD2    N1 4686   3.552   4.566  13.296 -0.3590 -0.1659  0.1548
  311MPD2    H7 4687   3.535   4.664  13.312  1.3002  0.5863 -2.7839
  312TMC3    C1 4688   2.848   4.446  13.434 -0.1358  0.0767 -0.5992
  312TMC3    C2 4689   2.732   4.391  13.391  0.4786 -0.3395 -1.0575
  312TMC3    C3 4690   2.612   4.464  13.397 -0.1237 -0.2898 -0.0847
  312TMC3    C4 4691   2.848   4.565  13.496  0.6010 -0.3860 -0.2869
  312TMC3    C5 4692   2.732   4.635  13.507  0.5370 -0.1232  0.9875
  312TMC3    C6 4693   2.614   4.591  13.451 -0.4038 -0.2405  0.4405
  312TMC3     C 4694   2.971   4.371  13.408  0.4181  0.0719 -0.0561
  312TMC3     O 4695   2.969   4.251  13.379 -0.2909  0.4333 -0.3653
  312TMC3     H 4696   2.739   4.297  13.337 -0.9178 -0.3746 -1.1978
  312TMC3    H1 4697   2.940   4.602  13.541  0.7369  1.1075 -1.7507
  312TMC3    H2 4698   2.522   4.645  13.470 -0.5333 -0.7147  1.1560
  312TMC3    C7 4699   2.722   0.012  13.605 -0.1888 -0.2909 -0.3498
  312TMC3    C8 4700   2.514   4.435  13.294  0.3651 -0.0845  0.3994
  312TMC3    O1 4701   2.633   0.094  13.596  0.0444 -0.2313  0.6063
  312TMC3    O2 4702   2.462   4.327  13.293 -0.0660 -0.4665 -0.0622
  313MPD2     C 4703   2.573   3.573  11.348  0.9421  1.3713 -0.1005
  313MPD2    C1 4704   2.452   3.638  11.334 -0.2679 -0.3666  1.5318
  313MPD2    C2 4705   2.376   3.609  11.214  0.4513 -0.0653 -0.1825
  313MPD2    C3 4706   2.426   3.523  11.112 -0.0122  1.0038 -0.3096
  313MPD2    C4 4707   2.547   3.463  11.136  0.0219 -0.7216  0.3447
  313MPD2    C5 4708   2.619   3.488  11.253 -0.2513 -0.4393  0.0762
  313MPD2     H 4709   2.280   3.658  11.200  0.5604 -0.7935 -3.5088
  313MPD2    H1 4710   2.595   3.411  11.054  1.5706  1.2383  0.0154
  313MPD2    H2 4711   2.641   3.608  11.425 -0.1972 -0.1230  1.6102
  313MPD2    H3 4712   2.719   3.446  11.258 -0.4836 -0.9332  0.5559
  313MPD2     N 4713   2.344   3.503  10.994  0.7575 -0.0345 -0.2192
  313MPD2    H5 4714   2.246   3.530  10.995  0.5747 -0.7333  0.2076
  313MPD2    N1 4715   2.415   3.742  11.424  0.2178  0.2000 -0.6111
  313MPD2    H7 4716   2.337   3.801  11.398  0.8540  0.7120 -1.3579
  314TMC3    C1 4717   2.450   3.912  11.587  0.3336 -0.4373 -0.2206
  314TMC3    C2 4718   2.532   3.961  11.687  0.2362  0.1361  0.2734
  314TMC3    C3 4719   2.516   4.092  11.735 -0.0021 -0.1442 -0.1273
  314TMC3    C4 4720   2.347   3.986  11.529  0.0635  0.4978  0.4613
  314TMC3    C5 4721   2.337   4.111  11.581 -0.2351  0.0385  0.4856
  314TMC3    C6 4722   2.410   4.167  11.678  0.1674  0.5541 -0.2727
  314TMC3     C 4723   2.472   3.772  11.542  0.2509 -0.0821 -0.4323
  314TMC3     O 4724   2.547   3.702  11.606 -0.0939  0.7430  0.1585
  314TMC3     H 4725   2.610   3.896  11.724 -1.5202 -0.8963  2.1930
  314TMC3    H1 4726   2.273   3.955  11.457  0.1739  0.1331  0.5041
  314TMC3    H2 4727   2.402   4.273  11.702  0.5562  0.3262  0.8859
  314TMC3    C7 4728   2.231   4.199  11.529 -0.4638 -0.5238  0.4473
  314TMC3    C8 4729   2.635   4.174  11.750  0.1635  0.4058 -0.4488
  314TMC3    O1 4730   2.185   4.289  11.602  0.3250  0.3195 -0.5472
  314TMC3    O2 4731   2.604   4.289  11.778 -0.5119  0.5009  0.3986
  315MPD2     C 4732   2.460   2.930   0.431 -0.3515  0.4874  1.1328
  315MPD2    C1 4733   2.540   2.986   0.526  0.6135 -0.5047  0.4217
  315MPD2    C2 4734   2.605   3.111   0.494 -0.6392 -0.5003 -0.1404
  315MPD2    C3 4735   2.597   3.171   0.373  0.1628 -0.5996 -0.0031
  315MPD2    C4 4736   2.513   3.111   0.282  0.0681  0.1190  0.0557
  315MPD2    C5 4737   2.453   2.989   0.311 -0.2332 -0.3690 -0.4915
  315MPD2     H 4738   2.673   3.156   0.566  0.8277 -1.3185 -1.0015
  315MPD2    H1 4739   2.486   3.157   0.187 -0.6623  0.7747  0.5771
  315MPD2    H2 4740   2.406   2.837   0.446  0.1951  0.2837  1.8170
  315MPD2    H3 4741   2.393   2.951   0.229  0.2437 -0.5094 -0.7757
  315MPD2     N 4742   2.671   3.287   0.348  0.5171 -0.9828 -0.0013
  315MPD2    H5 4743   2.732   3.312   0.426  0.8806 -0.2953 -0.5073
  315MPD2    N1 4744   2.572   2.917   0.647  0.6612 -0.2025 -0.1465
  315MPD2    H7 4745   2.655   2.955   0.691  0.6943  0.4075 -0.7359
  316TMC3    C1 4746   2.814   3.422   0.213 -0.0132  0.0241  0.2515
  316TMC3    C2 4747   2.915   3.399   0.302 -0.7923  0.1371  0.4785
  316TMC3    C3 4748   3.033   3.468   0.277  0.0044 -0.4513 -0.2550
  316TMC3    C4 4749   2.821   3.507   0.104  0.1981  0.1797  0.5358
  316TMC3    C5 4750   2.937   3.582   0.095  0.7182  0.0567 -0.4537
  316TMC3    C6 4751   3.045   3.567   0.178 -0.4217  0.2366  0.6297
  316TMC3     C 4752   2.681   3.366   0.235  0.2555 -0.0808 -0.7346
  316TMC3     O 4753   2.596   3.372   0.150 -0.5471 -0.1357 -0.4405
  316TMC3     H 4754   2.902   3.333   0.387  1.4600  2.2852  2.4677
  316TMC3    H1 4755   2.736   3.538   0.043  0.3904 -2.0142 -0.8534
  316TMC3    H2 4756   3.142   3.614   0.172  0.7777 -2.0377  2.6736
  316TMC3    C7 4757   2.967   3.662  17.682 -0.4784  0.0693  0.0240
  316TMC3    C8 4758   3.140   3.474   0.375 -0.7624 -0.4501 -0.6868
  316TMC3    O1 4759   3.078   3.717  17.689  0.2223  0.5590  0.1609
  316TMC3    O2 4760   3.193   3.587   0.384  0.2152 -0.2260  0.3514
  317MPD2     C 4761   0.146   1.385  12.852 -0.0303 -0.0571  0.4260
  317MPD2    C1 4762   0.259   1.301  12.856  0.0085 -0.6255 -0.5601
  317MPD2    C2 4763   0.300   1.244  12.975  0.1632  0.3864 -0.1950
  317MPD2    C3 4764   0.238   1.271  13.099  0.3576  0.1356  0.2243
  317MPD2    C4 4765   0.133   1.368  13.095 -0.2492 -0.3018  0.1544
  317MPD2    C5 4766   0.088   1.413  12.974  0.4560 -0.2080  0.3460
  317MPD2     H 4767   0.382   1.174  12.966  1.0291  1.4353 -0.3963
  317MPD2    H1 4768   0.078   1.396  13.184  2.7038 -0.1955  1.9099
  317MPD2    H2 4769   0.096   1.403  12.757  0.2018 -1.4252  0.0517
  317MPD2    H3 4770   0.007   1.485  12.967 -0.7950 -1.6370  0.3364
  317MPD2     N 4771   0.278   1.214  13.221 -0.1216 -0.5980 -0.1403
  317MPD2    H5 4772   0.358   1.153  13.213 -0.0433 -0.8444  2.6800
  317MPD2    N1 4773   0.323   1.258  12.733 -0.2263  0.2704  0.2285
  317MPD2    H7 4774   0.391   1.184  12.743 -0.9752 -0.1832  1.8291
  318TMC3    C1 4775   0.285   1.158  13.451  0.0586 -0.1718  0.3687
  318TMC3    C2 4776   0.221   1.163  13.572  0.5386 -0.3824  0.1161
  318TMC3    C3 4777   0.294   1.134  13.680 -0.8189  0.6259 -0.0967
  318TMC3    C4 4778   0.421   1.141  13.446  0.2631  0.5123  0.0363
  318TMC3    C5 4779   0.493   1.129  13.564  0.0616 -0.4120 -0.2195
  318TMC3    C6 4780   0.424   1.124  13.677  0.0333 -0.6687  0.0403
  318TMC3     C 4781   0.211   1.217  13.343  0.3654 -0.2654 -0.5366
  318TMC3     O 4782   0.108   1.266  13.374 -0.0390  0.2180 -0.0965
  318TMC3     H 4783   0.115   1.186  13.578  0.7883  0.6265  0.7487
  318TMC3    H1 4784   0.478   1.147  13.354 -1.8527 -0.7151 -1.3398
  318TMC3    H2 4785   0.471   1.082  13.765 -0.2128 -1.7624 -0.3597
  318TMC3    C7 4786   0.634   1.122  13.560  0.6845  0.2977  0.0637
  318TMC3    C8 4787   0.221   1.119  13.811 -0.4564 -0.1242 -0.2900
  318TMC3    O1 4788   0.681   1.125  13.449 -0.2407 -0.0106  0.3015
  318TMC3    O2 4789   0.293   1.139  13.907 -0.1124 -0.6359  0.0139
  319MPD2     C 4790   0.717   2.598  17.192  0.3949  0.1274  0.8751
  319MPD2    C1 4791   0.631   2.504  17.246 -0.7285 -0.2326  0.1062
  319MPD2    C2 4792   0.533   2.455  17.164  0.1730 -0.6435 -0.0222
  319MPD2    C3 4793   0.526   2.494  17.034 -0.0666 -0.0644 -0.2347
  319MPD2    C4 4794   0.611   2.591  16.982  0.1405  0.3035 -0.3686
  319MPD2    C5 4795   0.707   2.644  17.067 -0.0990  0.2322 -0.1928
  319MPD2     H 4796   0.467   2.380  17.207 -0.0093 -0.5947 -0.2146
  319MPD2    H1 4797   0.607   2.625  16.879  0.8027 -0.0212 -0.5044
  319MPD2    H2 4798   0.802   2.630  17.251  0.4712 -1.2772  1.5298
  319MPD2    H3 4799   0.779   2.713  17.024  1.8063 -1.6235 -0.0158
  319MPD2     N 4800   0.427   2.443  16.945  0.3041 -0.5774  0.5746
  319MPD2    H5 4801   0.421   2.484  16.852 -0.3923 -1.4763  0.2186
  319MPD2    N1 4802   0.636   2.454  17.383 -0.3125  0.3043  0.6892
  319MPD2    H7 4803   0.562   2.389  17.406  0.9073 -0.8632  1.3556
  320TMC3    C1 4804   0.262   2.314  16.848 -0.4823  0.3906  0.2303
  320TMC3    C2 4805   0.260   2.385  16.731  0.1420  0.2218  0.0215
  320TMC3    C3 4806   0.161   2.356  16.647 -0.8419 -0.1261 -0.1610
  320TMC3    C4 4807   0.181   2.201  16.870  0.7835  0.0651 -0.7352
  320TMC3    C5 4808   0.087   2.174  16.772  0.1321  1.0615  0.6234
  320TMC3    C6 4809   0.074   2.256  16.665 -0.2774 -0.7424 -0.6514
  320TMC3     C 4810   0.361   2.323  16.950  0.0639 -0.6094 -0.6558
  320TMC3     O 4811   0.359   2.240  17.037 -0.5666 -0.4500  0.1011
  320TMC3     H 4812   0.324   2.470  16.710  0.2288 -0.0232 -0.6924
  320TMC3    H1 4813   0.205   2.125  16.942  1.1316 -0.2166 -1.1470
  320TMC3    H2 4814   4.724   2.241  16.589 -1.7144 -0.5316  0.7270
  320TMC3    C7 4815   0.003   2.055  16.776  0.1379  0.1961 -0.5958
  320TMC3    C8 4816   0.150   2.448  16.527 -0.3549  0.2296  0.0491
  320TMC3    O1 4817   4.681   2.012  16.670 -0.1162  0.0162  0.0440
  320TMC3    O2 4818   0.236   2.535  16.513  0.1887 -0.3115  0.4207
  321TMC3    C1 4819   0.707   2.404  17.594  0.1107  0.5248 -0.7281
  321TMC3    C2 4820   0.584   2.429  17.648  0.0511 -0.5584 -0.8329
  321TMC3    C3 4821   0.571   2.450   0.080 -0.1166  0.0621 -0.4208
  321TMC3    C4 4822   0.820   2.382  17.676  0.1098 -0.1979  0.6659
  321TMC3    C5 4823   0.794   2.377   0.110  0.3166  0.4667  0.0899
  321TMC3    C6 4824   0.679   2.426   0.162 -0.0323  0.0729  0.3501
  321TMC3     C 4825   0.733   2.473  17.470 -0.6732  0.5951  0.1362
  321TMC3     O 4826   0.840   2.524  17.454  0.8452  0.1650 -0.1678
  321TMC3     H 4827   0.503   2.478  17.593 -0.4145 -1.5785 -1.0490
  321TMC3    H1 4828   0.907   2.333  17.633 -1.7779 -0.7112 -2.5622
  321TMC3    H2 4829   0.670   2.449   0.267  0.0025 -0.1219  0.3964
  321TMC3    C7 4830   0.834   2.258   0.181 -0.2405 -0.4081 -0.2677
  321TMC3    C8 4831   0.453   2.388   0.139  0.2628 -0.5866  0.0074
  321TMC3    O1 4832   0.759   2.226   0.270  0.1609  0.1020  0.6652
  321TMC3    O2 4833   0.337   2.423   0.110  0.1624  0.0480  0.0112
  322MPD2     C 4834   4.476   4.122  13.587 -0.4161 -0.6502 -0.4783
  322MPD2    C1 4835   4.483   4.067  13.714 -0.3964  0.2148  0.0466
  322MPD2    C2 4836   4.503   3.934  13.728 -0.2358 -0.5625 -0.6489
  322MPD2    C3 4837   4.513   3.852  13.618 -0.3243  0.2058  0.5066
  322MPD2    C4 4838   4.499   3.900  13.490  0.5376 -0.1883  0.7001
  322MPD2    C5 4839   4.488   4.036  13.482 -0.4223 -0.5843  0.4806
  322MPD2     H 4840   4.527   3.893  13.825 -1.9734  0.1312  0.0813
  322MPD2    H1 4841   4.517   3.842  13.400 -0.1222 -0.0345  0.4678
  322MPD2    H2 4842   4.457   4.227  13.571  0.9627 -0.1892  0.9145
  322MPD2    H3 4843   4.491   4.085  13.385 -3.0065  0.7482  1.0769
  322MPD2     N 4844   4.563   3.718  13.645  0.0932  0.2664  0.3113
  322MPD2    H5 4845   4.601   3.707  13.738  1.9596 -0.6441 -0.5698
  322MPD2    N1 4846   4.473   4.157  13.822  0.0501  0.7702  0.0588
  322MPD2    H7 4847   4.481   4.258  13.809  1.8738  0.1667 -3.5350
  323TMC3    C1 4848   4.482   4.214  14.063  0.0370 -0.3814 -0.5097
  323TMC3    C2 4849   4.592   4.296  14.046 -0.0326 -0.0121 -0.3249
  323TMC3    C3 4850   4.622   4.385  14.138  0.1285 -0.5168  0.2118
  323TMC3    C4 4851   4.418   4.193  14.185 -0.3240 -0.0519  0.3752
  323TMC3    C5 4852   4.470   4.268  14.287 -0.1229 -0.2562 -0.2227
  323TMC3    C6 4853   4.563   4.369  14.264 -0.3904  0.0417 -0.0301
  323TMC3     C 4854   4.447   4.120  13.959 -0.0919  0.4306 -0.2425
  323TMC3     O 4855   4.383   4.023  13.994  0.3837  0.4428  0.4019
  323TMC3     H 4856   4.649   4.304  13.954  0.9001 -1.6664  0.1120
  323TMC3    H1 4857   4.345   4.117  14.210  0.4731 -2.2485 -4.1335
  323TMC3    H2 4858   4.591   4.439  14.341 -2.7514  0.3031  0.6056
  323TMC3    C7 4859   4.493   4.194  14.408  0.4884 -0.4869 -0.0741
  323TMC3    C8 4860   0.039   4.410  14.148 -0.1406  0.0798 -0.5678
  323TMC3    O1 4861   4.421   4.096  14.428  0.1451 -0.1186 -0.4346
  323TMC3    O2 4862   0.084   4.423  14.259  0.1692  0.2498 -0.2043
  324MPD2     C 4863   1.361   0.670  15.388  0.2334 -0.5702 -0.3654
  324MPD2    C1 4864   1.386   0.631  15.259  0.2560 -0.2140 -0.4485
  324MPD2    C2 4865   1.287   0.569  15.188  0.0968  0.1957  0.3412
  324MPD2    C3 4866   1.166   0.540  15.244  0.0076  0.4479  0.3191
  324MPD2    C4 4867   1.135   0.565  15.379 -0.0481 -0.0058  0.7692
  324MPD2    C5 4868   1.238   0.635  15.442 -0.3116  0.2924 -0.1580
  324MPD2     H 4869   1.306   0.540  15.085  1.4389 -0.2495  0.7107
  324MPD2    H1 4870   1.040   0.543  15.426 -0.0614 -0.6858  0.4209
  324MPD2    H2 4871   1.428   0.725  15.452  0.1329 -0.5847 -0.2479
  324MPD2    H3 4872   1.230   0.663  15.546 -1.2076  2.1644 -0.7417
  324MPD2     N 4873   1.053   0.489  15.169 -0.0807 -0.2608  0.0008
  324MPD2    H5 4874   0.961   0.489  15.211  0.1344  1.6242  0.4771
  324MPD2    N1 4875   1.503   0.669  15.186  0.7452  0.1140 -0.0549
  324MPD2    H7 4876   1.510   0.642  15.089 -0.1370  0.9163 -0.3388
  325TMC3    C1 4877   0.920   0.429  14.990 -0.4867 -0.0236  0.0302
  325TMC3    C2 4878   0.911   0.382  14.864  0.2994 -0.3497 -0.4062
  325TMC3    C3 4879   0.788   0.386  14.800 -0.2991 -0.2079  0.3241
  325TMC3    C4 4880   0.813   0.457  15.070 -0.3859  0.3347 -0.6439
  325TMC3    C5 4881   0.690   0.448  15.004  0.2318 -0.0758 -0.0857
  325TMC3    C6 4882   0.679   0.412  14.873  0.2207 -0.2363 -0.8321
  325TMC3     C 4883   1.055   0.443  15.041 -0.0875  0.3431  0.3370
  325TMC3     O 4884   1.143   0.426  14.961  0.1679 -0.1000  0.0474
  325TMC3     H 4885   0.998   0.375  14.801 -0.9249 -1.3368 -1.9971
  325TMC3    H1 4886   0.807   0.498  15.170  3.1262  3.8021 -1.8732
  325TMC3    H2 4887   0.586   0.419  14.818 -0.3414 -3.1494 -0.2656
  325TMC3    C7 4888   0.567   0.511  15.063  0.1780  0.7827  0.1630
  325TMC3    C8 4889   0.776   0.341  14.666 -0.4384  0.2971  0.2230
  325TMC3    O1 4890   0.590   0.597  15.148  0.0606 -0.2764 -0.2147
  325TMC3    O2 4891   0.885   0.317  14.607 -0.0533  0.1840 -0.4885
  326MPD2     C 4892   2.460   1.518  11.148 -0.3394 -0.5318  0.4772
  326MPD2    C1 4893   2.553   1.509  11.049 -0.8665 -0.5111 -0.2211
  326MPD2    C2 4894   2.667   1.571  11.064  0.2924 -0.2074  0.6282
  326MPD2    C3 4895   2.703   1.651  11.169 -0.2397 -0.2015 -0.0760
  326MPD2    C4 4896   2.618   1.648  11.283  0.6086 -0.4408  0.5757
  326MPD2    C5 4897   2.494   1.586  11.262  0.5016 -0.1227 -0.4172
  326MPD2     H 4898   2.743   1.558  10.987 -0.0655  0.1532  0.2149
  326MPD2    H1 4899   2.651   1.699  11.373  1.9335 -0.3431  0.0311
  326MPD2    H2 4900   2.366   1.466  11.135 -1.6689  1.4667  2.1074
  326MPD2    H3 4901   2.428   1.589  11.347  0.5245  1.3496 -0.4475
  326MPD2     N 4902   2.821   1.723  11.173  0.0508  0.9603 -0.8054
  326MPD2    H5 4903   2.842   1.745  11.269 -0.6200 -0.7987 -0.2524
  326MPD2    N1 4904   2.525   1.441  10.928  0.2782 -0.0499 -0.4874
  326MPD2    H7 4905   2.428   1.418  10.911 -0.0015 -0.4569  1.6588
  327TMC3    C1 4906   2.558   1.400  10.698 -0.3683  0.4761  0.2068
  327TMC3    C2 4907   2.479   1.510  10.673 -0.7019  0.0019  0.2115
  327TMC3    C3 4908   2.489   1.575  10.549 -0.2562  0.2291  0.0435
  327TMC3    C4 4909   2.657   1.365  10.615 -0.1161  0.2178 -0.1913
  327TMC3    C5 4910   2.675   1.452  10.510  0.8475 -1.1510 -1.2705
  327TMC3    C6 4911   2.590   1.550  10.466  0.1737 -0.5630 -0.4012
  327TMC3     C 4912   2.618   1.407  10.827  0.1236  0.1642  0.2698
  327TMC3     O 4913   2.743   1.393  10.840 -0.3555 -0.3214 -0.1044
  327TMC3     H 4914   2.397   1.534  10.740  2.0287  0.0592  3.5291
  327TMC3    H1 4915   2.713   1.279  10.649 -2.1244 -0.7519  0.6495
  327TMC3    H2 4916   2.604   1.600  10.370 -0.1607  1.0560  0.4027
  327TMC3    C7 4917   2.807   1.500  10.499 -0.5372 -0.1161 -1.1372
  327TMC3    C8 4918   2.429   1.703  10.528  0.5305  0.3204 -0.3111
  327TMC3    O1 4919   2.819   1.570  10.401  0.4437 -0.9321  0.9082
  327TMC3    O2 4920   2.485   1.780  10.451  0.0675 -1.0356 -0.0773
  328MPD2     C 4921   4.720   1.242  17.609  0.1003 -0.9815  0.4224
  328MPD2    C1 4922   4.676   1.130  17.544  0.5339 -0.0526 -0.3618
  328MPD2    C2 4923   4.592   1.146  17.436 -0.2255 -0.1698 -0.3852
  328MPD2    C3 4924   4.554   1.272  17.397 -0.3902 -0.4952  1.0476
  328MPD2    C4 4925   4.608   1.381  17.461 -0.5162 -0.2725  0.0983
  328MPD2    C5 4926   4.690   1.360  17.565  0.0045 -0.0541 -0.2273
  328MPD2     H 4927   4.550   1.062  17.382 -1.6492  0.7854 -0.7600
  328MPD2    H1 4928   4.573   1.482  17.446 -0.4382  0.0875  2.3328
  328MPD2    H2 4929   0.054   1.228  17.699 -2.0272  1.8568  2.2764
  328MPD2    H3 4930   0.008   1.452  17.603 -0.2038  0.4008 -1.1065
  328MPD2     N 4931   4.455   1.300  17.303  0.0349  0.4587  0.4421
  328MPD2    H5 4932   4.430   1.398  17.293  0.4515  0.2206 -2.7405
  328MPD2    N1 4933   0.004   1.016  17.594 -0.1043  0.3808  0.3184
  328MPD2    H7 4934   0.069   1.039  17.668  0.7761 -1.9367  0.2528
  329TMC3    C1 4935   0.061   0.784  17.601  0.3128 -0.3635  0.1123
  329TMC3    C2 4936   0.108   0.808   0.027  0.7589  0.0616  0.1762
  329TMC3    C3 4937   0.118   0.704   0.110  0.1674  0.5540  0.1006
  329TMC3    C4 4938   0.024   0.661  17.563  0.2813  0.4263  0.7859
  329TMC3    C5 4939   0.036   0.559  17.654 -0.1644  0.4780 -0.7771
  329TMC3    C6 4940   0.089   0.573   0.078  0.6311  0.1451 -0.4154
  329TMC3     C 4941   4.723   0.895  17.531  0.1668  0.0029  0.0275
  329TMC3     O 4942   4.660   0.857  17.431  0.6796  0.3851  0.1617
  329TMC3     H 4943   0.168   0.897   0.043 -0.6723  0.8812  1.0558
  329TMC3    H1 4944   4.723   0.650  17.458  0.6549 -1.0364  0.8410
  329TMC3    H2 4945   0.103   0.498   0.155 -1.7849 -2.0527 -2.1320
  329TMC3    C7 4946   0.021   0.417  17.612 -0.2578  0.8001  0.4917
  329TMC3    C8 4947   0.201   0.723   0.229 -0.2101 -0.1628 -0.9133
  329TMC3    O1 4948   0.088   0.334  17.662  0.1468  0.3629 -0.1206
  329TMC3    O2 4949   0.274   0.636   0.275  0.2276  0.0459  0.6849
  330TMC3    C1 4950   2.794   4.509  10.231  0.4215 -0.0719  0.4936
  330TMC3    C2 4951   2.653   4.508  10.237 -0.1794  0.4753  0.1618
  330TMC3    C3 4952   2.604   4.386  10.267 -0.4691  0.2756  0.6846
  330TMC3    C4 4953   2.874   4.406  10.262  0.3482 -0.0071  0.2116
  330TMC3    C5 4954   2.810   4.285  10.268 -0.5230  0.1246 -0.0945
  330TMC3    C6 4955   2.677   4.274  10.277 -0.7187 -0.1006  0.1848
  330TMC3     C 4956   2.857   4.617  10.154  0.2525  0.2107  0.2247
  330TMC3     O 4957   2.979   4.628  10.157 -0.1104 -0.2786 -0.1333
  330TMC3     H 4958   2.593   4.592  10.205  0.0419  1.6938  2.8830
  330TMC3    H1 4959   2.981   4.414  10.245  0.1606  1.0558 -0.4291
  330TMC3    H2 4960   2.630   4.180  10.306 -0.0096 -0.0264  1.5613
  330TMC3    C7 4961   2.892   4.173  10.316 -0.1773  0.3827 -0.1659
  330TMC3    C8 4962   2.458   4.381  10.283 -0.8386 -0.3213  0.2715
  330TMC3    O1 4963   2.835   4.108  10.408 -0.0514  0.0018 -0.0114
  330TMC3    O2 4964   2.397   4.488  10.295 -0.1676 -0.0615  0.7833
  331MPD2     C 4965   0.417   4.576  12.201  0.2669  0.2442  0.1941
  331MPD2    C1 4966   0.504   4.575  12.314  0.3429  0.1903 -0.0931
  331MPD2    C2 4967   0.610   4.485  12.312 -0.4963  0.1990  0.3123
  331MPD2    C3 4968   0.636   4.397  12.213 -0.4660  0.0087 -0.4357
  331MPD2    C4 4969   0.544   4.395  12.112 -0.2936 -0.3576 -0.4835
  331MPD2    C5 4970   0.442   4.480  12.101  0.2401  0.9158 -0.5170
  331MPD2     H 4971   0.685   4.488  12.390 -1.7780  1.7793  1.4858
  331MPD2    H1 4972   0.537   4.315  12.040  0.1829 -1.1942  0.4117
  331MPD2    H2 4973   0.315   4.612  12.193  0.2972  0.6362  1.6511
  331MPD2    H3 4974   0.373   4.480  12.018 -0.3180  1.4477 -0.0634
  331MPD2     N 4975   0.742   4.306  12.220  0.2582 -0.5061 -0.1726
  331MPD2    H5 4976   0.791   4.297  12.309  1.0997 -0.0029 -0.5782
  331MPD2    N1 4977   0.481   4.669  12.417  0.2036  0.9534 -0.1081
  331MPD2    H7 4978   0.409   0.010  12.390 -0.4314 -0.0977 -0.9811
  332TMC3    C1 4979   0.938   4.211  12.147  0.8458  0.3665  0.1838
  332TMC3    C2 4980   1.040   4.284  12.096  0.3119  0.3080  0.4914
  332TMC3    C3 4981   1.157   4.290  12.159 -0.4261 -0.3310  0.3147
  332TMC3    C4 4982   0.951   4.136  12.262  1.8181 -0.8112 -0.2914
  332TMC3    C5 4983   1.078   4.140  12.323  0.3112 -0.1764  0.7839
  332TMC3    C6 4984   1.187   4.213  12.273  0.4179  0.2682 -0.2342
  332TMC3     C 4985   0.809   4.261  12.109  0.3442 -0.3416  0.4019
  332TMC3     O 4986   0.801   4.300  11.994 -0.1208 -0.2117  0.7315
  332TMC3     H 4987   1.032   4.335  12.000  0.9894  1.1033  0.8576
  332TMC3    H1 4988   0.875   4.066  12.294  0.7773 -0.4415 -1.9475
  332TMC3    H2 4989   1.284   4.217  12.320  0.0664  1.1239  0.4354
  332TMC3    C7 4990   1.098   4.039  12.429 -0.5615  0.4053 -0.0878
  332TMC3    C8 4991   1.231   4.412  12.153 -0.8100  0.4314 -0.3311
  332TMC3    O1 4992   1.015   3.948  12.431  0.1387  0.0503 -0.0550
  332TMC3    O2 4993   1.331   4.427  12.220  0.1023  0.2584 -0.9023
  333MPD2     C 4994   1.356   4.722  11.517  0.1252  0.1003  0.9015
  333MPD2    C1 4995   1.278   4.690  11.407  0.0594 -0.3386  0.4138
  333MPD2    C2 4996   1.182   4.591  11.423  0.9519  0.1341  0.4318
  333MPD2    C3 4997   1.167   4.529  11.545 -0.6216  0.5151  0.5898
  333MPD2    C4 4998   1.250   4.567  11.649  0.0452  0.0940  0.7326
  333MPD2    C5 4999   1.342   4.665  11.637 -0.0813 -0.6523 -0.1825
  333MPD2     H 5000   1.123   4.559  11.338 -0.8436  1.3067  1.2213
  333MPD2    H1 5001   1.234   4.519  11.745  0.0982  2.2419  1.7994
  333MPD2    H2 5002   1.432   0.073  11.509  0.5714 -0.4900 -0.4671
  333MPD2    H3 5003   1.407   4.702  11.716 -1.3728  0.1715  0.4902
  333MPD2     N 5004   1.066   4.429  11.560  0.5455 -0.1758  0.0677
  333MPD2    H5 5005   1.020   4.405  11.473  3.8241 -1.0187 -1.4070
  333MPD2    N1 5006   1.287   0.032  11.287 -0.2022 -0.0287  0.3031
  333MPD2    H7 5007   1.373   0.086  11.274  0.4349 -0.8723  1.0072
  334TMC3    C1 5008   1.256   0.120  11.075  0.3019  0.1214  0.1231
  334TMC3    C2 5009   1.342   0.075  10.983  0.3324 -0.9128 -1.1753
  334TMC3    C3 5010   1.423   0.162  10.929  0.3357 -0.5807  1.1453
  334TMC3    C4 5011   1.250   0.247  11.119  0.1398  0.1265  0.9614
  334TMC3    C5 5012   1.329   0.337  11.053 -0.1408 -0.4486  0.2351
  334TMC3    C6 5013   1.431   0.292  10.971  0.7562 -0.0334 -0.2086
  334TMC3     C 5014   1.216   0.015  11.170 -0.9196 -0.1735  0.0370
  334TMC3     O 5015   1.154   4.649  11.125 -0.4651  0.0868  0.3064
  334TMC3     H 5016   1.341   4.699  10.942 -0.4642 -1.0203 -0.9040
  334TMC3    H1 5017   1.191   0.273  11.206 -0.6622  0.1917  0.3867
  334TMC3    H2 5018   1.495   0.361  10.917  0.8171 -0.1907 -0.3377
  334TMC3    C7 5019   1.334   0.462  11.121 -0.0274 -0.7783  0.8682
  334TMC3    C8 5020   1.528   0.114  10.843 -0.2641  0.1851 -0.1333
  334TMC3    O1 5021   1.437   0.490  11.180 -0.0232 -0.0926  0.6336
  334TMC3    O2 5022   1.510   0.011  10.782 -0.6961 -0.5696 -0.2545
  335TMC3    C1 5023   0.434   1.165  17.616 -0.0556 -0.7109 -0.8985
  335TMC3    C2 5024   0.409   1.055  17.544 -0.1535  0.5588  0.0474
  335TMC3    C3 5025   0.524   0.992  17.507 -0.6077 -0.3604 -0.1898
  335TMC3    C4 5026   0.561   1.213  17.644  0.0340 -0.4985  0.1701
  335TMC3    C5 5027   0.669   1.145  17.602  0.0717 -0.4806  0.1828
  335TMC3    C6 5028   0.654   1.027  17.531 -0.1556  0.9089 -0.3751
  335TMC3     C 5029   0.325   1.187   0.007  0.4694 -0.1831  0.1602
  335TMC3     O 5030   0.251   1.101   0.046  0.6064  0.1176  0.2059
  335TMC3     H 5031   0.311   1.009  17.552 -1.2348  2.4761 -1.9982
  335TMC3    H1 5032   0.575   1.299   0.007 -1.3572 -0.0266 -0.1500
  335TMC3    H2 5033   0.733   0.966  17.487  0.5524  1.0309  0.7418
  335TMC3    C7 5034   0.802   1.192  17.623 -0.0100 -0.1339  0.1562
  335TMC3    C8 5035   0.502   0.852  17.479 -0.4217 -0.4285  0.3861
  335TMC3    O1 5036   0.890   1.112  17.584  0.1700 -0.0482  0.1348
  335TMC3    O2 5037   0.590   0.766  17.495 -0.2305  0.1134  0.5245
  336MPD2     C 5038   0.656   3.724  16.726 -0.2989 -0.5898 -0.7580
  336MPD2    C1 5039   0.617   3.712  16.593  0.2783 -0.3112 -0.1317
  336MPD2    C2 5040   0.604   3.590  16.529 -0.0790  0.0362  0.2015
  336MPD2    C3 5041   0.627   3.474  16.607 -0.4703 -0.2772  0.0969
  336MPD2    C4 5042   0.656   3.483  16.738  0.0073  0.3620 -0.6507
  336MPD2    C5 5043   0.668   3.608  16.797  0.4434  0.0448  0.0823
  336MPD2     H 5044   0.602   3.589  16.421  0.5682 -0.7883  0.1906
  336MPD2    H1 5045   0.671   3.396  16.800 -2.1898  0.2194 -0.2972
  336MPD2    H2 5046   0.662   3.822  16.771 -0.5755 -1.5362  1.3473
  336MPD2    H3 5047   0.680   3.607  16.905  1.8454 -0.3557 -0.0803
  336MPD2     N 5048   0.627   3.348  16.543 -0.4205  0.0467  0.6900
  336MPD2    H5 5049   0.649   3.267  16.601 -1.6864 -0.6839  0.1550
  336MPD2    N1 5050   0.577   3.824  16.519  0.4438 -0.1967 -0.0354
  336MPD2    H7 5051   0.548   3.812  16.423 -2.6924 -0.3258  0.9314
  337TMC3    C1 5052   0.481   4.040  16.473  0.4991 -0.0886  0.0095
  337TMC3    C2 5053   0.347   4.076  16.500  0.4417 -0.4755  0.2757
  337TMC3    C3 5054   0.303   4.185  16.424  0.3276  0.0094  0.1018
  337TMC3    C4 5055   0.564   4.097  16.381  0.1254 -0.5564 -0.5287
  337TMC3    C5 5056   0.505   4.197  16.304 -0.2656 -0.1875 -0.3709
  337TMC3    C6 5057   0.377   4.233  16.322 -0.4432 -0.2300 -0.4319
  337TMC3     C 5058   0.539   3.955  16.574 -0.1604 -0.7316 -1.2675
  337TMC3     O 5059   0.547   3.994  16.688  0.0753 -0.1330 -0.1264
  337TMC3     H 5060   0.272   4.031  16.565 -0.9865  0.4059 -0.7639
  337TMC3    H1 5061   0.669   4.074  16.390  0.1557  0.2667  1.2767
  337TMC3    H2 5062   0.342   4.328  16.284 -0.2395  0.1344  0.2948
  337TMC3    C7 5063   0.598   4.304  16.253 -0.3340  0.3696 -0.0285
  337TMC3    C8 5064   0.162   4.204  16.421 -0.1404 -0.2715 -0.4471
  337TMC3    O1 5065   0.541   4.411  16.233 -0.2452  0.3878  0.2090
  337TMC3    O2 5066   0.094   4.191  16.522 -0.3487 -0.1116 -0.1223
  338MPD2     C 5067   0.323   3.585   1.043  0.2301 -0.1538  0.5076
  338MPD2    C1 5068   0.302   3.510   0.935  0.0638  0.1867 -0.3550
  338MPD2    C2 5069   0.171   3.490   0.907  0.3675 -0.1329 -0.5093
  338MPD2    C3 5070   0.069   3.533   0.981  0.5721  1.1350  0.4416
  338MPD2    C4 5071   0.098   3.614   1.093  0.2008 -0.2289 -0.5940
  338MPD2    C5 5072   0.228   3.643   1.123  0.2692  0.1539  0.7843
  338MPD2     H 5073   0.145   3.419   0.829 -0.3591 -0.8600  0.3949
  338MPD2    H1 5074   0.024   3.663   1.154  1.8641 -0.3673  1.5428
  338MPD2    H2 5075   0.425   3.621   1.057 -0.4345  1.3237  1.6453
  338MPD2    H3 5076   0.250   3.698   1.214 -0.7706  0.0087  1.1250
  338MPD2     N 5077   4.665   3.481   0.947 -0.1387 -0.6003  0.8667
  338MPD2    H5 5078   4.652   3.432   0.859  0.2347 -2.1612  1.6660
  338MPD2    N1 5079   0.402   3.445   0.862  0.1319 -0.4410 -0.5835
  338MPD2    H7 5080   0.371   3.396   0.778 -1.2568  0.2896 -0.4987
  339TMC3    C1 5081   4.443   3.403   0.992 -0.3934  0.2338  0.2057
  339TMC3    C2 5082   4.434   3.291   1.075 -0.1686 -0.0803  0.8352
  339TMC3    C3 5083   4.423   3.165   1.016 -0.5041 -0.1254 -1.0025
  339TMC3    C4 5084   4.433   3.381   0.854 -0.2549 -0.0641  0.2400
  339TMC3    C5 5085   4.423   3.260   0.798 -0.9681 -0.2911 -0.2159
  339TMC3    C6 5086   4.417   3.146   0.879  0.8777 -0.8247 -0.0285
  339TMC3     C 5087   4.552   3.489   1.027 -0.1270 -0.7294 -0.6950
  339TMC3     O 5088   4.552   3.522   1.145  0.0633 -0.0081 -0.0145
  339TMC3     H 5089   4.452   3.305   1.181 -1.8993 -0.7315  1.2138
  339TMC3    H1 5090   4.437   3.469   0.791 -0.2590  0.5702  1.1260
  339TMC3    H2 5091   4.433   3.049   0.833  0.0343 -0.4666 -1.0974
  339TMC3    C7 5092   4.505   3.240   0.677  0.5315 -0.5812  0.1708
  339TMC3    C8 5093   4.480   3.051   1.088 -0.1386  0.1750  0.2604
  339TMC3    O1 5094   4.597   3.322   0.681  0.6771  0.0062 -0.2555
  339TMC3    O2 5095   4.466   2.947   1.027  0.1139  0.2023 -0.1503
  340MPD2     C 5096   0.862   0.570  10.620 -0.0790  0.0682 -0.0928
  340MPD2    C1 5097   0.997   0.567  10.579  0.3813  0.2830 -0.1199
  340MPD2    C2 5098   1.080   0.629  10.660  0.7317 -0.0758  0.0659
  340MPD2    C3 5099   1.044   0.704  10.768 -0.0437 -0.2410 -1.5339
  340MPD2    C4 5100   0.911   0.722  10.800 -0.0572 -0.0404 -0.3723
  340MPD2    C5 5101   0.820   0.645  10.731 -0.3918 -0.3460 -0.4431
  340MPD2     H 5102   1.184   0.637  10.632  0.9363 -2.2560  0.2170
  340MPD2    H1 5103   0.887   0.775  10.891  0.3386  1.2958 -1.0488
  340MPD2    H2 5104   0.783   0.509  10.578  0.8310 -0.4965 -0.9796
  340MPD2    H3 5105   0.715   0.628  10.752 -0.4534  0.1769 -0.3403
  340MPD2     N 5106   1.140   0.761  10.858  0.3171 -0.1119  0.0475
  340MPD2    H5 5107   1.101   0.835  10.916 -0.2387 -0.9022  0.6781
  340MPD2    N1 5108   1.028   0.507  10.454 -0.5434  0.8812 -0.4726
  340MPD2    H7 5109   0.954   0.473  10.393 -1.2614  3.2698 -0.9255
  341TMC3    C1 5110   1.163   0.423  10.278 -0.8531 -0.1042 -0.1373
  341TMC3    C2 5111   1.059   0.352  10.236 -0.0782 -0.9202 -0.0529
  341TMC3    C3 5112   1.068   0.322  10.102 -0.4386  0.6192 -0.6635
  341TMC3    C4 5113   1.282   0.438  10.213  0.0954  0.3220 -0.1599
  341TMC3    C5 5114   1.291   0.401  10.083 -0.3824 -0.3355  0.4166
  341TMC3    C6 5115   1.184   0.331  10.026 -0.0803 -0.1661  0.7743
  341TMC3     C 5116   1.153   0.484  10.408 -0.3619  0.2822 -0.3045
  341TMC3     O 5117   1.256   0.509  10.467 -0.1346  0.0437 -0.5027
  341TMC3     H 5118   0.971   0.326  10.295  0.0637 -2.4318 -0.4986
  341TMC3    H1 5119   1.363   0.492  10.259  0.4538 -0.7096  0.4178
  341TMC3    H2 5120   1.193   0.290   9.926 -0.7383  1.4840  0.0321
  341TMC3    C7 5121   1.403   0.439  10.008  0.0272  0.2566  0.8110
  341TMC3    C8 5122   0.978   0.217  10.071 -0.0881  0.5496  0.1483
  341TMC3    O1 5123   1.461   0.351   9.946 -0.1212  0.2973 -0.2207
  341TMC3    O2 5124   0.951   0.135  10.156 -0.4264  0.1914 -1.1071
  342MPD2     C 5125   3.451   4.089   0.247 -0.0510  0.1081  0.5600
  342MPD2    C1 5126   3.576   4.108   0.190 -0.3128  0.0941 -1.0441
  342MPD2    C2 5127   3.630   4.237   0.183  0.0187 -0.4511 -0.1641
  342MPD2    C3 5128   3.559   4.346   0.238 -0.0553  0.2606  0.5044
  342MPD2    C4 5129   3.443   4.317   0.312 -0.4251 -0.0945 -0.1378
  342MPD2    C5 5130   3.393   4.190   0.313  0.1884 -0.2741  0.1648
  342MPD2     H 5131   3.725   4.256   0.136  0.2016  0.0011  0.3962
  342MPD2    H1 5132   3.385   4.393   0.363  0.2381 -1.3698  2.4872
  342MPD2    H2 5133   3.396   3.996   0.247 -0.3660  0.2875 -0.5700
  342MPD2    H3 5134   3.304   4.162   0.368 -1.0713  0.4893 -1.4869
  342MPD2     N 5135   3.597   4.479   0.240  0.6463 -0.6187 -0.2097
  342MPD2    H5 5136   3.522   4.544   0.264  0.8213  0.3295 -2.2196
  342MPD2    N1 5137   3.648   4.002   0.134 -0.7614  0.1966 -0.2517
  342MPD2    H7 5138   3.735   4.030   0.090  0.1898  1.0998  2.1786
  343TMC3    C1 5139   3.688   3.774   0.053 -0.0796  0.2418  0.0738
  343TMC3    C2 5140   3.808   3.806  17.695  0.2129 -0.7032 -0.4101
  343TMC3    C3 5141   3.869   3.702  17.621 -1.0019 -0.2394 -0.1550
  343TMC3    C4 5142   3.630   3.652   0.030  0.2509  0.4341  0.8485
  343TMC3    C5 5143   3.681   3.559  17.652 -0.2372  0.8472 -0.5363
  343TMC3    C6 5144   3.804   3.580  17.591  0.1566  0.2539  0.1543
  343TMC3     C 5145   3.608   3.873   0.131 -0.1030 -0.6808  0.2777
  343TMC3     O 5146   3.526   3.822   0.202  0.0417 -0.2213 -0.6169
  343TMC3     H 5147   3.866   3.894   0.019 -1.4265  0.6324 -1.2057
  343TMC3    H1 5148   3.533   3.633   0.074 -0.4807  1.3789 -0.3393
  343TMC3    H2 5149   3.857   3.499  17.541  0.1044 -0.5006  1.3263
  343TMC3    C7 5150   3.603   3.444  17.614  0.8903 -0.0698 -0.4237
  343TMC3    C8 5151   4.000   3.729  17.566  0.1714 -0.3365 -0.2277
  343TMC3    O1 5152   3.527   3.406  17.699 -0.1672  0.1500  0.3496
  343TMC3    O2 5153   4.067   3.822  17.620  0.4565  0.1855  0.5476
  344MPD2     C 5154   4.166   4.181  11.145  0.3855  0.3640  0.5951
  344MPD2    C1 5155   4.231   4.098  11.236 -0.0946 -0.6528  0.3410
  344MPD2    C2 5156   4.328   4.143  11.323  0.1447  0.2216 -0.7184
  344MPD2    C3 5157   4.351   4.277  11.329 -0.0855  0.2032  0.3807
  344MPD2    C4 5158   4.274   4.363  11.258  0.1123  0.5045  0.3305
  344MPD2    C5 5159   4.197   4.315  11.160  0.1657 -0.2557  0.2666
  344MPD2     H 5160   4.391   4.065  11.364  0.9969  0.7270 -1.0654
  344MPD2    H1 5161   4.272   4.471  11.268 -0.3765  0.6764 -1.5290
  344MPD2    H2 5162   4.095   4.143  11.072  2.1884 -1.4562 -0.2134
  344MPD2    H3 5163   4.145   4.391  11.102 -0.6712 -1.7128 -0.8644
  344MPD2     N 5164   4.456   4.337  11.411  0.3996 -0.0829  0.0603
  344MPD2    H5 5165   4.463   4.438  11.406  2.0713 -0.1441  1.2054
  344MPD2    N1 5166   4.218   3.959  11.221 -0.0739  0.3010  0.2711
  344MPD2    H7 5167   4.252   3.907  11.301  2.4117  0.8636 -0.3971
  345TMC3    C1 5168   4.673   4.332  11.507 -0.3560 -0.8459  0.3116
  345TMC3    C2 5169   4.697   4.463  11.528 -0.0820  0.4620  0.0875
  345TMC3    C3 5170   0.099   4.513  11.516 -0.0004  0.1763  0.2142
  345TMC3    C4 5171   0.056   4.254  11.465 -0.1781 -0.3690  0.1897
  345TMC3    C5 5172   0.178   4.309  11.430 -0.4490 -0.3384 -0.3817
  345TMC3    C6 5173   0.208   4.436  11.471  0.4539 -0.1527 -0.2603
  345TMC3     C 5174   4.548   4.266  11.484  0.2624  0.4728 -0.1753
  345TMC3     O 5175   4.551   4.144  11.513 -0.3095 -0.0533  0.2059
  345TMC3     H 5176   4.619   4.535  11.552 -1.2334 -1.1708  1.2733
  345TMC3    H1 5177   0.035   4.152  11.436  2.5419 -0.8510 -0.1464
  345TMC3    H2 5178   0.302   4.476  11.436 -0.0928 -0.0407 -1.6053
  345TMC3    C7 5179   0.214   4.295  11.293  0.3119  0.0718  0.3803
  345TMC3    C8 5180   0.111   4.643  11.460  0.0189 -0.2650  0.2502
  345TMC3    O1 5181   0.206   4.398  11.229  0.0518  1.1624 -0.3311
  345TMC3    O2 5182   0.050   4.653  11.355 -0.1635 -0.3489  0.1018
  346MPD2     C 5183   4.452   0.325  14.156  0.0494 -0.1553  0.0503
  346MPD2    C1 5184   4.574   0.323  14.221 -0.0859  0.0097 -0.0724
  346MPD2    C2 5185   4.566   0.314  14.364 -1.0598  0.1126  0.3672
  346MPD2    C3 5186   4.443   0.303  14.430  0.5615  0.0336 -0.0585
  346MPD2    C4 5187   4.323   0.299  14.355 -0.2963  0.4197 -0.3664
  346MPD2    C5 5188   4.330   0.321  14.223  0.6246 -0.5254 -1.0137
  346MPD2     H 5189   4.655   0.294  14.423 -0.1751 -1.4250 -1.4745
  346MPD2    H1 5190   4.226   0.306  14.402 -0.6210  1.3956 -1.1962
  346MPD2    H2 5191   4.448   0.347  14.050 -1.6244  1.1558  0.3907
  346MPD2    H3 5192   4.236   0.335  14.171  0.4975 -0.0596 -0.6668
  346MPD2     N 5193   4.455   0.276  14.570 -0.2526  0.4116  0.3139
  346MPD2    H5 5194   4.545   0.288  14.615 -0.4447  0.6896  0.6222
  346MPD2    N1 5195   4.699   0.328  14.162 -0.6485 -0.2772  0.3653
  346MPD2    H7 5196   0.055   0.313  14.222 -0.8737 -0.5851  0.5931
  347TMC3    C1 5197   4.387   0.234  14.785 -0.2549  0.1944 -0.0005
  347TMC3    C2 5198   4.513   0.235  14.827 -1.2468  0.3411  0.4457
  347TMC3    C3 5199   4.544   0.236  14.958  0.1042 -0.5597 -0.0732
  347TMC3    C4 5200   4.285   0.244  14.877 -0.2848 -0.3237 -0.3436
  347TMC3    C5 5201   4.322   0.266  15.007  0.4226  0.7065  0.5165
  347TMC3    C6 5202   4.446   0.253  15.056 -0.6803  0.6271 -0.0824
  347TMC3     C 5203   4.355   0.234  14.646  0.0376 -0.2458  0.3092
  347TMC3     O 5204   4.242   0.208  14.613  0.0303 -0.0603  0.1381
  347TMC3     H 5205   4.588   0.207  14.754 -0.0282  0.9838  1.4419
  347TMC3    H1 5206   4.187   0.261  14.834  0.0883 -0.6338 -1.3148
  347TMC3    H2 5207   4.466   0.262  15.162 -0.1742 -0.5519 -0.0783
  347TMC3    C7 5208   4.215   0.307  15.092  0.4056 -0.2947 -0.4217
  347TMC3    C8 5209   4.680   0.266  14.982 -0.6130  0.3929 -0.5222
  347TMC3    O1 5210   4.102   0.303  15.043 -0.4349 -0.6533 -0.5847
  347TMC3    O2 5211   0.041   0.213  14.908 -0.0437 -1.0492 -0.0449
  348MPD2     C 5212   3.302   0.451  12.683  0.1782  1.0944  0.5729
  348MPD2    C1 5213   3.416   0.511  12.640 -0.3218 -0.5295 -0.2179
  348MPD2    C2 5214   3.419   0.603  12.534 -0.6415 -0.5726 -1.0604
  348MPD2    C3 5215   3.299   0.628  12.463  0.5825 -0.4007  1.0002
  348MPD2    C4 5216   3.188   0.552  12.501 -0.0247  0.2416 -0.3026
  348MPD2    C5 5217   3.192   0.467  12.609 -0.6721 -0.0793 -0.8784
  348MPD2     H 5218   3.514   0.648  12.508 -0.1211  0.0272  1.8886
  348MPD2    H1 5219   3.094   0.556  12.447 -1.2820  0.2731  1.8999
  348MPD2    H2 5220   3.301   0.380  12.764  0.2454  2.0628  1.4288
  348MPD2    H3 5221   3.102   0.411  12.633 -0.9961  1.0241  0.4804
  348MPD2     N 5222   3.297   0.724  12.362 -0.3348 -0.9557 -0.7235
  348MPD2    H5 5223   3.387   0.750  12.322 -1.1059  0.7439 -1.3264
  348MPD2    N1 5224   3.538   0.486  12.708 -0.6868  0.4784  0.2740
  348MPD2    H7 5225   3.619   0.541  12.681  0.1441 -0.0868  1.6052
  349TMC3    C1 5226   3.695   0.353  12.812  0.6269  0.5000  0.3932
  349TMC3    C2 5227   3.696   0.221  12.852 -0.3274 -0.5173  0.1663
  349TMC3    C3 5228   3.734   0.117  12.760  0.2037 -0.1815  0.1311
  349TMC3    C4 5229   3.764   0.384  12.697  0.6755  0.8071  0.1469
  349TMC3    C5 5230   3.797   0.287  12.602 -0.0298 -0.4397 -0.1307
  349TMC3    C6 5231   3.785   0.153  12.640 -0.0957 -0.1402 -0.1511
  349TMC3     C 5232   3.560   0.407  12.817  0.0228 -0.2899  0.3797
  349TMC3     O 5233   3.483   0.351  12.896  0.4511 -0.0915  0.5982
  349TMC3     H 5234   3.647   0.186  12.943 -2.3286 -1.3565 -1.2506
  349TMC3    H1 5235   3.776   0.486  12.662 -1.2758  1.1988  0.6103
  349TMC3    H2 5236   3.817   0.080  12.567  1.1133  0.3563 -0.1043
  349TMC3    C7 5237   3.748   0.309  12.469 -0.5483  0.4679 -0.6322
  349TMC3    C8 5238   3.743   4.702  12.808 -0.4808  0.1300  0.6852
  349TMC3    O1 5239   3.686   0.221  12.417 -0.0825  0.1365 -0.0315
  349TMC3    O2 5240   3.677   4.674  12.905  0.0629 -0.3021  0.6717
  350MPD2     C 5241   2.656   3.084  10.116  0.8640 -0.3302  0.5311
  350MPD2    C1 5242   2.531   3.034  10.153  0.4099  0.8966  0.5340
  350MPD2    C2 5243   2.446   3.103  10.233 -0.1678  0.0728  0.1035
  350MPD2    C3 5244   2.483   3.225  10.287  0.6896  0.1699  0.1563
  350MPD2    C4 5245   2.609   3.277  10.254 -0.2582  0.0110 -0.0411
  350MPD2    C5 5246   2.694   3.212  10.165  0.0006  1.1139 -0.7577
  350MPD2     H 5247   2.353   3.055  10.259 -0.7466 -0.9437 -3.8477
  350MPD2    H1 5248   2.646   3.368  10.301 -0.4994  0.7451 -1.2624
  350MPD2    H2 5249   2.725   3.037  10.047  0.8544  0.2136  0.1525
  350MPD2    H3 5250   2.789   3.262  10.153 -0.8849  2.7390 -1.0051
  350MPD2     N 5251   2.408   3.289  10.392  0.3801  0.5208 -0.4598
  350MPD2    H5 5252   2.442   3.378  10.426  0.2190  0.1006  0.7782
  350MPD2    N1 5253   2.490   2.898  10.118 -0.3746  0.1656 -0.2668
  350MPD2    H7 5254   2.404   2.856  10.151 -0.1450  0.0078  0.1344
  351TMC3    C1 5255   2.473   2.700   9.994 -0.3048 -0.1962  0.2425
  351TMC3    C2 5256   2.536   2.595   9.939  0.6884  0.6403  1.0791
  351TMC3    C3 5257   2.473   2.479   9.913  0.7259 -0.4087 -0.3885
  351TMC3    C4 5258   2.338   2.697  10.019  0.6323 -0.1400  0.4039
  351TMC3    C5 5259   2.272   2.576   9.993  0.6071  1.2122  0.2113
  351TMC3    C6 5260   2.335   2.471   9.932 -0.3463 -0.1799  0.1646
  351TMC3     C 5261   2.548   2.824  10.024  0.1005 -0.0807  0.3431
  351TMC3     O 5262   2.646   2.840   9.951 -0.4564 -0.4031  0.1479
  351TMC3     H 5263   2.644   2.607   9.934  0.7494 -0.7545 -0.8161
  351TMC3    H1 5264   2.275   2.774  10.062  0.8894  0.2593  0.0606
  351TMC3    H2 5265   2.286   2.375   9.920  0.0906 -0.4072  0.2142
  351TMC3    C7 5266   2.143   2.557  10.055 -0.2719 -0.0869  0.5140
  351TMC3    C8 5267   2.531   2.372   9.840  0.1818 -0.0066  0.0486
  351TMC3    O1 5268   2.075   2.659  10.068 -0.0287 -0.1208 -0.4623
  351TMC3    O2 5269   2.471   2.269   9.828  0.3104  0.3756 -0.6606
  352MPD2     C 5270   1.031   0.307   1.681 -0.9501  0.0135 -0.5280
  352MPD2    C1 5271   0.901   0.308   1.737 -0.1980 -0.1887 -0.1372
  352MPD2    C2 5272   0.870   0.196   1.807  0.1599  0.3548 -0.0681
  352MPD2    C3 5273   0.960   0.097   1.831  0.6223  0.8887 -0.4601
  352MPD2    C4 5274   1.087   0.109   1.783  0.3570  0.3624  0.9735
  352MPD2    C5 5275   1.125   0.217   1.710  0.2761  0.7899 -0.4491
  352MPD2     H 5276   0.774   0.209   1.856 -0.0974 -0.6829 -0.2898
  352MPD2    H1 5277   1.161   0.031   1.796  0.6335  0.2365 -1.3455
  352MPD2    H2 5278   1.080   0.393   1.638  0.3141  0.5818  2.0391
  352MPD2    H3 5279   1.228   0.225   1.677 -0.2629 -1.3477 -2.6494
  352MPD2     N 5280   0.929   4.709   1.899 -0.1879 -0.1387  0.7552
  352MPD2    H5 5281   0.999   4.636   1.892  1.4935  1.6129 -0.8278
  352MPD2    N1 5282   0.803   0.405   1.712 -0.2026 -0.3441  0.7354
  352MPD2    H7 5283   0.708   0.394   1.745  0.4724  0.6390  2.9832
  353TMC3    C1 5284   0.786   4.556   2.011  0.1939  0.1007 -0.0376
  353TMC3    C2 5285   0.899   4.499   2.063 -0.9801  0.0009  1.0439
  353TMC3    C3 5286   0.875   4.366   2.097 -0.0818  0.7740  0.5937
  353TMC3    C4 5287   0.663   4.492   2.003 -0.0150 -0.1148  0.5025
  353TMC3    C5 5288   0.656   4.362   2.034 -0.3247  0.6145  0.1935
  353TMC3    C6 5289   0.766   4.293   2.067 -0.1280  0.7072  0.4350
  353TMC3     C 5290   0.799   4.686   1.945  0.7245  0.2736 -0.2182
  353TMC3     O 5291   0.699   0.028   1.961 -0.0720 -0.3453 -0.3530
  353TMC3     H 5292   0.994   4.550   2.079 -0.0049 -1.6843  0.6870
  353TMC3    H1 5293   0.578   4.534   1.951  0.1703  0.8692  1.0025
  353TMC3    H2 5294   0.756   4.194   2.111 -0.3632  0.3768 -0.3730
  353TMC3    C7 5295   0.570   4.275   1.959 -0.3723  0.3370 -0.0277
  353TMC3    C8 5296   0.990   4.309   2.168 -0.7140 -0.2389 -0.1516
  353TMC3    O1 5297   0.615   4.170   1.923  0.6614  0.0755  0.6655
  353TMC3    O2 5298   1.063   4.388   2.217  0.0041  0.6525  0.0468
  354TMC3    C1 5299   2.683   1.829  13.509  0.2042 -0.2612  0.3149
  354TMC3    C2 5300   2.641   1.945  13.453 -0.3703  0.6016 -0.6817
  354TMC3    C3 5301   2.700   2.000  13.342 -0.1712  0.1846  0.0590
  354TMC3    C4 5302   2.792   1.767  13.448  0.5390 -0.1142  0.6519
  354TMC3    C5 5303   2.852   1.829  13.342 -0.6882  0.0564 -0.1866
  354TMC3    C6 5304   2.813   1.945  13.288  0.9248 -0.5045  0.1200
  354TMC3     C 5305   2.632   1.772  13.640 -0.0967  0.1777 -0.0945
  354TMC3     O 5306   2.518   1.797  13.679 -0.0546 -0.5170 -0.0575
  354TMC3     H 5307   2.577   2.012  13.510 -1.2756  0.5249 -1.6016
  354TMC3    H1 5308   2.849   1.689  13.497  1.5009  0.1749 -0.0220
  354TMC3    H2 5309   2.840   1.979  13.189 -2.9009  2.7940  0.1964
  354TMC3    C7 5310   2.951   1.756  13.271  0.6191  0.0348  0.3615
  354TMC3    C8 5311   2.660   2.124  13.281 -0.2949  0.2243 -0.5093
  354TMC3    O1 5312   2.938   1.637  13.271  0.3254  0.5459 -0.6915
  354TMC3    O2 5313   2.737   2.210  13.238  0.0437 -0.0679 -0.9007
  355MPD2     C 5314   2.276   2.511  11.937  0.0158 -0.4288 -0.4765
  355MPD2    C1 5315   2.356   2.546  11.828 -0.0563  0.0863 -0.1758
  355MPD2    C2 5316   2.487   2.582  11.845  0.1593 -0.3187  1.2952
  355MPD2    C3 5317   2.534   2.599  11.971 -0.4478 -0.2766  0.1529
  355MPD2    C4 5318   2.450   2.568  12.081 -0.3360  0.1787  0.7542
  355MPD2    C5 5319   2.318   2.538  12.066  0.3239  0.3602 -0.1935
  355MPD2     H 5320   2.554   2.587  11.760 -2.0951 -0.4462 -0.4909
  355MPD2    H1 5321   2.483   2.587  12.182  2.1339 -0.7675  0.1144
  355MPD2    H2 5322   2.176   2.475  11.917 -0.6090  0.5368  0.8807
  355MPD2    H3 5323   2.257   2.519  12.154  1.9945 -1.6846  0.5394
  355MPD2     N 5324   2.668   2.634  12.005  0.0596  0.5261 -0.2240
  355MPD2    H5 5325   2.691   2.631  12.104 -0.0269  0.9604 -0.1927
  355MPD2    N1 5326   2.300   2.529  11.700 -0.2228 -0.5000  0.6978
  355MPD2    H7 5327   2.215   2.473  11.692  0.1413 -0.7766 -1.3554
  356TMC3    C1 5328   2.896   2.714  11.954  0.7452  0.2529 -0.1281
  356TMC3    C2 5329   2.998   2.724  11.866 -0.4803  0.1888 -0.0562
  356TMC3    C3 5330   3.116   2.787  11.905  0.3118  0.1985  0.4265
  356TMC3    C4 5331   2.912   2.753  12.084 -0.4380 -0.7122  0.1680
  356TMC3    C5 5332   3.036   2.798  12.124 -0.5416  0.4516  0.1809
  356TMC3    C6 5333   3.143   2.815  12.034  0.0864 -0.8573  0.4957
  356TMC3     C 5334   2.761   2.676  11.908  0.2722 -0.1565 -0.1652
  356TMC3     O 5335   2.745   2.695  11.787  0.2203  0.1141 -0.4850
  356TMC3     H 5336   2.989   2.695  11.762 -0.7283 -1.4226  0.4136
  356TMC3    H1 5337   2.838   2.721  12.157 -0.3509 -0.1958  0.4833
  356TMC3    H2 5338   3.232   2.863  12.072  1.4611 -0.9625 -2.5478
  356TMC3    C7 5339   3.051   2.832  12.264 -0.1693  0.6535  0.2086
  356TMC3    C8 5340   3.201   2.830  11.798 -0.3209 -0.2478  0.6693
  356TMC3    O1 5341   2.956   2.809  12.337 -0.0416 -0.0255 -0.2172
  356TMC3    O2 5342   3.180   2.780  11.688 -0.1614  0.2321 -0.6509
  357MPD2     C 5343   2.416   0.789   1.860 -0.5098 -0.0211 -0.8739
  357MPD2    C1 5344   2.537   0.734   1.885  0.7663  0.4274  0.4042
  357MPD2    C2 5345   2.534   0.633   1.986 -0.2179  0.9375 -0.7602
  357MPD2    C3 5346   2.419   0.586   2.042  0.1197 -0.1014 -0.1279
  357MPD2    C4 5347   2.297   0.639   2.002  0.9109 -0.0469  0.0728
  357MPD2    C5 5348   2.295   0.740   1.914  1.2300  0.3907 -0.2651
  357MPD2     H 5349   2.632   0.589   2.001 -1.2404 -0.9348  0.3871
  357MPD2    H1 5350   2.201   0.606   2.039  1.0926 -1.4858 -0.7443
  357MPD2    H2 5351   2.412   0.880   1.801  0.0533  0.1435 -0.6536
  357MPD2    H3 5352   2.208   0.801   1.895 -0.2630 -1.5999  0.1212
  357MPD2     N 5353   2.429   0.485   2.139  0.1880 -0.4870  0.1455
  357MPD2    H5 5354   2.352   0.478   2.205  0.1738  0.8445  0.2832
  357MPD2    N1 5355   2.645   0.800   1.825 -0.2632  0.7558 -0.0914
  357MPD2    H7 5356   2.635   0.884   1.769  0.6790  0.6675 -0.4027
  358TMC3    C1 5357   2.885   0.845   1.826 -0.2906 -0.1119 -0.1427
  358TMC3    C2 5358   2.877   0.931   1.717 -0.8878 -1.2938  0.1333
  358TMC3    C3 5359   2.997   0.991   1.673  0.2685 -0.4042  0.3811
  358TMC3    C4 5360   3.004   0.825   1.886  0.5382 -0.2420  0.7968
  358TMC3    C5 5361   3.114   0.885   1.837 -0.4284 -0.6126 -0.0326
  358TMC3    C6 5362   3.117   0.978   1.741  0.8037  0.2277 -0.3968
  358TMC3     C 5363   2.776   0.753   1.854  0.8326 -0.3985  0.0491
  358TMC3     O 5364   2.808   0.657   1.919  0.0166  0.4329 -0.1310
  358TMC3     H 5365   2.791   0.951   1.655  0.2590  1.3323 -0.5918
  358TMC3    H1 5366   3.030   0.752   1.962  1.7365  0.3486  0.9540
  358TMC3    H2 5367   3.203   1.007   1.682  1.2979 -1.0238 -0.2823
  358TMC3    C7 5368   3.228   0.870   1.926 -0.9799 -0.0981 -0.7757
  358TMC3    C8 5369   2.984   1.108   1.583  0.1294  0.1609  0.0812
  358TMC3    O1 5370   3.212   0.837   2.044 -0.0145 -0.6269  0.7829
  358TMC3    O2 5371   2.882   1.121   1.513 -0.5789  0.4435 -0.3481
  359MPD2     C 5372   3.435   0.990  12.665 -0.1191 -0.4467 -0.1942
  359MPD2    C1 5373   3.348   1.062  12.589  0.0447 -0.5852  0.0902
  359MPD2    C2 5374   3.212   1.035  12.584  0.3109  0.1056  0.0160
  359MPD2    C3 5375   3.171   0.925  12.657  0.5429 -0.1408 -0.2640
  359MPD2    C4 5376   3.255   0.852  12.736 -0.3726  0.4387  0.6184
  359MPD2    C5 5377   3.388   0.882  12.736  0.2403  0.2220 -1.0879
  359MPD2     H 5378   3.147   1.088  12.516 -0.6255 -2.0517 -0.7693
  359MPD2    H1 5379   3.214   0.769  12.791  2.2405  0.3138  2.3824
  359MPD2    H2 5380   3.543   0.999  12.654 -0.2232 -0.9369 -1.5673
  359MPD2    H3 5381   3.449   0.813  12.793 -0.1056  1.1848  0.4519
  359MPD2     N 5382   3.041   0.868  12.647 -0.1940  0.0314  0.4030
  359MPD2    H5 5383   3.030   0.780  12.697 -3.0758 -0.1197 -0.4669
  359MPD2    N1 5384   3.384   1.165  12.508  0.6991 -0.2337  0.0263
  359MPD2    H7 5385   3.303   1.205  12.461  0.1309 -3.1913 -1.5434
  360TMC3    C1 5386   3.508   1.342  12.408  0.3640 -0.7980 -0.4026
  360TMC3    C2 5387   3.594   1.445  12.438  0.7338  0.1907  0.1114
  360TMC3    C3 5388   3.587   1.563  12.367 -0.3252 -0.1989  0.2270
  360TMC3    C4 5389   3.418   1.345  12.304  0.8425 -0.0418  0.7492
  360TMC3    C5 5390   3.412   1.463  12.230 -0.2881  0.6337  0.7013
  360TMC3    C6 5391   3.489   1.574  12.273  0.4717  0.3023 -0.0127
  360TMC3     C 5392   3.501   1.231  12.501  0.1157  0.4201 -0.1915
  360TMC3     O 5393   3.600   1.219  12.572 -0.7589  0.6254  0.9385
  360TMC3     H 5394   3.680   1.432  12.503  0.4293  1.2051  0.7264
  360TMC3    H1 5395   3.368   1.254  12.272  0.4251  0.3420  0.2902
  360TMC3    H2 5396   3.484   1.666  12.217  1.7038  1.7276  2.2134
  360TMC3    C7 5397   3.361   1.469  12.097 -0.0876 -0.5421  0.1827
  360TMC3    C8 5398   3.714   1.611  12.319  0.2904 -0.8462 -0.3217
  360TMC3    O1 5399   3.420   1.546  12.024  0.0761  0.2823  0.4785
  360TMC3    O2 5400   3.711   1.718  12.264  0.2340  0.2803  0.4319
  361MPD2     C 5401   4.570   4.339  17.079  0.4406  0.0669  0.3583
  361MPD2    C1 5402   4.551   4.359  17.209 -0.5681  0.1955 -0.1070
  361MPD2    C2 5403   4.659   4.335  17.287  0.0939  0.2058  0.0143
  361MPD2    C3 5404   0.049   4.273  17.235 -0.2853 -0.2659  0.4483
  361MPD2    C4 5405   0.068   4.260  17.098  0.0268  0.4609  0.2926
  361MPD2    C5 5406   4.691   4.297  17.022  0.2816 -0.0835  0.3768
  361MPD2     H 5407   4.645   4.346  17.394 -0.3184  1.0940 -0.1279
  361MPD2    H1 5408   0.159   4.232  17.046 -0.2193 -2.1575  1.2741
  361MPD2    H2 5409   4.492   4.359  17.006 -0.7970 -2.3608  1.0051
  361MPD2    H3 5410   4.696   4.281  16.915 -1.2869 -1.4903  0.5197
  361MPD2     N 5411   0.152   4.232  17.310 -0.9582 -0.2230 -0.1888
  361MPD2    H5 5412   0.225   4.175  17.268  0.8154  2.1707 -0.3630
  361MPD2    N1 5413   4.427   4.421  17.245 -0.6740 -0.3318  0.1595
  361MPD2    H7 5414   4.349   4.422  17.180 -2.2787 -1.5466  2.0138
  362TMC3    C1 5415   4.291   4.573  17.342 -0.1183 -0.7421  0.1197
  362TMC3    C2 5416   4.215   4.608  17.452 -0.2668 -0.9887 -1.1128
  362TMC3    C3 5417   4.125   4.714  17.440  0.2373 -0.1100 -0.0835
  362TMC3    C4 5418   4.262   4.628  17.217 -0.0531 -0.1349  0.0951
  362TMC3    C5 5419   4.165   4.725  17.212  0.2539 -0.6881  0.4660
  362TMC3    C6 5420   4.101   0.046  17.319  0.2852  0.9112  0.0251
  362TMC3     C 5421   4.411   4.490  17.362 -0.4501  0.5474 -0.1661
  362TMC3     O 5422   4.494   4.513  17.449  0.0658 -0.0725 -0.1183
  362TMC3     H 5423   4.223   4.566  17.552 -0.1936 -1.5027 -1.3376
  362TMC3    H1 5424   4.316   4.601  17.128 -0.7686  2.9044 -1.2546
  362TMC3    H2 5425   4.015   0.108  17.298 -0.7283  0.2083  2.1790
  362TMC3    C7 5426   4.112   0.040  17.082 -0.0059 -0.1445  0.7875
  362TMC3    C8 5427   4.004   4.690  17.513  0.0987 -0.4072  0.5360
  362TMC3    O1 5428   4.065   0.153  17.067 -0.3745 -0.2081  1.0543
  362TMC3    O2 5429   3.987   4.577  17.549  0.0217  0.5362 -0.5103
  363TMC3    C1 5430   3.144   1.136   9.203  0.3915 -1.0595 -0.4173
  363TMC3    C2 5431   3.252   1.168   9.275  0.1676  0.4804 -0.1241
  363TMC3    C3 5432   3.274   1.296   9.317 -0.0135 -0.0435  0.6336
  363TMC3    C4 5433   3.044   1.227   9.182 -0.3377  0.5006  0.3264
  363TMC3    C5 5434   3.069   1.351   9.231 -0.2677  0.0754  0.4824
  363TMC3    C6 5435   3.191   1.397   9.284 -0.0593 -0.3739 -0.5284
  363TMC3     C 5436   3.130   0.992   9.170 -0.4861  0.0752 -0.1644
  363TMC3     O 5437   3.218   0.912   9.192  0.2437  0.0193 -0.2375
  363TMC3     H 5438   3.332   1.096   9.277  0.2080  0.5157 -0.4818
  363TMC3    H1 5439   2.943   1.200   9.150 -0.0794  1.1235 -1.0196
  363TMC3    H2 5440   3.200   1.491   9.337  3.4261 -1.1868  0.3369
  363TMC3    C7 5441   2.967   1.458   9.213  0.4760 -0.3292  0.0958
  363TMC3    C8 5442   3.400   1.332   9.382 -0.1759 -0.0412 -0.3973
  363TMC3    O1 5443   2.853   1.413   9.207  0.2183  0.3497  0.7045
  363TMC3    O2 5444   3.433   1.450   9.392  0.0656  0.4044 -0.5483
  364MPD2     C 5445   2.055   2.045  10.571 -0.0637 -1.0170 -0.1988
  364MPD2    C1 5446   2.187   2.063  10.539 -0.1352 -0.7431  0.3116
  364MPD2    C2 5447   2.263   1.946  10.539 -0.0039  0.2214 -0.4158
  364MPD2    C3 5448   2.215   1.820  10.561  0.0648  0.4530 -0.9428
  364MPD2    C4 5449   2.086   1.810  10.594 -0.1460 -0.7305  0.1274
  364MPD2    C5 5450   2.006   1.922  10.594 -0.6864 -0.1816 -0.3961
  364MPD2     H 5451   2.369   1.965  10.543  0.2559 -1.2804 -0.4845
  364MPD2    H1 5452   2.046   1.710  10.612  0.2287 -0.9011  0.0136
  364MPD2    H2 5453   1.991   2.132  10.568  1.2384 -0.0483  0.0884
  364MPD2    H3 5454   1.900   1.914  10.615 -0.8963  0.9588 -1.0575
  364MPD2     N 5455   2.297   1.710  10.571 -0.1716  0.2517  0.0581
  364MPD2    H5 5456   2.259   1.624  10.611 -0.0817 -0.5788 -1.6383
  364MPD2    N1 5457   2.226   2.196  10.513  0.8857  0.2106 -0.0276
  364MPD2    H7 5458   2.154   2.266  10.519 -0.4475 -0.9918 -2.3582
  365TMC3    C1 5459   2.374   2.372  10.446  0.2339  0.1205  0.2036
  365TMC3    C2 5460   2.503   2.397  10.419  0.3508  0.1522 -1.0166
  365TMC3    C3 5461   2.532   2.515  10.360  0.4391 -0.5128 -0.3149
  365TMC3    C4 5462   2.267   2.457  10.425  0.5996  0.3982 -0.3531
  365TMC3    C5 5463   2.297   2.579  10.369 -0.2959  0.3332  0.2032
  365TMC3    C6 5464   2.428   2.601  10.328 -0.5864 -0.3702 -0.0306
  365TMC3     C 5465   2.357   2.237  10.496  0.8877 -1.0519 -0.0709
  365TMC3     O 5466   2.453   2.170  10.489  0.2735 -0.4720 -0.2957
  365TMC3     H 5467   2.588   2.341  10.460 -0.0575  0.0307 -0.3345
  365TMC3    H1 5468   2.164   2.423  10.433  0.7768 -0.0226  0.0969
  365TMC3    H2 5469   2.466   2.698  10.298  0.0288 -0.5271  0.2432
  365TMC3    C7 5470   2.227   2.694  10.415 -0.2302  0.4848 -0.1022
  365TMC3    C8 5471   2.657   2.517  10.279  0.1372 -0.2260 -0.5096
  365TMC3    O1 5472   2.258   2.799  10.361 -0.5314  0.2626  0.4203
  365TMC3    O2 5473   2.675   2.621  10.220  0.0492  0.1720  0.0614
  366MPD2     C 5474   0.284   2.601  15.672 -0.3110 -0.0070  0.5091
  366MPD2    C1 5475   0.277   2.728  15.617  0.5138  0.9037  0.0838
  366MPD2    C2 5476   0.347   2.758  15.501  0.3727  0.4478 -0.9878
  366MPD2    C3 5477   0.433   2.668  15.444 -0.1978 -0.4232  0.3105
  366MPD2    C4 5478   0.438   2.542  15.494  0.7317 -1.0236  0.3479
  366MPD2    C5 5479   0.365   2.510  15.609 -0.5488 -0.1376  0.4719
  366MPD2     H 5480   0.327   2.860  15.470  2.4849  0.4217 -2.4577
  366MPD2    H1 5481   0.495   2.465  15.442 -0.8159 -1.3169 -0.8947
  366MPD2    H2 5482   0.211   2.572  15.747 -0.5622 -2.0760 -0.5286
  366MPD2    H3 5483   0.349   2.409  15.644  2.3874  0.2114  2.8131
  366MPD2     N 5484   0.529   2.701  15.339  0.0746 -0.2488 -0.5299
  366MPD2    H5 5485   0.519   2.794  15.301 -0.4756  0.2236  0.7662
  366MPD2    N1 5486   0.217   2.835  15.686 -0.4539 -0.2316 -0.0546
  366MPD2    H7 5487   0.187   2.910  15.625  2.5893  0.4035 -0.7482
  367TMC3    C1 5488   0.234   2.994  15.845  0.0711  0.7239 -0.4567
  367TMC3    C2 5489   0.347   3.033  15.902  0.8449 -0.1004  0.6670
  367TMC3    C3 5490   0.366   3.172  15.903 -0.1987  0.2901  0.9068
  367TMC3    C4 5491   0.140   3.073  15.782  0.3022 -0.4049  0.3326
  367TMC3    C5 5492   0.162   3.214  15.785 -0.2995 -0.1397 -1.1053
  367TMC3    C6 5493   0.280   3.256  15.841  0.2632 -0.1356 -0.0864
  367TMC3     C 5494   0.229   2.852  15.821 -0.5582 -0.4968 -0.2775
  367TMC3     O 5495   0.276   2.772  15.901  0.2066 -0.3535 -0.1029
  367TMC3     H 5496   0.413   2.951  15.924  0.5820 -0.1107  1.4249
  367TMC3    H1 5497   0.054   3.028  15.734 -0.9013  2.1176  0.1382
  367TMC3    H2 5498   0.304   3.361  15.853 -0.0986 -0.1418  0.7045
  367TMC3    C7 5499   0.070   3.322  15.730  0.1458 -0.5248 -0.9991
  367TMC3    C8 5500   0.507   3.204  15.923 -0.1009 -0.6455 -0.6362
  367TMC3    O1 5501   0.073   3.430  15.780 -0.6096 -0.2247  0.2621
  367TMC3    O2 5502   0.573   3.132  16.000  0.0752 -0.2358  0.3022
  368MPD2     C 5503   1.781   0.079  13.163  0.2080 -0.1120 -0.0030
  368MPD2    C1 5504   1.831   0.208  13.142 -0.1129 -0.5770 -0.0835
  368MPD2    C2 5505   1.959   0.235  13.174 -0.1533  0.3557 -0.5823
  368MPD2    C3 5506   2.036   0.146  13.248 -0.2207 -1.0365 -0.4996
  368MPD2    C4 5507   1.993   0.024  13.272 -0.4610  0.0138  0.3997
  368MPD2    C5 5508   1.871   4.714  13.226  0.2924 -0.3440 -0.2033
  368MPD2     H 5509   1.989   0.337  13.152  1.0232 -0.1080 -1.1816
  368MPD2    H1 5510   2.052   4.683  13.335 -2.5784  0.5411  2.9752
  368MPD2    H2 5511   1.694   0.041  13.112  1.3714 -1.1381 -1.2266
  368MPD2    H3 5512   1.838   4.611  13.233 -0.7728 -0.0114 -0.4310
  368MPD2     N 5513   2.156   0.185  13.301 -0.1333 -0.2859 -0.3786
  368MPD2    H5 5514   2.194   0.125  13.373  0.8306 -2.0286 -2.3396
  368MPD2    N1 5515   1.751   0.317  13.092 -0.1269  0.5758  0.2315
  368MPD2    H7 5516   1.805   0.399  13.065 -0.5531  0.7012 -0.2203
  369TMC3    C1 5517   1.569   0.459  13.110  0.2473  0.1844  0.1498
  369TMC3    C2 5518   1.661   0.557  13.156 -0.0290 -0.3569 -0.5054
  369TMC3    C3 5519   1.615   0.657  13.232 -0.0879  0.0616  0.0337
  369TMC3    C4 5520   1.436   0.480  13.146  0.7121 -0.0284 -0.0028
  369TMC3    C5 5521   1.399   0.584  13.234  0.5808  0.1697 -0.4395
  369TMC3    C6 5522   1.487   0.668  13.286 -0.1611  0.3815  0.6710
  369TMC3     C 5523   1.614   0.322  13.089 -0.3954 -0.0104 -0.4522
  369TMC3     O 5524   1.531   0.233  13.103 -0.1283 -0.2348  0.1632
  369TMC3     H 5525   1.759   0.579  13.114  0.8127 -0.3972  1.4580
  369TMC3    H1 5526   1.371   0.397  13.123 -1.8162  2.0317 -0.1814
  369TMC3    H2 5527   1.451   0.750  13.348 -1.6838 -0.8488  1.4101
  369TMC3    C7 5528   1.276   0.572  13.304 -0.3561  0.1482  0.6407
  369TMC3    C8 5529   1.729   0.739  13.285 -0.5093  0.4421 -0.2748
  369TMC3    O1 5530   1.274   0.598  13.425  0.8005 -0.9610 -0.3805
  369TMC3    O2 5531   1.831   0.759  13.220 -0.2159  0.3801  0.3102
  370TMC3    C1 5532   0.826   0.602  16.637  0.7028 -0.5485  0.3431
  370TMC3    C2 5533   0.780   0.515  16.729 -0.6833 -0.3747  0.2978
  370TMC3    C3 5534   0.759   0.386  16.691  0.3044  0.6563 -0.4047
  370TMC3    C4 5535   0.875   0.554  16.516 -0.7451 -0.5126 -0.0211
  370TMC3    C5 5536   0.872   0.423  16.493 -0.7032  0.2929 -0.7939
  370TMC3    C6 5537   0.818   0.330  16.579  0.2114 -0.3966 -0.1382
  370TMC3     C 5538   0.921   0.702  16.695 -0.8849 -1.2622 -0.1079
  370TMC3     O 5539   0.948   0.706  16.810  0.2025  0.2042 -0.0514
  370TMC3     H 5540   0.754   0.557  16.825  2.0064 -0.5530  1.0817
  370TMC3    H1 5541   0.935   0.622  16.456  0.5870 -0.5392  1.2901
  370TMC3    H2 5542   0.805   0.225  16.559 -0.6609 -0.3998  0.4146
  370TMC3    C7 5543   0.937   0.381  16.374  0.1329 -0.3595  0.4706
  370TMC3    C8 5544   0.733   0.297  16.800 -0.4624  0.4816  0.0993
  370TMC3    O1 5545   0.926   0.455  16.274  0.8818  0.3197 -0.4827
  370TMC3    O2 5546   0.766   0.183  16.799 -0.4659 -0.8512 -0.3833
  371TMC3    C1 5547   2.255   3.601  15.892 -0.1420 -0.6134  0.3734
  371TMC3    C2 5548   2.184   3.636  16.002 -0.0354 -0.7026 -0.3692
  371TMC3    C3 5549   2.127   3.756  16.016  0.2106 -0.0134  0.1605
  371TMC3    C4 5550   2.258   3.689  15.787 -0.0189 -0.7364  0.5668
  371TMC3    C5 5551   2.192   3.806  15.801  0.5393  0.0673 -0.3288
  371TMC3    C6 5552   2.146   3.847  15.923  0.1909  0.5008 -0.2540
  371TMC3     C 5553   2.305   3.462  15.870 -0.3052  0.3831  0.1329
  371TMC3     O 5554   2.372   3.437  15.772  0.0477 -0.1763 -0.3488
  371TMC3     H 5555   2.172   3.567  16.085 -2.3888  1.4465  1.1038
  371TMC3    H1 5556   2.299   3.660  15.691  0.7931  0.8428  0.4431
  371TMC3    H2 5557   2.098   3.944  15.927 -1.4409 -0.1572 -3.9105
  371TMC3    C7 5558   2.221   3.907  15.708  0.5956  0.2819  0.0940
  371TMC3    C8 5559   2.000   3.750  16.098  0.9908 -0.4346  0.1334
  371TMC3    O1 5560   2.228   4.015  15.762 -0.0423  0.6995 -0.2450
  371TMC3    O2 5561   1.956   3.638  16.121  0.0453  0.0228 -0.2531
  372MPD2     C 5562   1.994   0.533  13.539 -0.4207  0.2160  0.6378
  372MPD2    C1 5563   2.064   0.521  13.660  0.8607 -0.7206  0.1681
  372MPD2    C2 5564   2.045   0.416  13.743 -0.1478  0.4153  0.6125
  372MPD2    C3 5565   1.966   0.310  13.710  1.0163 -0.4170 -0.4895
  372MPD2    C4 5566   1.911   0.310  13.584  0.6557  0.5459  0.1971
  372MPD2    C5 5567   1.910   0.427  13.505 -0.1297 -0.6744  0.0271
  372MPD2     H 5568   2.094   0.426  13.840  1.3550  0.2420 -0.1351
  372MPD2    H1 5569   1.848   0.224  13.563  1.3204 -0.3287  1.7615
  372MPD2    H2 5570   2.002   0.610  13.464  0.0739 -0.9293 -0.4794
  372MPD2    H3 5571   1.857   0.433  13.411  0.0882  1.3639  0.0388
  372MPD2     N 5572   1.955   0.207  13.803  0.7529 -0.3769  0.1631
  372MPD2    H5 5573   2.000   0.222  13.893  0.8102  0.1772  0.0409
  372MPD2    N1 5574   2.157   0.622  13.705 -0.1253 -0.4478 -0.0894
  372MPD2    H7 5575   2.180   0.631  13.803 -0.1684  1.7843 -0.2772
  373TMC3    C1 5576   1.929   4.721  13.885  0.3335  0.1532 -0.0416
  373TMC3    C2 5577   1.901   0.047  14.009  0.1655 -0.9942 -0.6413
  373TMC3    C3 5578   1.950   4.702  14.116  0.4744 -0.6458 -0.5578
  373TMC3    C4 5579   2.003   4.608  13.863 -0.0902 -0.4307  0.6104
  373TMC3    C5 5580   2.063   4.554  13.970  0.1090  0.0166 -0.0996
  373TMC3    C6 5581   2.030   4.595  14.103 -0.1654 -0.2277 -0.1199
  373TMC3     C 5582   1.908   0.084  13.773  0.0864 -0.5100  0.8509
  373TMC3     O 5583   1.881   0.027  13.670  0.5652  0.4720  0.2288
  373TMC3     H 5584   1.853   0.143  14.027 -1.0342 -1.6372 -0.4517
  373TMC3    H1 5585   2.017   4.566  13.764  0.0628 -1.3131  1.0048
  373TMC3    H2 5586   2.070   4.546  14.190  0.0253 -1.4389 -0.8934
  373TMC3    C7 5587   2.082   4.411  13.947 -0.1056 -0.2416  0.0785
  373TMC3    C8 5588   1.888   0.002  14.244 -0.4525 -0.4469 -0.0257
  373TMC3    O1 5589   2.020   4.361  13.861  0.5376 -0.3793  0.1443
  373TMC3    O2 5590   1.950   4.701  14.348  0.4546  0.2485  0.3503
  374TMC3    C1 5591   2.103   0.507  10.301  0.2938  0.4102  0.2790
  374TMC3    C2 5592   2.230   0.466  10.322 -0.2876  0.1782 -0.7343
  374TMC3    C3 5593   2.260   0.332  10.321 -0.1664  0.5187  0.7323
  374TMC3    C4 5594   2.005   0.417  10.268 -0.8766  0.6631 -0.8817
  374TMC3    C5 5595   2.036   0.286  10.266  0.2317  0.2906  0.3836
  374TMC3    C6 5596   2.166   0.240  10.288 -0.1032  0.3019  1.5647
  374TMC3     C 5597   2.076   0.643  10.286 -0.2872 -0.4322 -0.1749
  374TMC3     O 5598   1.961   0.674  10.308 -0.4189 -0.2115  0.0940
  374TMC3     H 5599   2.300   0.537  10.365 -1.0160  0.3227  0.2368
  374TMC3    H1 5600   1.900   0.444  10.263 -1.2074 -0.7077 -1.3104
  374TMC3    H2 5601   2.200   0.137  10.284  2.3256  1.1513  0.0020
  374TMC3    C7 5602   1.927   0.197  10.228 -0.3034  0.0482 -0.2737
  374TMC3    C8 5603   2.386   0.284  10.358 -0.0211  0.0696  0.3456
  374TMC3    O1 5604   1.831   0.251  10.170  0.3326  0.4381 -0.1459
  374TMC3    O2 5605   2.414   0.171  10.316 -0.7730 -0.1751  0.6737
  375MPD2     C 5606   2.138   1.418  17.336  0.1651 -0.2374 -0.1606
  375MPD2    C1 5607   2.047   1.419  17.234  0.4363  0.8200 -0.3937
  375MPD2    C2 5608   2.095   1.435  17.107  0.2828  0.1999 -0.0089
  375MPD2    C3 5609   2.228   1.461  17.082  0.6857 -0.3119  0.0420
  375MPD2    C4 5610   2.309   1.472  17.184  0.4147 -0.3465 -0.3190
  375MPD2    C5 5611   2.266   1.447  17.306  0.5834 -0.3148  0.1142
  375MPD2     H 5612   2.038   1.406  17.019  0.4643  0.5281 -0.2327
  375MPD2    H1 5613   2.414   1.496  17.172  0.5783 -0.6156  0.5810
  375MPD2    H2 5614   2.115   1.411  17.442 -4.0023 -1.2161 -1.1383
  375MPD2    H3 5615   2.334   1.447  17.391  2.6023  1.1363 -1.4836
  375MPD2     N 5616   2.283   1.493  16.961  0.1156 -0.2925  0.5312
  375MPD2    H5 5617   2.373   1.539  16.970 -0.3789  0.7745  0.0505
  375MPD2    N1 5618   1.910   1.387  17.254 -0.6010 -0.1057 -0.6158
  375MPD2    H7 5619   1.853   1.379  17.170  1.2477  2.2154 -2.0813
  376TMC3    C1 5620   2.322   1.476  16.723 -0.6049 -0.1190 -0.1890
  376TMC3    C2 5621   2.426   1.565  16.727  0.2138 -0.3239 -0.6452
  376TMC3    C3 5622   2.511   1.565  16.619  0.0239  0.1236 -0.3181
  376TMC3    C4 5623   2.313   1.376  16.629  0.7476 -0.1482 -0.3031
  376TMC3    C5 5624   2.403   1.378  16.530 -0.9005  0.5139  0.6229
  376TMC3    C6 5625   2.504   1.467  16.521  0.2221 -0.5530 -0.0886
  376TMC3     C 5626   2.230   1.467  16.838 -0.6700 -0.7302 -0.0421
  376TMC3     O 5627   2.121   1.415  16.821  0.5346 -1.0859  0.4884
  376TMC3     H 5628   2.438   1.633  16.810 -2.3390  0.5358 -0.9668
  376TMC3    H1 5629   2.231   1.304  16.630  0.1412  0.5724  1.8417
  376TMC3    H2 5630   2.574   1.470  16.439  0.4581 -1.2295  0.0871
  376TMC3    C7 5631   2.389   1.285  16.420 -0.3679  0.5939 -0.7486
  376TMC3    C8 5632   2.586   1.683  16.595 -0.1462 -0.4935  0.0555
  376TMC3    O1 5633   2.472   1.300  16.334 -0.5151 -0.0730  0.0816
  376TMC3    O2 5634   2.672   1.665  16.510 -0.9179 -0.0949  0.5013
  377MPD2     C 5635   0.369   0.388  12.902 -0.0164 -0.0364 -0.5415
  377MPD2    C1 5636   0.459   0.479  12.956 -0.3200 -0.2769  0.6908
  377MPD2    C2 5637   0.421   0.549  13.064  0.2422 -0.2364  0.1398
  377MPD2    C3 5638   0.288   0.552  13.108  0.8543 -0.0233 -0.1050
  377MPD2    C4 5639   0.205   0.454  13.057 -1.1653 -0.2618  0.4798
  377MPD2    C5 5640   0.243   0.375  12.951 -0.7720 -0.6146 -0.3672
  377MPD2     H 5641   0.494   0.618  13.105 -0.6349  0.6818  0.1509
  377MPD2    H1 5642   0.103   0.446  13.092 -1.3358  1.8217  0.4821
  377MPD2    H2 5643   0.402   0.327  12.819 -0.1134  1.0833 -1.4069
  377MPD2    H3 5644   0.177   0.305  12.901  0.4769 -0.9781 -1.5252
  377MPD2     N 5645   0.247   0.629  13.221 -0.6085  0.2337  0.1067
  377MPD2    H5 5646   0.148   0.627  13.242 -0.6095  0.1038  0.0881
  377MPD2    N1 5647   0.586   0.490  12.893  0.4445 -0.3691  0.6767
  377MPD2    H7 5648   0.597   0.454  12.798  1.9744  1.3138  0.2168
  378TMC3    C1 5649   0.828   0.689  12.642 -0.6066  0.3736 -0.4077
  378TMC3    C2 5650   0.746   0.605  12.716 -0.2663 -0.3267 -0.4865
  378TMC3    C3 5651   0.789   0.566  12.837 -0.0526  0.3027  0.1407
  378TMC3    C4 5652   0.957   0.713  12.684  0.0501  0.0257  0.2199
  378TMC3    C5 5653   0.992   0.670  12.809 -0.1962 -0.0492 -0.5420
  378TMC3    C6 5654   0.907   0.612  12.887  0.3975  0.6082  0.3200
  378TMC3     C 5655   0.779   0.754  12.520  0.6566  0.4298  0.4293
  378TMC3     O 5656   0.865   0.821  12.463  0.4862  0.2616 -0.4217
  378TMC3     H 5657   0.653   0.574  12.670  0.3150 -2.3387 -0.2623
  378TMC3    H1 5658   1.026   0.769  12.621 -0.4811 -1.8860 -2.0432
  378TMC3    H2 5659   0.934   0.596  12.991  1.7498  0.8671  0.0169
  378TMC3    C7 5660   1.128   0.666  12.849 -0.4577 -0.0772  0.2759
  378TMC3    C8 5661   0.695   0.536  12.947 -0.8952  0.0543  0.0528
  378TMC3    O1 5662   1.153   0.642  12.966 -0.1348 -0.3048 -0.5158
  378TMC3    O2 5663   0.725   0.555  13.065  0.7313  0.0089 -0.0219
  379MPD2     C 5664   1.300   3.281  16.597  0.2490  0.2311 -0.2556
  379MPD2    C1 5665   1.398   3.206  16.536  0.5657  0.0645  0.3430
  379MPD2    C2 5666   1.498   3.146  16.610 -0.8363 -0.3351 -0.3932
  379MPD2    C3 5667   1.490   3.131  16.751  0.0869 -0.5067 -0.5308
  379MPD2    C4 5668   1.392   3.207  16.811 -0.3961  0.5378 -0.6921
  379MPD2    C5 5669   1.299   3.286  16.733 -0.0461  0.1474 -0.1230
  379MPD2     H 5670   1.574   3.083  16.564  0.9326  0.6860  1.1487
  379MPD2    H1 5671   1.379   3.215  16.918  0.7167 -0.5784 -0.4691
  379MPD2    H2 5672   1.218   3.332  16.547  0.0962  0.2223 -0.0161
  379MPD2    H3 5673   1.228   3.352  16.781 -0.6265 -0.4249 -0.1926
  379MPD2     N 5674   1.577   3.051  16.838 -0.0648 -0.0265 -0.1580
  379MPD2    H5 5675   1.558   3.039  16.937 -1.6157  0.0381 -0.4412
  379MPD2    N1 5676   1.382   3.202  16.392 -0.0455 -0.2910  0.3092
  379MPD2    H7 5677   1.318   3.269  16.350  1.1330  1.6327  1.5895
  380TMC3    C1 5678   1.378   3.094  16.173 -0.5231  0.2452 -0.0910
  380TMC3    C2 5679   1.438   3.018  16.084  0.9015  0.0872 -0.4056
  380TMC3    C3 5680   1.383   3.009  15.957 -0.1015  0.4024  0.3243
  380TMC3    C4 5681   1.254   3.144  16.151 -0.2202  0.0491  0.9618
  380TMC3    C5 5682   1.199   3.123  16.032  0.3983 -0.0319 -0.2740
  380TMC3    C6 5683   1.261   3.059  15.929 -0.0217  0.0663 -0.2414
  380TMC3     C 5684   1.440   3.105  16.308 -0.2872  0.2858  0.5548
  380TMC3     O 5685   1.522   3.016  16.327 -0.1513 -0.0692  0.1976
  380TMC3     H 5686   1.539   2.983  16.106  0.5033 -0.5966  0.3226
  380TMC3    H1 5687   1.193   3.194  16.225 -0.8470  0.9846 -0.1953
  380TMC3    H2 5688   1.214   3.030  15.836 -3.1389  1.7794  0.7903
  380TMC3    C7 5689   1.067   3.175  16.003  0.5389 -0.2233 -0.0103
  380TMC3    C8 5690   1.467   3.037  15.840  0.2811  0.5845 -0.0201
  380TMC3    O1 5691   0.991   3.180  16.097 -0.1314 -0.3743  0.0238
  380TMC3    O2 5692   1.420   3.113  15.756  0.4687  0.0171  0.1852
  381TMC3    C1 5693   1.010   4.339  16.621 -0.3076 -0.9958  0.0366
  381TMC3    C2 5694   1.072   4.465  16.609  0.6012 -1.4588 -0.3643
  381TMC3    C3 5695   1.046   4.559  16.709  0.0093  1.0768 -0.3800
  381TMC3    C4 5696   0.956   4.311  16.745  0.4951 -0.0516 -0.2879
  381TMC3    C5 5697   0.947   4.398  16.847  0.0101  0.1261  1.0299
  381TMC3    C6 5698   0.976   4.531  16.822 -0.3458 -0.0580 -0.1059
  381TMC3     C 5699   1.063   4.236  16.535  0.4278 -0.2237 -0.0821
  381TMC3     O 5700   1.163   4.260  16.463  1.0905 -0.4695  0.1257
  381TMC3     H 5701   1.108   4.490  16.509 -0.3747  1.0496 -0.0782
  381TMC3    H1 5702   0.933   4.211  16.779 -2.5570  0.8089  0.1669
  381TMC3    H2 5703   0.946   4.608  16.892 -0.6016 -1.0386  0.8504
  381TMC3    C7 5704   0.924   4.361  16.987  0.3965 -0.0539 -0.0767
  381TMC3    C8 5705   1.132   4.678  16.702  0.9008 -0.2281  0.5004
  381TMC3    O1 5706   0.964   4.248  17.027 -0.1039 -0.7063  0.5411
  381TMC3    O2 5707   1.233   4.664  16.634  0.0115 -0.3132  0.1026
  382MPD2     C 5708   0.246   2.184  17.354  0.1182  0.8232  0.2671
  382MPD2    C1 5709   0.225   2.224  17.488 -0.0707  0.5310  0.7089
  382MPD2    C2 5710   0.166   2.137  17.585  0.9973 -0.3878 -0.0821
  382MPD2    C3 5711   0.148   2.002  17.544  0.1066 -0.2610 -0.3889
  382MPD2    C4 5712   0.160   1.969  17.411 -0.0783 -0.4198 -0.3451
  382MPD2    C5 5713   0.207   2.058  17.322 -0.1617  0.0369  0.1953
  382MPD2     H 5714   0.150   2.167  17.687  3.4285 -0.2102  0.2324
  382MPD2    H1 5715   0.135   1.868  17.379  0.9699 -1.8683  3.3540
  382MPD2    H2 5716   0.279   2.249  17.274 -1.2662 -0.0610 -1.0170
  382MPD2    H3 5717   0.217   2.015  17.223 -0.8735 -0.9014  0.5297
  382MPD2     N 5718   0.104   1.896  17.634  0.5678  0.3482  0.0840
  382MPD2    H5 5719   0.068   1.808  17.600  1.6868  0.1701 -0.6356
  382MPD2    N1 5720   0.256   2.360  17.535 -0.3410  0.1113 -0.0894
  382MPD2    H7 5721   0.236   2.375  17.633  2.0865 -0.4519  0.4728
  383TMC3    C1 5722   4.720   1.817   0.124 -0.3576 -0.2627  0.3237
  383TMC3    C2 5723   4.635   1.748   0.045  0.4441  0.0870  0.4454
  383TMC3    C3 5724   4.543   1.674   0.104 -0.1983  0.6889 -0.6294
  383TMC3    C4 5725   4.697   1.838   0.256 -0.3338 -0.0810  0.6594
  383TMC3    C5 5726   4.592   1.770   0.311  0.1141  0.2102  0.0489
  383TMC3    C6 5727   4.515   1.682   0.240  0.0623 -0.2027  0.4599
  383TMC3     C 5728   0.086   1.911   0.065 -0.1676 -0.0636 -0.1308
  383TMC3     O 5729   0.129   2.002   0.138  0.2428  0.6572 -0.1242
  383TMC3     H 5730   4.638   1.755  17.638  0.1183 -0.1978  0.4193
  383TMC3    H1 5731   0.032   1.906   0.316  1.3823 -1.3447  0.3646
  383TMC3    H2 5732   4.420   1.646   0.279 -0.5652 -1.6588 -2.4024
  383TMC3    C7 5733   4.544   1.808   0.441 -0.1386  0.0419 -0.0097
  383TMC3    C8 5734   4.446   1.615   0.021  0.4741  0.3871  0.3578
  383TMC3    O1 5735   4.461   1.732   0.499  0.0542  0.0763  0.2246
  383TMC3    O2 5736   4.427   1.656  17.610 -0.5997 -0.2593 -0.4203
  384MPD2     C 5737   1.720   3.803  12.080 -0.2578  0.2710 -0.0957
  384MPD2    C1 5738   1.722   3.678  12.138  0.3244 -0.7168 -0.5085
  384MPD2    C2 5739   1.810   3.585  12.085 -0.5950  0.8998 -0.1825
  384MPD2    C3 5740   1.898   3.625  11.986  0.1696 -0.1820  0.5019
  384MPD2    C4 5741   1.890   3.750  11.933 -0.4858  0.9074 -0.0777
  384MPD2    C5 5742   1.809   3.845  11.989  0.3341 -0.1420  0.8198
  384MPD2     H 5743   1.818   3.494  12.143  3.4212  0.4354 -1.5191
  384MPD2    H1 5744   1.939   3.765  11.838  0.8132 -2.3432  0.0783
  384MPD2    H2 5745   1.647   3.876  12.114  1.1025  2.3596 -1.6033
  384MPD2    H3 5746   1.802   3.947  11.952  0.0723 -0.2622  0.5346
  384MPD2     N 5747   1.989   3.537  11.928 -0.0903 -0.8464  0.4340
  384MPD2    H5 5748   2.063   3.578  11.872  1.2638 -1.1376  2.0032
  384MPD2    N1 5749   1.652   3.655  12.262  0.2091 -0.7352  0.4092
  384MPD2    H7 5750   1.685   3.576  12.317 -0.1905 -0.9549  0.3368
  385TMC3    C1 5751   2.117   3.339  11.919  0.2970  0.1656 -0.1184
  385TMC3    C2 5752   2.107   3.209  11.882 -0.3286 -0.3633  0.6010
  385TMC3    C3 5753   2.177   3.117  11.958  0.0811  0.5546 -0.8072
  385TMC3    C4 5754   2.185   3.388  12.023 -0.1389 -0.1326 -0.5839
  385TMC3    C5 5755   2.233   3.292  12.109 -0.5706 -0.2310  0.3023
  385TMC3    C6 5756   2.243   3.163  12.066 -0.2620 -0.2161  0.1909
  385TMC3     C 5757   1.982   3.398  11.927 -0.3263  0.5733 -0.2732
  385TMC3     O 5758   1.887   3.321  11.945 -0.9443  0.5552 -0.2525
  385TMC3     H 5759   2.033   3.179  11.809 -1.5827 -1.2891  2.2354
  385TMC3    H1 5760   2.186   3.494  12.048  0.5622 -0.2288 -0.1923
  385TMC3    H2 5761   2.293   3.094  12.133  0.4668  0.0914 -0.0251
  385TMC3    C7 5762   2.157   3.304  12.234 -1.0295  0.3541  0.2036
  385TMC3    C8 5763   2.132   2.982  11.968 -0.2020  0.0035  0.2837
  385TMC3    O1 5764   2.124   3.418  12.265 -0.2627  0.0970  0.2495
  385TMC3    O2 5765   2.136   2.933  12.082 -0.3389  0.4731  0.0416
  386TMC3    C1 5766   2.562   0.968  12.158  0.3780  0.2977  0.1649
  386TMC3    C2 5767   2.459   0.940  12.075 -0.5304 -0.2379  0.4375
  386TMC3    C3 5768   2.335   0.992  12.108 -0.2935 -0.4209 -0.4495
  386TMC3    C4 5769   2.529   1.021  12.278  0.3573 -0.0706 -0.0266
  386TMC3    C5 5770   2.401   1.044  12.320  0.4698  0.7589  0.5848
  386TMC3    C6 5771   2.299   1.044  12.229  0.5231  0.0374 -0.1278
  386TMC3     C 5772   2.656   0.859  12.165 -0.8439  0.3018  0.0126
  386TMC3     O 5773   2.771   0.886  12.132  0.3342  0.2644  0.1751
  386TMC3     H 5774   2.481   0.888  11.982 -0.2846  2.7926 -1.2081
  386TMC3    H1 5775   2.610   1.027  12.350  0.7585 -1.4083 -0.3662
  386TMC3    H2 5776   2.201   1.089  12.244 -1.2110 -3.3425 -1.3451
  386TMC3    C7 5777   2.382   1.039  12.462  0.2750 -0.1905  0.1281
  386TMC3    C8 5778   2.219   0.971  12.023  0.1961 -0.0379 -0.1017
  386TMC3    O1 5779   2.480   1.055  12.532  0.1720 -0.3802  0.1296
  386TMC3    O2 5780   2.117   1.026  12.049  0.0749  0.3223  0.0248
  387MPD2     C 5781   4.279   0.049  10.037  0.3149 -0.0052  0.1224
  387MPD2    C1 5782   4.411   0.047   9.991 -0.0598  0.6525  0.1871
  387MPD2    C2 5783   4.497   4.678  10.043  0.0114  0.5136  0.5684
  387MPD2    C3 5784   4.461   4.587  10.138 -0.7335  0.4965  0.0997
  387MPD2    C4 5785   4.331   4.583  10.190 -0.2273 -0.4970 -0.2508
  387MPD2    C5 5786   4.243   4.677  10.134  0.4988 -0.0174 -0.4035
  387MPD2     H 5787   4.601   4.678  10.012  0.6049  0.7163  2.5528
  387MPD2    H1 5788   4.293   4.517  10.267 -0.8007 -1.7824 -1.6263
  387MPD2    H2 5789   4.207   0.118   9.994  1.2382 -0.5161 -2.2353
  387MPD2    H3 5790   4.138   4.685  10.159  0.1818 -1.9288 -1.1056
  387MPD2     N 5791   4.563   4.524  10.214 -0.2676 -0.1445  0.0279
  387MPD2    H5 5792   4.660   4.551  10.199 -1.2141  1.9189 -2.3450
  387MPD2    N1 5793   4.471   0.142   9.909 -0.5125 -0.1935  0.0454
  387MPD2    H7 5794   4.572   0.137   9.903 -0.4272  0.1306  1.1796
  388TMC3    C1 5795   4.509   0.355   9.825  0.2129  0.0403 -0.4128
  388TMC3    C2 5796   4.480   0.450   9.730  0.6683 -0.0385 -0.7711
  388TMC3    C3 5797   4.560   0.557   9.719  0.8872 -0.1193  0.1610
  388TMC3    C4 5798   4.621   0.355   9.901  0.8433  1.1390 -0.2817
  388TMC3    C5 5799   4.714   0.455   9.868  0.0822  0.0428  0.5039
  388TMC3    C6 5800   4.685   0.565   9.785  0.1117  0.7459 -0.7757
  388TMC3     C 5801   4.412   0.253   9.854 -0.4183  0.1830  0.1877
  388TMC3     O 5802   4.291   0.274   9.847  0.8731 -0.3960 -0.4589
  388TMC3     H 5803   4.393   0.430   9.668 -0.0449 -1.4076  0.6571
  388TMC3    H1 5804   4.634   0.292   9.988 -1.0363 -0.3942 -1.0896
  388TMC3    H2 5805   0.026   0.651   9.777  2.7470 -1.1209  1.2366
  388TMC3    C7 5806   0.102   0.467   9.965 -0.2612 -0.6537  0.4930
  388TMC3    C8 5807   4.501   0.674   9.665 -0.2091 -0.0833 -0.4000
  388TMC3    O1 5808   0.139   0.580   9.997  0.1637 -0.0615 -0.3558
  388TMC3    O2 5809   4.555   0.774   9.709 -0.2281  0.1323 -0.7435
  389MPD2     C 5810   3.700   3.904  11.716  0.3117  0.0080 -0.0887
  389MPD2    C1 5811   3.607   3.827  11.655 -0.7032  0.4330 -0.0305
  389MPD2    C2 5812   3.551   3.722  11.727 -0.2212 -0.5510 -0.4500
  389MPD2    C3 5813   3.605   3.683  11.849 -0.1316  0.6106 -0.3979
  389MPD2    C4 5814   3.702   3.760  11.909 -0.1380 -0.0106 -0.4266
  389MPD2    C5 5815   3.745   3.873  11.842  0.1407  0.2729  0.1971
  389MPD2     H 5816   3.487   3.650  11.676  1.1043 -1.7687 -0.4135
  389MPD2    H1 5817   3.742   3.734  12.006 -4.3216 -0.9351  1.0438
  389MPD2    H2 5818   3.734   3.999  11.677  0.5682  0.1793  0.5466
  389MPD2    H3 5819   3.823   3.934  11.886  0.9559 -0.2454 -0.5287
  389MPD2     N 5820   3.561   3.562  11.912  0.6590 -0.0550 -0.3258
  389MPD2    H5 5821   3.590   3.544  12.008  1.5022 -1.3503 -0.8177
  389MPD2    N1 5822   3.561   3.868  11.532  0.5727  0.4968 -0.0980
  389MPD2    H7 5823   3.615   3.941  11.487  1.0602 -0.8874 -1.8024
  390TMC3    C1 5824   3.427   3.387  11.960  0.2963  0.0404  0.4044
  390TMC3    C2 5825   3.332   3.298  11.915  0.3476  0.4651  0.8399
  390TMC3    C3 5826   3.229   3.267  12.007 -0.4452 -0.2350 -0.1432
  390TMC3    C4 5827   3.440   3.410  12.095 -0.7206 -0.0359  0.1557
  390TMC3    C5 5828   3.339   3.376  12.180  0.6828 -0.1946 -0.0377
  390TMC3    C6 5829   3.226   3.311  12.140 -0.3452 -0.4118 -0.1425
  390TMC3     C 5830   3.491   3.462  11.858 -0.5547  0.4796  0.3563
  390TMC3     O 5831   3.457   3.447  11.740  0.4359  0.2968  0.4543
  390TMC3     H 5832   3.310   3.283  11.811  2.4153  0.0205  0.4717
  390TMC3    H1 5833   3.534   3.446  12.137 -1.8205  1.2358  1.5336
  390TMC3    H2 5834   3.147   3.282  12.209  1.0604  0.7035  1.9198
  390TMC3    C7 5835   3.357   3.424  12.322 -0.2728  0.1660  0.1973
  390TMC3    C8 5836   3.108   3.213  11.951 -0.2602  0.0981 -0.5093
  390TMC3    O1 5837   3.442   3.514  12.323  0.6443 -0.0896  0.5480
  390TMC3    O2 5838   3.118   3.145  11.849 -0.0025  0.2055 -0.4446
  391MPD2     C 5839   2.720   0.948  11.800  0.1631 -0.5205 -0.0991
  391MPD2    C1 5840   2.846   0.904  11.769  0.7489  0.1781  0.0107
  391MPD2    C2 5841   2.875   0.852  11.647  0.1953  0.7771 -0.4539
  391MPD2    C3 5842   2.772   0.847  11.547  0.0926  0.3876 -0.6311
  391MPD2    C4 5843   2.644   0.891  11.579  0.0716  0.7011 -0.6742
  391MPD2    C5 5844   2.616   0.933  11.705 -0.0949 -0.1149  0.0069
  391MPD2     H 5845   2.977   0.817  11.634  0.2360  1.0797 -0.9650
  391MPD2    H1 5846   2.575   0.891  11.496 -0.6813 -0.9276 -0.0684
  391MPD2    H2 5847   2.692   0.996  11.893  0.2567  1.0845 -0.8943
  391MPD2    H3 5848   2.523   0.983  11.728  0.6410  1.8399 -1.2300
  391MPD2     N 5849   2.811   0.810  11.412 -0.0102  0.5655  0.3654
  391MPD2    H5 5850   2.907   0.779  11.400 -0.5863 -1.6192  1.5014
  391MPD2    N1 5851   2.943   0.917  11.874  0.4686  0.0052 -0.2787
  391MPD2    H7 5852   2.911   0.951  11.964  0.8021  0.7953 -0.4597
  392TMC3    C1 5853   2.795   0.751  11.181  0.9183 -0.8388 -0.7641
  392TMC3    C2 5854   2.720   0.675  11.094 -0.2759 -0.3878  0.0237
  392TMC3    C3 5855   2.794   0.618  10.987 -0.4359  0.3623  0.1145
  392TMC3    C4 5856   2.920   0.795  11.153 -0.6903 -0.0391 -0.0351
  392TMC3    C5 5857   2.979   0.741  11.040 -1.0860  0.3796 -0.7739
  392TMC3    C6 5858   2.917   0.655  10.955 -0.6782 -1.0935  0.7473
  392TMC3     C 5859   2.734   0.813  11.296  0.4013  1.1521  0.3084
  392TMC3     O 5860   2.616   0.837  11.282  0.1731  0.3348 -0.4147
  392TMC3     H 5861   2.623   0.646  11.132  1.1631 -2.7723  1.7961
  392TMC3    H1 5862   2.980   0.840  11.231  1.7681 -2.6570 -0.4290
  392TMC3    H2 5863   2.952   0.621  10.858 -1.0643 -0.7717  0.4973
  392TMC3    C7 5864   3.123   0.761  11.032  0.3231  0.9009  0.1221
  392TMC3    C8 5865   2.721   0.549  10.882 -0.1662  0.3475  0.2554
  392TMC3    O1 5866   3.168   0.844  11.110 -0.4293  0.5202  0.0217
  392TMC3    O2 5867   2.600   0.572  10.884 -0.1037 -0.6365 -0.2608
  393TMC3    C1 5868   1.187   2.900  10.736 -0.1885 -0.4238  0.1888
  393TMC3    C2 5869   1.127   2.809  10.819  0.0828  0.6387 -0.0094
  393TMC3    C3 5870   1.164   2.793  10.948 -0.6725 -0.0855 -0.8449
  393TMC3    C4 5871   1.281   2.991  10.784 -0.1354  0.4125 -0.3617
  393TMC3    C5 5872   1.311   2.977  10.920 -0.1246  0.3146 -0.4611
  393TMC3    C6 5873   1.258   2.876  10.995  0.2302 -0.8473  0.6523
  393TMC3     C 5874   1.156   2.909  10.594 -0.1072 -0.3871 -0.6787
  393TMC3     O 5875   1.237   2.964  10.520 -0.1127  0.0993  0.5642
  393TMC3     H 5876   1.065   2.731  10.775 -1.7451  0.8547  2.1485
  393TMC3    H1 5877   1.330   3.061  10.718 -0.6248  1.2292  0.1522
  393TMC3    H2 5878   1.268   2.878  11.103  0.5722  2.2408  0.5540
  393TMC3    C7 5879   1.389   3.080  10.995  0.3447 -0.4128 -0.0488
  393TMC3    C8 5880   1.086   2.717  11.044 -0.6064  0.1973 -0.3657
  393TMC3    O1 5881   1.355   3.103  11.112 -0.0891  0.1555  0.1769
  393TMC3    O2 5882   1.130   2.701  11.157  0.1929 -0.3784  0.0392
  394TMC3    C1 5883   3.423   3.891  11.336 -0.5304 -0.6715 -0.7188
  394TMC3    C2 5884   3.297   3.878  11.282 -0.4603  0.3958 -0.0049
  394TMC3    C3 5885   3.280   3.907  11.152 -0.1419 -0.7791 -0.2677
  394TMC3    C4 5886   3.542   3.919  11.267  0.1041  0.3355 -0.0778
  394TMC3    C5 5887   3.514   3.930  11.132  0.4264 -0.0688  0.3615
  394TMC3    C6 5888   3.392   3.929  11.072 -0.5766  0.2569 -0.2406
  394TMC3     C 5889   3.440   3.835  11.472 -0.5348  0.4477  0.7232
  394TMC3     O 5890   3.356   3.753  11.511  0.3157 -0.3014  0.2764
  394TMC3     H 5891   3.214   3.850  11.346 -0.6392 -1.0890 -0.8683
  394TMC3    H1 5892   3.642   3.917  11.308 -0.1591 -1.3770  0.5056
  394TMC3    H2 5893   3.375   3.940  10.966 -0.2936 -0.5150 -0.3697
  394TMC3    C7 5894   3.628   3.976  11.053 -0.4627 -0.3665 -0.2655
  394TMC3    C8 5895   3.167   3.846  11.094 -0.1280  0.0067 -0.1664
  394TMC3    O1 5896   3.735   3.986  11.114  0.1353  0.2188 -0.2423
  394TMC3    O2 5897   3.068   3.842  11.165 -0.7261 -0.1123  0.4595
  395TMC3    C1 5898   3.153   0.701  15.705 -0.5708 -0.2895 -1.0087
  395TMC3    C2 5899   3.137   0.621  15.594  0.1355 -0.3629  0.2102
  395TMC3    C3 5900   3.192   0.664  15.475  0.6349 -0.3927 -0.2800
  395TMC3    C4 5901   3.237   0.814  15.704  0.1189  0.2245  0.3546
  395TMC3    C5 5902   3.298   0.850  15.585  0.7699 -0.0916 -0.6130
  395TMC3    C6 5903   3.274   0.775  15.473 -0.0166  0.2343  0.4023
  395TMC3     C 5904   3.080   0.664  15.824 -0.2260 -0.2848 -0.0580
  395TMC3     O 5905   3.013   0.559  15.822 -0.2312 -0.1831 -0.1357
  395TMC3     H 5906   3.081   0.528  15.595  1.5463 -1.2121 -0.3322
  395TMC3    H1 5907   3.263   0.870  15.794 -0.6539 -1.8971  1.8840
  395TMC3    H2 5908   3.308   0.802  15.374  2.2850 -0.9368  0.8782
  395TMC3    C7 5909   3.399   0.956  15.585 -0.3662 -0.6692  0.5887
  395TMC3    C8 5910   3.164   0.590  15.351 -0.4805  0.0843  0.5950
  395TMC3    O1 5911   3.437   1.010  15.692  0.0471  0.0812 -0.7810
  395TMC3    O2 5912   3.251   0.582  15.259 -0.0422  0.0498  0.1046
  396MPD2     C 5913   3.417   2.300   0.218  0.0643 -0.5783  0.6563
  396MPD2    C1 5914   3.520   2.233   0.150 -0.2353 -0.1104 -0.2969
  396MPD2    C2 5915   3.573   2.296   0.043  0.5111  0.2042  0.0097
  396MPD2    C3 5916   3.541   2.425   0.000 -0.8349 -0.1418  0.5462
  396MPD2    C4 5917   3.450   2.494   0.081 -0.2777  0.0174  0.0432
  396MPD2    C5 5918   3.389   2.424   0.178  0.7376  0.0371  0.1623
  396MPD2     H 5919   3.657   2.246  17.698 -0.7906 -0.6661 -1.3994
  396MPD2    H1 5920   3.411   2.593   0.060  1.4267  0.8716  0.8782
  396MPD2    H2 5921   3.363   2.255   0.300  2.0533 -0.5762  1.9624
  396MPD2    H3 5922   3.309   2.471   0.235  0.2800 -1.1964  0.5420
  396MPD2     N 5923   3.601   2.477  17.585 -0.5271  0.5443 -0.5796
  396MPD2    H5 5924   3.668   2.418  17.537  0.1951  3.4570 -3.1987
  396MPD2    N1 5925   3.561   2.100   0.191  0.1444 -0.2633 -0.3113
  396MPD2    H7 5926   3.650   2.072   0.149 -0.3565 -0.6303 -1.1407
  397TMC3    C1 5927   3.581   1.881   0.274 -0.3526  0.3822  0.2348
  397TMC3    C2 5928   3.605   1.836   0.144 -0.1924  0.0529 -0.1935
  397TMC3    C3 5929   3.546   1.720   0.100  0.9894  0.6905 -0.6769
  397TMC3    C4 5930   3.517   1.791   0.362  0.3512  0.1167 -0.0335
  397TMC3    C5 5931   3.476   1.665   0.319  0.7534  0.1387  0.1537
  397TMC3    C6 5932   3.493   1.627   0.184 -0.4238  0.0481 -0.0089
  397TMC3     C 5933   3.504   2.005   0.272 -0.7820  0.7820 -0.0511
  397TMC3     O 5934   3.401   2.008   0.339 -0.1021  0.4242 -0.3486
  397TMC3     H 5935   3.628   1.915   0.073  0.4450  1.7322  1.8702
  397TMC3    H1 5936   3.487   1.834   0.457 -0.6396  1.0025 -0.7501
  397TMC3    H2 5937   3.451   1.533   0.148 -0.1913  0.2859 -0.9104
  397TMC3    C7 5938   3.360   1.614   0.381  0.4859 -0.4960  0.0645
  397TMC3    C8 5939   3.496   1.726  17.663 -0.2449  0.2347 -0.3023
  397TMC3    O1 5940   3.284   1.565   0.299  0.4494  0.1829 -0.1555
  397TMC3    O2 5941   3.525   1.830  17.599  0.0420 -0.4993 -0.1703
  398MPD2     C 5942   0.888   2.875   0.571  0.0806 -0.6208 -0.0414
  398MPD2    C1 5943   0.932   2.870   0.704  0.5849 -0.0238 -0.7134
  398MPD2    C2 5944   1.008   2.984   0.749 -0.7586 -0.2246  0.5110
  398MPD2    C3 5945   1.041   3.098   0.674  0.1836 -0.9559 -0.2377
  398MPD2    C4 5946   0.995   3.086   0.543  0.1570  0.1649  0.2380
  398MPD2    C5 5947   0.921   2.977   0.496 -0.1049  0.2851  0.4310
  398MPD2     H 5948   1.029   2.982   0.856 -1.2421  0.7506  0.6241
  398MPD2    H1 5949   1.004   3.168   0.472 -1.3572  0.1653  0.0472
  398MPD2    H2 5950   0.847   2.791   0.516 -0.0429  1.1066 -2.5525
  398MPD2    H3 5951   0.876   2.981   0.398  0.0942 -1.0419  0.2968
  398MPD2     N 5952   1.105   3.207   0.738 -0.3218 -0.8949  0.0330
  398MPD2    H5 5953   1.126   3.193   0.836 -1.8019  2.4387  0.7870
  398MPD2    N1 5954   0.904   2.758   0.781 -0.2970  0.3388 -0.8359
  398MPD2    H7 5955   0.936   2.764   0.877  2.0923  1.8972 -1.7048
  399TMC3    C1 5956   0.829   2.553   0.850 -0.5206 -0.4467  0.0936
  399TMC3    C2 5957   0.768   2.593   0.973  0.0328 -0.5127 -0.2291
  399TMC3    C3 5958   0.737   2.494   1.061  0.8050  0.1998  0.4682
  399TMC3    C4 5959   0.845   2.424   0.815 -0.1262  0.1805  0.4592
  399TMC3    C5 5960   0.808   2.327   0.905 -1.0220  0.2512  0.0957
  399TMC3    C6 5961   0.757   2.362   1.026  0.1576 -0.3907  0.4026
  399TMC3     C 5962   0.831   2.649   0.741  0.6602  0.1153 -1.3304
  399TMC3     O 5963   0.792   2.609   0.630 -0.4321 -0.3021 -0.0917
  399TMC3     H 5964   0.741   2.698   0.980  0.9753 -0.1319 -2.4015
  399TMC3    H1 5965   0.866   2.401   0.712 -0.1318  1.2501  0.2255
  399TMC3    H2 5966   0.721   2.282   1.089 -0.0825  0.6322  1.5684
  399TMC3    C7 5967   0.855   2.192   0.890 -0.5604  0.4604  0.4659
  399TMC3    C8 5968   0.654   2.523   1.180  0.7439  0.1681  0.7316
  399TMC3    O1 5969   0.821   2.110   0.972 -0.3310 -0.5773 -0.5224
  399TMC3    O2 5970   0.677   2.449   1.278  0.1428  0.0265 -0.0187
  400TMC3    C1 5971   4.295   1.267  17.135 -0.4026 -0.1344  0.7343
  400TMC3    C2 5972   4.186   1.186  17.102 -0.0230 -1.0813  0.2464
  400TMC3    C3 5973   4.079   1.255  17.046  0.7666  0.5687  0.2812
  400TMC3    C4 5974   4.289   1.402  17.140  0.2665  0.1197 -0.0942
  400TMC3    C5 5975   4.187   1.458  17.070 -0.2216  0.6634 -0.1517
  400TMC3    C6 5976   4.075   1.389  17.025  0.3826  0.6451 -0.9319
  400TMC3     C 5977   4.385   1.205  17.233  0.3222  0.1669 -1.0187
  400TMC3     O 5978   4.397   1.081  17.229  0.0035  0.0615 -0.2126
  400TMC3     H 5979   4.181   1.081  17.130 -2.7944 -1.0681 -0.2926
  400TMC3    H1 5980   4.380   1.458  17.157 -0.8183  1.7765  0.3182
  400TMC3    H2 5981   3.994   1.421  16.961 -1.4200 -0.0172  1.0445
  400TMC3    C7 5982   4.193   1.597  17.031 -0.0879  0.1571  0.0367
  400TMC3    C8 5983   3.962   1.175  17.034 -0.4086  0.1027  0.3746
  400TMC3    O1 5984   4.123   1.629  16.932  0.4520 -0.1041 -0.2171
  400TMC3    O2 5985   3.862   1.236  17.077  0.1284 -0.0541 -0.0843
  401MPD2     C 5986   2.699   0.567   1.224  0.1527 -0.0785  0.4990
  401MPD2    C1 5987   2.747   0.482   1.323 -1.0103  0.8732 -0.0373
  401MPD2    C2 5988   2.671   0.459   1.435 -0.1220  0.2741 -1.0002
  401MPD2    C3 5989   2.541   0.506   1.439  0.2977  0.6334  0.5293
  401MPD2    C4 5990   2.489   0.581   1.330  0.3337  0.2320 -0.0712
  401MPD2    C5 5991   2.568   0.612   1.233 -0.3153  0.0162 -0.6756
  401MPD2     H 5992   2.705   0.401   1.520  1.2100 -1.2382 -2.5596
  401MPD2    H1 5993   2.395   0.633   1.344  0.1548 -0.3024  0.7398
  401MPD2    H2 5994   2.752   0.597   1.134  0.2962  2.2897  1.3722
  401MPD2    H3 5995   2.546   0.687   1.157  1.7679  0.0228 -1.2742
  401MPD2     N 5996   2.465   0.475   1.552 -0.3249  0.3934  0.2037
  401MPD2    H5 5997   2.499   0.416   1.628  1.6586  0.1580 -0.8436
  401MPD2    N1 5998   2.885   0.444   1.327 -0.7318  0.3100 -0.2961
  401MPD2    H7 5999   2.918   0.389   1.406 -1.4691 -0.1012 -0.2806
  402TMC3    C1 6000   2.281   0.450   1.687 -0.3198 -0.0046 -0.0829
  402TMC3    C2 6001   2.334   0.339   1.734  0.6307 -0.2990  0.3400
  402TMC3    C3 6002   2.283   0.280   1.843  0.1723 -0.1034 -0.8867
  402TMC3    C4 6003   2.154   0.491   1.732 -0.2696  0.7498  1.2150
  402TMC3    C5 6004   2.093   0.420   1.834  0.4696  0.0280 -0.8219
  402TMC3    C6 6005   2.156   0.318   1.895  0.3267  0.1689  0.3180
  402TMC3     C 6006   2.346   0.530   1.590 -0.5535  0.5018 -0.2129
  402TMC3     O 6007   2.282   0.616   1.536 -0.1054 -0.0600 -0.1414
  402TMC3     H 6008   2.421   0.289   1.694  0.8584 -0.0751  0.5513
  402TMC3    H1 6009   2.113   0.580   1.685 -0.7398 -1.2900 -2.2448
  402TMC3    H2 6010   2.112   0.279   1.986  0.0600 -0.7908 -0.2224
  402TMC3    C7 6011   1.968   0.463   1.882  0.5330  0.5789 -1.2436
  402TMC3    C8 6012   2.368   0.177   1.908  0.1986  0.2074 -0.2390
  402TMC3    O1 6013   1.957   0.464   2.002  0.1815 -0.1535 -0.0194
  402TMC3    O2 6014   2.471   0.158   1.844 -0.6296 -0.5145 -0.4308
  403MPD2     C 6015   1.313   3.640  13.554  1.0133  0.1326  0.1643
  403MPD2    C1 6016   1.295   3.527  13.631  0.2199  0.5386 -0.3161
  403MPD2    C2 6017   1.356   3.527  13.754  0.3329 -0.4235 -0.2934
  403MPD2    C3 6018   1.426   3.635  13.805 -1.0116 -0.5256 -0.3110
  403MPD2    C4 6019   1.440   3.749  13.727 -0.3901  0.2148  0.5063
  403MPD2    C5 6020   1.374   3.753  13.613  0.8897  0.0509 -0.2776
  403MPD2     H 6021   1.356   3.440  13.819 -1.7710  0.1626  0.4927
  403MPD2    H1 6022   1.492   3.841  13.751 -0.0004 -0.2098  1.2815
  403MPD2    H2 6023   1.278   3.646  13.452 -0.8424  2.9277  0.9968
  403MPD2    H3 6024   1.388   3.847  13.561 -1.1543  1.2713  1.4025
  403MPD2     N 6025   1.484   3.621  13.929  0.3713 -0.1162  0.0501
  403MPD2    H5 6026   1.480   3.528  13.970  2.2407 -0.3506 -0.3002
  403MPD2    N1 6027   1.223   3.416  13.577 -0.1207 -0.2425  0.2224
  403MPD2    H7 6028   1.205   3.425  13.477  0.7229 -0.6269  0.0342
  404TMC3    C1 6029   1.144   3.200  13.540  0.0520 -0.6962  0.3085
  404TMC3    C2 6030   1.111   3.081  13.591  0.2955 -0.1038 -0.3817
  404TMC3    C3 6031   1.074   2.980  13.512  1.1743  0.1201  0.2934
  404TMC3    C4 6032   1.112   3.236  13.408 -0.6283  0.7864 -0.3853
  404TMC3    C5 6033   1.075   3.130  13.329  0.4134 -0.2330  0.3405
  404TMC3    C6 6034   1.060   2.997  13.375 -0.5265  0.8561 -0.1383
  404TMC3     C 6035   1.200   3.298  13.632 -0.2641 -0.0089 -0.4226
  404TMC3     O 6036   1.236   3.250  13.741 -0.1798 -0.2927  0.0328
  404TMC3     H 6037   1.129   3.066  13.697  0.6260 -0.3665 -0.4753
  404TMC3    H1 6038   1.142   3.327  13.357 -1.2572  1.1720 -0.0738
  404TMC3    H2 6039   1.045   2.911  13.310 -0.9922  1.2523 -0.5657
  404TMC3    C7 6040   1.067   3.161  13.186  0.6851  0.2957  0.3171
  404TMC3    C8 6041   1.061   2.845  13.562  0.3441 -0.4595 -0.8714
  404TMC3    O1 6042   1.111   3.273  13.146 -0.2929 -0.3285  0.3193
  404TMC3    O2 6043   1.020   2.756  13.484 -0.3040 -0.3618  0.5323
  405MPD2     C 6044   1.636   3.746  14.973 -0.5599 -0.8719  0.3747
  405MPD2    C1 6045   1.600   3.675  14.861  0.3530  0.4304 -0.8800
  405MPD2    C2 6046   1.503   3.729  14.782  0.0670  0.4650 -0.0740
  405MPD2    C3 6047   1.449   3.852  14.803 -0.1455  0.6231  0.0380
  405MPD2    C4 6048   1.492   3.924  14.908 -0.0204 -0.1520 -0.0383
  405MPD2    C5 6049   1.582   3.868  14.991  0.4967  0.6475 -0.8148
  405MPD2     H 6050   1.458   3.684  14.694 -2.1110 -1.3075  1.9636
  405MPD2    H1 6051   1.454   4.024  14.926  1.9023  0.5694  0.0574
  405MPD2    H2 6052   1.709   3.718  15.048  0.6532 -2.2554 -1.3514
  405MPD2    H3 6053   1.608   3.925  15.079 -0.1343 -0.2041 -0.0668
  405MPD2     N 6054   1.339   3.885  14.725  0.3124  0.0307 -0.6322
  405MPD2    H5 6055   1.308   3.806  14.669 -1.1574  1.4780 -1.8873
  405MPD2    N1 6056   1.641   3.538  14.838 -0.2043  0.3005  0.7502
  405MPD2    H7 6057   1.697   3.498  14.913  0.9109  0.1463 -0.1652
  406TMC3    C1 6058   0.953   3.971  14.534 -0.7381 -0.3848  0.3485
  406TMC3    C2 6059   0.995   3.912  14.418 -0.0721  0.7182 -0.2947
  406TMC3    C3 6060   1.128   3.894  14.392  0.6481 -0.1247 -0.3118
  406TMC3    C4 6061   1.047   4.022  14.626 -0.0079 -0.0709 -0.0075
  406TMC3    C5 6062   1.182   3.996  14.602  0.6831 -0.3270 -0.3077
  406TMC3    C6 6063   1.223   3.934  14.488 -0.0220 -0.4322 -0.0943
  406TMC3     C 6064   0.817   4.000  14.550 -0.0556 -1.3033  0.3961
  406TMC3     O 6065   0.747   3.985  14.453 -0.0756  0.6740 -0.1908
  406TMC3     H 6066   0.916   3.871  14.356  0.5994  1.2683 -1.5203
  406TMC3    H1 6067   1.017   4.074  14.716  1.6048  0.8213  0.0286
  406TMC3    H2 6068   1.329   3.935  14.465 -0.1627  0.0450 -0.7163
  406TMC3    C7 6069   1.271   4.005  14.714 -0.3483 -0.1927  0.5226
  406TMC3    C8 6070   1.167   3.791  14.302 -0.2444 -0.6931  0.0814
  406TMC3    O1 6071   1.289   4.112  14.768 -0.1518  0.0045 -0.3383
  406TMC3    O2 6072   1.097   3.784  14.205 -0.3673  0.0343 -0.3798
  407MPD2     C 6073   4.054   4.103  10.160  0.9268 -0.1651  0.1006
  407MPD2    C1 6074   4.163   4.177  10.204  0.1812 -0.2457  0.4285
  407MPD2    C2 6075   4.132   4.289  10.286 -0.0234  0.1077 -0.8443
  407MPD2    C3 6076   3.998   4.333  10.305  0.0315 -0.2904  0.0168
  407MPD2    C4 6077   3.893   4.259  10.251  0.6361  0.1078 -0.2783
  407MPD2    C5 6078   3.924   4.146  10.186 -0.4735 -0.4694  0.5884
  407MPD2     H 6079   4.219   4.343  10.323 -2.2589  1.3501  2.6398
  407MPD2    H1 6080   3.791   4.297  10.258  0.7306 -0.0263  1.8221
  407MPD2    H2 6081   4.064   4.015  10.098  0.0529 -0.2805  0.1179
  407MPD2    H3 6082   3.842   4.088  10.145 -0.5757 -1.5848  2.3901
  407MPD2     N 6083   3.961   4.440  10.390 -0.2199  0.2821 -0.4793
  407MPD2    H5 6084   3.865   4.474  10.386 -0.9369 -1.8264 -1.2401
  407MPD2    N1 6085   4.299   4.147  10.170 -0.7204 -0.5243 -0.4964
  407MPD2    H7 6086   4.382   4.197  10.200 -0.5069 -1.2694  0.1316
  408TMC3    C1 6087   4.475   4.021  10.087  0.3609 -0.8895  0.0429
  408TMC3    C2 6088   4.563   4.110  10.128  0.8277 -0.2974 -0.0291
  408TMC3    C3 6089   4.690   4.066  10.134 -0.3666 -0.0170  0.3531
  408TMC3    C4 6090   4.505   3.897  10.036 -0.8210 -0.4445 -0.8510
  408TMC3    C5 6091   4.635   3.870  10.030  0.0954 -0.0343  1.0141
  408TMC3    C6 6092   0.011   3.948  10.083  0.2786 -0.1386  0.4239
  408TMC3     C 6093   4.330   4.052  10.081  0.2479 -0.0169  0.4216
  408TMC3     O 6094   4.266   3.983  10.001  0.0807  0.1328 -0.0079
  408TMC3     H 6095   4.549   4.212  10.164 -1.7975 -0.9690  0.8882
  408TMC3    H1 6096   4.432   3.826  10.000 -2.0239 -0.6509  1.9625
  408TMC3    H2 6097   0.115   3.920  10.090  0.5689  0.8877  0.2069
  408TMC3    C7 6098   4.670   3.809   9.905 -0.3878  0.4250  0.1039
  408TMC3    C8 6099   0.067   4.169  10.163  0.0456 -0.7383 -0.0254
  408TMC3    O1 6100   0.045   3.854   9.856 -0.0415  0.6257 -0.1032
  408TMC3    O2 6101   0.035   4.284  10.136  0.1002 -0.4895  0.1003
  409MPD2     C 6102   3.322   0.907  17.220  0.3319 -0.1911  0.1202
  409MPD2    C1 6103   3.348   0.958  17.349  0.4937 -0.6161  0.4208
  409MPD2    C2 6104   3.401   1.088  17.362 -0.1315 -0.7204 -0.5049
  409MPD2    C3 6105   3.443   1.165  17.252  0.3382 -1.1852  0.6208
  409MPD2    C4 6106   3.399   1.114  17.130  0.5135 -0.2964 -0.1608
  409MPD2    C5 6107   3.340   0.992  17.111  0.5048  0.0564 -0.2195
  409MPD2     H 6108   3.421   1.129  17.460  0.4683 -0.7818 -0.6066
  409MPD2    H1 6109   3.409   1.169  17.037  2.0366 -0.2407  0.0381
  409MPD2    H2 6110   3.281   0.808  17.206 -1.9091  0.5633  1.2343
  409MPD2    H3 6111   3.321   0.962  17.009 -1.3127 -2.9023  1.0042
  409MPD2     N 6112   3.523   1.282  17.250 -0.3656 -0.4846 -0.4588
  409MPD2    H5 6113   3.537   1.322  17.158  2.8899 -0.9826 -0.1639
  409MPD2    N1 6114   3.345   0.882  17.468 -0.6720  0.0445  0.2467
  409MPD2    H7 6115   3.364   0.933  17.554 -2.4859  1.3836 -0.1379
  410TMC3    C1 6116   3.671   1.450  17.324 -0.2244 -0.1465 -0.5804
  410TMC3    C2 6117   3.783   1.462  17.400 -0.1494  0.2040  0.7528
  410TMC3    C3 6118   3.886   1.540  17.356 -0.3247 -0.8702  0.7854
  410TMC3    C4 6119   3.659   1.517  17.203  0.0944 -0.2616 -0.3173
  410TMC3    C5 6120   3.768   1.589  17.154  0.1744 -0.0656  0.1532
  410TMC3    C6 6121   3.881   1.601  17.230 -0.5140 -0.1304  0.4395
  410TMC3     C 6122   3.594   1.330  17.358  0.7109  0.2396 -0.4549
  410TMC3     O 6123   3.624   1.272  17.461 -0.0154  0.4744 -0.5842
  410TMC3     H 6124   3.789   1.435  17.504 -2.7213 -1.7171  0.4045
  410TMC3    H1 6125   3.569   1.506  17.143  0.4471  0.5132 -0.9744
  410TMC3    H2 6126   3.964   1.665  17.200 -0.4702  1.2965  3.6437
  410TMC3    C7 6127   3.752   1.652  17.023  0.1455 -0.9851 -1.1416
  410TMC3    C8 6128   4.014   1.516  17.417 -0.3536  0.1370 -0.4444
  410TMC3    O1 6129   3.683   1.585  16.947  0.2287 -0.1563 -0.0156
  410TMC3    O2 6130   4.099   1.601  17.410  0.0434  0.4555  0.5921
  411MPD2     C 6131   3.404   1.436  15.147  0.1595  0.1344  0.1605
  411MPD2    C1 6132   3.448   1.491  15.032 -0.4563  0.6785  0.0786
  411MPD2    C2 6133   3.438   1.413  14.915 -0.0166  0.1993 -0.4830
  411MPD2    C3 6134   3.380   1.284  14.923 -0.2442 -0.2555 -0.0840
  411MPD2    C4 6135   3.354   1.227  15.044  0.1909 -0.2536  0.0359
  411MPD2    C5 6136   3.374   1.305  15.151  0.4691 -0.4326  0.8476
  411MPD2     H 6137   3.476   1.450  14.821 -0.1443  0.5595 -0.3904
  411MPD2    H1 6138   3.331   1.123  15.059 -0.3519 -0.3968 -1.7987
  411MPD2    H2 6139   3.423   1.475  15.246 -0.1125  0.9185 -0.0957
  411MPD2    H3 6140   3.344   1.262  15.246 -0.2901 -0.7456  0.4632
  411MPD2     N 6141   3.366   1.215  14.801  0.1291 -0.1165  0.0901
  411MPD2    H5 6142   3.392   1.265  14.716  1.0686 -1.7716 -0.5902
  411MPD2    N1 6143   3.497   1.627  15.022 -0.8489 -0.9478 -0.1413
  411MPD2    H7 6144   3.518   1.668  14.932  2.5158 -2.1952  0.0764
  412TMC3    C1 6145   3.287   1.054  14.649 -0.7641  0.1538  0.0836
  412TMC3    C2 6146   3.184   0.979  14.614  0.5742  0.3423 -0.0169
  412TMC3    C3 6147   3.184   0.914  14.487  0.0316 -0.0855  0.2495
  412TMC3    C4 6148   3.389   1.075  14.564  0.2300  0.4064 -0.4017
  412TMC3    C5 6149   3.381   1.025  14.440  0.0958 -0.1655  0.1724
  412TMC3    C6 6150   3.283   0.941  14.401 -0.8750 -0.3620 -0.9964
  412TMC3     C 6151   3.297   1.098  14.782  0.3049 -0.1611  0.2831
  412TMC3     O 6152   3.214   1.051  14.863 -0.0284  0.1778 -0.0434
  412TMC3     H 6153   3.097   0.958  14.676  0.2104  1.1183 -0.2715
  412TMC3    H1 6154   3.463   1.153  14.582 -0.1563  0.2229  2.0042
  412TMC3    H2 6155   3.302   0.882  14.312  1.3666  2.8925 -2.6299
  412TMC3    C7 6156   3.384   1.117  14.330 -0.4400 -0.0761 -0.3053
  412TMC3    C8 6157   3.053   0.918  14.423  0.2506  0.7096 -0.2067
  412TMC3    O1 6158   3.290   1.109  14.252  0.4397  0.5829  0.3193
  412TMC3    O2 6159   2.952   0.894  14.492  0.3262 -0.1860  0.6387
  413MPD2     C 6160   0.611   0.291  15.987  0.1860 -0.2701  0.3945
  413MPD2    C1 6161   0.550   0.210  15.898  0.4488  0.4124 -0.3753
  413MPD2    C2 6162   0.627   0.123  15.819 -0.4132  0.1351  0.7197
  413MPD2    C3 6163   0.761   0.132  15.824 -0.5200  0.0821 -0.1528
  413MPD2    C4 6164   0.827   0.216  15.908 -0.1373  0.5769 -0.0133
  413MPD2    C5 6165   0.750   0.295  15.990  0.8434 -0.1267  0.2570
  413MPD2     H 6166   0.596   0.047  15.748 -0.0498  0.6282  0.0432
  413MPD2    H1 6167   0.934   0.225  15.919  0.1665  0.3990 -3.0395
  413MPD2    H2 6168   0.540   0.348  16.047  1.3313  1.7551 -0.1746
  413MPD2    H3 6169   0.798   0.353  16.068  1.2768  0.9318 -0.7994
  413MPD2     N 6170   0.842   0.042  15.748  0.1229  0.7530 -0.4260
  413MPD2    H5 6171   0.790   4.708  15.683  0.9139 -1.3695  0.8927
  413MPD2    N1 6172   0.413   0.208  15.889 -0.3962 -0.2816  0.4519
  413MPD2    H7 6173   0.364   0.251  15.966 -0.2513  2.2188 -0.8409
  414TMC3    C1 6174   1.016   4.620  15.693  0.2148  0.4995  0.1134
  414TMC3    C2 6175   1.074   4.518  15.760  0.1202 -0.8715  0.2218
  414TMC3    C3 6176   1.080   4.401  15.687 -1.0113 -0.3555 -0.5425
  414TMC3    C4 6177   0.960   4.608  15.569 -0.3500 -0.6339  0.5628
  414TMC3    C5 6178   0.959   4.484  15.507 -0.0504 -0.0678 -1.1591
  414TMC3    C6 6179   1.020   4.383  15.564  0.0908  0.3604  0.4351
  414TMC3     C 6180   0.972   0.011  15.774 -0.1977 -0.0166  0.1489
  414TMC3     O 6181   1.051   0.063  15.853  0.5127  0.3557 -0.3094
  414TMC3     H 6182   1.104   4.524  15.864 -2.2478  0.1962  0.8468
  414TMC3    H1 6183   0.928   4.690  15.506 -0.9796 -0.6613  0.8551
  414TMC3    H2 6184   1.038   4.295  15.502  2.6854  0.7185  0.6875
  414TMC3    C7 6185   1.013   4.484  15.376  0.2427 -0.3357  0.4676
  414TMC3    C8 6186   1.194   4.316  15.702 -0.3251 -0.1752 -0.0658
  414TMC3    O1 6187   0.936   4.435  15.295  0.1003  0.1798 -0.1880
  414TMC3    O2 6188   1.192   4.217  15.631  0.1836  0.6300  0.0829
  415TMC3    C1 6189   1.099   2.430  10.483  0.6126  0.3231 -0.3329
  415TMC3    C2 6190   1.131   2.444  10.349  0.4828 -0.2936 -0.8873
  415TMC3    C3 6191   1.034   2.407  10.258  0.0580 -1.1310  0.2303
  415TMC3    C4 6192   0.986   2.373  10.529  0.3464  0.2673  0.6808
  415TMC3    C5 6193   0.890   2.344  10.437 -0.0496 -0.3239  0.4124
  415TMC3    C6 6194   0.914   2.363  10.303  0.7643  0.0864 -0.1847
  415TMC3     C 6195   1.163   2.495  10.591  0.6844  0.2666  0.0966
  415TMC3     O 6196   1.106   2.499  10.697  0.0886 -0.4353  0.1895
  415TMC3     H 6197   1.225   2.486  10.313  0.9315  1.3943  2.2278
  415TMC3    H1 6198   0.965   2.364  10.635 -3.6838 -2.3265 -0.3380
  415TMC3    H2 6199   0.844   2.336  10.225 -1.1146 -0.8360  1.8157
  415TMC3    C7 6200   0.751   2.336  10.477 -0.5598  0.7257  0.1002
  415TMC3    C8 6201   1.056   2.425  10.113 -0.2460 -0.0247  0.1112
  415TMC3    O1 6202   0.668   2.378  10.395 -0.0998  0.3326  0.5221
  415TMC3    O2 6203   0.952   2.422  10.047 -0.2513 -0.2676  0.7959
  416MPD2     C 6204   3.507   2.046  11.733 -0.3931 -0.0629  0.5200
  416MPD2    C1 6205   3.393   2.017  11.663 -0.5702  0.6909  0.4969
  416MPD2    C2 6206   3.392   1.915  11.574 -0.2924  0.5091 -0.6703
  416MPD2    C3 6207   3.506   1.844  11.550 -0.1929  0.9168 -0.7350
  416MPD2    C4 6208   3.615   1.866  11.624 -0.1449 -0.0463  0.2090
  416MPD2    C5 6209   3.620   1.966  11.716 -0.1575 -0.0945  0.1863
  416MPD2     H 6210   3.304   1.889  11.517  0.0208 -0.0404 -0.8959
  416MPD2    H1 6211   3.700   1.798  11.623 -1.6206 -1.8823  0.2287
  416MPD2    H2 6212   3.514   2.137  11.791 -1.5636 -0.6708  1.6030
  416MPD2    H3 6213   3.707   1.986  11.778 -0.2339  2.6470 -0.5961
  416MPD2     N 6214   3.519   1.744  11.461  0.0088  0.2327 -0.3447
  416MPD2    H5 6215   3.588   1.670  11.457 -1.4383 -1.2417  2.1853
  416MPD2    N1 6216   3.277   2.090  11.689  0.6834  0.1022  0.5775
  416MPD2    H7 6217   3.287   2.163  11.759  1.7719  0.7946 -0.2849
  417TMC3    C1 6218   3.052   2.162  11.662  0.3193  0.0131  0.9500
  417TMC3    C2 6219   3.053   2.219  11.786 -0.1750  0.4704  0.1688
  417TMC3    C3 6220   2.954   2.309  11.815 -0.1243 -0.2648  0.1343
  417TMC3    C4 6221   2.944   2.187  11.581  0.5777 -0.3995  0.5085
  417TMC3    C5 6222   2.849   2.283  11.616  0.2485 -0.2556 -0.4960
  417TMC3    C6 6223   2.853   2.352  11.737  1.0634  0.2203  0.9435
  417TMC3     C 6224   3.155   2.071  11.624 -0.0313 -0.8846  0.6725
  417TMC3     O 6225   3.123   1.999  11.528  0.4471  0.3545 -0.2820
  417TMC3     H 6226   3.123   2.190  11.864 -0.2543 -0.9593 -0.2956
  417TMC3    H1 6227   2.930   2.134  11.488 -2.8709  0.5426  0.5055
  417TMC3    H2 6228   2.768   2.412  11.766 -1.0091 -2.1129 -0.1968
  417TMC3    C7 6229   2.725   2.290  11.545 -0.0254 -0.6220  0.3751
  417TMC3    C8 6230   2.933   2.351  11.947 -0.5399 -0.1829 -0.7951
  417TMC3    O1 6231   2.668   2.399  11.542  0.0158 -0.0553  0.0378
  417TMC3    O2 6232   2.817   2.347  11.981 -0.0924  0.2749  0.4926
  418TMC3    C1 6233   1.385   3.571   0.771 -1.9054  0.2243 -0.0456
  418TMC3    C2 6234   1.312   3.482   0.697 -0.0951  0.0721  0.0981
  418TMC3    C3 6235   1.230   3.395   0.759  0.7121 -0.1640  0.2790
  418TMC3    C4 6236   1.363   3.586   0.903 -0.2926 -0.2778  0.0649
  418TMC3    C5 6237   1.263   3.513   0.957 -0.1630 -0.0191 -0.4303
  418TMC3    C6 6238   1.193   3.414   0.889  0.2570  0.4041 -0.4135
  418TMC3     C 6239   1.523   3.585   0.727 -0.4566  0.1574  0.3131
  418TMC3     O 6240   1.532   3.606   0.605 -0.0359  0.7228 -0.6529
  418TMC3     H 6241   1.333   3.492   0.591  3.1291  0.1443  0.7421
  418TMC3    H1 6242   1.425   3.652   0.962  2.9991 -0.7458 -2.8385
  418TMC3    H2 6243   1.113   3.361   0.939 -0.5316  0.7309 -1.3209
  418TMC3    C7 6244   1.244   3.510   1.099 -0.0113 -0.8390  0.0846
  418TMC3    C8 6245   1.150   3.313   0.671 -0.1150  0.1238  0.5412
  418TMC3    O1 6246   1.211   3.399   1.145 -0.2924  0.0441 -0.7251
  418TMC3    O2 6247   1.171   3.333   0.553  0.4523 -0.1366  0.4527
  419MPD2     C 6248   0.715   1.415  12.742 -0.6148 -0.3726 -0.4804
  419MPD2    C1 6249   0.610   1.512  12.748 -0.0776  0.0281  0.9045
  419MPD2    C2 6250   0.557   1.548  12.869 -0.2029  0.3693 -0.1523
  419MPD2    C3 6251   0.613   1.503  12.987  0.2211 -0.0256 -0.1909
  419MPD2    C4 6252   0.730   1.421  12.979  0.3465  0.5040  0.2592
  419MPD2    C5 6253   0.762   1.363  12.857  0.4426  0.6854  0.1680
  419MPD2     H 6254   0.473   1.616  12.861 -0.7060 -0.0930  1.2235
  419MPD2    H1 6255   0.769   1.371  13.067 -2.5009  0.5628  1.5684
  419MPD2    H2 6256   0.750   1.366  12.652 -0.5691 -1.4938  0.1512
  419MPD2    H3 6257   0.835   1.284  12.856 -0.5474 -0.2221  0.3195
  419MPD2     N 6258   0.549   1.543  13.108  0.1363 -1.1441  0.2681
  419MPD2    H5 6259   0.464   1.598  13.097  0.2682 -1.0473 -0.2917
  419MPD2    N1 6260   0.555   1.565  12.633 -0.8124  0.4622 -0.0072
  419MPD2    H7 6261   0.477   1.629  12.640  0.4574  1.9605  0.4198
  420TMC3    C1 6262   0.496   1.521  13.334 -0.1482  0.0495  0.0928
  420TMC3    C2 6263   0.365   1.554  13.305  0.4675  0.1571  0.1017
  420TMC3    C3 6264   0.275   1.566  13.407 -0.1055 -0.1927  0.8260
  420TMC3    C4 6265   0.539   1.514  13.465 -0.4714  0.6338  0.2051
  420TMC3    C5 6266   0.443   1.529  13.559  0.5102 -0.1262 -0.2305
  420TMC3    C6 6267   0.314   1.560  13.536 -0.1586 -0.3433  0.1248
  420TMC3     C 6268   0.590   1.511  13.231 -0.5803  0.0563  0.5442
  420TMC3     O 6269   0.697   1.465  13.268  0.4635  0.6389  1.0289
  420TMC3     H 6270   0.321   1.557  13.206  0.0977 -1.4226  0.2150
  420TMC3    H1 6271   0.646   1.509  13.484 -0.2924 -0.7878 -1.1662
  420TMC3    H2 6272   0.255   1.576  13.626 -0.2200 -1.7823  0.3387
  420TMC3    C7 6273   0.480   1.512  13.691  0.3337  0.2317 -0.3629
  420TMC3    C8 6274   0.149   1.625  13.376 -0.1412 -0.6249 -0.1921
  420TMC3    O1 6275   0.433   1.420  13.753 -0.2034 -0.3073 -0.0395
  420TMC3    O2 6276   0.138   1.685  13.268  0.4711 -0.6311  0.0457
  421TMC3    C1 6277   1.621   3.668  14.113 -0.0085 -0.0549  0.0772
  421TMC3    C2 6278   1.623   3.772  14.204 -0.0887  0.5011 -0.3033
  421TMC3    C3 6279   1.704   3.744  14.309 -0.3418  0.0902 -0.1301
  421TMC3    C4 6280   1.688   3.551  14.124 -0.0001 -0.0194 -0.6013
  421TMC3    C5 6281   1.769   3.531  14.237  0.8900  0.4741 -0.0466
  421TMC3    C6 6282   1.781   3.632  14.327 -0.0583  0.2907  0.8251
  421TMC3     C 6283   1.562   3.711  13.992  0.4003 -0.4328  0.3794
  421TMC3     O 6284   1.600   3.823  13.957 -0.2952  0.1569  0.1047
  421TMC3     H 6285   1.559   3.859  14.196 -2.5350 -1.2410  0.2543
  421TMC3    H1 6286   1.686   3.467  14.055  0.0396 -1.0593  0.6494
  421TMC3    H2 6287   1.806   3.605  14.429  0.8406 -1.0714  0.2308
  421TMC3    C7 6288   1.837   3.407  14.256  0.3565  0.2863  0.2288
  421TMC3    C8 6289   1.706   3.858  14.393 -0.6642 -0.0802 -0.0859
  421TMC3    O1 6290   1.919   3.407  14.351  0.1523 -0.8568 -0.2593
  421TMC3    O2 6291   1.615   3.939  14.393  0.3321 -0.3611  0.0395
  422TMC3    C1 6292   3.944   0.010  13.104 -0.0485  0.0706  0.5487
  422TMC3    C2 6293   3.910   0.133  13.160 -0.3908 -0.2289 -0.8412
  422TMC3    C3 6294   3.810   0.142  13.252  0.3722 -0.1159 -0.2881
  422TMC3    C4 6295   3.870   4.622  13.146  0.0831 -0.3923  0.2709
  422TMC3    C5 6296   3.768   4.639  13.231  0.3900 -0.1956 -0.0769
  422TMC3    C6 6297   3.740   0.031  13.289 -0.3586  0.1410 -0.1803
  422TMC3     C 6298   4.053   4.721  13.014  0.7923  0.4943 -0.4124
  422TMC3     O 6299   4.084   0.097  12.951  0.6159 -0.3645 -0.9538
  422TMC3     H 6300   3.961   0.222  13.125  1.1296 -1.4579 -1.7656
  422TMC3    H1 6301   3.901   4.525  13.110  0.0694 -0.0934 -0.5402
  422TMC3    H2 6302   3.677   0.031  13.377 -1.1213  1.2013 -0.7143
  422TMC3    C7 6303   3.674   4.530  13.242  0.1991  0.0539 -0.0154
  422TMC3    C8 6304   3.793   0.272  13.318 -0.4350  0.1842 -0.3095
  422TMC3    O1 6305   3.709   4.421  13.190  0.0928  0.6900  0.2342
  422TMC3    O2 6306   3.878   0.356  13.300 -0.2895 -0.0994  0.0138
  423MPD2     C 6307   0.475   0.774   1.006  0.1889  0.4776  0.0430
  423MPD2    C1 6308   0.522   0.652   1.051  0.1802 -0.3085  0.4529
  423MPD2    C2 6309   0.544   0.554   0.959 -0.5305  0.1424  0.1847
  423MPD2    C3 6310   0.518   0.573   0.824 -0.1942 -0.6498 -0.9726
  423MPD2    C4 6311   0.464   0.689   0.781  0.0340 -0.5696 -0.6255
  423MPD2    C5 6312   0.448   0.794   0.876 -0.1571  0.0509  0.3095
  423MPD2     H 6313   0.577   0.456   0.992 -0.8644  1.1765  3.5372
  423MPD2    H1 6314   0.452   0.701   0.674 -0.9782  2.3876 -0.1819
  423MPD2    H2 6315   0.487   0.854   1.078  1.3443 -0.8687  1.3572
  423MPD2    H3 6316   0.420   0.895   0.847 -0.5279 -0.9380 -2.7991
  423MPD2     N 6317   0.538   0.472   0.730  0.1108  0.3783  0.3567
  423MPD2    H5 6318   0.493   0.490   0.641 -0.1747  0.8569  0.5949
  423MPD2    N1 6319   0.551   0.627   1.184  1.6094 -0.3572 -0.2439
  423MPD2    H7 6320   0.581   0.535   1.213  0.6008 -0.7543 -0.4450
  424TMC3    C1 6321   0.546   0.671   1.423 -0.4653 -0.0814 -0.4287
  424TMC3    C2 6322   0.666   0.610   1.456 -0.0243  0.4532 -0.3168
  424TMC3    C3 6323   0.693   0.573   1.587 -0.1415  0.3808  0.6340
  424TMC3    C4 6324   0.457   0.692   1.522  0.0843 -0.6929 -0.5549
  424TMC3    C5 6325   0.485   0.650   1.650  0.4209 -0.2891 -0.0419
  424TMC3    C6 6326   0.604   0.591   1.688  0.1943 -0.5579  0.2676
  424TMC3     C 6327   0.501   0.706   1.287 -0.9285 -0.1251  0.1084
  424TMC3     O 6328   0.419   0.793   1.278 -0.1221  0.6210 -0.2221
  424TMC3     H 6329   0.740   0.584   1.382  0.9830  1.3061  0.3803
  424TMC3    H1 6330   0.359   0.728   1.493 -0.3799  0.0655  2.0006
  424TMC3    H2 6331   0.644   0.597   1.788  1.4654 -0.6080 -0.2386
  424TMC3    C7 6332   0.380   0.667   1.744 -0.3763  0.3079  0.0197
  424TMC3    C8 6333   0.818   0.510   1.628 -0.2719  0.1883  0.3479
  424TMC3    O1 6334   0.297   0.752   1.724 -0.3449 -0.2548 -0.6343
  424TMC3    O2 6335   0.924   0.551   1.576  0.0142 -0.3895  0.1791
  425MPD2     C 6336   4.465   0.053  17.641  0.1894  0.3755 -0.0060
  425MPD2    C1 6337   4.453   4.698   0.047  0.0852  0.1526 -0.4714
  425MPD2    C2 6338   4.338   4.715   0.119  0.4534 -0.1476  0.0692
  425MPD2    C3 6339   4.233   0.074   0.084  0.0404 -0.6159 -0.0435
  425MPD2    C4 6340   4.253   0.165  17.683  0.6961 -0.8524  0.0330
  425MPD2    C5 6341   4.369   0.145  17.612 -0.4850 -0.7634  0.2559
  425MPD2     H 6342   4.324   4.662   0.213 -1.1801  0.2749  0.0608
  425MPD2    H1 6343   4.186   0.246  17.659  0.3094 -0.8846  1.0170
  425MPD2    H2 6344   4.548   0.039  17.572 -0.3010  0.4096 -0.5998
  425MPD2    H3 6345   4.386   0.218  17.534  0.4050 -1.1899  0.0508
  425MPD2     N 6346   4.114   0.070   0.164  0.4769  0.3057 -0.4839
  425MPD2    H5 6347   4.091   4.719   0.226  2.6438  0.2089  0.1839
  425MPD2    N1 6348   4.549   4.603   0.060  0.2889  0.2800 -1.1252
  425MPD2    H7 6349   4.609   4.581  17.684  1.9022  0.2575  0.1162
  426TMC3    C1 6350   4.641   4.401   0.134 -0.0476  0.0409  0.5448
  426TMC3    C2 6351   4.593   4.317   0.040 -0.0209  0.1085 -0.2005
  426TMC3    C3 6352   4.640   4.187   0.036 -0.3434 -0.1424  0.3297
  426TMC3    C4 6353   4.724   4.350   0.230 -0.3404 -0.5629 -0.3393
  426TMC3    C5 6354   0.053   4.223   0.222  0.0802 -0.0740  0.1914
  426TMC3    C6 6355   0.013   4.137   0.121  0.2168 -0.0407  0.0065
  426TMC3     C 6356   4.557   4.517   0.164  0.1955 -0.2087  0.4342
  426TMC3     O 6357   4.503   4.518   0.275  0.4405 -0.0650 -0.6424
  426TMC3     H 6358   4.528   4.356  17.664  0.9529  0.5408 -0.7936
  426TMC3    H1 6359   0.041   4.427   0.294  0.8192 -1.8030  0.3943
  426TMC3    H2 6360   0.051   4.035   0.115  1.5885  0.5479 -1.2647
  426TMC3    C7 6361   0.137   4.171   0.329  0.4954 -0.1093  0.1849
  426TMC3    C8 6362   4.603   4.106  17.625  0.0886  0.2952 -0.2534
  426TMC3    O1 6363   0.188   4.061   0.308  0.7730 -0.7113  0.4059
  426TMC3    O2 6364   4.679   4.015  17.589 -0.0402 -0.3068 -0.7725
  427MPD2     C 6365   3.056   2.058  15.250  0.0172 -0.2714  0.2749
  427MPD2    C1 6366   2.999   2.011  15.368  0.5139 -0.0197 -0.0521
  427MPD2    C2 6367   2.869   2.047  15.395  0.4222  0.1297 -0.0106
  427MPD2    C3 6368   2.796   2.130  15.304 -0.1608 -0.1280 -0.6571
  427MPD2    C4 6369   2.848   2.162  15.184  0.3518  0.3335 -0.0295
  427MPD2    C5 6370   2.979   2.128  15.160  0.0436 -0.0192  0.1732
  427MPD2     H 6371   2.819   2.019  15.487  3.1127 -0.1671  1.3390
  427MPD2    H1 6372   2.803   2.219  15.103  2.6611  0.1777 -1.4433
  427MPD2    H2 6373   3.154   2.026  15.216  1.1083  1.5034  1.7341
  427MPD2    H3 6374   3.024   2.155  15.064  0.9602  1.5513  1.0470
  427MPD2     N 6375   2.665   2.166  15.339 -0.6784 -0.0408 -0.3970
  427MPD2    H5 6376   2.606   2.201  15.264  0.5981 -1.2093 -1.9248
  427MPD2    N1 6377   3.068   1.932  15.464 -0.9495 -0.8239  0.3376
  427MPD2    H7 6378   3.024   1.923  15.555  1.8789 -4.1320  1.3826
  428TMC3    C1 6379   3.237   1.780  15.551 -0.9432 -0.2199  0.1346
  428TMC3    C2 6380   3.169   1.761  15.665 -0.9402 -0.0914  0.1615
  428TMC3    C3 6381   3.237   1.691  15.761 -0.1438 -0.5243 -0.3536
  428TMC3    C4 6382   3.367   1.737  15.533 -0.3315  0.7261  0.3710
  428TMC3    C5 6383   3.424   1.662  15.627  0.0298 -0.3006  0.0129
  428TMC3    C6 6384   3.367   1.649  15.748  0.0568  0.0069 -0.4867
  428TMC3     C 6385   3.190   1.864  15.442  0.6310 -0.3589 -0.0711
  428TMC3     O 6386   3.258   1.864  15.343 -0.1461 -0.1376  0.4302
  428TMC3     H 6387   3.062   1.772  15.677 -0.9314  0.3474 -0.1480
  428TMC3    H1 6388   3.419   1.744  15.439 -0.8287  0.1798  0.0556
  428TMC3    H2 6389   3.413   1.589  15.826  1.1334  0.0710 -1.0733
  428TMC3    C7 6390   3.559   1.700  15.644  0.2029  0.3072  0.2094
  428TMC3    C8 6391   3.173   1.666  15.887  0.7750 -0.3164 -0.2805
  428TMC3    O1 6392   3.586   1.731  15.761 -1.2050 -0.5372 -0.2252
  428TMC3    O2 6393   3.187   1.552  15.936 -0.0127 -0.4700 -0.8950
  429MPD2     C 6394   4.107   1.991   0.444  0.3045 -0.6579  0.0047
  429MPD2    C1 6395   4.134   1.903   0.344 -0.2131 -0.4071  0.1018
  429MPD2    C2 6396   4.206   1.942   0.229 -0.5740 -0.3141 -0.8579
  429MPD2    C3 6397   4.237   2.083   0.215  0.2232 -0.7333 -0.2618
  429MPD2    C4 6398   4.202   2.170   0.311 -0.2234  0.4217 -0.1825
  429MPD2    C5 6399   4.137   2.129   0.423  0.4481  0.2865 -0.2646
  429MPD2     H 6400   4.241   1.879   0.149  0.6441  0.3959 -0.8747
  429MPD2    H1 6401   4.235   2.273   0.311  1.0941 -0.0199 -3.0805
  429MPD2    H2 6402   4.076   1.947   0.538 -0.9939  1.3057  0.4737
  429MPD2    H3 6403   4.121   2.193   0.509 -0.8611 -2.2693  1.3790
  429MPD2     N 6404   4.314   2.120   0.104 -0.1262  0.2609  0.2267
  429MPD2    H5 6405   4.333   2.045   0.039  0.7705  0.8043 -0.1373
  429MPD2    N1 6406   4.111   1.765   0.360  0.3211 -0.0382  0.0199
  429MPD2    H7 6407   4.147   1.706   0.286 -0.3957 -2.8671  1.9270
  430TMC3    C1 6408   4.466   2.247  17.671  0.5569 -0.0046 -0.4064
  430TMC3    C2 6409   4.473   2.364  17.603  0.0960  0.6860  0.5017
  430TMC3    C3 6410   4.555   2.362  17.488  0.2550  0.0882  0.1311
  430TMC3    C4 6411   4.512   2.126  17.621  0.0352  0.1604  0.3769
  430TMC3    C5 6412   4.575   2.124  17.501  0.0573 -0.2196  0.3288
  430TMC3    C6 6413   4.594   2.248  17.437  0.4984 -0.1679  0.3859
  430TMC3     C 6414   4.364   2.246   0.075  0.1035  0.1303 -0.0855
  430TMC3     O 6415   4.336   2.354   0.129 -0.4990 -0.0528  0.4847
  430TMC3     H 6416   4.435   2.458  17.642  0.6000  0.5382  1.3415
  430TMC3    H1 6417   4.501   2.034  17.678  0.1893  0.6588  1.2045
  430TMC3    H2 6418   4.645   2.244  17.342 -0.5540 -2.7199 -0.0935
  430TMC3    C7 6419   4.524   2.018  17.415 -0.0126 -0.6261  0.1207
  430TMC3    C8 6420   4.488   2.443  17.381  0.0054 -0.2976  0.7398
  430TMC3    O1 6421   4.557   1.905  17.438  0.3742 -0.4103 -0.0744
  430TMC3    O2 6422   4.470   2.377  17.280  0.3199  0.2038  0.0524
  431MPD2     C 6423   0.258   2.258  12.722 -1.0749 -0.4513  0.7879
  431MPD2    C1 6424   0.314   2.280  12.599  0.5490 -0.0065 -0.3164
  431MPD2    C2 6425   0.321   2.172  12.508 -0.1218 -0.8613  0.3941
  431MPD2    C3 6426   0.275   2.041  12.539 -0.4436 -0.1383  0.3562
  431MPD2    C4 6427   0.218   2.025  12.659 -0.0774 -0.0774  0.6147
  431MPD2    C5 6428   0.206   2.131  12.746 -0.4095  0.1136 -0.1202
  431MPD2     H 6429   0.346   2.194  12.405 -0.6646 -2.2755 -0.0439
  431MPD2    H1 6430   0.181   1.925  12.679  1.0695  0.0967  3.5918
  431MPD2    H2 6431   0.229   2.330  12.798  2.2757  1.6723  0.0831
  431MPD2    H3 6432   0.148   2.124  12.838  0.2033 -0.8014  0.1983
  431MPD2     N 6433   0.287   1.925  12.457  0.5319  0.1270  0.1356
  431MPD2    H5 6434   0.256   1.836  12.496  1.3195 -0.3418 -0.3227
  431MPD2    N1 6435   0.364   2.405  12.561 -0.8345 -0.6604 -0.3052
  431MPD2    H7 6436   0.395   2.424  12.466 -0.5111 -0.5937 -0.1895
  432TMC3    C1 6437   0.405   1.793  12.313  0.8137  0.3202  0.1270
  432TMC3    C2 6438   0.442   1.761  12.184  0.5007  0.1396 -0.1017
  432TMC3    C3 6439   0.513   1.648  12.169  0.1765  0.1303 -0.7801
  432TMC3    C4 6440   0.445   1.717  12.415 -0.1325 -0.0666  0.8755
  432TMC3    C5 6441   0.534   1.614  12.394 -0.3127 -0.6252 -0.4351
  432TMC3    C6 6442   0.568   1.573  12.271 -0.2518  0.0844  0.1668
  432TMC3     C 6443   0.348   1.924  12.337 -0.2145  0.3063  0.1934
  432TMC3     O 6444   0.382   2.022  12.271  0.8504  0.1789  0.1701
  432TMC3     H 6445   0.409   1.814  12.096 -0.7501 -3.8488 -2.0550
  432TMC3    H1 6446   0.425   1.752  12.515  0.0494 -0.9303  1.2117
  432TMC3    H2 6447   0.627   1.485  12.248 -0.3243  0.4493 -1.4030
  432TMC3    C7 6448   0.607   1.545  12.503 -0.4327  0.1470 -0.1111
  432TMC3    C8 6449   0.552   1.607  12.035  0.7164 -0.0074 -0.9315
  432TMC3    O1 6450   0.698   1.475  12.464  0.2133 -0.4888 -0.5611
  432TMC3    O2 6451   0.462   1.586  11.950 -0.3398  0.4883 -0.8375
  433MPD2     C 6452   3.941   0.737  11.204 -0.4593 -0.2214  0.4161
  433MPD2    C1 6453   3.846   0.705  11.297 -0.6001  0.5502 -0.8590
  433MPD2    C2 6454   3.865   0.733  11.433  0.3182 -0.7996 -0.0847
  433MPD2    C3 6455   3.972   0.808  11.466  0.0514 -0.0074 -0.1447
  433MPD2    C4 6456   4.063   0.846  11.370 -0.5281  0.6919 -0.6345
  433MPD2    C5 6457   4.051   0.804  11.243  0.7650  0.5770  0.3127
  433MPD2     H 6458   3.804   0.694  11.514 -1.4263  1.7845 -0.1646
  433MPD2    H1 6459   4.149   0.906  11.396 -0.2505  0.5804 -1.2995
  433MPD2    H2 6460   3.937   0.703  11.101 -1.2413  1.6709 -0.1916
  433MPD2    H3 6461   4.124   0.824  11.165  1.5466  0.0817  0.9217
  433MPD2     N 6462   3.990   0.832  11.604 -0.4945 -0.1397  0.0644
  433MPD2    H5 6463   3.932   0.779  11.669  1.8626  0.8454  2.9727
  433MPD2    N1 6464   3.744   0.619  11.252  0.1562  0.2189  0.3914
  433MPD2    H7 6465   3.739   0.595  11.153 -0.9990 -2.1186  1.0084
  434TMC3    C1 6466   3.622   0.418  11.269  0.1461 -0.9241  0.3103
  434TMC3    C2 6467   3.570   0.319  11.353 -0.0797 -0.5429  0.3016
  434TMC3    C3 6468   3.559   0.195  11.310  0.1494 -0.1564  0.2083
  434TMC3    C4 6469   3.635   0.392  11.137 -0.2145 -0.1723  0.0332
  434TMC3    C5 6470   3.615   0.268  11.093 -0.2795  0.0639  0.4713
  434TMC3    C6 6471   3.591   0.158  11.181  0.1304 -0.4040  0.2973
  434TMC3     C 6472   3.658   0.542  11.336 -0.5755 -0.1220 -0.3554
  434TMC3     O 6473   3.618   0.565  11.446 -0.6562 -0.5174  0.9265
  434TMC3     H 6474   3.561   0.346  11.457  2.3742 -0.5185  0.4992
  434TMC3    H1 6475   3.635   0.474  11.065  1.0857  0.1412  0.4007
  434TMC3    H2 6476   3.576   0.056  11.149  1.1685 -0.8484  1.2123
  434TMC3    C7 6477   3.610   0.246  10.952  0.1678  1.0693  0.3513
  434TMC3    C8 6478   3.595   0.089  11.401 -0.6893 -0.4540  0.2627
  434TMC3    O1 6479   3.632   0.341  10.881 -0.0257 -0.6163 -0.0472
  434TMC3    O2 6480   3.542   0.083  11.506  0.6268 -0.2040 -0.0663
  435MPD2     C 6481   1.111   0.574  15.852  0.8417  0.5158 -0.1030
  435MPD2    C1 6482   1.073   0.564  15.981  0.0993  0.1448 -0.1487
  435MPD2    C2 6483   1.171   0.533  16.077 -0.4179  0.6995 -0.2065
  435MPD2    C3 6484   1.299   0.508  16.038  0.3770 -0.1198  0.3527
  435MPD2    C4 6485   1.339   0.523  15.908  0.3664 -0.5699 -0.2823
  435MPD2    C5 6486   1.245   0.559  15.817 -0.6290 -0.1943  0.0530
  435MPD2     H 6487   1.143   0.528  16.181  1.5148  0.8032  0.3137
  435MPD2    H1 6488   1.440   0.511  15.871 -0.3555  0.5993 -2.6002
  435MPD2    H2 6489   1.045   0.611  15.774 -0.1153 -0.1946  0.3755
  435MPD2    H3 6490   1.282   0.573  15.716  1.2340 -0.2607  0.7280
  435MPD2     N 6491   1.383   0.458  16.142  0.1019  0.1745 -0.5213
  435MPD2    H5 6492   1.349   0.451  16.238 -1.1995 -0.6966 -1.0639
  435MPD2    N1 6493   0.947   0.595  16.034 -0.0941 -0.6277  0.6217
  435MPD2    H7 6494   0.940   0.585  16.134  0.8456  3.4866  1.1012
  436TMC3    C1 6495   0.590   0.707  16.222  0.2510 -0.3858  0.2379
  436TMC3    C2 6496   0.714   0.676  16.158 -0.4058 -0.2339  0.0085
  436TMC3    C3 6497   0.706   0.639  16.026 -0.2119 -0.0835  0.3600
  436TMC3    C4 6498   0.466   0.705  16.153 -0.0560  0.4500  0.2420
  436TMC3    C5 6499   0.478   0.672  16.018 -0.9196 -0.4750 -0.2958
  436TMC3    C6 6500   0.596   0.628  15.960  0.8711  0.2071 -0.3113
  436TMC3     C 6501   0.601   0.739  16.359  0.6401  0.2898  0.4350
  436TMC3     O 6502   0.711   0.782  16.394 -0.6564  0.0196  0.5457
  436TMC3     H 6503   0.810   0.686  16.208 -0.3843  0.6580 -0.2032
  436TMC3    H1 6504   0.372   0.724  16.204 -1.2267 -1.9344 -1.0613
  436TMC3    H2 6505   0.602   0.604  15.855 -2.5458  1.4390 -0.7923
  436TMC3    C7 6506   0.377   0.675  15.924 -0.4963 -0.7920  0.0911
  436TMC3    C8 6507   0.832   0.612  15.953 -0.5729 -0.1215 -0.1592
  436TMC3    O1 6508   0.410   0.691  15.806  0.1960 -0.0461  0.2232
  436TMC3    O2 6509   0.823   0.616  15.829  0.3097  0.0097 -0.0969
  437TMC3    C1 6510   4.269   2.997  13.076  0.2282 -0.1130  0.3926
  437TMC3    C2 6511   4.136   3.029  13.067  0.0349  0.5102 -0.0763
  437TMC3    C3 6512   4.098   3.111  12.970  0.0133  0.9530 -0.1182
  437TMC3    C4 6513   4.364   3.056  13.000 -0.0066 -0.5303  0.3070
  437TMC3    C5 6514   4.320   3.140  12.902  0.5075 -0.1114 -0.0063
  437TMC3    C6 6515   4.188   3.167  12.882  0.5016 -0.2734 -0.1750
  437TMC3     C 6516   4.300   2.893  13.182  0.0864 -0.3597  0.4738
  437TMC3     O 6517   4.207   2.863  13.253  0.2348 -1.1046 -0.5486
  437TMC3     H 6518   4.065   2.985  13.135  1.7285 -0.4301  1.0873
  437TMC3    H1 6519   4.467   3.025  13.018  0.5889  0.2500 -1.7459
  437TMC3    H2 6520   4.151   3.218  12.794 -1.1034 -1.1863 -0.0417
  437TMC3    C7 6521   4.404   3.229  12.827  0.2134  0.4657  0.2597
  437TMC3    C8 6522   3.959   3.153  12.948  0.4446  0.3595 -0.4930
  437TMC3    O1 6523   4.351   3.292  12.735 -0.3122 -0.4129  0.1422
  437TMC3    O2 6524   3.951   3.260  12.893 -0.1887 -0.0904  0.1639
  438MPD2     C 6525   1.709   3.169  17.104  0.3035  0.2164 -0.1419
  438MPD2    C1 6526   1.808   3.106  17.174 -1.2077  0.4571  0.0738
  438MPD2    C2 6527   1.775   3.024  17.277 -0.1256 -0.0454  0.4576
  438MPD2    C3 6528   1.644   2.999  17.316  0.0492 -0.1695 -0.2015
  438MPD2    C4 6529   1.547   3.086  17.255 -0.4659 -0.4591 -0.1137
  438MPD2    C5 6530   1.578   3.157  17.142  0.1754  0.6492  0.2078
  438MPD2     H 6531   1.852   2.959  17.315  0.5710 -0.1099 -1.0701
  438MPD2    H1 6532   1.443   3.081  17.288 -0.8746  1.1766 -1.1724
  438MPD2    H2 6533   1.733   3.226  17.015 -1.1843  2.2917  0.7902
  438MPD2    H3 6534   1.504   3.217  17.090 -0.3173  0.1128  0.2983
  438MPD2     N 6535   1.597   2.906  17.406 -0.0062  0.7251  0.2973
  438MPD2    H5 6536   1.498   2.897  17.423 -0.2676 -1.8536 -2.6258
  438MPD2    N1 6537   1.947   3.120  17.150  0.0678 -0.1002  0.6054
  438MPD2    H7 6538   2.013   3.075  17.211 -2.5465 -0.7878  2.9280
  439TMC3    C1 6539   2.136   3.202  17.041 -0.4571 -0.3473 -0.2618
  439TMC3    C2 6540   2.201   3.213  16.919 -0.2133  0.6610  0.4420
  439TMC3    C3 6541   2.338   3.224  16.928 -0.1027 -0.5953 -0.0736
  439TMC3    C4 6542   2.206   3.178  17.162 -0.1597  0.5125  0.2487
  439TMC3    C5 6543   2.343   3.186  17.155  0.3581 -0.3572  0.2037
  439TMC3    C6 6544   2.411   3.217  17.040 -0.2089  0.7531 -0.8896
  439TMC3     C 6545   1.996   3.194  17.045  0.6706 -0.1758 -0.2307
  439TMC3     O 6546   1.937   3.243  16.949  0.6946 -0.2403  0.1937
  439TMC3     H 6547   2.151   3.228  16.824 -1.1335  0.7488  0.9411
  439TMC3    H1 6548   2.164   3.165  17.261 -1.2427 -0.2862 -0.3134
  439TMC3    H2 6549   2.517   3.238  17.035 -0.1273  0.8185  1.3547
  439TMC3    C7 6550   2.427   3.134  17.264 -0.3913 -0.7980 -0.1424
  439TMC3    C8 6551   2.411   3.253  16.808 -0.0498  0.1740  0.5171
  439TMC3    O1 6552   2.548   3.161  17.253 -0.2013  0.3912 -0.6039
  439TMC3    O2 6553   2.514   3.315  16.816  0.4764  0.3606 -0.2564
  440MPD2     C 6554   1.222   3.690  15.057  0.1380 -0.0402 -0.4279
  440MPD2    C1 6555   1.219   3.791  15.159 -0.2015 -0.2796  0.2207
  440MPD2    C2 6556   1.320   3.799  15.246  0.6262  0.0195 -0.3294
  440MPD2    C3 6557   1.424   3.710  15.236 -0.4868  0.2408 -0.7568
  440MPD2    C4 6558   1.421   3.609  15.146  0.2704  0.0103 -0.4792
  440MPD2    C5 6559   1.316   3.589  15.058  0.5874  0.1644 -0.4262
  440MPD2     H 6560   1.319   3.871  15.326 -1.7158 -2.3818  1.8107
  440MPD2    H1 6561   1.507   3.544  15.136  0.7737  0.1610  2.9018
  440MPD2    H2 6562   1.160   3.699  14.968 -0.3128 -1.1306 -0.2238
  440MPD2    H3 6563   1.333   3.516  14.979  0.8200  0.5779 -0.7560
  440MPD2     N 6564   1.532   3.730  15.330 -0.6009  0.1309  0.1457
  440MPD2    H5 6565   1.513   3.805  15.397  0.7242  1.0800 -0.5434
  440MPD2    N1 6566   1.130   3.897  15.179 -0.1869 -0.4360  0.1600
  440MPD2    H7 6567   1.142   3.944  15.268  0.7810  2.0309 -1.2711
  441TMC3    C1 6568   1.736   3.725  15.434  0.0994 -0.2308  0.8577
  441TMC3    C2 6569   1.702   3.837  15.510 -0.5613 -0.0843 -0.1092
  441TMC3    C3 6570   1.766   3.854  15.633 -0.8785 -1.2834  0.2995
  441TMC3    C4 6571   1.803   3.625  15.493 -0.2680 -0.6636 -0.8748
  441TMC3    C5 6572   1.856   3.642  15.619 -0.1688 -0.4184 -0.5171
  441TMC3    C6 6573   1.848   3.763  15.689  0.2228 -0.8827  0.5618
  441TMC3     C 6574   1.654   3.669  15.327 -0.0962 -0.7927 -0.6628
  441TMC3     O 6575   1.697   3.587  15.245  0.3513 -0.5644 -0.1281
  441TMC3     H 6576   1.638   3.911  15.465  1.7824  1.6917 -0.5125
  441TMC3    H1 6577   1.800   3.523  15.455 -0.8769 -1.8429  2.3260
  441TMC3    H2 6578   1.901   3.776  15.783  0.3265 -1.8262  0.6344
  441TMC3    C7 6579   1.896   3.525  15.693  0.0207  0.1308  0.0499
  441TMC3    C8 6580   1.745   3.975  15.712  0.4289  0.1345  0.0154
  441TMC3    O1 6581   1.978   3.550  15.779  0.1656  0.8469  0.0432
  441TMC3    O2 6582   1.846   3.999  15.778  0.4255  0.0002 -0.1106
  442MPD2     C 6583   4.243   4.197  16.968  0.0941  0.3199  0.4087
  442MPD2    C1 6584   4.111   4.152  16.962 -0.0236 -0.0458  0.2468
  442MPD2    C2 6585   4.068   4.059  16.869  0.1135  0.3936  0.7797
  442MPD2    C3 6586   4.157   4.004  16.780  0.0365 -0.1998 -0.2139
  442MPD2    C4 6587   4.284   4.054  16.778  0.3296  0.9293 -0.0496
  442MPD2    C5 6588   4.328   4.145  16.873 -0.9950 -0.6022 -0.2480
  442MPD2     H 6589   3.962   4.038  16.876 -0.1964  2.5277  2.5315
  442MPD2    H1 6590   4.354   4.026  16.700  0.1572  1.9246 -0.5718
  442MPD2    H2 6591   4.280   4.269  17.040 -1.1273 -0.4063  1.7582
  442MPD2    H3 6592   4.431   4.179  16.882 -1.2001 -0.0905  0.1805
  442MPD2     N 6593   4.126   3.912  16.682 -0.0259  0.6067  0.0648
  442MPD2    H5 6594   4.205   3.894  16.621 -0.6673 -1.3095 -0.1798
  442MPD2    N1 6595   4.019   4.210  17.055  0.3698  0.0544 -0.5716
  442MPD2    H7 6596   3.925   4.172  17.056  0.7000 -0.8228 -3.1308
  443TMC3    C1 6597   3.928   4.338  17.224 -0.1569 -0.2876 -0.9148
  443TMC3    C2 6598   3.885   4.471  17.231  0.1941 -0.1862  0.4684
  443TMC3    C3 6599   3.753   4.503  17.255  0.5661 -0.3388 -0.5886
  443TMC3    C4 6600   3.843   4.236  17.259  0.0975  0.0523 -0.4651
  443TMC3    C5 6601   3.716   4.271  17.303 -0.0855 -0.2285  0.3204
  443TMC3    C6 6602   3.669   4.399  17.294 -0.4612 -0.2997  0.0597
  443TMC3     C 6603   4.043   4.313  17.138 -0.0831  0.8818  0.0137
  443TMC3     O 6604   4.131   4.398  17.139 -0.1963  0.2277 -0.2086
  443TMC3     H 6605   3.963   4.539  17.200 -0.3937  0.2960  0.0513
  443TMC3    H1 6606   3.871   4.132  17.255  1.3469  0.3858 -0.5283
  443TMC3    H2 6607   3.565   4.423  17.309 -0.0617  2.0667 -0.9556
  443TMC3    C7 6608   3.643   4.174  17.382 -0.4077 -0.0174 -0.9655
  443TMC3    C8 6609   3.705   4.586  17.148 -0.1577 -1.6246 -0.2389
  443TMC3    O1 6610   3.687   4.062  17.379 -0.2417 -0.0419 -0.8311
  443TMC3    O2 6611   3.770   4.683  17.131  0.0782 -0.4859  0.2320
  444MPD2     C 6612   4.262   3.709  17.418  0.2826 -0.1571 -0.1936
  444MPD2    C1 6613   4.158   3.624  17.401  0.4982 -0.1843  0.1637
  444MPD2    C2 6614   4.178   3.507  17.329 -0.5099 -0.1931 -0.7538
  444MPD2    C3 6615   4.308   3.486  17.271 -0.4816  0.3443 -0.0799
  444MPD2    C4 6616   4.413   3.571  17.300 -0.0213 -0.2197 -0.3719
  444MPD2    C5 6617   4.392   3.679  17.373  0.2293  0.2486  0.6248
  444MPD2     H 6618   4.095   3.444  17.297  0.6751 -1.6948 -0.8780
  444MPD2    H1 6619   4.513   3.558  17.261  0.2892  2.0016 -0.3023
  444MPD2    H2 6620   4.260   3.797  17.482  3.9128  1.4874 -2.3491
  444MPD2    H3 6621   4.463   3.756  17.401  0.9282  1.3644 -4.2991
  444MPD2     N 6622   4.328   3.375  17.183 -0.0879 -0.0257 -0.1528
  444MPD2    H5 6623   4.244   3.325  17.157 -0.5022  0.6514 -0.1336
  444MPD2    N1 6624   4.030   3.647  17.459  0.4953  0.6223 -0.3795
  444MPD2    H7 6625   3.955   3.582  17.437 -0.6446  2.1220 -0.8594
  445TMC3    C1 6626   4.435   3.224  17.039 -0.0409  0.6446 -0.2347
  445TMC3    C2 6627   4.338   3.236  16.943 -0.0555  0.1245  0.7884
  445TMC3    C3 6628   4.329   3.130  16.855  0.0570  0.6416  0.0388
  445TMC3    C4 6629   4.525   3.123  17.044 -0.0953 -0.1854 -0.0509
  445TMC3    C5 6630   4.516   3.024  16.946  0.1662  0.2279  0.1307
  445TMC3    C6 6631   4.416   3.023  16.854  0.0752  0.4036  0.4525
  445TMC3     C 6632   4.452   3.340  17.122  0.4759  0.1976  0.0730
  445TMC3     O 6633   4.567   3.365  17.147 -0.5132 -0.3449 -0.4873
  445TMC3     H 6634   4.268   3.319  16.940  0.3125  0.4615  1.6516
  445TMC3    H1 6635   4.611   3.123  17.109 -2.0724 -1.4452  2.5917
  445TMC3    H2 6636   4.399   2.938  16.790  3.4228 -0.5350  0.8429
  445TMC3    C7 6637   4.642   2.959  16.900  0.1570 -0.1159 -0.5977
  445TMC3    C8 6638   4.213   3.124  16.770 -0.2603 -0.7705  0.1416
  445TMC3    O1 6639   4.646   2.934  16.780 -0.1658  0.3194 -0.2017
  445TMC3    O2 6640   4.116   3.185  16.818  0.2434 -0.4160 -0.2265
  446MPD2     C 6641   3.580   0.282  11.952 -0.0913  0.5629 -1.2034
  446MPD2    C1 6642   3.579   0.246  11.819  0.3303  0.2106  0.0924
  446MPD2    C2 6643   3.700   0.244  11.750  0.5593  0.8291  0.4893
  446MPD2    C3 6644   3.821   0.255  11.822 -0.2587 -0.2116  0.7490
  446MPD2    C4 6645   3.815   0.278  11.958 -0.5689  0.3329 -0.1714
  446MPD2    C5 6646   3.700   0.303  12.012  0.5267  0.4371  0.6031
  446MPD2     H 6647   3.707   0.222  11.645  1.5304 -2.8450  1.3063
  446MPD2    H1 6648   3.904   0.280  12.019 -1.5982 -0.9960  1.3709
  446MPD2    H2 6649   3.488   0.300  12.006  0.0735 -1.3912 -0.2780
  446MPD2    H3 6650   3.691   0.316  12.120 -1.7270 -0.4170  0.5248
  446MPD2     N 6651   3.939   0.224  11.758  0.1152 -0.4756  0.2657
  446MPD2    H5 6652   3.936   0.239  11.657  0.7410 -1.3520  0.1138
  446MPD2    N1 6653   3.462   0.197  11.751 -0.2287 -0.6666 -0.2732
  446MPD2    H7 6654   3.470   0.185  11.651  0.1387  1.2209 -0.4653
  447TMC3    C1 6655   4.161   0.141  11.720  0.7029 -0.0223 -0.2617
  447TMC3    C2 6656   4.137   0.138  11.586 -0.1027  0.2765 -0.1758
  447TMC3    C3 6657   4.242   0.109  11.516  0.3448  0.2183 -0.0019
  447TMC3    C4 6658   4.288   0.126  11.781 -0.1459  0.5775  0.4765
  447TMC3    C5 6659   4.388   0.095  11.699  0.0587  0.3089  0.3533
  447TMC3    C6 6660   4.366   0.088  11.563 -0.5050  0.9425  0.4683
  447TMC3     C 6661   4.053   0.173  11.810 -0.8932 -0.3038 -0.5622
  447TMC3     O 6662   4.072   0.134  11.925  0.0957 -0.0256  0.6600
  447TMC3     H 6663   4.035   0.140  11.548  0.2562  5.0760 -0.8759
  447TMC3    H1 6664   4.304   0.119  11.888  1.4171 -0.3109  0.1914
  447TMC3    H2 6665   4.447   0.059  11.497 -1.4606 -0.7802  0.0313
  447TMC3    C7 6666   4.523   0.077  11.751  0.0358  0.0563 -0.2858
  447TMC3    C8 6667   4.232   0.134  11.377 -0.7613 -0.7413  0.4863
  447TMC3    O1 6668   4.600   0.037  11.666  0.2251  0.0729  0.5560
  447TMC3    O2 6669   4.118   0.159  11.337 -0.2607 -0.0528  0.0135
  448TMC3    C1 6670   2.531   4.619  17.002 -0.0230 -0.0434  0.5492
  448TMC3    C2 6671   2.450   4.509  17.024 -0.4571  0.8135  0.0661
  448TMC3    C3 6672   2.498   4.423  17.127 -0.3636  0.0143 -0.8171
  448TMC3    C4 6673   2.654   4.641  17.072 -0.5055  0.2598 -0.5955
  448TMC3    C5 6674   2.684   4.558  17.174  0.2688  0.2499  0.0812
  448TMC3    C6 6675   2.615   4.447  17.194 -0.2272  0.0653  0.0444
  448TMC3     C 6676   2.515   4.671  16.867  0.8967  1.0529  0.6122
  448TMC3     O 6677   2.442   4.617  16.787 -0.3449  0.2036 -0.2384
  448TMC3     H 6678   2.370   4.486  16.955  1.0696  0.2849 -1.5389
  448TMC3    H1 6679   2.733   4.709  17.041 -1.7279  1.3347 -1.3488
  448TMC3    H2 6680   2.655   4.360  17.245 -0.7813  0.0404  0.4449
  448TMC3    C7 6681   2.806   4.588  17.250  0.1069  0.5009  0.4463
  448TMC3    C8 6682   2.439   4.286  17.114  0.0210  0.3839 -0.2893
  448TMC3    O1 6683   2.869   4.692  17.226 -0.0681  0.2668 -0.3525
  448TMC3    O2 6684   2.503   4.195  17.162  0.4665  0.2678  0.5680
  449MPD2     C 6685   3.535   3.580  14.037  0.3443 -0.2208  0.5478
  449MPD2    C1 6686   3.446   3.480  14.024  0.6072  0.2376  0.0708
  449MPD2    C2 6687   3.398   3.405  14.128  0.7348  0.5263 -0.0589
  449MPD2    C3 6688   3.439   3.428  14.257  0.0528  1.4143  0.5932
  449MPD2    C4 6689   3.525   3.533  14.275  0.2646 -0.1118 -0.2937
  449MPD2    C5 6690   3.580   3.595  14.165  0.2121  0.1264  0.0552
  449MPD2     H 6691   3.311   3.342  14.111 -0.6039  2.5393 -0.6598
  449MPD2    H1 6692   3.559   3.568  14.372 -2.1143  1.1494  0.0716
  449MPD2    H2 6693   3.577   3.644  13.961 -0.8201  2.2353  1.9669
  449MPD2    H3 6694   3.655   3.670  14.187 -2.4655  2.6908  0.5159
  449MPD2     N 6695   3.377   3.346  14.360 -0.3901  0.2800 -0.5529
  449MPD2    H5 6696   3.316   3.271  14.331  0.2796  0.3092 -2.0119
  449MPD2    N1 6697   3.390   3.453  13.900  0.2176 -0.0356 -0.0632
  449MPD2    H7 6698   3.311   3.390  13.906 -0.1606  0.4529  0.0756
  450TMC3    C1 6699   3.330   3.467  13.679  0.1535 -0.7668 -0.0681
  450TMC3    C2 6700   3.378   3.375  13.591 -0.0747  0.0276 -0.4452
  450TMC3    C3 6701   3.302   3.263  13.555  0.3781  0.4471  0.3135
  450TMC3    C4 6702   3.197   3.450  13.722  0.1323  0.0270 -0.3967
  450TMC3    C5 6703   3.122   3.339  13.698  0.1393  0.6322 -0.4541
  450TMC3    C6 6704   3.178   3.244  13.612 -0.8685 -0.3280  0.0607
  450TMC3     C 6705   3.415   3.515  13.778  0.8163  0.0773 -0.2069
  450TMC3     O 6706   3.517   3.570  13.737 -0.5477  0.0399  0.3257
  450TMC3     H 6707   3.484   3.370  13.568 -0.1913 -2.2351 -0.5528
  450TMC3    H1 6708   3.163   3.528  13.790  1.3811  1.6119 -1.5889
  450TMC3    H2 6709   3.123   3.156  13.581 -2.2599  1.5045 -2.6538
  450TMC3    C7 6710   3.078   3.284  13.826 -0.4113 -0.6785 -0.1536
  450TMC3    C8 6711   3.353   3.156  13.469 -0.3277 -0.1977 -0.2530
  450TMC3    O1 6712   3.138   3.326  13.924  0.1013  0.0892 -0.3247
  450TMC3    O2 6713   3.277   3.071  13.424  0.0161  0.1422  0.3519
  451MPD2     C 6714   0.475   2.251   2.212 -0.3385 -0.3928  0.0386
  451MPD2    C1 6715   0.431   2.208   2.091  1.1044 -0.9037  0.2993
  451MPD2    C2 6716   0.453   2.075   2.052  0.2793  0.1196 -0.1582
  451MPD2    C3 6717   0.531   1.999   2.135  0.4925  0.6957  0.2496
  451MPD2    C4 6718   0.573   2.043   2.259 -0.9225  0.4343 -0.4225
  451MPD2    C5 6719   0.551   2.174   2.295  0.4531 -0.2416 -0.1241
  451MPD2     H 6720   0.410   2.032   1.962  0.1956  1.6157 -0.8332
  451MPD2    H1 6721   0.628   1.987   2.334  0.6763  2.5946  0.0255
  451MPD2    H2 6722   0.467   2.355   2.244  0.1058 -0.4209  0.2407
  451MPD2    H3 6723   0.586   2.214   2.390  1.5866  0.3458 -0.7893
  451MPD2     N 6724   0.568   1.865   2.103 -0.5076 -0.1394 -0.0661
  451MPD2    H5 6725   0.628   1.828   2.175  1.0323 -0.9279 -1.7486
  451MPD2    N1 6726   0.355   2.295   2.014 -0.1061  0.0011  1.0852
  451MPD2    H7 6727   0.340   2.390   2.045 -0.0161  0.1126  0.7864
  452TMC3    C1 6728   0.610   1.659   1.983  0.1214 -0.2164  0.7346
  452TMC3    C2 6729   0.654   1.601   2.096  0.3510 -0.0858 -0.2373
  452TMC3    C3 6730   0.706   1.474   2.083  0.6206 -0.0478  0.2961
  452TMC3    C4 6731   0.595   1.591   1.863  0.1696  0.5381 -0.4254
  452TMC3    C5 6732   0.652   1.474   1.854 -0.2703  0.9022  0.0714
  452TMC3    C6 6733   0.708   1.406   1.965  0.3238 -0.3497  0.0007
  452TMC3     C 6734   0.543   1.791   1.987  0.5322 -0.3167  0.2230
  452TMC3     O 6735   0.489   1.827   1.887  0.0640  0.4595  0.1013
  452TMC3     H 6736   0.674   1.656   2.187 -0.0225 -2.5450  1.3179
  452TMC3    H1 6737   0.560   1.640   1.773  1.7720  0.6511 -0.9796
  452TMC3    H2 6738   0.753   1.307   1.962  0.1688 -0.4293  0.3984
  452TMC3    C7 6739   0.666   1.421   1.716 -0.1937  0.2869 -0.2251
  452TMC3    C8 6740   0.748   1.407   2.203 -0.3506  0.2572  0.1306
  452TMC3    O1 6741   0.701   1.505   1.635 -0.0322 -0.2469  0.1437
  452TMC3    O2 6742   0.847   1.340   2.197  0.0489  0.3629  0.3570
  453TMC3    C1 6743   1.527   4.184  12.052  1.1808  0.0722 -0.0825
  453TMC3    C2 6744   1.446   4.081  12.071  0.2365 -0.1535 -0.0992
  453TMC3    C3 6745   1.339   4.056  11.987  0.4397  0.4782  1.0071
  453TMC3    C4 6746   1.517   4.269  11.950 -0.3763  0.9103 -0.3531
  453TMC3    C5 6747   1.414   4.243  11.859 -0.5962  0.3022  0.3346
  453TMC3    C6 6748   1.320   4.144  11.888  0.4008  0.5944  1.0281
  453TMC3     C 6749   1.634   4.209  12.148 -0.0200 -0.2629  0.1446
  453TMC3     O 6750   1.715   4.295  12.117 -0.0727  0.2863 -0.2761
  453TMC3     H 6751   1.468   4.010  12.149  0.4938  2.2212  1.9789
  453TMC3    H1 6752   1.589   4.349  11.937  0.4471  0.5114  1.7859
  453TMC3    H2 6753   1.236   4.132  11.820  1.2010 -2.9602  0.6706
  453TMC3    C7 6754   1.422   4.262  11.719  0.6966 -0.1093  0.2007
  453TMC3    C8 6755   1.253   3.947  12.003 -0.2230 -0.3104  0.1935
  453TMC3    O1 6756   1.354   4.193  11.646 -0.4935 -1.0329  0.0828
  453TMC3    O2 6757   1.142   3.967  11.948  0.4929 -0.2328 -0.1586
  454MPD2     C 6758   0.256   3.309  16.731 -0.0194 -0.1919  0.3771
  454MPD2    C1 6759   0.230   3.398  16.627  0.4358 -0.2718 -0.4756
  454MPD2    C2 6760   0.213   3.531  16.657 -0.0757  0.1379 -0.0206
  454MPD2    C3 6761   0.207   3.575  16.783  0.1710  0.5663 -0.1905
  454MPD2    C4 6762   0.234   3.485  16.885  0.1833  0.1225  0.0290
  454MPD2    C5 6763   0.260   3.352  16.862  0.4848 -0.3840 -0.3160
  454MPD2     H 6764   0.184   3.594  16.573 -0.1636 -0.5297 -0.4960
  454MPD2    H1 6765   0.237   3.518  16.988  1.4833 -3.2712  1.0964
  454MPD2    H2 6766   0.256   3.202  16.717  0.2360 -0.2173  0.5807
  454MPD2    H3 6767   0.265   3.279  16.942 -0.8049 -2.5113 -2.2034
  454MPD2     N 6768   0.188   3.713  16.825 -0.0549  0.5676  0.1637
  454MPD2    H5 6769   0.169   3.723  16.924 -0.2971 -0.5789  0.2386
  454MPD2    N1 6770   0.218   3.350  16.496 -0.0336 -0.2215 -0.1574
  454MPD2    H7 6771   0.209   3.420  16.423 -1.6651  0.4731  0.6932
  455TMC3    C1 6772   0.047   3.881  16.776 -0.1365  0.6954  0.2906
  455TMC3    C2 6773   0.018   3.888  16.912  0.1085 -0.5297 -0.1428
  455TMC3    C3 6774   4.620   3.861  16.954  0.0231  0.2711 -0.3941
  455TMC3    C4 6775   4.675   3.837  16.694 -0.0158 -0.4911  0.0213
  455TMC3    C5 6776   4.549   3.806  16.740 -0.0147  0.4134 -0.3944
  455TMC3    C6 6777   4.512   3.825  16.870  1.0084 -0.3874  0.3634
  455TMC3     C 6778   0.175   3.816  16.740 -0.3718  1.0864  0.4224
  455TMC3     O 6779   0.213   3.826  16.625 -0.0722  0.3123 -0.0799
  455TMC3     H 6780   0.100   3.929  16.970  1.7600 -2.7243 -0.9267
  455TMC3    H1 6781   4.710   3.811  16.595  0.7055  0.4450  0.0336
  455TMC3    H2 6782   4.423   3.774  16.906  0.8643 -0.2496  0.2025
  455TMC3    C7 6783   4.488   3.688  16.683 -0.7383 -0.3626 -0.6282
  455TMC3    C8 6784   4.596   3.893  17.098 -0.2759 -0.0463 -0.5164
  455TMC3    O1 6785   4.371   3.693  16.647  0.2658 -0.1670  0.0018
  455TMC3    O2 6786   4.693   3.904  17.174  0.1104  0.0385  0.0497
  456MPD2     C 6787   2.659   3.357  16.159 -0.5009  0.3163  0.3787
  456MPD2    C1 6788   2.759   3.447  16.188  0.1796 -0.8758 -0.0255
  456MPD2    C2 6789   2.745   3.528  16.300  0.2487 -0.3558 -0.2670
  456MPD2    C3 6790   2.641   3.504  16.389 -0.0854  0.1263 -0.3407
  456MPD2    C4 6791   2.551   3.412  16.361 -0.7003  0.3219  0.6461
  456MPD2    C5 6792   2.561   3.333  16.248 -0.3364  0.1769 -0.5048
  456MPD2     H 6793   2.822   3.598  16.329 -0.4984 -0.5030  2.1609
  456MPD2    H1 6794   2.473   3.384  16.431 -0.7265 -0.4469  0.3059
  456MPD2    H2 6795   2.659   3.291  16.073  0.8486  2.1363 -1.0067
  456MPD2    H3 6796   2.484   3.259  16.229  1.2597 -1.4648 -0.5858
  456MPD2     N 6797   2.640   3.565  16.518  0.4517  0.0512 -0.7026
  456MPD2    H5 6798   2.729   3.602  16.551  0.6505  0.6679 -1.9041
  456MPD2    N1 6799   2.868   3.461  16.104  0.0405 -0.4190 -0.0651
  456MPD2    H7 6800   2.899   3.376  16.059  0.0536  1.6857 -3.9840
  457TMC3    C1 6801   2.548   3.621  16.730 -0.4189 -0.0701 -0.5333
  457TMC3    C2 6802   2.439   3.665  16.796  0.5505  0.6039  0.5647
  457TMC3    C3 6803   2.443   3.659  16.939  0.1307  0.2860 -0.2743
  457TMC3    C4 6804   2.662   3.570  16.789  0.2709 -0.0175 -0.1824
  457TMC3    C5 6805   2.662   3.559  16.925 -0.3219  0.1097 -0.3125
  457TMC3    C6 6806   2.554   3.606  17.002 -0.0667 -0.5207 -0.0485
  457TMC3     C 6807   2.524   3.566  16.596  0.1969 -0.1616 -0.7141
  457TMC3     O 6808   2.406   3.544  16.568 -0.4117 -0.0057 -0.0395
  457TMC3     H 6809   2.360   3.706  16.735 -0.9528 -0.3608  1.8494
  457TMC3    H1 6810   2.737   3.523  16.727  0.1000 -0.4860 -0.0353
  457TMC3    H2 6811   2.547   3.606  17.111 -0.0319 -1.3572 -0.0497
  457TMC3    C7 6812   2.788   3.601  16.983  0.0602 -0.3692 -0.0539
  457TMC3    C8 6813   2.396   3.777  17.006 -0.3445 -0.4262 -0.2268
  457TMC3    O1 6814   2.867   3.674  16.914 -0.1778  0.6059 -0.4933
  457TMC3    O2 6815   2.482   3.827  17.079 -0.0005  0.0926 -0.7617
  458MPD2     C 6816   0.136   3.410  12.663  0.1373  0.5270 -0.5267
  458MPD2    C1 6817   0.157   3.292  12.726 -0.0934 -0.3687 -0.8231
  458MPD2    C2 6818   0.050   3.225  12.787 -0.0298 -0.2135 -0.5561
  458MPD2    C3 6819   4.644   3.271  12.776 -0.3000 -0.7677 -0.5652
  458MPD2    C4 6820   4.621   3.384  12.696 -0.1239  0.1046  0.3877
  458MPD2    C5 6821   0.005   3.444  12.635  0.1919 -0.4055 -0.6726
  458MPD2     H 6822   0.066   3.133  12.841  0.2465 -0.0559 -0.3667
  458MPD2    H1 6823   4.525   3.418  12.660 -0.0927 -2.0732 -1.6838
  458MPD2    H2 6824   0.218   3.473  12.631 -0.8244  1.8046 -0.4731
  458MPD2    H3 6825   4.700   3.528  12.574 -1.1687 -1.6427 -1.7023
  458MPD2     N 6826   4.542   3.206  12.842  0.2846 -0.5375 -0.2048
  458MPD2    H5 6827   4.568   3.133  12.908 -0.6934  0.3084  1.1171
  458MPD2    N1 6828   0.293   3.269  12.760 -0.6203 -0.0515  0.0864
  458MPD2    H7 6829   0.353   3.343  12.726  0.3333 -0.7947  0.1505
  459TMC3    C1 6830   0.472   3.207  12.905 -0.4414 -0.3578  0.0227
  459TMC3    C2 6831   0.562   3.280  12.833 -0.0581  0.0497 -0.3365
  459TMC3    C3 6832   0.675   3.326  12.907  0.3019  0.0273 -0.2797
  459TMC3    C4 6833   0.497   3.178  13.036  0.1342 -0.2522 -0.1378
  459TMC3    C5 6834   0.615   3.213  13.100  0.2643  0.2547  0.6513
  459TMC3    C6 6835   0.708   3.289  13.040  0.4788 -0.2808  0.2244
  459TMC3     C 6836   0.342   3.175  12.853 -0.3335 -0.3432 -0.3128
  459TMC3     O 6837   0.279   3.082  12.902 -0.6177  0.4300 -0.7353
  459TMC3     H 6838   0.545   3.298  12.728  0.5938  2.9098  0.0699
  459TMC3    H1 6839   0.414   3.125  13.081 -1.2955  1.4214 -0.7780
  459TMC3    H2 6840   0.808   3.313  13.076 -0.7762  2.6607  1.7622
  459TMC3    C7 6841   0.640   3.138  13.227 -0.5339 -0.4110 -0.4305
  459TMC3    C8 6842   0.777   3.401  12.835 -0.2418  0.1691 -0.3310
  459TMC3    O1 6843   0.570   3.040  13.254  0.1450 -0.9389 -0.1635
  459TMC3    O2 6844   0.884   3.423  12.889 -0.0134 -0.5514  0.1479
  460MPD2     C 6845   4.469   0.239  11.133  0.2960  0.2571 -0.0064
  460MPD2    C1 6846   4.355   0.180  11.176  0.1868  0.7147 -0.1342
  460MPD2    C2 6847   4.266   0.120  11.084  0.2372 -0.4563  0.3093
  460MPD2    C3 6848   4.275   0.153  10.953 -0.1284  0.5373 -0.2557
  460MPD2    C4 6849   4.386   0.224  10.912 -0.1329 -0.0087  0.2236
  460MPD2    C5 6850   4.477   0.268  10.996 -0.2535 -0.5129  0.1046
  460MPD2     H 6851   4.176   0.065  11.108 -1.4579  1.1645 -2.3705
  460MPD2    H1 6852   4.401   0.250  10.808 -0.2388 -2.9220 -0.5056
  460MPD2    H2 6853   4.542   0.283  11.200  0.7136  0.0290 -0.3093
  460MPD2    H3 6854   4.556   0.334  10.965  0.3285  0.2354  3.1315
  460MPD2     N 6855   4.183   0.091  10.862 -0.5934 -0.4894  0.6715
  460MPD2    H5 6856   4.104   0.039  10.901  0.2711 -1.1174  1.5950
  460MPD2    N1 6857   4.342   0.175  11.315 -0.2896  0.0924  0.0913
  460MPD2    H7 6858   4.427   0.188  11.371 -0.6969  0.1579  0.6938
  461TMC3    C1 6859   4.033   0.084  10.680  0.0821 -0.4332  0.4005
  461TMC3    C2 6860   4.052   4.678  10.631 -0.2918  0.0276  0.1656
  461TMC3    C3 6861   3.993   4.627  10.517  0.4737  0.1855  0.0694
  461TMC3    C4 6862   3.974   0.168  10.595  0.0976 -0.4501  0.4690
  461TMC3    C5 6863   3.928   0.119  10.476  0.0145 -0.1177  0.1042
  461TMC3    C6 6864   3.934   4.717  10.433 -0.1949 -0.2155  0.4660
  461TMC3     C 6865   4.158   0.138  10.739  0.0274 -0.3135  0.3979
  461TMC3     O 6866   4.201   0.241  10.686  0.2220 -0.5854 -0.3849
  461TMC3     H 6867   4.106   4.596  10.677  0.9621  1.1433  0.6730
  461TMC3    H1 6868   3.968   0.274  10.615 -0.4080 -0.2531 -0.7204
  461TMC3    H2 6869   3.888   4.685  10.340  0.1263 -2.4101  1.0539
  461TMC3    C7 6870   3.948   0.212  10.366 -0.0333 -0.4433  0.3649
  461TMC3    C8 6871   4.051   4.505  10.472  0.3210  0.2425 -0.3955
  461TMC3    O1 6872   3.888   0.187  10.264 -0.1557 -0.7547  0.2186
  461TMC3    O2 6873   4.164   4.477  10.495  0.1490  0.0323  0.2473
  462TMC3    C1 6874   0.073   1.648   0.773  0.3104  0.1926  1.0171
  462TMC3    C2 6875   0.162   1.548   0.748 -0.1829 -0.4656  0.3464
  462TMC3    C3 6876   0.123   1.439   0.681 -0.2898 -0.6583  0.9947
  462TMC3    C4 6877   4.669   1.628   0.747  0.5307 -0.6874  0.4690
  462TMC3    C5 6878   4.624   1.503   0.707 -0.0754 -0.7639 -0.7464
  462TMC3    C6 6879   4.710   1.415   0.660  0.5740  0.7265 -0.0440
  462TMC3     C 6880   0.114   1.775   0.839 -0.1634  0.4875  0.0044
  462TMC3     O 6881   0.027   1.848   0.888  0.3310  0.4369 -0.5688
  462TMC3     H 6882   0.266   1.561   0.775  0.1119  1.4381 -1.7424
  462TMC3    H1 6883   4.597   1.703   0.778  1.4017 -0.1718  1.2515
  462TMC3    H2 6884   4.675   1.315   0.636 -0.5407  0.9818  0.5288
  462TMC3    C7 6885   4.483   1.464   0.726  0.0561  0.4197 -0.3307
  462TMC3    C8 6886   0.222   1.336   0.647  0.2945 -0.2548 -0.2543
  462TMC3    O1 6887   4.451   1.353   0.687 -0.0695  0.3781 -0.1558
  462TMC3    O2 6888   0.331   1.336   0.703  0.1261  0.2685  0.8225
  463MPD2     C 6889   0.622   4.205   2.412 -0.1711 -0.0977  0.0753
  463MPD2    C1 6890   0.545   4.311   2.371 -0.6341  0.3543  0.5221
  463MPD2    C2 6891   0.592   4.442   2.366  1.0793  0.1238 -0.6447
  463MPD2    C3 6892   0.718   4.462   2.407 -0.1552  0.3189  0.3827
  463MPD2    C4 6893   0.794   4.359   2.452  0.3360 -0.1509  0.5178
  463MPD2    C5 6894   0.749   4.233   2.443  0.2017 -0.4086 -0.0726
  463MPD2     H 6895   0.535   4.527   2.330  0.5183 -0.7491 -1.8036
  463MPD2    H1 6896   0.898   4.372   2.480  0.1919  0.7977  0.6158
  463MPD2    H2 6897   0.591   4.103   2.428 -1.0351  0.1112 -0.2344
  463MPD2    H3 6898   0.823   4.157   2.466  0.6069 -0.0744 -0.2837
  463MPD2     N 6899   0.784   4.590   2.392  0.4355  0.3117  0.2994
  463MPD2    H5 6900   0.884   4.594   2.407  0.4490  0.8589  0.0654
  463MPD2    N1 6901   0.412   4.296   2.336  0.6766 -0.4405  0.3099
  463MPD2    H7 6902   0.357   4.379   2.352  3.6650  1.1352  2.3560
  464TMC3    C1 6903   0.240   4.228   2.181 -0.3059 -0.5509 -0.2680
  464TMC3    C2 6904   0.176   4.346   2.200 -0.1354  0.4514  0.6493
  464TMC3    C3 6905   0.064   4.370   2.120  0.4395 -0.5123  0.2419
  464TMC3    C4 6906   0.197   4.132   2.099  0.1584 -0.4835 -0.5822
  464TMC3    C5 6907   0.091   4.161   2.026  0.1221  0.0307 -1.1337
  464TMC3    C6 6908   0.026   4.280   2.028 -0.3497 -0.0036 -0.2824
  464TMC3     C 6909   0.364   4.196   2.256 -0.0980 -0.0112  0.6798
  464TMC3     O 6910   0.431   4.103   2.212  0.0457  0.1745  0.4814
  464TMC3     H 6911   0.217   4.431   2.255  1.1755  1.1563 -1.4126
  464TMC3    H1 6912   0.251   4.038   2.096  0.8245 -0.0718 -1.6071
  464TMC3    H2 6913   4.675   4.311   1.958 -0.6887  0.2792  0.2133
  464TMC3    C7 6914   0.045   4.052   1.935  0.7375 -0.1393 -0.6714
  464TMC3    C8 6915   0.025   4.504   2.087  0.2721  0.4270 -0.3165
  464TMC3    O1 6916   0.123   3.959   1.917 -0.2742  0.5887 -0.1446
  464TMC3    O2 6917   0.004   4.533   1.970  1.1322 -0.5154  0.2513
  465MPD2     C 6918   2.153   3.393  17.435 -1.0424  0.0143 -0.1700
  465MPD2    C1 6919   2.032   3.331  17.451 -0.0427  0.3347  1.0846
  465MPD2    C2 6920   1.924   3.366  17.374  0.3414 -0.4568  0.8052
  465MPD2    C3 6921   1.939   3.465  17.284  0.2370 -0.6706 -0.1339
  465MPD2    C4 6922   2.068   3.520  17.263  0.5711 -0.0026  0.4559
  465MPD2    C5 6923   2.180   3.477  17.330  0.2455 -0.2855  0.6685
  465MPD2     H 6924   1.826   3.321  17.383  1.5953 -2.9631  1.8427
  465MPD2    H1 6925   2.089   3.606  17.200 -1.3154  0.6443  0.7017
  465MPD2    H2 6926   2.239   3.372  17.498  0.4345  0.8687 -1.9263
  465MPD2    H3 6927   2.278   3.520  17.312 -0.5353  1.4582  0.5822
  465MPD2     N 6928   1.824   3.499  17.211 -0.5498 -0.0951  0.3998
  465MPD2    H5 6929   1.736   3.478  17.257 -0.2842 -0.4782  0.7262
  465MPD2    N1 6930   2.006   3.236  17.554 -0.1247 -0.3705  0.3322
  465MPD2    H7 6931   1.909   3.206  17.561 -0.8181  2.0597  1.2737
  466TMC3    C1 6932   1.467   3.563  17.024 -0.0409 -0.5135  0.1348
  466TMC3    C2 6933   1.456   3.683  16.956 -0.2003 -1.1475 -0.1321
  466TMC3    C3 6934   1.567   3.742  16.906  0.2638  0.7277  0.2194
  466TMC3    C4 6935   1.590   3.513  17.059  0.0526  0.0952 -0.1808
  466TMC3    C5 6936   1.702   3.583  17.021  0.0755  0.4667 -0.2874
  466TMC3    C6 6937   1.692   3.690  16.937  0.0964  0.4078  0.0135
  466TMC3     C 6938   1.361   3.525  17.115 -0.2414  0.0497 -0.0749
  466TMC3     O 6939   1.400   3.477  17.221 -0.4862  0.8488 -0.2426
  466TMC3     H 6940   1.357   3.715  16.925 -0.1044  1.1518  1.8568
  466TMC3    H1 6941   1.589   3.428  17.126 -1.6438  0.4670  0.2701
  466TMC3    H2 6942   1.780   3.751  16.917  0.4602 -1.1591 -3.1024
  466TMC3    C7 6943   1.828   3.574  17.096 -0.5349 -0.4366 -0.5421
  466TMC3    C8 6944   1.552   3.874  16.854  0.4332 -0.5084 -0.4765
  466TMC3    O1 6945   1.924   3.633  17.048  0.7626  0.0915 -0.1711
  466TMC3    O2 6946   1.639   3.907  16.771 -0.8320  0.0040 -0.9679
  467TMC3    C1 6947   2.337   2.521  14.129  0.1761  1.1058 -0.9317
  467TMC3    C2 6948   2.272   2.524  14.012  0.0195 -0.5869  0.0570
  467TMC3    C3 6949   2.146   2.472  14.010  0.6840  0.3290 -0.4183
  467TMC3    C4 6950   2.281   2.476  14.242  0.1475 -0.0795 -0.1030
  467TMC3    C5 6951   2.154   2.438  14.242 -0.7532  0.1777  0.6143
  467TMC3    C6 6952   2.082   2.434  14.124  0.0527 -0.1406  0.3816
  467TMC3     C 6953   2.469   2.576  14.132 -0.1282  0.3209 -0.5110
  467TMC3     O 6954   2.516   2.600  14.243 -0.5565  0.1769 -0.5105
  467TMC3     H 6955   2.309   2.591  13.936  1.4626 -0.4006  0.9204
  467TMC3    H1 6956   2.320   2.506  14.339  0.7882 -0.1799 -0.3285
  467TMC3    H2 6957   1.989   2.379  14.127 -0.0944  0.1026  0.3137
  467TMC3    C7 6958   2.092   2.404  14.377 -0.1224 -0.5601 -0.1109
  467TMC3    C8 6959   2.087   2.474  13.878 -0.1961  0.2516 -0.1074
  467TMC3    O1 6960   2.173   2.394  14.466 -0.2904  0.3729 -0.0332
  467TMC3    O2 6961   2.157   2.486  13.774 -0.1402  0.0237  0.0336
  468MPD2     C 6962   1.032   0.770  11.405 -0.2851  0.4653 -0.1600
  468MPD2    C1 6963   1.167   0.752  11.403  0.1521  0.8644 -0.7676
  468MPD2    C2 6964   1.225   0.667  11.314 -0.0769  0.2973 -0.0566
  468MPD2    C3 6965   1.150   0.602  11.220 -0.0464 -0.0330  0.0711
  468MPD2    C4 6966   1.019   0.628  11.208  0.2855 -0.6793  0.1079
  468MPD2    C5 6967   0.959   0.709  11.304 -0.2684  0.7131  0.1863
  468MPD2     H 6968   1.330   0.643  11.315 -0.6071 -1.9434  1.7228
  468MPD2    H1 6969   0.958   0.579  11.134 -0.0392  2.1401 -1.4726
  468MPD2    H2 6970   0.972   0.837  11.466  0.8324  2.9033 -1.6998
  468MPD2    H3 6971   0.853   0.723  11.286 -0.5768 -1.4595  0.3049
  468MPD2     N 6972   1.211   0.513  11.124 -0.0483  0.6403  0.2203
  468MPD2    H5 6973   1.154   0.481  11.046  1.2385  0.2809 -0.5677
  468MPD2    N1 6974   1.251   0.812  11.495 -0.0399 -0.0916 -0.6892
  468MPD2    H7 6975   1.348   0.785  11.490  0.7071  2.7816 -1.6661
  469TMC3    C1 6976   1.340   0.937  11.671  0.2253 -0.3379  0.5001
  469TMC3    C2 6977   1.464   0.911  11.617  0.5634  0.2604 -0.6648
  469TMC3    C3 6978   1.568   0.915  11.705  0.3784  0.2542  0.2864
  469TMC3    C4 6979   1.318   0.960  11.803  0.2219 -0.3608 -0.0462
  469TMC3    C5 6980   1.431   0.956  11.882  0.8940  0.1981 -0.3070
  469TMC3    C6 6981   1.554   0.936  11.834  0.7835  0.6206 -0.6350
  469TMC3     C 6982   1.221   0.903  11.596  0.4679  0.9986  0.0865
  469TMC3     O 6983   1.119   0.961  11.624 -0.3856 -0.2028  0.3404
  469TMC3     H 6984   1.465   0.897  11.510 -0.5201  0.9298 -0.7640
  469TMC3    H1 6985   1.218   0.980  11.839  0.2265  1.0698 -0.8059
  469TMC3    H2 6986   1.637   0.926  11.903  0.6086  0.2954 -0.4732
  469TMC3    C7 6987   1.407   0.994  12.021  0.4342 -0.6110 -1.1502
  469TMC3    C8 6988   1.689   0.853  11.657  0.5509 -0.5945 -0.4140
  469TMC3    O1 6989   1.296   0.957  12.061  0.0239 -0.0988  0.6725
  469TMC3    O2 6990   1.675   0.780  11.557  0.1045 -0.2236  0.5771
  470TMC3    C1 6991   3.792   1.515   1.099 -0.8857  0.4841  0.5388
  470TMC3    C2 6992   3.766   1.647   1.126 -0.0570  0.1416 -0.8693
  470TMC3    C3 6993   3.866   1.723   1.176 -0.4011 -0.1842  0.2032
  470TMC3    C4 6994   3.916   1.468   1.103  0.0129 -0.0099  0.2680
  470TMC3    C5 6995   4.011   1.545   1.164 -0.9684 -0.1562  0.4802
  470TMC3    C6 6996   3.992   1.677   1.198  0.5801 -0.2933 -0.0914
  470TMC3     C 6997   3.687   1.438   1.029  0.6850  0.2532  0.6885
  470TMC3     O 6998   3.595   1.494   0.976  0.4079 -0.0301 -0.6677
  470TMC3     H 6999   3.665   1.685   1.113  0.0622  1.1079  0.9738
  470TMC3    H1 7000   3.946   1.373   1.059  1.9141  0.0493  1.4164
  470TMC3    H2 7001   4.070   1.749   1.221  0.4551 -0.1432 -0.1418
  470TMC3    C7 7002   4.151   1.492   1.168  0.3380  0.0203  0.2833
  470TMC3    C8 7003   3.851   1.866   1.204  0.2438 -0.9415  0.3869
  470TMC3    O1 7004   4.234   1.578   1.157  0.7076 -0.5496  0.7315
  470TMC3    O2 7005   3.931   1.930   1.273  0.5574  0.3500  0.2037
  471MPD2     C 7006   4.242   2.830  17.187  0.0747  0.6279 -0.0329
  471MPD2    C1 7007   4.258   2.703  17.146 -0.7151 -0.1817 -0.0944
  471MPD2    C2 7008   4.327   2.622  17.227 -0.0372 -0.1326 -0.3372
  471MPD2    C3 7009   4.404   2.670  17.332  0.2126 -0.1868  0.2068
  471MPD2    C4 7010   4.378   2.796  17.376  0.2341  0.6490 -0.2044
  471MPD2    C5 7011   4.304   2.878  17.298 -0.3288 -0.3941 -0.0016
  471MPD2     H 7012   4.321   2.517  17.202  2.5180  0.4848 -3.6183
  471MPD2    H1 7013   4.428   2.829  17.466 -2.1761 -0.6708  1.6007
  471MPD2    H2 7014   4.177   2.898  17.134 -0.8270 -0.5281 -0.4240
  471MPD2    H3 7015   4.279   2.979  17.326  0.5672 -0.7032  1.8902
  471MPD2     N 7016   4.474   2.580  17.410 -0.1963 -0.4676 -0.3900
  471MPD2    H5 7017   4.530   2.615  17.487  0.5057 -0.0006 -1.1260
  471MPD2    N1 7018   4.198   2.654  17.033  0.2945  0.3029 -0.5046
  471MPD2    H7 7019   4.220   2.558  17.011  1.1361  0.0910  1.2580
  472TMC3    C1 7020   4.031   2.626  16.863  0.2547 -0.3568  0.0734
  472TMC3    C2 7021   3.920   2.680  16.798  1.1016 -0.0545  1.1376
  472TMC3    C3 7022   3.839   2.593  16.729  0.4374 -0.6168 -0.7758
  472TMC3    C4 7023   4.052   2.492  16.876  1.3899  0.0186  0.6469
  472TMC3    C5 7024   3.968   2.407  16.811 -0.0148 -0.3445 -0.4921
  472TMC3    C6 7025   3.865   2.460  16.735 -0.6566 -0.6004  0.3039
  472TMC3     C 7026   4.085   2.708  16.976  0.1354 -0.6569  0.5350
  472TMC3     O 7027   4.021   2.811  16.996  0.2815 -0.4410 -0.3577
  472TMC3     H 7028   3.886   2.783  16.802 -1.6755 -0.9860  1.6882
  472TMC3    H1 7029   4.123   2.443  16.941 -0.7008 -0.0697  2.8357
  472TMC3    H2 7030   3.796   2.396  16.681  0.2856  0.3396 -2.0298
  472TMC3    C7 7031   3.956   2.270  16.859 -0.4592  0.2193  0.1437
  472TMC3    C8 7032   3.705   2.644  16.720 -0.2606 -0.1018 -0.4899
  472TMC3    O1 7033   4.003   2.230  16.962  0.4107 -0.1229  0.2384
  472TMC3    O2 7034   3.681   2.759  16.684  0.1192 -0.0832  0.0807
  473MPD2     C 7035   3.845   0.210  14.608 -0.5192  0.4992 -0.4564
  473MPD2    C1 7036   3.873   0.323  14.532 -0.3512 -0.5701 -0.2356
  473MPD2    C2 7037   3.945   0.422  14.597  0.0170 -0.3157 -0.2063
  473MPD2    C3 7038   3.952   0.424  14.735  0.6211 -1.1203 -1.0291
  473MPD2    C4 7039   3.903   0.320  14.809  0.6124 -0.4531  0.3942
  473MPD2    C5 7040   3.865   0.202  14.741 -0.6748 -0.2921  0.6101
  473MPD2     H 7041   3.980   0.508  14.540  0.6643  0.9846  2.1360
  473MPD2    H1 7042   3.896   0.306  14.917  1.0659  0.8688  0.5910
  473MPD2    H2 7043   3.817   0.117  14.561  0.3734  0.4173 -0.8287
  473MPD2    H3 7044   3.842   0.115  14.802 -0.8170  0.9073  2.2533
  473MPD2     N 7045   3.994   0.531  14.815  0.5933  0.6341  0.2986
  473MPD2    H5 7046   4.007   0.506  14.913  0.8103  1.6602  0.5361
  473MPD2    N1 7047   3.848   0.330  14.392  0.0303  0.2815 -0.6084
  473MPD2    H7 7048   3.882   0.418  14.353  0.4499 -0.7543 -2.5963
  474TMC3    C1 7049   4.035   0.750  14.882 -0.5494  0.4351  0.2031
  474TMC3    C2 7050   3.972   0.867  14.884 -0.0561 -0.0713 -0.6650
  474TMC3    C3 7051   4.000   0.948  14.993 -0.5127 -0.7430  0.6880
  474TMC3    C4 7052   4.126   0.704  14.973  0.0405 -0.2472  0.2995
  474TMC3    C5 7053   4.161   0.802  15.067 -0.2800 -0.6403 -0.4833
  474TMC3    C6 7054   4.103   0.922  15.074  0.5400 -0.7473  0.2701
  474TMC3     C 7055   3.999   0.662  14.772 -0.4530 -0.3008  0.1946
  474TMC3     O 7056   3.956   0.718  14.673  0.1455 -0.3041  0.2475
  474TMC3     H 7057   3.896   0.883  14.809  1.5711 -0.8686 -2.4820
  474TMC3    H1 7058   4.179   0.611  14.957  1.0648  0.6699 -1.6177
  474TMC3    H2 7059   4.132   0.995  15.147 -0.7121  0.1808 -0.1686
  474TMC3    C7 7060   4.301   0.818  15.090 -0.1696 -0.5624  0.0445
  474TMC3    C8 7061   3.938   1.076  15.010  0.5294 -0.3655 -0.0792
  474TMC3    O1 7062   4.368   0.791  14.993 -0.1482  0.2764  0.5199
  474TMC3    O2 7063   3.985   1.148  15.100  0.5135 -0.0652  0.3551
  475MPD2     C 7064   1.743   3.458  11.032  0.1914 -0.1894  0.2796
  475MPD2    C1 7065   1.763   3.391  10.912 -0.3311  0.0793 -0.0198
  475MPD2    C2 7066   1.671   3.288  10.875  0.2559 -0.5432  0.0966
  475MPD2    C3 7067   1.578   3.242  10.965  0.3412  0.3790  0.3303
  475MPD2    C4 7068   1.567   3.306  11.086  0.0470  0.3384 -0.3687
  475MPD2    C5 7069   1.641   3.420  11.116 -0.3536  1.4780 -0.2197
  475MPD2     H 7070   1.691   3.238  10.781 -0.6603 -2.6379  1.0381
  475MPD2    H1 7071   1.496   3.287  11.166  1.0442 -2.2745 -0.1186
  475MPD2    H2 7072   1.814   3.530  11.069  1.1291 -1.3503  0.7184
  475MPD2    H3 7073   1.618   3.477  11.205  3.6346 -0.2498  1.9191
  475MPD2     N 7074   1.489   3.138  10.925 -0.0376  0.8783 -0.9855
  475MPD2    H5 7075   1.495   3.103  10.830  0.4345 -2.7665  0.3620
  475MPD2    N1 7076   1.886   3.419  10.841 -0.2495 -0.6618 -0.2756
  475MPD2    H7 7077   1.944   3.484  10.894 -1.0120 -0.2298  0.0264
  476TMC3    C1 7078   2.066   3.400  10.686  0.6837  0.3010  0.5445
  476TMC3    C2 7079   2.108   3.335  10.570 -0.2778 -0.0635  0.4968
  476TMC3    C3 7080   2.242   3.334  10.547 -0.4805  0.4322  0.0638
  476TMC3    C4 7081   2.152   3.446  10.782  0.5263 -0.4663  0.1472
  476TMC3    C5 7082   2.289   3.441  10.760 -0.4964  0.2501 -0.4362
  476TMC3    C6 7083   2.327   3.380  10.644 -0.4456 -0.2783  0.0764
  476TMC3     C 7084   1.925   3.373  10.724 -0.3410 -0.2755  0.7225
  476TMC3     O 7085   1.866   3.291  10.654  0.2252 -0.1527  0.3224
  476TMC3     H 7086   2.040   3.275  10.510 -0.0053 -0.6366  0.7642
  476TMC3    H1 7087   2.111   3.511  10.859  2.2143  1.9406 -0.9763
  476TMC3    H2 7088   2.432   3.357  10.635 -0.1345  1.3360 -0.4173
  476TMC3    C7 7089   2.387   3.456  10.870  0.1844  0.3986 -0.7357
  476TMC3    C8 7090   2.289   3.249  10.444 -0.0200  0.3881 -0.0241
  476TMC3    O1 7091   2.499   3.444  10.828 -0.3526 -0.3061 -0.3229
  476TMC3    O2 7092   2.210   3.160  10.412 -0.5060  0.1968 -0.0702
  477MPD2     C 7093   4.470   4.504  11.964  0.5571  0.3365 -0.5740
  477MPD2    C1 7094   4.415   4.458  12.085 -0.0937 -0.2446 -0.1690
  477MPD2    C2 7095   4.502   4.419  12.185  0.0838 -1.0391 -0.0863
  477MPD2    C3 7096   4.642   4.416  12.150  0.5026  0.0103  0.6014
  477MPD2    C4 7097   4.694   4.468  12.031  0.2696 -0.2658  0.0268
  477MPD2    C5 7098   4.609   4.511  11.939  0.2317 -0.5906 -0.3595
  477MPD2     H 7099   4.479   4.388  12.287 -0.3632  3.4868  1.1865
  477MPD2    H1 7100   0.075   4.478  12.013 -0.2024  1.4093 -1.8004
  477MPD2    H2 7101   4.412   4.538  11.879 -0.0341 -3.6198 -1.7164
  477MPD2    H3 7102   4.642   4.554  11.845 -5.1031  0.3768 -1.8027
  477MPD2     N 7103   0.010   4.366  12.246 -0.3423  0.8210 -0.5487
  477MPD2    H5 7104   4.687   4.331  12.328  2.6582  0.3014  0.9683
  477MPD2    N1 7105   4.275   4.455  12.103  0.0731  0.3004 -0.7843
  477MPD2    H7 7106   4.216   4.505  12.038 -0.5383 -2.5527 -2.4035
  478TMC3    C1 7107   4.070   4.436  12.191  0.5416 -0.0790 -0.4866
  478TMC3    C2 7108   4.044   4.540  12.276 -0.3644 -0.0173 -0.0064
  478TMC3    C3 7109   3.982   4.653  12.230 -0.8895 -0.0941  0.1193
  478TMC3    C4 7110   4.038   4.447  12.055 -0.4930  0.0699 -0.6352
  478TMC3    C5 7111   3.962   4.551  12.018  0.2702 -0.1719 -0.3550
  478TMC3    C6 7112   3.946   4.663  12.096 -0.6061  0.3257 -0.1668
  478TMC3     C 7113   4.209   4.413  12.218 -0.1994  0.1532 -0.1728
  478TMC3     O 7114   4.247   4.391  12.333  0.6077  0.1836 -0.3092
  478TMC3     H 7115   4.088   4.535  12.375 -0.1736  0.9475 -0.0451
  478TMC3    H1 7116   4.061   4.362  11.992  1.2617  0.2630 -0.2377
  478TMC3    H2 7117   3.890   0.026  12.066 -1.3535  0.0414  0.3845
  478TMC3    C7 7118   3.992   4.559  11.877  0.6591  0.3388  0.0609
  478TMC3    C8 7119   4.009   0.049  12.308 -0.3904  0.1175 -0.3088
  478TMC3    O1 7120   4.110   4.539  11.843 -0.8065  0.2934  0.4736
  478TMC3    O2 7121   4.001   0.039  12.428  0.2960 -0.2081 -0.2852
  479MPD2     C 7122   3.822   1.738  15.390  0.5760  0.9775  0.4847
  479MPD2    C1 7123   3.768   1.753  15.519 -0.1804 -0.7751  0.1232
  479MPD2    C2 7124   3.840   1.825  15.613 -0.3420 -0.0453 -0.3776
  479MPD2    C3 7125   3.965   1.874  15.582  0.0147  0.0054 -0.0114
  479MPD2    C4 7126   4.012   1.867  15.450  0.1219  0.2435  0.7062
  479MPD2    C5 7127   3.941   1.792  15.358  0.1632 -0.9130  0.1848
  479MPD2     H 7128   3.796   1.850  15.709  2.1761  0.8255  0.5285
  479MPD2    H1 7129   4.096   1.925  15.415  0.3224 -0.6109 -0.2177
  479MPD2    H2 7130   3.759   1.688  15.317  0.7260  0.9378  0.3830
  479MPD2    H3 7131   3.974   1.793  15.254  0.5050 -0.5790  0.2990
  479MPD2     N 7132   4.030   1.956  15.674 -0.3515  0.0903  0.2926
  479MPD2    H5 7133   4.097   2.019  15.631  2.2694 -1.1188  2.5488
  479MPD2    N1 7134   3.634   1.709  15.529  0.1908  0.1966 -0.1124
  479MPD2    H7 7135   3.593   1.679  15.441  1.9451  2.3648 -1.6852
  480TMC3    C1 7136   3.975   2.265  16.002  0.5279 -0.2277  0.4584
  480TMC3    C2 7137   4.008   2.361  15.913  0.3102 -0.3817  0.3144
  480TMC3    C3 7138   4.076   2.323  15.804 -0.6906  0.5373 -0.0516
  480TMC3    C4 7139   4.009   2.136  15.989 -0.5506  0.2046 -0.3559
  480TMC3    C5 7140   4.055   2.090  15.869 -0.3944 -0.1904 -0.1321
  480TMC3    C6 7141   4.093   2.188  15.777 -0.1471 -0.3122  0.2111
  480TMC3     C 7142   3.876   2.292  16.101 -0.0482  0.6283  0.2795
  480TMC3     O 7143   3.802   2.196  16.130  0.0068 -0.0476  0.2740
  480TMC3     H 7144   3.975   2.464  15.922  0.3081 -0.3613  0.0875
  480TMC3    H1 7145   3.981   2.061  16.063 -0.9978  1.3819  0.6705
  480TMC3    H2 7146   4.147   2.161  15.686  0.5001 -1.1104  0.8337
  480TMC3    C7 7147   4.001   1.969  15.812  0.2044  0.1487  0.3444
  480TMC3    C8 7148   4.042   2.407  15.685 -1.2251  0.5349 -0.5256
  480TMC3    O1 7149   3.928   1.898  15.882 -0.0528 -0.5614  0.5323
  480TMC3    O2 7150   4.037   2.531  15.701 -0.6635 -0.0813 -0.8789
  481MPD2     C 7151   0.483   0.939  14.949  0.0700  0.4126 -0.7633
  481MPD2    C1 7152   0.517   1.064  14.902 -0.1674 -0.4921  0.5510
  481MPD2    C2 7153   0.525   1.168  14.990 -0.8423 -0.4392 -0.3054
  481MPD2    C3 7154   0.516   1.144  15.127 -0.3938  0.3505 -0.0944
  481MPD2    C4 7155   0.511   1.021  15.174 -0.1695 -0.4603 -0.8735
  481MPD2    C5 7156   0.492   0.923  15.084 -0.1670  0.5932 -0.1220
  481MPD2     H 7157   0.538   1.269  14.954 -2.4108 -0.0943  0.0906
  481MPD2    H1 7158   0.509   1.003  15.281 -0.6607 -2.6201 -1.2359
  481MPD2    H2 7159   0.464   0.853  14.885 -1.2365 -1.3549  2.0309
  481MPD2    H3 7160   0.487   0.826  15.132 -0.7319  0.3721 -0.6162
  481MPD2     N 7161   0.509   1.255  15.216  0.1445 -0.0994 -0.2513
  481MPD2    H5 7162   0.490   1.230  15.312 -1.1587 -0.7426 -0.6728
  481MPD2    N1 7163   0.540   1.084  14.763  0.2271  0.2712 -0.4405
  481MPD2    H7 7164   0.521   1.002  14.707 -0.1167 -0.6600  1.0446
  482TMC3    C1 7165   0.614   1.192  14.566 -0.5486  0.3165  0.1764
  482TMC3    C2 7166   0.629   1.072  14.504  0.5188 -0.3806  0.7591
  482TMC3    C3 7167   0.668   1.073  14.372  0.2850  0.9612 -0.4547
  482TMC3    C4 7168   0.645   1.312  14.500  0.5393  0.2874  0.5528
  482TMC3    C5 7169   0.686   1.302  14.370  0.6258  0.3861  0.3053
  482TMC3    C6 7170   0.693   1.186  14.300 -0.5046  0.2775  0.0338
  482TMC3     C 7171   0.564   1.205  14.699  0.4759 -0.3085  0.4010
  482TMC3     O 7172   0.555   1.319  14.748  0.3407 -0.6167 -0.6009
  482TMC3     H 7173   0.619   0.975  14.553 -1.2674 -1.3581 -1.5482
  482TMC3    H1 7174   0.645   1.408  14.551 -2.9218  0.0550  0.9805
  482TMC3    H2 7175   0.723   1.180  14.196  0.1737 -0.2505  0.2617
  482TMC3    C7 7176   0.708   1.424  14.307  0.1492 -0.4811  0.4386
  482TMC3    C8 7177   0.621   0.948  14.297 -0.0004  0.2916 -0.1782
  482TMC3    O1 7178   0.747   1.514  14.381  0.2770  0.2318  0.0934
  482TMC3    O2 7179   0.545   0.875  14.359 -0.3597 -0.0431 -0.0802
  483TMC3    C1 7180   3.099   0.438   1.261  0.1846 -0.8166 -0.6696
  483TMC3    C2 7181   3.203   0.511   1.216 -0.1572  0.8264 -0.4708
  483TMC3    C3 7182   3.330   0.474   1.257 -0.3776  0.0170 -0.9554
  483TMC3    C4 7183   3.113   0.338   1.353  0.0987  0.3290 -0.7690
  483TMC3    C5 7184   3.237   0.328   1.414  0.6193 -0.7219  0.8352
  483TMC3    C6 7185   3.346   0.387   1.358  0.3210  0.8967 -0.6675
  483TMC3     C 7186   2.968   0.474   1.220 -0.2373  0.0067 -0.1142
  483TMC3     O 7187   2.959   0.547   1.119  0.4993  0.1818  0.3889
  483TMC3     H 7188   3.187   0.589   1.143 -2.8930 -0.6484 -1.4473
  483TMC3    H1 7189   3.029   0.276   1.383 -1.5957  3.1151  0.2134
  483TMC3    H2 7190   3.446   0.365   1.392 -0.2153  0.6882  0.7779
  483TMC3    C7 7191   3.280   0.217   1.488 -0.3154  0.5254  0.3525
  483TMC3    C8 7192   3.438   0.557   1.213  0.7210 -0.4328 -0.9212
  483TMC3    O1 7193   3.386   0.172   1.458  0.4012  0.4721 -0.3723
  483TMC3    O2 7194   3.420   0.615   1.108 -0.0735  0.2158  0.2908
  484MPD2     C 7195   0.737   3.575  12.516  0.3727  0.0415 -0.0974
  484MPD2    C1 7196   0.809   3.517  12.618 -0.0358 -0.1201  0.0467
  484MPD2    C2 7197   0.949   3.507  12.609  0.0806  1.0665 -0.5902
  484MPD2    C3 7198   1.013   3.571  12.504 -0.5570 -0.6547 -0.5226
  484MPD2    C4 7199   0.931   3.641  12.416 -0.4577 -0.4052 -0.2859
  484MPD2    C5 7200   0.802   3.632  12.417  0.3393 -0.7200  0.3763
  484MPD2     H 7201   1.002   3.457  12.689 -0.3296  1.2095 -0.2310
  484MPD2    H1 7202   0.976   3.701  12.337 -0.3061 -1.2135 -0.8136
  484MPD2    H2 7203   0.629   3.574  12.520  0.3840 -1.0316  0.1007
  484MPD2    H3 7204   0.740   3.685  12.345  1.1908  0.1686  0.2957
  484MPD2     N 7205   1.146   3.568  12.484  0.2608 -0.2538  0.2730
  484MPD2    H5 7206   1.172   3.620  12.401 -2.2134 -0.5671 -0.6826
  484MPD2    N1 7207   0.733   3.453  12.716  0.1723  0.8722 -0.1491
  484MPD2    H7 7208   0.632   3.449  12.707  0.0142  2.8757  0.7452
  485TMC3    C1 7209   1.371   3.514  12.495  0.0246  0.3156  0.3558
  485TMC3    C2 7210   1.466   3.427  12.536  0.4676  0.1673  0.0950
  485TMC3    C3 7211   1.593   3.475  12.556 -0.1318  0.6036 -0.8411
  485TMC3    C4 7212   1.391   3.639  12.446  0.1666 -0.5011 -1.0415
  485TMC3    C5 7213   1.520   3.677  12.456 -0.3742  0.1626  0.5136
  485TMC3    C6 7214   1.616   3.597  12.506 -0.3324  0.3485  0.5645
  485TMC3     C 7215   1.240   3.480  12.538 -0.0505 -0.3049  0.4779
  485TMC3     O 7216   1.221   3.388  12.619 -0.3309 -0.4383  0.5293
  485TMC3     H 7217   1.448   3.322  12.554 -0.7023  0.6942  1.9282
  485TMC3    H1 7218   1.312   3.700  12.404  0.3820  0.1820 -0.4400
  485TMC3    H2 7219   1.717   3.637  12.505  0.9481 -3.1007 -4.1791
  485TMC3    C7 7220   1.565   3.737  12.327 -0.0957 -0.3820 -0.1372
  485TMC3    C8 7221   1.697   3.404  12.494  0.3533 -0.5930  0.2129
  485TMC3    O1 7222   1.505   3.834  12.289  0.1548  0.1816  0.0763
  485TMC3    O2 7223   1.716   3.431  12.374 -0.5568 -0.4406  0.1641
  486MPD2     C 7224   3.647   2.587  13.548 -0.4010  0.4835  0.0560
  486MPD2    C1 7225   3.590   2.537  13.432 -0.2171  1.0884  0.0274
  486MPD2    C2 7226   3.462   2.586  13.401  1.1229  0.1471  0.0243
  486MPD2    C3 7227   3.394   2.674  13.485  0.1974  0.0342  0.3240
  486MPD2    C4 7228   3.458   2.722  13.596  0.9306  0.2151  0.4182
  486MPD2    C5 7229   3.586   2.678  13.624  0.5464  0.2780  0.3809
  486MPD2     H 7230   3.408   2.550  13.314 -0.1568 -0.6970  1.1691
  486MPD2    H1 7231   3.423   2.808  13.652  0.3101 -0.3463  0.8912
  486MPD2    H2 7232   3.746   2.559  13.583 -1.9504 -1.6844  2.7243
  486MPD2    H3 7233   3.645   2.723  13.703 -0.1189  1.4415  0.2214
  486MPD2     N 7234   3.261   2.704  13.445  0.2190  0.6815 -0.4074
  486MPD2    H5 7235   3.233   2.682  13.350  1.5286  1.1829 -0.9095
  486MPD2    N1 7236   3.656   2.433  13.357  0.1693  0.6498 -0.7215
  486MPD2    H7 7237   3.742   2.398  13.397 -0.1333 -0.1479 -0.7874
  487TMC3    C1 7238   3.657   2.258  13.190  0.5269 -0.4486  0.3465
  487TMC3    C2 7239   3.619   2.217  13.062  0.6687  0.0577 -0.1323
  487TMC3    C3 7240   3.605   2.084  13.037 -0.0215 -0.6669  0.1865
  487TMC3    C4 7241   3.681   2.160  13.284 -0.5423 -0.0074  0.0883
  487TMC3    C5 7242   3.679   2.030  13.251 -0.2593 -0.0503 -0.5152
  487TMC3    C6 7243   3.675   1.992  13.120  0.3041  0.4390 -0.1528
  487TMC3     C 7244   3.603   2.384  13.240 -0.0806 -0.3208 -0.0091
  487TMC3     O 7245   3.530   2.440  13.159 -0.7135 -0.5263 -0.3654
  487TMC3     H 7246   3.574   2.294  13.001  0.2515  1.5589  2.0905
  487TMC3    H1 7247   3.680   2.188  13.388  3.2451 -1.1694  0.4293
  487TMC3    H2 7248   3.662   1.885  13.103  0.1574  0.0173  2.5838
  487TMC3    C7 7249   3.578   1.956  13.328 -0.4028 -0.1677  0.5655
  487TMC3    C8 7250   3.467   2.048  13.031  0.3143 -0.3404  0.2116
  487TMC3    O1 7251   3.599   1.831  13.337  0.0891  0.1690 -0.4254
  487TMC3    O2 7252   3.394   2.133  13.080 -0.2521 -1.0144  0.1954
  488MPD2     C 7253   3.195   3.555  16.688  0.0545 -0.4218 -0.2621
  488MPD2    C1 7254   3.296   3.626  16.750  0.5709  0.4057 -0.0902
  488MPD2    C2 7255   3.287   3.617  16.888 -0.4520  0.4731 -0.0941
  488MPD2    C3 7256   3.202   3.522  16.953  0.0850 -0.2845 -0.0113
  488MPD2    C4 7257   3.101   3.453  16.886 -0.0810 -0.6215  0.6945
  488MPD2    C5 7258   3.096   3.479  16.750 -0.0745  0.3028  0.2430
  488MPD2     H 7259   3.359   3.672  16.947 -0.9878  0.0068  0.9951
  488MPD2    H1 7260   3.023   3.397  16.937 -3.4004  2.3381 -1.0713
  488MPD2    H2 7261   3.185   3.552  16.580  0.8754 -0.0349 -0.3504
  488MPD2    H3 7262   3.025   3.431  16.683  1.6373 -0.8462 -0.7405
  488MPD2     N 7263   3.219   3.521  17.098  0.0233 -0.1635 -0.6028
  488MPD2    H5 7264   3.278   3.591  17.140 -0.5119  1.4773 -2.6078
  488MPD2    N1 7265   3.388   3.715  16.694 -0.1017  0.0759  0.3737
  488MPD2    H7 7266   3.441   3.772  16.758  2.6121 -0.3234 -1.5430
  489TMC3    C1 7267   3.203   3.456  17.317 -0.5686  0.3424  0.3503
  489TMC3    C2 7268   3.282   3.568  17.353  1.0606 -0.0897 -0.3532
  489TMC3    C3 7269   3.323   3.586  17.479  0.3984  0.0857 -0.3270
  489TMC3    C4 7270   3.150   3.374  17.419  0.1177  0.4079  0.0499
  489TMC3    C5 7271   3.189   3.412  17.545 -0.3709 -0.1009  0.0729
  489TMC3    C6 7272   3.263   3.521  17.580 -0.1626 -0.2072 -0.3294
  489TMC3     C 7273   3.166   3.426  17.183  0.6175  0.1292  0.5983
  489TMC3     O 7274   3.095   3.330  17.153  0.3303 -0.5008 -0.4884
  489TMC3     H 7275   3.320   3.646  17.288 -0.3606 -0.6740 -1.8815
  489TMC3    H1 7276   3.099   3.279  17.407 -2.6110  1.8318  0.5018
  489TMC3    H2 7277   3.296   3.544  17.680 -0.7302  0.2681 -0.2535
  489TMC3    C7 7278   3.167   3.319  17.654  1.0141 -0.6336 -0.7355
  489TMC3    C8 7279   3.400   3.705  17.508 -0.4869  0.5980  0.2000
  489TMC3    O1 7280   3.257   3.332   0.035  0.2197 -0.3826  0.0953
  489TMC3    O2 7281   3.504   3.731  17.455 -0.5690  0.6997  0.4037
  490MPD2     C 7282   3.809   3.364   0.177  0.3577  0.4991 -0.0331
  490MPD2    C1 7283   3.900   3.299   0.094  0.1948  0.6800 -0.0382
  490MPD2    C2 7284   4.019   3.360   0.062 -0.2917  0.2283 -0.2768
  490MPD2    C3 7285   4.050   3.486   0.117 -0.3966 -0.2469 -0.1801
  490MPD2    C4 7286   3.953   3.551   0.199 -0.1905  0.3058  1.0021
  490MPD2    C5 7287   3.837   3.484   0.224 -0.7117 -0.3585  0.6688
  490MPD2     H 7288   4.094   3.311   0.001 -0.7172 -2.6621  1.4951
  490MPD2    H1 7289   3.963   3.654   0.231 -1.5814 -0.0062  2.4656
  490MPD2    H2 7290   3.721   3.317   0.219  1.7798 -2.4522 -0.3242
  490MPD2    H3 7291   3.763   3.529   0.290 -1.6838  1.2052 -1.4980
  490MPD2     N 7292   4.166   3.562   0.093 -0.2174  0.8738  0.2743
  490MPD2    H5 7293   4.179   3.647   0.146 -1.3027  0.3192  1.4197
  490MPD2    N1 7294   3.881   3.164   0.049 -0.2000  0.1583  0.0827
  490MPD2    H7 7295   3.965   3.122   0.012 -1.1876 -2.5305  0.9245
  491TMC3    C1 7296   3.773   2.951   0.006 -0.6197  0.2034 -1.1493
  491TMC3    C2 7297   3.712   2.867   0.089  0.0160  0.2727 -0.3885
  491TMC3    C3 7298   3.767   2.742   0.108 -0.8240 -0.0607  0.0159
  491TMC3    C4 7299   3.888   2.928  17.638 -0.3336 -0.5266  0.1877
  491TMC3    C5 7300   3.944   2.807  17.654 -0.2863 -0.8002  0.8853
  491TMC3    C6 7301   3.887   2.717   0.044  0.2469 -0.1723 -0.9398
  491TMC3     C 7302   3.761   3.095   0.052 -0.1176 -0.7079  0.2685
  491TMC3     O 7303   3.650   3.131   0.090  0.0483  0.3763  0.1840
  491TMC3     H 7304   3.623   2.903   0.140  0.1902 -1.5554  1.1914
  491TMC3    H1 7305   3.936   3.005  17.579 -2.2887  0.0451 -0.6648
  491TMC3    H2 7306   3.931   2.623   0.074  2.0758  1.2937  1.0092
  491TMC3    C7 7307   4.015   2.751  17.543 -0.5886 -0.4067 -0.4199
  491TMC3    C8 7308   3.749   2.692   0.239 -0.2143  0.0262 -0.0428
  491TMC3    O1 7309   3.987   2.812  17.440 -0.8634  0.0393 -0.2032
  491TMC3    O2 7310   3.682   2.762   0.315 -0.0585 -0.0568 -0.1895
  492MPD2     C 7311   4.404   3.616  11.691 -0.7195  0.1934  0.0857
  492MPD2    C1 7312   4.358   3.526  11.603  0.5881  0.0640  0.2505
  492MPD2    C2 7313   4.322   3.401  11.645  0.3585  0.2627 -0.4983
  492MPD2    C3 7314   4.349   3.358  11.775 -0.4287  0.3724  0.1514
  492MPD2    C4 7315   4.407   3.452  11.862 -0.0901 -0.1391  0.2037
  492MPD2    C5 7316   4.426   3.579  11.822 -1.6725 -0.1947 -0.1495
  492MPD2     H 7317   4.267   3.344  11.572  0.3850  1.1838 -1.2400
  492MPD2    H1 7318   4.437   3.421  11.962  0.4786  1.0648  0.3949
  492MPD2    H2 7319   4.426   3.719  11.664  2.0276 -0.1478  0.9888
  492MPD2    H3 7320   4.472   3.649  11.891 -2.1711 -0.9416  0.9283
  492MPD2     N 7321   4.319   3.223  11.825 -0.1348  0.1626  0.3418
  492MPD2    H5 7322   4.326   3.201  11.923  1.6083 -0.3617  0.1107
  492MPD2    N1 7323   4.332   3.566  11.470  0.3495  0.0800 -0.1824
  492MPD2    H7 7324   4.348   3.665  11.455  1.4854 -0.1488 -0.4641
  493TMC3    C1 7325   4.232   3.549  11.247  0.1099  0.3003 -0.5648
  493TMC3    C2 7326   4.199   3.678  11.261  0.1759 -0.1499 -0.8171
  493TMC3    C3 7327   4.143   3.739  11.155 -0.2151 -0.2407  0.0541
  493TMC3    C4 7328   4.193   3.471  11.143 -0.3764 -0.4914 -0.6393
  493TMC3    C5 7329   4.105   3.527  11.059 -0.7707 -0.4607 -0.2159
  493TMC3    C6 7330   4.097   3.660  11.055  0.6932 -0.1805  0.4162
  493TMC3     C 7331   4.285   3.482  11.366 -0.4446  0.5568 -0.4545
  493TMC3     O 7332   4.302   3.364  11.347 -0.1924 -0.2717 -0.2444
  493TMC3     H 7333   4.219   3.733  11.352  0.6500  0.2624 -1.1752
  493TMC3    H1 7334   4.221   3.366  11.137 -3.0396 -1.1343 -1.7143
  493TMC3    H2 7335   4.036   3.701  10.975 -0.8942 -2.7505  0.3234
  493TMC3    C7 7336   4.012   3.445  10.983  1.4278 -0.1025  0.0942
  493TMC3    C8 7337   4.143   3.880  11.129  0.1019  0.1612  0.6030
  493TMC3    O1 7338   3.942   3.496  10.895 -0.0498  0.1261 -0.1686
  493TMC3    O2 7339   4.092   3.907  11.017 -0.6032  0.1435 -0.0689
  494TMC3    C1 7340   0.300   0.136   1.063  0.3338  0.1638  0.5103
  494TMC3    C2 7341   0.385   0.033   1.100  0.3919  0.4022 -0.0447
  494TMC3    C3 7342   0.435   4.677   0.999  1.4429 -0.5667 -0.1839
  494TMC3    C4 7343   0.256   0.144   0.934  0.4637  0.0492  0.3726
  494TMC3    C5 7344   0.298   0.057   0.842 -0.3992 -0.1640 -0.0609
  494TMC3    C6 7345   0.390   4.684   0.872 -0.0232 -0.5243 -0.0031
  494TMC3     C 7346   0.268   0.232   1.164 -0.7581 -0.1872  0.5195
  494TMC3     O 7347   0.299   0.205   1.281  0.0716 -0.0293  0.4939
  494TMC3     H 7348   0.416   0.016   1.203 -1.1895  1.6082  0.6257
  494TMC3    H1 7349   0.178   0.209   0.897 -0.5268 -1.8765 -0.9788
  494TMC3    H2 7350   0.441   4.622   0.799 -0.5959  1.9961 -2.5240
  494TMC3    C7 7351   0.273   0.070   0.698  0.4851  0.0930 -0.1275
  494TMC3    C8 7352   0.514   4.559   1.039 -0.1204 -0.3080 -0.4579
  494TMC3    O1 7353   0.333   4.722   0.622 -0.7886 -0.1736 -0.1685
  494TMC3    O2 7354   0.523   4.553   1.163 -0.0139  0.7883  0.4008
  495TMC3    C1 7355   3.544   1.842  15.079  0.3289 -0.1550 -0.4573
  495TMC3    C2 7356   3.498   1.887  14.954  0.3494  0.8361 -0.1844
  495TMC3    C3 7357   3.513   2.019  14.925 -1.1004 -0.0422  0.4951
  495TMC3    C4 7358   3.602   1.926  15.170 -0.5805  0.3714 -0.0046
  495TMC3    C5 7359   3.612   2.056  15.134 -0.3527 -0.4206  0.0362
  495TMC3    C6 7360   3.585   2.102  15.010  0.6217 -0.0062 -0.0360
  495TMC3     C 7361   3.526   1.708  15.126  0.4746  0.6915  0.0157
  495TMC3     O 7362   3.527   1.683  15.248  0.1962  0.9810  0.5163
  495TMC3     H 7363   3.441   1.822  14.888  0.0139  0.7180  0.2198
  495TMC3    H1 7364   3.632   1.896  15.270 -0.6956 -2.5381 -0.8515
  495TMC3    H2 7365   3.595   2.207  14.988 -1.8588  0.4058  0.8276
  495TMC3    C7 7366   3.673   2.134  15.242 -0.7449 -0.1897  0.1544
  495TMC3    C8 7367   3.471   2.085  14.800 -0.5405 -0.1165  0.2460
  495TMC3    O1 7368   3.653   2.089  15.351  0.6751  0.0563  0.2719
  495TMC3    O2 7369   3.473   2.202  14.794 -0.4233 -0.1009 -0.0219
  496MPD2     C 7370   0.907   2.225  15.724 -0.0097  0.6436  0.0380
  496MPD2    C1 7371   0.885   2.104  15.787 -0.5341  0.4180 -0.3761
  496MPD2    C2 7372   0.823   2.104  15.910 -0.3346 -0.2109 -0.1644
  496MPD2    C3 7373   0.778   2.222  15.972  0.4498 -0.5107  0.2092
  496MPD2    C4 7374   0.807   2.345  15.905 -0.2211 -0.4747  1.2086
  496MPD2    C5 7375   0.874   2.346  15.781  0.0103 -0.1493 -0.1082
  496MPD2     H 7376   0.813   2.017  15.974 -0.6461 -0.1251 -0.0983
  496MPD2    H1 7377   0.775   2.440  15.946  0.4284  0.9326 -1.5506
  496MPD2    H2 7378   0.957   2.221  15.628  1.3385  0.2096  0.7519
  496MPD2    H3 7379   0.884   2.438  15.724  1.5709  0.7995  1.6994
  496MPD2     N 7380   0.718   2.235  16.099 -0.1587  0.8844  0.1412
  496MPD2    H5 7381   0.703   2.332  16.121 -0.2910  0.6519  1.0570
  496MPD2    N1 7382   0.926   1.987  15.724  0.6351  0.4279  0.4446
  496MPD2    H7 7383   0.961   1.993  15.628 -1.0704  0.7495 -0.1528
  497TMC3    C1 7384   0.567   2.185  16.260 -0.3591  0.0905  0.2359
  497TMC3    C2 7385   0.460   2.103  16.250  0.7008 -0.3328  0.2005
  497TMC3    C3 7386   0.397   2.067  16.366  0.0894 -0.1730  0.0419
  497TMC3    C4 7387   0.607   2.242  16.377  0.0587 -0.6297  0.1470
  497TMC3    C5 7388   0.542   2.209  16.490 -0.4445 -0.7475  0.1603
  497TMC3    C6 7389   0.437   2.120  16.486  0.0407  0.3803  0.1992
  497TMC3     C 7390   0.665   2.130  16.167 -0.0001 -0.3925 -0.0204
  497TMC3     O 7391   0.679   2.010  16.161  0.5089  0.5715  0.0107
  497TMC3     H 7392   0.434   2.056  16.155  0.6345  1.5695 -0.7223
  497TMC3    H1 7393   0.697   2.302  16.373  0.1512 -0.9434 -2.9895
  497TMC3    H2 7394   0.374   2.105  16.573 -0.4006  2.9529  0.3060
  497TMC3    C7 7395   0.602   2.234  16.622  0.1005  0.3224 -0.5800
  497TMC3    C8 7396   0.333   1.945  16.366  0.2677  0.1887  0.1283
  497TMC3    O1 7397   0.512   2.233  16.707 -0.2133  1.1455  0.7677
  497TMC3    O2 7398   0.316   1.888  16.264  0.0582  0.5085 -0.1472
  498MPD2     C 7399   1.347   2.510   9.693 -0.6902  0.0371  0.0915
  498MPD2    C1 7400   1.423   2.492   9.803  0.2684  1.1513 -0.1060
  498MPD2    C2 7401   1.364   2.454   9.920  0.4393  0.0730  0.1803
  498MPD2    C3 7402   1.228   2.452   9.937  0.5247 -0.2386  0.8248
  498MPD2    C4 7403   1.149   2.465   9.822  0.4415  0.2801  0.2512
  498MPD2    C5 7404   1.214   2.488   9.706  0.1764  0.2901  0.0278
  498MPD2     H 7405   1.429   2.435  10.005 -1.6088  1.5635  2.0601
  498MPD2    H1 7406   1.041   2.460   9.819  0.4577  0.1326 -0.1660
  498MPD2    H2 7407   1.385   2.527   9.593 -1.4526  2.2368  0.1868
  498MPD2    H3 7408   1.162   2.486   9.611  2.1779  0.5850 -1.0682
  498MPD2     N 7409   1.186   2.438  10.069 -0.0191 -0.0887 -0.1769
  498MPD2    H5 7410   1.262   2.413  10.131 -1.1116 -1.5975  0.5433
  498MPD2    N1 7411   1.559   2.488   9.800 -0.0661 -0.2900 -0.9739
  498MPD2    H7 7412   1.601   2.454   9.886 -1.9186  0.6580  0.3352
  499TMC3    C1 7413   1.785   2.510   9.732  0.1883  0.7515  0.3318
  499TMC3    C2 7414   1.816   2.386   9.773 -0.0761 -0.1094  0.3108
  499TMC3    C3 7415   1.944   2.345   9.767  0.1158 -1.0678  0.4601
  499TMC3    C4 7416   1.875   2.596   9.677 -0.0184  0.5666 -0.1288
  499TMC3    C5 7417   2.002   2.552   9.686 -0.5994  0.3248 -0.3350
  499TMC3    C6 7418   2.042   2.425   9.719 -0.5067 -0.1944  0.1480
  499TMC3     C 7419   1.644   2.540   9.699 -0.0505 -0.5835  0.6391
  499TMC3     O 7420   1.610   2.603   9.599  0.4551 -0.1862  0.2954
  499TMC3     H 7421   1.742   2.308   9.790  2.2520 -2.2224  0.7504
  499TMC3    H1 7422   1.859   2.700   9.652 -2.8571  0.3514  0.7274
  499TMC3    H2 7423   2.148   2.401   9.714 -0.6245 -0.9263  1.2884
  499TMC3    C7 7424   2.105   2.651   9.678  0.4086  0.1239  0.0095
  499TMC3    C8 7425   1.986   2.226   9.830 -0.2812  0.6204  0.3401
  499TMC3    O1 7426   2.076   2.764   9.716  0.0080  0.0333  0.0098
  499TMC3    O2 7427   2.097   2.183   9.794  0.9341 -0.1119 -0.1204
  500MPD2     C 7428   2.661   4.534  10.660 -0.1506 -0.1238 -0.0964
  500MPD2    C1 7429   2.680   4.392  10.659  0.6647 -0.6729 -0.1865
  500MPD2    C2 7430   2.570   4.308  10.655 -0.6485 -0.6019 -0.2154
  500MPD2    C3 7431   2.444   4.361  10.637  0.3701 -0.1904  0.4371
  500MPD2    C4 7432   2.425   4.500  10.633 -0.7968  0.1253 -0.5066
  500MPD2    C5 7433   2.534   4.585  10.640  0.0753 -0.1590  0.0234
  500MPD2     H 7434   2.590   4.202  10.640  0.0506 -0.4513 -0.3844
  500MPD2    H1 7435   2.322   4.533  10.631  0.0005  2.5164 -1.7362
  500MPD2    H2 7436   2.739   4.609  10.672  1.6608 -1.8839 -0.7226
  500MPD2    H3 7437   2.515   4.692  10.634 -0.6942 -0.4338 -2.6182
  500MPD2     N 7438   2.329   4.280  10.646 -0.1088 -0.2597  0.3303
  500MPD2    H5 7439   2.245   4.334  10.659  0.3224  0.6109 -0.4606
  500MPD2    N1 7440   2.808   4.329  10.675 -0.0349 -0.4520 -0.1135
  500MPD2    H7 7441   2.798   4.228  10.679  2.6151 -0.7349 -0.4070
  501TMC3    C1 7442   3.045   4.303  10.670 -0.3485 -0.0339  0.6561
  501TMC3    C2 7443   3.127   4.333  10.566 -0.5936 -0.3905  0.9647
  501TMC3    C3 7444   3.257   4.315  10.585 -0.2552  0.0471 -0.3806
  501TMC3    C4 7445   3.091   4.258  10.792  0.0100 -0.0562  0.0732
  501TMC3    C5 7446   3.223   4.230  10.804  0.6184 -0.3544  0.0659
  501TMC3    C6 7447   3.305   4.259  10.693 -0.0062  0.4881  0.4533
  501TMC3     C 7448   2.930   4.391  10.665 -0.9931 -0.8475 -0.0623
  501TMC3     O 7449   2.947   4.512  10.652 -0.0458  0.1721 -0.2970
  501TMC3     H 7450   3.082   4.387  10.484 -2.1709 -1.9258  0.8186
  501TMC3    H1 7451   3.023   4.262  10.877 -2.6597  1.3834 -2.1480
  501TMC3    H2 7452   3.412   4.241  10.695  0.4434  3.1518  0.2215
  501TMC3    C7 7453   3.284   4.230  10.937 -0.0892  0.7303  0.0218
  501TMC3    C8 7454   3.336   4.422  10.538  0.0469  0.1682  0.0744
  501TMC3    O1 7455   3.405   4.231  10.943 -0.2296 -0.2910 -0.1329
  501TMC3    O2 7456   3.323   4.467  10.423 -0.7724 -0.8097 -0.0162
  502TMC3    C1 7457   3.192   2.900  15.597 -0.3359  0.1705 -0.6563
  502TMC3    C2 7458   3.196   3.032  15.586 -0.8418 -0.5633  0.1782
  502TMC3    C3 7459   3.093   3.089  15.520  0.1018  0.3733 -0.4590
  502TMC3    C4 7460   3.090   2.825  15.549 -0.0149 -0.0954  0.4956
  502TMC3    C5 7461   2.984   2.880  15.485 -0.2047  0.0412 -0.1457
  502TMC3    C6 7462   2.984   3.017  15.474 -0.1302 -0.2546  0.5458
  502TMC3     C 7463   3.282   2.842  15.703 -0.0123  0.0626  0.6890
  502TMC3     O 7464   3.328   2.732  15.682 -0.7910 -0.3777  0.0222
  502TMC3     H 7465   3.276   3.088  15.634  0.8840 -0.4957 -2.7524
  502TMC3    H1 7466   3.094   2.724  15.590  0.3900  0.4231  1.7456
  502TMC3    H2 7467   2.914   3.065  15.405  0.3666 -0.1219  0.1296
  502TMC3    C7 7468   2.865   2.802  15.510  0.7041  0.0865  0.4096
  502TMC3    C8 7469   3.051   3.229  15.538 -0.7803 -0.3334 -0.2282
  502TMC3    O1 7470   2.876   2.681  15.534 -0.6130  0.4004  0.4155
  502TMC3    O2 7471   3.124   3.324  15.526  0.0623 -0.3606 -1.1113
  503MPD2     C 7472   0.454   3.633  17.195  0.2838  0.4703  1.2225
  503MPD2    C1 7473   0.466   3.623  17.336 -0.6645  0.0047 -0.1829
  503MPD2    C2 7474   0.532   3.512  17.389 -0.1211  0.0685 -1.0553
  503MPD2    C3 7475   0.576   3.407  17.306 -0.1490 -0.5319 -0.5969
  503MPD2    C4 7476   0.551   3.424  17.171  0.3493  0.1838  0.1974
  503MPD2    C5 7477   0.505   3.536  17.118  0.1980  0.6871 -0.1216
  503MPD2     H 7478   0.533   3.499  17.497  2.0273  1.6449 -0.8851
  503MPD2    H1 7479   0.577   3.349  17.097 -3.2640 -2.0894  1.2258
  503MPD2    H2 7480   0.408   3.720  17.149  2.7983  1.3475  0.3544
  503MPD2    H3 7481   0.479   3.528  17.013 -1.6357  2.4647  0.2092
  503MPD2     N 7482   0.625   3.285  17.363 -0.2183  0.0123 -0.3902
  503MPD2    H5 7483   0.628   3.277  17.464  0.3286  0.8944 -0.3349
  503MPD2    N1 7484   0.410   3.718  17.427  0.6864  0.1419  0.5889
  503MPD2    H7 7485   0.401   3.682  17.521  0.9358  0.2349  0.6477
  504TMC3    C1 7486   0.727   3.073  17.366 -0.7353  0.2067  0.2310
  504TMC3    C2 7487   0.645   3.018  17.460  0.3031  0.3936  0.2312
  504TMC3    C3 7488   0.694   2.915  17.530  0.6673 -0.4334 -0.2018
  504TMC3    C4 7489   0.855   3.027  17.352 -0.2380  0.1016  0.1662
  504TMC3    C5 7490   0.894   2.918  17.417  0.8587 -0.3233 -0.6380
  504TMC3    C6 7491   0.817   2.855  17.505 -0.7541 -0.3159 -0.2598
  504TMC3     C 7492   0.692   3.189  17.289  0.2961  0.5426  0.3774
  504TMC3     O 7493   0.738   3.208  17.177 -0.3229 -0.5859  0.2700
  504TMC3     H 7494   0.549   3.056  17.492 -0.2806 -2.5967  2.1359
  504TMC3    H1 7495   0.916   3.067  17.272  0.3930  1.1152  1.1601
  504TMC3    H2 7496   0.850   2.774  17.570  0.4431 -0.8108 -1.4807
  504TMC3    C7 7497   1.035   2.872  17.390  0.7487  0.6175 -0.4151
  504TMC3    C8 7498   0.618   2.850  17.627 -0.6787  0.4726  0.0067
  504TMC3    O1 7499   1.112   2.959  17.345 -0.0521 -1.0245  0.1344
  504TMC3    O2 7500   0.628   2.730  17.623  0.6985 -0.4613 -0.2702
  505MPD2     C 7501   0.869   2.419  11.632 -0.1713  0.2871  0.0033
  505MPD2    C1 7502   0.915   2.341  11.528  0.1618  0.1213 -0.2542
  505MPD2    C2 7503   1.046   2.350  11.484  0.0187 -0.3565  0.3825
  505MPD2    C3 7504   1.129   2.441  11.537  0.3142  0.9663 -0.2672
  505MPD2    C4 7505   1.085   2.531  11.637  0.1008 -0.0920 -0.3601
  505MPD2    C5 7506   0.959   2.515  11.684 -0.0901  0.3524  0.6113
  505MPD2     H 7507   1.078   2.282  11.406 -2.6381 -2.1972  0.8996
  505MPD2    H1 7508   1.139   2.612  11.683  0.3680 -0.6487  0.2990
  505MPD2    H2 7509   0.768   2.413  11.672 -0.8971 -1.2927 -2.0779
  505MPD2    H3 7510   0.924   2.596  11.747 -0.4764 -0.5845  1.5816
  505MPD2     N 7511   1.262   2.439  11.486  0.1586  0.1227 -0.3575
  505MPD2    H5 7512   1.279   2.372  11.411  0.3531  0.1370 -0.3261
  505MPD2    N1 7513   0.837   2.242  11.465 -0.4813  0.2665  0.0963
  505MPD2    H7 7514   0.862   2.200  11.376  1.1241  3.3390 -0.8966
  506TMC3    C1 7515   0.656   2.117  11.404 -0.2116 -0.2842  0.6192
  506TMC3    C2 7516   0.531   2.136  11.351 -0.5279 -0.6208  0.2196
  506TMC3    C3 7517   0.497   2.065  11.236 -0.9112  0.3248 -0.1014
  506TMC3    C4 7518   0.748   2.028  11.349 -0.1775  0.1737 -0.0520
  506TMC3    C5 7519   0.712   1.961  11.238 -0.3822 -0.3920  0.7246
  506TMC3    C6 7520   0.588   1.972  11.182 -0.7605 -0.3553 -0.4242
  506TMC3     C 7521   0.709   2.207  11.503 -0.4673  0.3635  0.2192
  506TMC3     O 7522   0.653   2.216  11.607 -0.1208 -0.2872  0.0194
  506TMC3     H 7523   0.466   2.211  11.394 -0.8164 -0.7807  0.0645
  506TMC3    H1 7524   0.842   2.006  11.398 -0.4353  1.4181  1.0206
  506TMC3    H2 7525   0.564   1.916  11.091 -0.2678  2.6333 -2.3711
  506TMC3    C7 7526   0.821   1.920  11.153  0.0423 -0.1821 -0.0563
  506TMC3    C8 7527   0.450   2.154  11.125 -0.2560  0.0060 -0.6222
  506TMC3    O1 7528   0.772   1.898  11.045  0.9015  0.0678  0.1635
  506TMC3    O2 7529   0.377   2.245  11.158  0.1986 -0.0446  0.0354
  507TMC3    C1 7530   1.516   3.136  14.767  0.3115  0.0550 -0.1657
  507TMC3    C2 7531   1.549   3.095  14.641  0.6874  0.0022 -0.3137
  507TMC3    C3 7532   1.633   3.176  14.568 -0.2458 -0.0815  0.0672
  507TMC3    C4 7533   1.558   3.261  14.809  0.1405  0.1984 -0.5002
  507TMC3    C5 7534   1.649   3.334  14.735 -0.3123 -0.2603  0.0129
  507TMC3    C6 7535   1.690   3.292  14.616 -0.4218 -0.3776 -0.0329
  507TMC3     C 7536   1.404   3.075  14.835  0.0148 -0.1691 -0.3121
  507TMC3     O 7537   1.347   2.990  14.773 -0.1204  0.9279 -0.3001
  507TMC3     H 7538   1.494   3.016  14.591 -1.8103  0.8400  1.0936
  507TMC3    H1 7539   1.520   3.312  14.897  0.0136 -1.1355  0.2169
  507TMC3    H2 7540   1.744   3.359  14.549 -1.2378  0.0310 -0.2880
  507TMC3    C7 7541   1.610   3.475  14.726 -0.3409 -1.0438  0.2200
  507TMC3    C8 7542   1.574   3.198  14.435  0.6433 -0.0353 -0.8602
  507TMC3    O1 7543   1.587   3.520  14.611 -0.2058 -0.0171  0.2111
  507TMC3    O2 7544   1.554   3.098  14.364 -0.5203  0.1088  0.2156
  508MPD2     C 7545   2.165   1.000  16.377 -0.0039 -0.1651 -0.7072
  508MPD2    C1 7546   2.260   1.096  16.339 -0.7973  0.0999 -0.1484
  508MPD2    C2 7547   2.304   1.105  16.212 -0.3009 -0.1948  0.5275
  508MPD2    C3 7548   2.248   1.024  16.112 -0.4102 -0.5679  0.2073
  508MPD2    C4 7549   2.141   0.944  16.146 -0.5582  0.5143 -0.3615
  508MPD2    C5 7550   2.099   0.932  16.275 -0.5346  0.0776  0.3577
  508MPD2     H 7551   2.388   1.166  16.179 -0.0697  1.1500  3.6244
  508MPD2    H1 7552   2.080   0.887  16.077 -1.8094 -1.5506  2.4029
  508MPD2    H2 7553   2.130   1.008  16.479  0.3623 -1.1478 -0.5070
  508MPD2    H3 7554   2.012   0.875  16.305 -0.7270  0.5000  0.6111
  508MPD2     N 7555   2.296   1.056  15.984 -0.3338  1.0940 -0.3436
  508MPD2    H5 7556   2.374   1.120  15.979  1.7808 -1.7080 -3.4068
  508MPD2    N1 7557   2.296   1.186  16.434  0.7295 -0.3475 -0.2860
  508MPD2    H7 7558   2.255   1.174  16.526 -0.9320 -0.3586 -1.0363
  509TMC3    C1 7559   2.282   1.128  15.537  0.1145  0.1132  0.4782
  509TMC3    C2 7560   2.399   1.186  15.532  0.0754 -0.2464  0.2276
  509TMC3    C3 7561   2.456   1.200  15.654  0.5921 -0.7217 -0.0763
  509TMC3    C4 7562   2.233   1.051  15.642  0.1391  0.1558  0.3725
  509TMC3    C5 7563   2.314   1.055  15.755  0.7690  0.2491 -0.0711
  509TMC3    C6 7564   2.425   1.135  15.769  0.2931  0.3554 -0.0961
  509TMC3     C 7565   2.173   1.220  15.501  0.3514  0.0058 -0.4537
  509TMC3     O 7566   2.072   1.160  15.467 -0.0945 -0.0699  0.0432
  509TMC3     H 7567   2.415   1.243  15.441  0.7499  2.1160  1.8153
  509TMC3    H1 7568   2.139   0.999  15.629 -0.9656  1.7158  2.1125
  509TMC3    H2 7569   2.474   1.143  15.865 -1.7195  0.2841  0.9497
  509TMC3    C7 7570   2.237   1.013  15.872  0.1618  0.1103 -0.6153
  509TMC3    C8 7571   2.534   1.320  15.674  0.2335  0.8074 -0.0009
  509TMC3    O1 7572   2.143   0.938  15.865  0.1432  0.1577 -0.3948
  509TMC3    O2 7573   2.531   1.359  15.791  0.5169 -0.4910 -0.1192
  510MPD2     C 7574   0.323   2.803  14.817 -0.0078 -0.5998  0.0429
  510MPD2    C1 7575   0.407   2.721  14.877  0.2270  0.5326 -0.2156
  510MPD2    C2 7576   0.531   2.691  14.820  0.6008  0.3065  0.1760
  510MPD2    C3 7577   0.563   2.756  14.697  0.0789  0.6378 -0.2447
  510MPD2    C4 7578   0.471   2.836  14.635  0.2283  0.6007  0.4486
  510MPD2    C5 7579   0.353   2.863  14.700  0.3850  0.0682  0.1826
  510MPD2     H 7580   0.600   2.624  14.870 -2.2115 -1.4260  1.7227
  510MPD2    H1 7581   0.492   2.889  14.543  1.2927  1.9654  1.4789
  510MPD2    H2 7582   0.235   2.845  14.865 -0.5254 -1.7979  0.1486
  510MPD2    H3 7583   0.281   2.930  14.655  0.3690  0.1049  0.2615
  510MPD2     N 7584   0.691   2.726  14.636  0.2130  0.2737 -0.2471
  510MPD2    H5 7585   0.749   2.659  14.685 -2.2031 -1.4656  0.2493
  510MPD2    N1 7586   0.365   2.660  14.996 -0.4341 -0.3938 -0.2046
  510MPD2    H7 7587   0.426   2.584  15.025 -0.2583 -1.1443 -2.5553
  511TMC3    C1 7588   0.206   2.598  15.172  0.3708  0.3079  0.8016
  511TMC3    C2 7589   0.103   2.635  15.255 -0.3573 -0.0527 -0.1192
  511TMC3    C3 7590   0.081   2.552  15.359  0.5756  0.3386  1.0707
  511TMC3    C4 7591   0.259   2.472  15.179 -0.2385 -0.0378  0.2096
  511TMC3    C5 7592   0.226   2.388  15.290  0.6925  0.8701  0.4783
  511TMC3    C6 7593   0.137   2.431  15.384  0.2232  0.0429 -0.2431
  511TMC3     C 7594   0.246   2.694  15.068  0.8356 -0.0949  0.0748
  511TMC3     O 7595   0.165   2.787  15.060 -0.3323  0.0834  0.3287
  511TMC3     H 7596   0.052   2.730  15.242 -0.5893 -0.3290 -1.1834
  511TMC3    H1 7597   0.305   2.434  15.088 -0.5409 -0.9481  0.4372
  511TMC3    H2 7598   0.141   2.396  15.486 -0.5882  0.0655 -0.2014
  511TMC3    C7 7599   0.270   2.247  15.284 -0.3011  0.8199  0.3643
  511TMC3    C8 7600   4.706   2.600  15.444  0.0153 -0.4627 -0.2343
  511TMC3    O1 7601   0.356   2.223  15.203 -0.3887 -0.5596 -0.2297
  511TMC3    O2 7602   4.684   2.722  15.455 -0.7215  0.1299 -0.2492
  512TMC3    C1 7603   3.853   2.103  13.730 -0.2663 -0.5881 -0.8755
  512TMC3    C2 7604   3.915   2.098  13.853 -0.4152 -0.2103 -0.2265
  512TMC3    C3 7605   3.998   1.993  13.873  0.0744  0.3524 -0.4614
  512TMC3    C4 7606   3.878   2.019  13.630 -0.0073 -0.4592 -0.7452
  512TMC3    C5 7607   3.978   1.921  13.645  0.4216 -1.1230  0.0759
  512TMC3    C6 7608   4.037   1.908  13.772 -0.7103  0.1423  0.6691
  512TMC3     C 7609   3.707   2.143  13.728 -0.3673 -0.1335  0.1195
  512TMC3     O 7610   3.631   2.070  13.669  0.0003 -0.7078 -0.1874
  512TMC3     H 7611   3.873   2.162  13.930 -0.4229 -0.4813 -0.0047
  512TMC3    H1 7612   3.829   2.023  13.534 -2.6350  1.4497  0.6980
  512TMC3    H2 7613   4.121   1.842  13.789  0.0826  0.9353 -0.1386
  512TMC3    C7 7614   3.992   1.822  13.543  0.0753  0.3176 -0.9310
  512TMC3    C8 7615   4.098   2.000  13.984  0.2040 -0.1490  0.3410
  512TMC3    O1 7616   3.950   1.839  13.426 -0.3142  0.6289 -0.3500
  512TMC3    O2 7617   4.149   1.894  14.022  0.4547  0.1469 -0.4060
  513MPD2     C 7618   0.882   2.594  12.671 -0.3315  0.1347  0.2116
  513MPD2    C1 7619   0.806   2.484  12.698 -0.3906 -0.0285  0.7168
  513MPD2    C2 7620   0.805   2.451  12.834 -1.1934 -0.2549  0.3795
  513MPD2    C3 7621   0.864   2.531  12.932  0.1464  0.0368  0.1935
  513MPD2    C4 7622   0.921   2.650  12.896 -0.4557 -0.7684 -0.1653
  513MPD2    C5 7623   0.922   2.686  12.761 -0.5871  0.0653 -0.4421
  513MPD2     H 7624   0.769   2.353  12.859 -0.1441 -0.5586  0.7149
  513MPD2    H1 7625   0.965   2.713  12.972  0.0576  0.4171 -1.4510
  513MPD2    H2 7626   0.904   2.633  12.573 -2.2112 -1.8498 -0.9932
  513MPD2    H3 7627   0.964   2.780  12.729  0.1913 -0.4489 -0.9202
  513MPD2     N 7628   0.851   2.485  13.063  0.2378 -0.3319  0.1531
  513MPD2    H5 7629   0.806   2.394  13.076 -1.9181  0.5101 -1.3713
  513MPD2    N1 7630   0.759   2.414  12.590  0.1106  0.0606  0.2933
  513MPD2    H7 7631   0.789   2.441  12.496  0.3868  0.9803  0.6426
  514TMC3    C1 7632   0.693   2.227  12.472  0.5499  0.0213 -0.1592
  514TMC3    C2 7633   0.788   2.252  12.378  0.4329 -0.5860  0.4033
  514TMC3    C3 7634   0.867   2.157  12.321 -0.3589 -0.6028 -0.2034
  514TMC3    C4 7635   0.676   2.092  12.505 -0.0500 -0.0314  0.0093
  514TMC3    C5 7636   0.755   1.994  12.445  0.2317  0.3390  0.3220
  514TMC3    C6 7637   0.854   2.025  12.358  0.4422 -0.2481  0.2333
  514TMC3     C 7638   0.687   2.301  12.598  0.6692 -0.0964  0.0728
  514TMC3     O 7639   0.661   2.235  12.698 -0.4407  0.5267 -0.2271
  514TMC3     H 7640   0.797   2.353  12.339 -1.2520 -0.2963  0.7513
  514TMC3    H1 7641   0.597   2.062  12.572  0.8321 -2.1124  0.1052
  514TMC3    H2 7642   0.931   1.956  12.327  1.8635  1.3679  0.1781
  514TMC3    C7 7643   0.792   1.891  12.537 -0.1490  0.7166  0.3186
  514TMC3    C8 7644   0.996   2.199  12.293 -0.3582 -0.3345 -0.0018
  514TMC3    O1 7645   0.853   1.794  12.496 -0.1492 -0.5835  1.2407
  514TMC3    O2 7646   1.048   2.280  12.367  0.4698 -0.2022 -0.0312
  515MPD2     C 7647   3.645   3.882  15.679 -0.4014 -0.3727 -0.1737
  515MPD2    C1 7648   3.712   3.844  15.562 -0.3929  0.0950  0.0342
  515MPD2    C2 7649   3.845   3.890  15.543  0.7856 -0.1536  0.1962
  515MPD2    C3 7650   3.902   3.973  15.636  0.1371 -0.6640 -0.7123
  515MPD2    C4 7651   3.828   4.014  15.747  0.0646  0.2463  0.0519
  515MPD2    C5 7652   3.700   3.971  15.772  0.1315  0.2740 -0.4747
  515MPD2     H 7653   3.911   3.847  15.468 -0.0609 -0.8345 -0.1604
  515MPD2    H1 7654   3.874   4.088  15.811  1.5700 -0.3603 -0.3199
  515MPD2    H2 7655   3.544   3.842  15.689 -0.1385 -1.1536 -0.5913
  515MPD2    H3 7656   3.657   3.994  15.868  1.0194  1.1246 -0.2818
  515MPD2     N 7657   4.040   4.020  15.625 -0.4253  0.1681 -0.0711
  515MPD2    H5 7658   4.067   4.082  15.700  1.3996 -0.7229  0.0025
  515MPD2    N1 7659   3.667   3.753  15.467 -0.3261 -0.5380  0.4826
  515MPD2    H7 7660   3.720   3.753  15.380  0.3757  0.2221  0.9094
  516TMC3    C1 7661   3.540   3.579  15.381  0.8756  0.2017 -0.3909
  516TMC3    C2 7662   3.538   3.638  15.256  0.0691 -0.1164  0.8411
  516TMC3    C3 7663   3.501   3.553  15.151 -0.5199 -0.1022  0.9102
  516TMC3    C4 7664   3.509   3.454  15.404  0.0140  0.3062 -0.0119
  516TMC3    C5 7665   3.461   3.375  15.302 -0.1123 -0.6083  0.2005
  516TMC3    C6 7666   3.466   3.421  15.172  0.1645  0.1913  0.1643
  516TMC3     C 7667   3.556   3.676  15.487  0.5280 -0.2577 -0.2883
  516TMC3     O 7668   3.506   3.642  15.592 -0.2584  0.6992  0.5070
  516TMC3     H 7669   3.567   3.742  15.242 -0.2994 -0.1533 -0.2284
  516TMC3    H1 7670   3.516   3.420  15.507  1.6244 -0.6772 -0.4436
  516TMC3    H2 7671   3.430   3.364  15.087 -0.6821  0.2903  0.4574
  516TMC3    C7 7672   3.426   3.238  15.336 -0.1826 -0.7015 -0.6104
  516TMC3    C8 7673   3.468   3.604  15.017  0.9290 -0.0826 -0.5837
  516TMC3    O1 7674   3.459   3.198  15.448  0.0299 -0.7290  0.2746
  516TMC3    O2 7675   3.413   3.526  14.939  0.9629 -0.3701 -0.1312
  517MPD2     C 7676   3.392   0.508   0.412 -0.5283 -0.5316  0.6871
  517MPD2    C1 7677   3.530   0.499   0.399  0.0161  0.0081  0.3271
  517MPD2    C2 7678   3.608   0.603   0.446  0.9312 -0.1074 -0.4702
  517MPD2    C3 7679   3.550   0.716   0.512  0.3572 -0.5266  0.6055
  517MPD2    C4 7680   3.408   0.727   0.516  0.4597 -0.3979  0.1278
  517MPD2    C5 7681   3.334   0.621   0.469 -0.6169  0.7478  0.2641
  517MPD2     H 7682   3.713   0.618   0.425  1.2546  1.0645  1.9608
  517MPD2    H1 7683   3.351   0.809   0.557 -1.1206  0.2389 -3.3443
  517MPD2    H2 7684   3.325   0.430   0.379 -0.9282 -0.3091  0.9644
  517MPD2    H3 7685   3.227   0.639   0.461 -0.1600  2.7624 -1.5219
  517MPD2     N 7686   3.627   0.822   0.565  0.8942  0.0374 -0.2673
  517MPD2    H5 7687   3.577   0.904   0.598  1.8446 -0.2814  1.9421
  517MPD2    N1 7688   3.604   0.393   0.339 -0.1961 -0.0007  0.3720
  517MPD2    H7 7689   3.704   0.409   0.342  0.1759 -2.2174 -0.5890
  518TMC3    C1 7690   3.661   0.189   0.250  0.2806  0.4988 -0.5487
  518TMC3    C2 7691   3.632   0.053   0.241  0.1035 -0.5187  0.1885
  518TMC3    C3 7692   3.730   4.688   0.204  0.3266 -0.3666 -0.3008
  518TMC3    C4 7693   3.790   0.227   0.236 -0.1847  0.5021 -0.3558
  518TMC3    C5 7694   3.889   0.133   0.198 -0.2066 -0.5885  0.3546
  518TMC3    C6 7695   3.862   0.001   0.183 -0.2373 -0.5286  0.1008
  518TMC3     C 7696   3.550   0.271   0.302  0.0531 -0.2952  0.4845
  518TMC3     O 7697   3.434   0.228   0.311 -1.2162  0.0258 -0.1506
  518TMC3     H 7698   3.530   0.028   0.268  0.5241 -1.7765  0.5809
  518TMC3    H1 7699   3.822   0.329   0.256 -0.9439  0.8136 -0.7229
  518TMC3    H2 7700   3.932   4.655   0.141 -0.6478 -0.4906 -0.6443
  518TMC3    C7 7701   4.021   0.176   0.160  0.3686 -0.9274 -0.4229
  518TMC3    C8 7702   3.715   4.539   0.198 -0.4183  0.5387  0.0305
  518TMC3    O1 7703   4.032   0.292   0.128 -0.2360 -0.0227 -0.1546
  518TMC3    O2 7704   3.802   4.486   0.128 -0.1096 -0.4537  0.1996
  519MPD2     C 7705   0.420   3.652  14.865  0.2164  0.0150 -0.2399
  519MPD2    C1 7706   0.424   3.718  14.745 -0.7870  0.3722  0.2057
  519MPD2    C2 7707   0.533   3.679  14.665 -0.3415 -0.4087  0.3310
  519MPD2    C3 7708   0.626   3.581  14.699  0.4215  0.3030 -1.1413
  519MPD2    C4 7709   0.609   3.515  14.821 -0.2698 -0.1871 -0.2715
  519MPD2    C5 7710   0.501   3.549  14.901 -1.2212 -0.0029 -0.0552
  519MPD2     H 7711   0.546   3.726  14.568  1.5892  1.8694  1.6761
  519MPD2    H1 7712   0.674   3.432  14.849 -1.8592 -1.5019 -0.4988
  519MPD2    H2 7713   0.341   3.669  14.938  0.7651 -0.0593  0.3685
  519MPD2    H3 7714   0.467   3.485  14.981  2.5644 -0.6772  1.0253
  519MPD2     N 7715   0.730   3.537  14.606  0.4981 -0.4298 -0.6164
  519MPD2    H5 7716   0.788   3.462  14.644  0.7663 -0.9189 -1.9754
  519MPD2    N1 7717   0.312   3.794  14.692  0.0329 -0.3880 -0.4081
  519MPD2    H7 7718   0.236   3.820  14.753  3.4088  4.7919  1.6421
  520TMC3    C1 7719   0.849   3.514  14.393 -0.4510 -0.5751  0.3342
  520TMC3    C2 7720   0.827   3.513  14.255  0.1512 -0.3563  0.0079
  520TMC3    C3 7721   0.901   3.437  14.170  0.3251 -0.1625  0.5417
  520TMC3    C4 7722   0.947   3.432  14.442 -0.3858  0.7832  0.5562
  520TMC3    C5 7723   1.023   3.357  14.357  0.4168  0.4079 -0.3705
  520TMC3    C6 7724   1.001   3.353  14.222  0.7377  0.5032 -0.9236
  520TMC3     C 7725   0.743   3.575  14.470 -0.0020 -0.5097 -0.1491
  520TMC3     O 7726   0.687   3.655  14.405  0.0119  0.1529  0.2530
  520TMC3     H 7727   0.762   3.589  14.215  0.2914 -0.6643 -0.7949
  520TMC3    H1 7728   0.964   3.424  14.549  3.6656  3.2252  0.0943
  520TMC3    H2 7729   1.080   3.308  14.164  0.1415 -3.1249  1.0574
  520TMC3    C7 7730   1.092   3.243  14.412  0.4671  0.3103 -0.0804
  520TMC3    C8 7731   0.882   3.466  14.030 -0.3454 -0.3952 -0.3921
  520TMC3    O1 7732   1.115   3.234  14.531  0.0552  0.1685 -0.2994
  520TMC3    O2 7733   0.978   3.480  13.958 -0.9609 -0.3605 -0.0042
  521MPD2     C 7734   0.960   1.465   0.104  0.4162  0.4014 -0.1459
  521MPD2    C1 7735   0.949   1.373   0.004  0.2945 -0.0534  0.6477
  521MPD2    C2 7736   1.067   1.330  17.641  0.0420  0.6882  0.1469
  521MPD2    C3 7737   1.192   1.390  17.660  0.4316  0.6594  0.8502
  521MPD2    C4 7738   1.199   1.493   0.052  0.5570 -0.4667  1.2142
  521MPD2    C5 7739   1.086   1.519   0.129  1.0076  0.8157 -0.6332
  521MPD2     H 7740   1.060   1.251  17.567  2.5509  0.3433  0.2752
  521MPD2    H1 7741   1.292   1.539   0.083  1.1196  0.4839 -1.9754
  521MPD2    H2 7742   0.875   1.492   0.165  0.2212  0.6585 -0.5257
  521MPD2    H3 7743   1.090   1.583   0.217 -0.2337  1.9079 -1.3605
  521MPD2     N 7744   1.295   1.337  17.582  0.4400  0.4555 -0.3351
  521MPD2    H5 7745   1.265   1.258  17.526  0.4321 -0.1995  0.6009
  521MPD2    N1 7746   0.822   1.313  17.684 -0.0994 -0.1387 -0.6467
  521MPD2    H7 7747   0.741   1.361   0.020 -0.3581 -0.3834 -0.8943
  522TMC3    C1 7748   1.511   1.323  17.485  0.0169  0.2431  0.1995
  522TMC3    C2 7749   1.619   1.397  17.443 -0.1866  0.2555  0.3273
  522TMC3    C3 7750   1.715   1.335  17.370  0.0072 -0.3185  0.0888
  522TMC3    C4 7751   1.500   1.187  17.454  0.6258 -0.4529  0.4263
  522TMC3    C5 7752   1.596   1.134  17.367  0.2194  1.2513 -0.2999
  522TMC3    C6 7753   1.699   1.209  17.319 -0.1400 -0.6522 -0.1597
  522TMC3     C 7754   1.423   1.384  17.585  0.0082  0.0809  0.7038
  522TMC3     O 7755   1.468   1.490  17.633 -0.0026  0.1516 -0.6265
  522TMC3     H 7756   1.620   1.502  17.471 -1.5098  0.1354  0.7881
  522TMC3    H1 7757   1.420   1.127  17.496  1.8942 -2.6632 -0.3116
  522TMC3    H2 7758   1.782   1.166  17.264 -0.0648 -0.2706 -0.3503
  522TMC3    C7 7759   1.555   1.025  17.279  0.6728 -0.1769  0.3139
  522TMC3    C8 7760   1.838   1.400  17.372  0.1892  0.0436  0.1890
  522TMC3    O1 7761   1.639   0.953  17.221  0.1701  0.0793 -0.4916
  522TMC3    O2 7762   1.876   1.459  17.473 -0.4442 -0.4069  0.0931
  523MPD2     C 7763   4.260   0.400  10.339 -0.4514 -0.2045  0.2206
  523MPD2    C1 7764   4.131   0.360  10.299 -0.0772 -0.0831  0.1485
  523MPD2    C2 7765   4.077   0.404  10.181  0.0752  0.4076  0.2519
  523MPD2    C3 7766   4.166   0.483  10.102  0.4379 -0.5232 -0.3556
  523MPD2    C4 7767   4.293   0.511  10.137  0.4191  0.0957 -0.3348
  523MPD2    C5 7768   4.338   0.479  10.258 -0.9982  0.2552 -0.2514
  523MPD2     H 7769   3.973   0.381  10.164 -0.1765  2.0318 -0.3117
  523MPD2    H1 7770   4.352   0.561  10.060  0.2986  0.4335 -0.2086
  523MPD2    H2 7771   4.303   0.376  10.436 -1.1808 -1.0942  0.3276
  523MPD2    H3 7772   4.435   0.511  10.295 -0.9590 -1.2746  0.9355
  523MPD2     N 7773   4.124   0.531   9.979 -0.2784  0.7174 -0.3276
  523MPD2    H5 7774   4.176   0.603   9.930 -1.5112  0.4818 -1.9756
  523MPD2    N1 7775   4.060   0.287  10.395 -0.1764  0.6180 -0.4218
  523MPD2    H7 7776   4.104   0.277  10.486 -0.9968  0.0068 -0.0927
  524TMC3    C1 7777   3.973   0.545   9.798 -0.0786 -0.0398 -0.3576
  524TMC3    C2 7778   3.896   0.467   9.714 -0.5354 -0.2596  0.7607
  524TMC3    C3 7779   3.833   0.529   9.620 -0.2263  0.6976  0.2639
  524TMC3    C4 7780   3.958   0.680   9.809  0.5163  0.4579 -0.8554
  524TMC3    C5 7781   3.876   0.740   9.718 -0.1067  0.4562  0.1001
  524TMC3    C6 7782   3.819   0.665   9.615  0.5463  0.9693  0.1412
  524TMC3     C 7783   4.016   0.472   9.913 -0.9491 -0.2749 -0.2075
  524TMC3     O 7784   3.946   0.373   9.934 -0.0670 -0.0433 -1.1336
  524TMC3     H 7785   3.923   0.363   9.698  2.0523  0.2286  1.9598
  524TMC3    H1 7786   4.016   0.734   9.883  2.3580 -3.5856  0.6357
  524TMC3    H2 7787   3.778   0.715   9.528 -1.1218  0.5029  0.6642
  524TMC3    C7 7788   3.882   0.878   9.709  0.2404 -0.2425  0.0523
  524TMC3    C8 7789   3.782   0.447   9.518 -0.8278 -0.3636  0.1037
  524TMC3    O1 7790   3.975   0.930   9.770  0.1592  0.0363 -0.3547
  524TMC3    O2 7791   3.820   0.331   9.503  0.0721 -0.2026 -0.8589
  525MPD2     C 7792   1.922   2.892  14.725  0.7936  0.0062  0.5071
  525MPD2    C1 7793   2.021   2.953  14.799  0.1525  0.6190 -0.0059
  525MPD2    C2 7794   2.084   3.066  14.747  0.3577 -0.2563 -0.0431
  525MPD2    C3 7795   2.045   3.119  14.626 -0.0097 -0.2132 -0.2172
  525MPD2    C4 7796   1.931   3.060  14.561  0.9794  0.7436 -0.6929
  525MPD2    C5 7797   1.873   2.941  14.604  0.1781 -0.4429 -0.7578
  525MPD2     H 7798   2.172   3.111  14.792  0.1144 -0.6842  0.8757
  525MPD2    H1 7799   1.887   3.098  14.469  0.7891  2.2185  0.0066
  525MPD2    H2 7800   1.875   2.803  14.766  3.2704 -1.5208  0.0364
  525MPD2    H3 7801   1.780   2.911  14.556  0.0778 -1.8508  0.3013
  525MPD2     N 7802   2.089   3.241  14.574 -0.0639  0.3498  0.5493
  525MPD2    H5 7803   2.028   3.277  14.501  2.1746  1.2801 -0.8834
  525MPD2    N1 7804   2.058   2.888  14.922  0.6887 -0.5248 -0.0127
  525MPD2    H7 7805   2.136   2.935  14.968 -0.1161  0.5100  0.2870
  526TMC3    C1 7806   2.060   2.733  15.097 -0.0941 -0.1702 -0.6925
  526TMC3    C2 7807   2.000   2.698  15.215 -0.0733  0.5522 -0.7621
  526TMC3    C3 7808   2.076   2.658  15.317  0.2179 -0.1333 -0.4284
  526TMC3    C4 7809   2.194   2.728  15.086  0.0152 -0.1581 -0.0295
  526TMC3    C5 7810   2.273   2.688  15.194  0.0639  0.0064 -0.1493
  526TMC3    C6 7811   2.216   2.650  15.313  0.2741  0.2561  0.6522
  526TMC3     C 7812   1.980   2.801  14.994 -0.2559  0.0524 -0.3340
  526TMC3     O 7813   1.856   2.789  14.988  0.3341  0.1523 -0.2439
  526TMC3     H 7814   1.894   2.722  15.217 -0.6492 -2.0694  0.4393
  526TMC3    H1 7815   2.235   2.750  14.988  0.9979 -1.6397  0.0513
  526TMC3    H2 7816   2.285   2.626  15.393  0.7742 -1.8872 -0.4287
  526TMC3    C7 7817   2.413   2.651  15.180  0.1544 -0.4464  0.1503
  526TMC3    C8 7818   2.019   2.632  15.444 -0.6104  0.0190 -0.4152
  526TMC3    O1 7819   2.466   2.648  15.290 -0.0074 -0.0010  0.2260
  526TMC3    O2 7820   2.089   2.588  15.533 -0.4901 -0.1378 -0.2164
  527MPD2     C 7821   0.196   0.565   2.220 -0.2206  0.6305 -1.0267
  527MPD2    C1 7822   0.327   0.518   2.209 -0.5351  0.3422  0.3255
  527MPD2    C2 7823   0.392   0.538   2.090 -0.1602 -0.5207  0.3612
  527MPD2    C3 7824   0.336   0.594   1.978 -0.4007 -0.3426  0.3657
  527MPD2    C4 7825   0.208   0.636   1.992 -0.2552  0.5138  0.5913
  527MPD2    C5 7826   0.135   0.613   2.108  0.3533  0.0625  0.3645
  527MPD2     H 7827   0.491   0.496   2.079 -0.2141 -0.3776 -0.6733
  527MPD2    H1 7828   0.150   0.671   1.907 -2.5038 -0.2774  1.7873
  527MPD2    H2 7829   0.142   0.560   2.314  0.8745  1.4927 -0.3411
  527MPD2    H3 7830   0.034   0.651   2.110 -0.1807 -1.3238 -0.0998
  527MPD2     N 7831   0.403   0.591   1.852 -0.0911  0.3486 -0.9700
  527MPD2    H5 7832   0.492   0.545   1.839 -0.0017  0.4526 -0.7241
  527MPD2    N1 7833   0.402   0.453   2.312 -0.2533 -0.0484 -0.0119
  527MPD2    H7 7834   0.500   0.434   2.298 -0.0774  0.7669  0.1036
  528TMC3    C1 7835   0.442   0.343   2.508  0.1825  0.0045  0.2263
  528TMC3    C2 7836   0.561   0.402   2.519  0.0672 -0.4647  0.7360
  528TMC3    C3 7837   0.648   0.361   2.619 -0.6479  0.1972  0.0240
  528TMC3    C4 7838   0.413   0.235   2.581  0.7313 -0.1131 -0.0122
  528TMC3    C5 7839   0.509   0.183   2.666 -0.0162 -0.3529  0.0986
  528TMC3    C6 7840   0.624   0.253   2.690  0.2566 -0.5662  0.0059
  528TMC3     C 7841   0.342   0.400   2.419 -0.5469  0.3266  0.3333
  528TMC3     O 7842   0.223   0.404   2.445  0.2315 -0.2114 -0.0518
  528TMC3     H 7843   0.572   0.500   2.474 -2.4059 -1.1451 -1.3720
  528TMC3    H1 7844   0.320   0.184   2.559  1.6390 -1.1326 -1.4494
  528TMC3    H2 7845   0.698   0.231   2.766  0.8835  1.2665 -0.0923
  528TMC3    C7 7846   0.491   0.042   2.702 -0.0375 -0.0335  0.7239
  528TMC3    C8 7847   0.757   0.458   2.648  0.2617 -0.5590 -0.3615
  528TMC3    O1 7848   0.378   0.003   2.703  0.3065 -0.4403 -0.5056
  528TMC3    O2 7849   0.736   0.576   2.635 -0.4936  0.7433  0.7831
  529MPD2     C 7850   2.949   4.565   1.068  0.6811  0.3728  0.1374
  529MPD2    C1 7851   2.893   4.444   1.047  0.3715 -0.3119 -0.2902
  529MPD2    C2 7852   2.909   4.378   0.924  0.1916  0.2451 -0.2677
  529MPD2    C3 7853   2.974   4.439   0.819 -0.4232  0.2071 -0.0972
  529MPD2    C4 7854   3.026   4.565   0.846  0.4961 -0.9108 -0.2209
  529MPD2    C5 7855   3.008   4.625   0.964 -0.0014  0.5125  0.3640
  529MPD2     H 7856   2.871   4.278   0.912 -0.6771  0.8725 -2.6538
  529MPD2    H1 7857   3.091   4.628   0.786 -0.6579 -0.1345 -0.6678
  529MPD2    H2 7858   2.963   4.611   1.165 -1.4532 -2.2682  1.6896
  529MPD2    H3 7859   3.065   4.711   1.000 -0.0639 -0.7917  3.5375
  529MPD2     N 7860   3.007   4.387   0.694 -0.6570  0.2297  0.7917
  529MPD2    H5 7861   3.052   4.444   0.623 -1.4545  0.2342  0.2857
  529MPD2    N1 7862   2.825   4.372   1.151 -0.6031  0.1734 -0.3322
  529MPD2    H7 7863   2.798   4.274   1.148  1.2585 -0.3189 -1.4533
  530TMC3    C1 7864   2.738   4.335   1.357 -0.3751  0.8305 -0.0130
  530TMC3    C2 7865   2.755   4.352   1.491 -0.4182 -0.1204  0.0350
  530TMC3    C3 7866   2.728   4.238   1.571 -0.2113  0.0783  0.3118
  530TMC3    C4 7867   2.682   4.216   1.310 -0.3851  0.2808  0.1328
  530TMC3    C5 7868   2.650   4.116   1.392 -0.1646 -0.4600  1.0734
  530TMC3    C6 7869   2.683   4.122   1.522  0.3806 -0.0717  0.1143
  530TMC3     C 7870   2.811   4.427   1.273 -0.1270  0.5999 -0.0424
  530TMC3     O 7871   2.812   4.543   1.315  0.0686 -0.8634  0.0416
  530TMC3     H 7872   2.788   4.447   1.532  1.5110 -0.3804 -0.9229
  530TMC3    H1 7873   2.657   4.213   1.204 -0.7040  0.5017  0.1988
  530TMC3    H2 7874   2.670   4.040   1.591 -2.1212  0.7808  0.6546
  530TMC3    C7 7875   2.538   4.035   1.344  0.6487  0.6717 -0.8801
  530TMC3    C8 7876   2.784   4.240   1.707  0.7003  1.0229 -0.0698
  530TMC3    O1 7877   2.471   4.083   1.255  0.3590 -0.3169  0.2486
  530TMC3    O2 7878   2.743   4.321   1.783  0.3744 -0.0996  0.5559
  531MPD2     C 7879   0.932   1.799  13.021 -0.0943  0.2844 -0.4182
  531MPD2    C1 7880   0.876   1.921  13.012 -0.4262  0.4150  0.2642
  531MPD2    C2 7881   0.822   1.967  12.890 -0.6709  0.9830  0.2064
  531MPD2    C3 7882   0.826   1.888  12.779  0.5779 -0.2468 -0.3764
  531MPD2    C4 7883   0.883   1.761  12.789 -0.3838 -0.4590  0.1950
  531MPD2    C5 7884   0.930   1.721  12.911 -0.1221 -0.5129 -0.3287
  531MPD2     H 7885   0.786   2.067  12.867 -1.8432  0.4850 -0.1006
  531MPD2    H1 7886   0.879   1.680  12.717  0.9143  1.2689 -1.8238
  531MPD2    H2 7887   0.984   1.768  13.112  1.7687  0.1153 -1.5505
  531MPD2    H3 7888   0.971   1.621  12.918 -0.7493 -0.5702  2.3795
  531MPD2     N 7889   0.780   1.949  12.661  0.1939 -0.4748 -0.7249
  531MPD2    H5 7890   0.742   2.043  12.661 -0.8793 -0.8902  2.0117
  531MPD2    N1 7891   0.894   2.008  13.120 -0.2804 -0.6256  0.8974
  531MPD2    H7 7892   0.948   1.970  13.197 -0.9463 -1.8962  0.7290
  532TMC3    C1 7893   0.892   2.216  13.232 -0.1320  0.1563  0.0011
  532TMC3    C2 7894   0.839   2.343  13.233 -0.0272  0.6774  0.4108
  532TMC3    C3 7895   0.915   2.448  13.280 -0.3947 -0.5713  0.6851
  532TMC3    C4 7896   1.018   2.195  13.282  0.0141 -0.4334  0.0382
  532TMC3    C5 7897   1.085   2.303  13.328 -0.1214  0.0262  0.4847
  532TMC3    C6 7898   1.032   2.432  13.331  0.8182 -0.1321  0.0276
  532TMC3     C 7899   0.837   2.137  13.126 -0.5946  0.2296  0.2357
  532TMC3     O 7900   0.773   2.205  13.045 -0.1448  0.7062 -0.0822
  532TMC3     H 7901   0.733   2.355  13.216 -0.3623 -1.9331  0.7236
  532TMC3    H1 7902   1.061   2.096  13.282 -1.3893 -1.0461  1.5366
  532TMC3    H2 7903   1.087   2.518  13.369 -0.7866  0.3101  1.3774
  532TMC3    C7 7904   1.221   2.298  13.392  0.1297  0.5351  0.2668
  532TMC3    C8 7905   0.913   2.543  13.174 -0.2181  0.1094  0.0148
  532TMC3    O1 7906   1.261   2.400  13.445 -0.0086 -0.8258 -0.0343
  532TMC3    O2 7907   0.981   2.642  13.190  0.1731 -0.4354 -0.0123
  533TMC3    C1 7908   2.202   3.447  14.577 -0.0160 -0.2431  0.5457
  533TMC3    C2 7909   2.323   3.506  14.600 -1.1329 -0.7409 -0.3168
  533TMC3    C3 7910   2.322   3.634  14.657  0.0854 -0.6604 -0.4609
  533TMC3    C4 7911   2.089   3.499  14.611  0.6372 -0.6685 -0.1064
  533TMC3    C5 7912   2.090   3.614  14.682  0.2584  0.2685 -0.3963
  533TMC3    C6 7913   2.206   3.688  14.699  0.2356  0.2818 -0.2280
  533TMC3     C 7914   2.200   3.307  14.618 -0.8823  0.5042  0.2418
  533TMC3     O 7915   2.289   3.261  14.685 -0.0128  0.1418 -0.4845
  533TMC3     H 7916   2.413   3.447  14.589 -1.9332 -1.7603 -1.4508
  533TMC3    H1 7917   1.994   3.447  14.613 -0.2826  1.0817  2.9194
  533TMC3    H2 7918   2.211   3.787  14.743  1.4050  0.4453 -0.7493
  533TMC3    C7 7919   1.996   3.613  14.795  0.2036 -0.1480 -0.8608
  533TMC3    C8 7920   2.436   3.693  14.727 -0.2513  0.1669 -0.1229
  533TMC3    O1 7921   1.944   3.506  14.820  0.6131  0.3837  0.4278
  533TMC3    O2 7922   2.417   3.780  14.813 -0.2210 -0.2364 -0.0853
  534MPD2     C 7923   4.638   3.919   1.716 -0.9835  0.2605 -0.9438
  534MPD2    C1 7924   4.569   4.014   1.795  0.2293 -0.2236  0.6003
  534MPD2    C2 7925   4.435   4.026   1.777  0.3803  0.0130  0.4265
  534MPD2    C3 7926   4.370   3.961   1.673  0.4878 -0.5275  0.1198
  534MPD2    C4 7927   4.441   3.882   1.588 -0.5111  0.2241 -0.3687
  534MPD2    C5 7928   4.575   3.859   1.607 -0.0067  0.3115  0.1236
  534MPD2     H 7929   4.387   4.095   1.845 -0.1221  0.7237 -0.6612
  534MPD2    H1 7930   4.394   3.829   1.507  0.0566  2.1499 -1.9753
  534MPD2    H2 7931   0.019   3.904   1.725 -0.8700  0.7839 -1.3982
  534MPD2    H3 7932   4.637   3.803   1.538  1.0170  0.8123  0.6393
  534MPD2     N 7933   4.231   3.976   1.648  0.4272  0.0978 -0.0460
  534MPD2    H5 7934   4.189   3.920   1.575  0.7114  1.3213 -1.1485
  534MPD2    N1 7935   4.642   4.081   1.895 -0.0683 -1.1361  0.0067
  534MPD2    H7 7936   4.589   4.148   1.951  1.7870  0.9112 -0.7014
  535TMC3    C1 7937   4.027   4.087   1.647  0.3319 -1.0350 -0.2974
  535TMC3    C2 7938   3.963   4.177   1.725  1.7161  0.6988  0.0051
  535TMC3    C3 7939   3.910   4.286   1.668 -0.9294 -0.2432 -1.0396
  535TMC3    C4 7940   4.045   4.114   1.517  0.6308 -0.4569  0.3443
  535TMC3    C5 7941   4.004   4.233   1.465 -0.0885  0.0965 -0.0978
  535TMC3    C6 7942   3.931   4.318   1.539  0.4051  0.0180  0.5381
  535TMC3     C 7943   4.143   4.048   1.721  0.7459  0.5104  0.5998
  535TMC3     O 7944   4.153   4.103   1.831  0.3403  0.5177 -0.2855
  535TMC3     H 7945   3.934   4.152   1.826 -0.9721 -0.6734 -1.0980
  535TMC3    H1 7946   4.111   4.048   1.463 -1.7736 -1.2334 -1.6232
  535TMC3    H2 7947   3.900   4.409   1.489 -1.7062  0.4064  2.5193
  535TMC3    C7 7948   4.100   4.285   1.381  0.1064  0.5285  0.4982
  535TMC3    C8 7949   3.811   4.357   1.749 -0.4697  0.3729  0.3696
  535TMC3    O1 7950   4.102   4.236   1.266 -0.1401  0.0122  0.1367
  535TMC3    O2 7951   3.723   4.406   1.681 -0.2185 -0.0761 -0.4073
  536MPD2     C 7952   3.774   3.078  16.930  0.0648  0.0770 -0.1833
  536MPD2    C1 7953   3.657   3.017  16.967  0.3651  0.3002  0.6520
  536MPD2    C2 7954   3.537   3.051  16.905 -0.4285  0.1657  0.6730
  536MPD2    C3 7955   3.527   3.164  16.818 -0.0516  0.4527 -0.0262
  536MPD2    C4 7956   3.645   3.229  16.797  0.4572  1.0695 -0.0344
  536MPD2    C5 7957   3.764   3.185  16.846  0.1641  0.0830  0.5051
  536MPD2     H 7958   3.451   2.987  16.923  0.6751 -1.3805  0.4626
  536MPD2    H1 7959   3.654   3.308  16.722 -0.5485 -0.0638 -1.3579
  536MPD2    H2 7960   3.874   3.066  16.969  0.6163 -2.6938 -2.4501
  536MPD2    H3 7961   3.849   3.247  16.820  0.3591  0.0162  0.9791
  536MPD2     N 7962   3.418   3.203  16.746  0.3817 -0.3364  0.4325
  536MPD2    H5 7963   3.438   3.264  16.667 -0.2786 -0.5241  0.1151
  536MPD2    N1 7964   3.674   2.910  17.063  0.1811 -0.1108 -0.1899
  536MPD2    H7 7965   3.762   2.905  17.114 -1.0163  0.4160  1.9301
  537TMC3    C1 7966   3.619   2.741  17.197  0.6173 -0.2351 -0.6987
  537TMC3    C2 7967   3.717   2.666  17.137 -0.2678  0.3150  0.2874
  537TMC3    C3 7968   3.767   2.569  17.206 -0.1245 -0.1326  0.1395
  537TMC3    C4 7969   3.567   2.725  17.322  0.8460  0.0948 -0.2671
  537TMC3    C5 7970   3.619   2.616  17.391 -0.2233 -0.3033 -0.4185
  537TMC3    C6 7971   3.723   2.539  17.335  0.2756  0.4396 -0.2539
  537TMC3     C 7972   3.566   2.838  17.112 -0.1204 -0.5697 -0.4370
  537TMC3     O 7973   3.444   2.846  17.097 -0.0499  0.2585 -0.4286
  537TMC3     H 7974   3.741   2.675  17.031 -1.8138 -0.1229 -0.1140
  537TMC3    H1 7975   3.484   2.783  17.359  0.8311 -0.0817 -0.0210
  537TMC3    H2 7976   3.744   2.446  17.387  1.0416  0.9352  0.3254
  537TMC3    C7 7977   3.549   2.585  17.517  0.3263 -0.0470  0.0532
  537TMC3    C8 7978   3.808   2.460  17.124 -1.3245  0.3854 -0.2703
  537TMC3    O1 7979   3.454   2.658  17.538  0.1417 -0.8722  0.0026
  537TMC3    O2 7980   3.736   2.440  17.028  0.1478 -0.5251  0.7743
  538TMC3    C1 7981   4.492   0.572  11.277 -0.1519 -0.4487  0.0787
  538TMC3    C2 7982   4.622   0.561  11.288  0.4739  0.4821  0.4831
  538TMC3    C3 7983   4.708   0.635  11.206  0.3241  0.4191  0.3136
  538TMC3    C4 7984   4.434   0.652  11.181 -0.1790 -0.2757 -0.0289
  538TMC3    C5 7985   4.516   0.729  11.108 -0.0793 -0.6682 -0.0312
  538TMC3    C6 7986   4.653   0.732  11.126  0.0611  1.0506  0.4360
  538TMC3     C 7987   4.401   0.529  11.383  0.2532  0.3121 -0.1271
  538TMC3     O 7988   4.282   0.536  11.353  0.2438 -0.1341  0.1940
  538TMC3     H 7989   4.667   0.486  11.353  0.2272  0.0317  0.1389
  538TMC3    H1 7990   4.326   0.659  11.172 -0.2581 -0.6294  0.6702
  538TMC3    H2 7991   4.720   0.797  11.071 -0.1051 -1.1006 -2.3729
  538TMC3    C7 7992   4.452   0.848  11.049 -0.0093  0.2391 -0.1808
  538TMC3    C8 7993   0.117   0.653  11.256 -0.5485 -0.5432  0.1146
  538TMC3    O1 7994   4.338   0.832  11.010 -0.3972 -0.6789  0.2173
  538TMC3    O2 7995   0.138   0.600  11.367  0.2094  0.1411  0.2445
  539MPD2     C 7996   4.081   0.317  12.424  0.7102  0.1949  0.2104
  539MPD2    C1 7997   4.066   0.283  12.287 -0.6944 -0.0896 -0.3608
  539MPD2    C2 7998   4.071   0.386  12.197 -0.5758  0.4554 -0.3603
  539MPD2    C3 7999   4.093   0.516  12.245  0.4500  0.1796 -1.1025
  539MPD2    C4 8000   4.105   0.542  12.377 -0.8080  0.1899 -0.0845
  539MPD2    C5 8001   4.091   0.442  12.471 -0.1090 -1.0670  0.4010
  539MPD2     H 8002   4.047   0.367  12.093  0.4493  0.4961 -0.6076
  539MPD2    H1 8003   4.099   0.645  12.410 -2.5477  0.4995 -1.3252
  539MPD2    H2 8004   4.090   0.242  12.501 -1.1427 -0.8587 -0.5732
  539MPD2    H3 8005   4.089   0.454  12.578 -0.1994  0.4730  0.2362
  539MPD2     N 8006   4.102   0.628  12.164 -0.4480  0.1465 -0.1008
  539MPD2    H5 8007   4.141   0.704  12.218 -0.0302 -1.2951  1.6385
  539MPD2    N1 8008   4.037   0.159  12.238 -0.0287  0.3852 -0.2350
  539MPD2    H7 8009   4.049   0.149  12.138 -4.2187  2.7094 -0.9338
  540TMC3    C1 8010   4.038   0.783  11.997  0.2744  0.2471  0.2972
  540TMC3    C2 8011   4.047   0.787  11.862 -0.5683 -0.0365 -0.2378
  540TMC3    C3 8012   4.075   0.912  11.806  0.3371  0.5455 -0.1405
  540TMC3    C4 8013   4.072   0.886  12.080 -0.0173  0.3770  0.2882
  540TMC3    C5 8014   4.101   1.008  12.017  0.4770  0.7399 -0.2685
  540TMC3    C6 8015   4.116   1.020  11.882  0.1322 -0.4775  0.3687
  540TMC3     C 8016   4.034   0.647  12.045  0.2148 -0.3137  0.0262
  540TMC3     O 8017   3.986   0.563  11.975 -0.2112 -0.7560 -0.7457
  540TMC3     H 8018   4.030   0.694  11.808 -3.0537  1.8472 -2.6560
  540TMC3    H1 8019   4.066   0.890  12.189 -1.9733 -1.3564  0.2345
  540TMC3    H2 8020   4.124   1.112  11.827 -0.0640 -2.7215 -3.3832
  540TMC3    C7 8021   4.074   1.116  12.106  0.2913  0.2793 -0.2728
  540TMC3    C8 8022   4.071   0.924  11.662  0.4138  0.0340  0.3671
  540TMC3    O1 8023   4.023   1.093  12.214  0.2224 -0.6050  0.1636
  540TMC3    O2 8024   4.133   1.011  11.606 -0.4739 -0.2240  0.2531
  541MPD2     C 8025   2.317   2.227  13.245  0.5145  0.1090 -0.3732
  541MPD2    C1 8026   2.442   2.208  13.206 -0.2824 -0.6796  0.5488
  541MPD2    C2 8027   2.492   2.269  13.094  0.1300  0.0481 -0.3739
  541MPD2    C3 8028   2.421   2.371  13.031  1.1054 -0.5023  0.3387
  541MPD2    C4 8029   2.287   2.391  13.064 -0.7457 -0.4269 -1.0758
  541MPD2    C5 8030   2.248   2.328  13.184 -0.3156  1.0913  0.4588
  541MPD2     H 8031   2.598   2.259  13.072  0.2744 -0.1484  0.4041
  541MPD2    H1 8032   2.218   2.459  13.015  0.6988  0.8689 -1.3197
  541MPD2    H2 8033   2.265   2.174  13.325 -2.9018  0.8373 -2.1192
  541MPD2    H3 8034   2.143   2.335  13.211 -0.2773 -1.7096  1.3966
  541MPD2     N 8035   2.470   2.447  12.921  0.0758  0.0609 -0.1073
  541MPD2    H5 8036   2.405   2.514  12.883  0.8230  0.6733 -0.3053
  541MPD2    N1 8037   2.520   2.121  13.275  0.4317 -0.0583 -0.1753
  541MPD2    H7 8038   2.476   2.046  13.327  1.5716 -0.7947 -0.2480
  542TMC3    C1 8039   2.609   2.538  12.768  0.1144 -0.6544  0.3198
  542TMC3    C2 8040   2.684   2.505  12.649 -0.1075  0.2635 -0.4720
  542TMC3    C3 8041   2.664   2.578  12.534 -0.2506 -0.0620  0.2166
  542TMC3    C4 8042   2.518   2.641  12.763 -0.0913 -0.2419  0.3747
  542TMC3    C5 8043   2.487   2.695  12.641  0.0631 -0.4149  0.5853
  542TMC3    C6 8044   2.557   2.662  12.526 -0.0432 -0.2953  0.4840
  542TMC3     C 8045   2.601   2.441  12.869  0.3830  0.0211  0.4858
  542TMC3     O 8046   2.695   2.364  12.889 -0.4711 -0.9602 -0.4509
  542TMC3     H 8047   2.728   2.406  12.648  0.4777  0.5505 -3.4260
  542TMC3    H1 8048   2.473   2.688  12.850 -1.2032 -0.7956  0.0975
  542TMC3    H2 8049   2.542   2.719  12.435  1.2783 -0.1961  0.3282
  542TMC3    C7 8050   2.423   2.827  12.648  0.2008 -0.0845  0.5671
  542TMC3    C8 8051   2.751   2.550  12.422 -0.4967 -0.6152  0.3579
  542TMC3    O1 8052   2.339   2.844  12.734  0.1967 -0.2626  0.4615
  542TMC3    O2 8053   2.719   2.571  12.307  0.1303 -0.2045 -0.2477
  543TMC3    C1 8054   1.617   2.710  17.531 -0.1741  1.0859  0.3320
  543TMC3    C2 8055   1.633   2.579  17.491  0.0305 -0.1549 -0.8205
  543TMC3    C3 8056   1.526   2.496  17.490  0.1226 -0.0880 -0.3888
  543TMC3    C4 8057   1.498   2.750  17.589 -0.3439  0.6811  0.3989
  543TMC3    C5 8058   1.406   2.652  17.612 -0.5318 -0.8933 -0.1467
  543TMC3    C6 8059   1.414   2.532  17.554  0.0914  0.0910 -1.0858
  543TMC3     C 8060   1.685   2.805  17.453  0.2139  0.1180  0.3713
  543TMC3     O 8061   1.804   2.788  17.440  0.0514  0.1968  0.9888
  543TMC3     H 8062   1.708   2.558  17.415  0.7188  2.8369 -0.9923
  543TMC3    H1 8063   1.491   2.850  17.631 -2.9586  0.4272  0.5704
  543TMC3    H2 8064   1.327   2.468  17.551 -1.1007  1.4767  2.8120
  543TMC3    C7 8065   1.274   2.702  17.659 -0.1044  0.0058 -0.5373
  543TMC3    C8 8066   1.552   2.360  17.454  0.0294 -0.0288  0.0053
  543TMC3    O1 8067   1.250   2.818  17.635 -0.0008  0.1135  0.2117
  543TMC3    O2 8068   1.453   2.290  17.436  0.0518 -0.2378 -0.1983
  544MPD2     C 8069   1.832   1.927  17.422 -0.1606  0.4294 -1.2192
  544MPD2    C1 8070   1.912   2.030  17.464  0.2772 -0.0797  0.3957
  544MPD2    C2 8071   1.861   2.160  17.480 -0.1975 -0.3101  0.0907
  544MPD2    C3 8072   1.732   2.189  17.448  0.8228  0.0846 -1.1758
  544MPD2    C4 8073   1.654   2.081  17.402  0.6273 -0.2780  0.0207
  544MPD2    C5 8074   1.698   1.951  17.394 -0.3023  0.2146 -0.4593
  544MPD2     H 8075   1.930   2.234  17.518 -0.8898 -0.3356  1.3725
  544MPD2    H1 8076   1.551   2.092  17.372  1.1575  1.5864 -1.1298
  544MPD2    H2 8077   1.870   1.825  17.421  2.8169  1.5293 -0.1144
  544MPD2    H3 8078   1.623   1.876  17.372 -0.1955  0.4868 -1.7755
  544MPD2     N 8079   1.685   2.319  17.462 -0.3426 -0.3489 -0.2076
  544MPD2    H5 8080   1.754   2.386  17.496 -0.0376 -0.8013  0.0687
  544MPD2    N1 8081   2.039   1.992  17.511  0.0237  1.0256  0.2040
  544MPD2    H7 8082   2.052   1.892  17.522 -1.0742  0.6645 -1.7502
  545TMC3    C1 8083   2.272   2.000  17.564  0.7428  0.8235 -0.8126
  545TMC3    C2 8084   2.384   2.079  17.572 -0.3413 -0.6072 -0.0837
  545TMC3    C3 8085   2.476   2.048  17.672 -0.7692  1.1448  0.4448
  545TMC3    C4 8086   2.258   1.896  17.648 -0.2121 -0.1401  0.2321
  545TMC3    C5 8087   2.353   1.865   0.043  0.1833  0.3571 -0.8116
  545TMC3    C6 8088   2.471   1.935   0.046  0.0280 -0.5369  0.1071
  545TMC3     C 8089   2.151   2.072  17.519 -0.3677  0.1520 -0.9311
  545TMC3     O 8090   2.171   2.179  17.460 -0.3345 -0.0480  0.3758
  545TMC3     H 8091   2.393   2.168  17.510 -1.5478 -0.0333  0.5728
  545TMC3    H1 8092   2.160   1.849  17.657  0.1181 -1.4850 -3.4100
  545TMC3    H2 8093   2.545   1.920   0.124  1.8420  1.8075 -1.1776
  545TMC3    C7 8094   2.312   1.776   0.151  0.5818 -0.4230 -0.0274
  545TMC3    C8 8095   2.570   2.145   0.004  0.2974  0.1476  0.2539
  545TMC3    O1 8096   2.191   1.754   0.156 -0.5142  0.1712 -0.3954
  545TMC3    O2 8097   2.669   2.100   0.054 -0.4328 -0.5622  0.3247
  546MPD2     C 8098   3.410   3.157  17.229 -0.3468  0.4255  0.7205
  546MPD2    C1 8099   3.393   3.137  17.366  0.1588  0.1333  0.4850
  546MPD2    C2 8100   3.453   3.234  17.448 -0.3938 -0.1853 -0.0823
  546MPD2    C3 8101   3.525   3.342  17.393  0.1922 -0.6055 -0.5027
  546MPD2    C4 8102   3.531   3.361  17.257 -0.2797  0.5390 -0.1920
  546MPD2    C5 8103   3.473   3.266  17.181  0.9361 -0.2863 -0.1723
  546MPD2     H 8104   3.450   3.236  17.557  1.2119 -0.9426 -0.0276
  546MPD2    H1 8105   3.593   3.432  17.205  0.6098  0.2471  0.4802
  546MPD2    H2 8106   3.378   3.081  17.159  0.1189 -1.1316  2.2164
  546MPD2    H3 8107   3.484   3.271  17.073 -1.0689  0.0465 -0.3714
  546MPD2     N 8108   3.606   3.423  17.479 -0.1934 -0.3005  0.4086
  546MPD2    H5 8109   3.682   3.476  17.437 -2.2685  2.2787 -0.1460
  546MPD2    N1 8110   3.323   3.025  17.416  0.1759  0.2736 -0.1556
  546MPD2    H7 8111   3.277   2.970  17.345 -3.0174  1.1938  1.1902
  547TMC3    C1 8112   3.209   2.892  17.572 -0.0586 -0.0872  0.2232
  547TMC3    C2 8113   3.087   2.918  17.502  0.7174  0.8181 -0.7077
  547TMC3    C3 8114   2.982   2.843  17.543  0.8246  0.4216 -0.2843
  547TMC3    C4 8115   3.219   2.822  17.687 -0.0776 -0.4559  0.6328
  547TMC3    C5 8116   3.122   2.734   0.011 -0.6152  0.8252 -0.2699
  547TMC3    C6 8117   2.999   2.747  17.646 -0.1606  0.3110 -0.7533
  547TMC3     C 8118   3.310   2.993  17.550 -0.0446  0.2203  1.0718
  547TMC3     O 8119   3.359   3.041  17.648  0.1388  0.0166  0.2337
  547TMC3     H 8120   3.088   2.986  17.418 -1.2334 -0.0419 -1.4264
  547TMC3    H1 8121   3.306   2.815   0.048 -0.3049 -0.8367  0.9064
  547TMC3    H2 8122   2.918   2.682  17.676 -1.5679  2.4645  0.0815
  547TMC3    C7 8123   3.130   2.650   0.128  0.3999 -0.2774 -0.3438
  547TMC3    C8 8124   2.850   2.892  17.508  0.1895  0.1744  0.6716
  547TMC3    O1 8125   3.180   2.698   0.230 -0.7607 -0.2565 -0.3101
  547TMC3    O2 8126   2.843   2.959  17.405 -0.8502 -0.2953 -0.1100
  548MPD2     C 8127   3.445   3.926  12.965  0.0269  0.6041  0.0295
  548MPD2    C1 8128   3.365   3.815  12.961 -0.0841 -0.2865 -0.7525
  548MPD2    C2 8129   3.406   3.708  12.887 -0.7837  0.0635 -0.1490
  548MPD2    C3 8130   3.528   3.710  12.824 -0.1064  0.8880 -0.0699
  548MPD2    C4 8131   3.603   3.824  12.822  0.1314 -0.1850  0.2238
  548MPD2    C5 8132   3.562   3.929  12.901  0.8249 -0.3496  0.6803
  548MPD2     H 8133   3.355   3.613  12.891  0.7519 -0.6457  2.8904
  548MPD2    H1 8134   3.701   3.829  12.775 -1.2695  2.4592 -2.4215
  548MPD2    H2 8135   3.406   4.013  13.014 -0.9150  0.1770  0.0404
  548MPD2    H3 8136   3.636   4.008  12.906  0.7563 -0.1672 -1.3486
  548MPD2     N 8137   3.579   3.595  12.753  0.6386  0.2562 -0.1683
  548MPD2    H5 8138   3.512   3.525  12.722 -0.9520  3.0314 -2.9826
  548MPD2    N1 8139   3.237   3.828  13.017  0.5124 -0.2330 -0.6601
  548MPD2    H7 8140   3.208   3.921  13.045  1.6324 -0.2797  0.6643
  549TMC3    C1 8141   3.030   3.773  13.111 -0.0758 -0.1481  0.9064
  549TMC3    C2 8142   2.994   3.907  13.083  0.5222 -0.5827 -0.1045
  549TMC3    C3 8143   2.861   3.936  13.120 -0.4645 -0.4146  0.1251
  549TMC3    C4 8144   2.947   3.680  13.173 -0.4108  0.1224 -0.3143
  549TMC3    C5 8145   2.818   3.719  13.201 -0.1597  0.3658 -1.2161
  549TMC3    C6 8146   2.776   3.846  13.178 -0.2615 -0.2601  0.7419
  549TMC3     C 8147   3.146   3.727  13.037 -0.6910  0.3469 -0.4215
  549TMC3     O 8148   3.160   3.608  13.023  0.0288 -0.3724 -0.2366
  549TMC3     H 8149   3.045   3.965  13.007 -1.2889 -2.1182 -2.5110
  549TMC3    H1 8150   2.991   3.582  13.183 -1.9310 -0.4727  0.5667
  549TMC3    H2 8151   2.674   3.874  13.204 -1.2210 -0.2197 -3.0013
  549TMC3    C7 8152   2.714   3.623  13.200  0.4499 -0.2926 -0.3507
  549TMC3    C8 8153   2.792   4.053  13.071  0.0453 -0.2488 -0.6275
  549TMC3    O1 8154   2.609   3.660  13.146 -0.1196  0.1688 -0.4005
  549TMC3    O2 8155   2.669   4.039  13.071 -0.0160  0.0519  0.0218
  550TMC3    C1 8156   2.079   1.743  12.737  0.0570 -0.4283  0.0315
  550TMC3    C2 8157   2.028   1.785  12.852  0.3159 -0.1673 -0.5319
  550TMC3    C3 8158   1.888   1.778  12.859 -0.2251 -0.1764  0.4903
  550TMC3    C4 8159   2.002   1.682  12.639  0.8835  0.4516 -0.2274
  550TMC3    C5 8160   1.865   1.681  12.654  0.5563  0.1120 -0.2722
  550TMC3    C6 8161   1.804   1.722  12.768  0.2262 -0.3399 -0.6238
  550TMC3     C 8162   2.225   1.743  12.726  0.1377  0.0862  0.1295
  550TMC3     O 8163   2.293   1.719  12.826 -0.2548  0.0576  0.1277
  550TMC3     H 8164   2.094   1.838  12.920  0.7635 -1.7107  0.2324
  550TMC3    H1 8165   2.049   1.633  12.554 -1.5218 -1.2322 -0.5897
  550TMC3    H2 8166   1.697   1.734  12.785  0.3188  2.2184 -1.7459
  550TMC3    C7 8167   1.787   1.631  12.541  0.0023  0.1237  0.3967
  550TMC3    C8 8168   1.822   1.849  12.967 -0.0740 -0.1272 -0.5943
  550TMC3    O1 8169   1.844   1.644  12.433  0.0736 -0.0652  0.0487
  550TMC3    O2 8170   1.701   1.841  12.974 -0.3337 -0.3336 -0.3805
  551TMC3    C1 8171   4.166   4.690  13.816 -0.0957 -0.0778  0.2219
  551TMC3    C2 8172   4.244   0.029  13.730 -0.7876 -0.2704  0.3393
  551TMC3    C3 8173   4.366   0.077  13.768 -0.2883  0.7574  0.5711
  551TMC3    C4 8174   4.210   4.651  13.939 -0.0182  0.1330 -0.1232
  551TMC3    C5 8175   4.335   4.694  13.975 -0.2046  0.0187  0.2527
  551TMC3    C6 8176   4.414   0.052  13.895 -0.0439  0.1613 -0.0031
  551TMC3     C 8177   4.065   4.616  13.746 -0.4839 -0.2056 -0.6288
  551TMC3     O 8178   4.092   4.592  13.629 -0.2600  0.4865  0.4395
  551TMC3     H 8179   4.208   0.053  13.631 -0.4274  2.9798  0.9697
  551TMC3    H1 8180   4.159   4.587  14.009 -0.6433  0.8448  0.0748
  551TMC3    H2 8181   4.519   0.065  13.918  0.3498 -0.6037 -1.3746
  551TMC3    C7 8182   4.369   4.673  14.113 -0.1675  0.1565  0.3223
  551TMC3    C8 8183   4.465   0.090  13.666 -0.0274 -0.2843 -0.6170
  551TMC3    O1 8184   4.297   4.608  14.187  0.2724 -0.3487  0.0891
  551TMC3    O2 8185   4.425   0.042  13.561  0.0791 -0.1168  0.0199
  552MPD2     C 8186   1.300   2.121  13.927  0.0250  0.3551 -0.0420
  552MPD2    C1 8187   1.317   1.992  13.968 -1.0250  0.4117  0.2766
  552MPD2    C2 8188   1.422   1.958  14.042  0.1801 -0.2512 -0.5437
  552MPD2    C3 8189   1.520   2.047  14.080 -0.1137 -0.2673  0.4514
  552MPD2    C4 8190   1.508   2.180  14.027 -0.1152 -0.3338  0.3519
  552MPD2    C5 8191   1.396   2.212  13.954  0.3728  0.3591 -0.3571
  552MPD2     H 8192   1.437   1.854  14.069 -0.0083 -0.3661 -0.8771
  552MPD2    H1 8193   1.589   2.252  14.035  0.1075 -0.3308 -1.8621
  552MPD2    H2 8194   1.209   2.162  13.884  1.1148  1.5041 -1.2782
  552MPD2    H3 8195   1.362   2.312  13.928  1.7066  0.6462 -0.9602
  552MPD2     N 8196   1.631   2.015  14.156 -0.6055 -0.1041 -0.2242
  552MPD2    H5 8197   1.703   2.086  14.161  0.6072 -1.4350  1.3687
  552MPD2    N1 8198   1.224   1.892  13.954 -0.6571  0.0502  0.0179
  552MPD2    H7 8199   1.244   1.803  13.999 -0.7970 -1.0589 -2.1289
  553TMC3    C1 8200   1.050   1.769  13.886 -0.8408 -0.5210  0.1499
  553TMC3    C2 8201   0.986   1.742  13.769 -0.2643 -0.3921 -0.1815
  553TMC3    C3 8202   0.960   1.613  13.739  0.3297 -0.2732  0.8212
  553TMC3    C4 8203   1.096   1.665  13.963  0.1093 -0.5024 -0.1985
  553TMC3    C5 8204   1.100   1.534  13.918  0.0745 -0.0081  0.4000
  553TMC3    C6 8205   1.011   1.513  13.814  0.9118  0.0706 -0.1581
  553TMC3     C 8206   1.107   1.901  13.884 -0.4769  0.2214  0.2059
  553TMC3     O 8207   1.056   1.995  13.826  0.9394  0.0590  0.3471
  553TMC3     H 8208   0.956   1.820  13.700  0.9212  0.1175 -0.1245
  553TMC3    H1 8209   1.143   1.691  14.057 -0.0073 -3.1419  0.5902
  553TMC3    H2 8210   1.004   1.411  13.780  0.1025  0.3280 -0.7641
  553TMC3    C7 8211   1.228   1.490  13.874  0.1687 -0.7569  0.5056
  553TMC3    C8 8212   0.951   1.595  13.598 -0.0260 -0.1275 -0.4638
  553TMC3    O1 8213   1.242   1.486  13.753  0.0644  0.6581  0.3073
  553TMC3    O2 8214   0.881   1.667  13.529  0.0370 -0.9701 -0.8541
  554TMC3    C1 8215   3.216   0.870  12.189 -0.6200 -0.3862 -0.0241
  554TMC3    C2 8216   3.123   0.867  12.089 -0.0499 -0.9662  0.3547
  554TMC3    C3 8217   3.149   0.942  11.977 -0.1116 -0.5772 -0.0756
  554TMC3    C4 8218   3.332   0.946  12.189 -0.4143 -0.5727  0.3174
  554TMC3    C5 8219   3.352   1.007  12.068 -0.0324 -0.1376  0.3553
  554TMC3    C6 8220   3.269   1.003  11.963 -0.2054 -0.1372 -0.5462
  554TMC3     C 8221   3.187   0.774  12.301 -0.5799  0.3320 -0.0844
  554TMC3     O 8222   3.071   0.741  12.318  0.1392  0.1849  0.4420
  554TMC3     H 8223   3.029   0.816  12.105  0.1960 -2.2097 -2.1347
  554TMC3    H1 8224   3.404   0.955  12.269  1.7800 -1.3454 -1.5862
  554TMC3    H2 8225   3.287   1.061  11.873 -0.0663  1.1392  0.3058
  554TMC3    C7 8226   3.486   1.069  12.050  0.0332 -0.3021 -0.4830
  554TMC3    C8 8227   3.077   0.909  11.853  0.9441 -0.8062 -0.0778
  554TMC3    O1 8228   3.535   1.114  12.151 -0.4907  0.3838 -0.3240
  554TMC3    O2 8229   3.148   0.912  11.755  0.3279  0.4910  0.6943
  555TMC3    C1 8230   2.423   4.691  15.269  0.2030 -0.6574  0.1600
  555TMC3    C2 8231   2.434   0.061  15.368 -0.0192 -0.8595 -0.3419
  555TMC3    C3 8232   2.420   0.012  15.493 -0.2832 -0.1576  0.2595
  555TMC3    C4 8233   2.402   4.559  15.289  0.3874 -0.2210  0.1259
  555TMC3    C5 8234   2.401   4.515  15.416  0.5775 -0.1918  0.0102
  555TMC3    C6 8235   2.399   4.605  15.519  0.0486  0.3367  0.1896
  555TMC3     C 8236   2.395   0.019  15.133  0.4631  0.0345  0.0810
  555TMC3     O 8237   2.455   4.700  15.036 -0.6415 -0.0952  0.4579
  555TMC3     H 8238   2.453   0.167  15.353  0.5783 -0.9568 -0.2823
  555TMC3    H1 8239   2.380   4.498  15.203  2.4139  0.2461 -0.7222
  555TMC3    H2 8240   2.388   4.563  15.619  0.7785  1.1330  0.6069
  555TMC3    C7 8241   2.348   4.383  15.444 -0.2646 -0.3985  0.0552
  555TMC3    C8 8242   2.472   0.095  15.597  0.3004 -0.0549  0.6687
  555TMC3    O1 8243   2.274   4.367  15.543 -0.0142 -0.2441 -0.0645
  555TMC3    O2 8244   2.455   0.214  15.578 -0.9323  0.5123  0.0887
  556MPD2     C 8245   0.316   1.646  11.048  0.0286  0.6356  1.4099
  556MPD2    C1 8246   0.424   1.605  11.123  0.4768  0.2881 -0.9846
  556MPD2    C2 8247   0.510   1.515  11.060 -0.2430 -0.7030  0.8282
  556MPD2    C3 8248   0.502   1.482  10.921 -0.2781 -0.0093 -0.4531
  556MPD2    C4 8249   0.400   1.538  10.853 -0.0646  0.4696 -0.4858
  556MPD2    C5 8250   0.303   1.614  10.913 -0.5909  0.2351 -0.3714
  556MPD2     H 8251   0.591   1.476  11.120  1.2093  0.2636 -0.5149
  556MPD2    H1 8252   0.391   1.522  10.746  1.0261 -1.5259 -0.2804
  556MPD2    H2 8253   0.238   1.715  11.078  0.3768  0.5892  2.4516
  556MPD2    H3 8254   0.216   1.647  10.856 -0.9264 -1.2535 -0.7247
  556MPD2     N 8255   0.600   1.398  10.868  0.1487  0.0882 -0.0127
  556MPD2    H5 8256   0.672   1.368  10.933 -1.9208 -2.0233  1.3036
  556MPD2    N1 8257   0.430   1.619  11.264  0.3231 -0.4340 -0.4099
  556MPD2    H7 8258   0.525   1.604  11.296  0.1603  0.1659  0.3575
  557TMC3    C1 8259   0.672   1.224  10.723 -0.2854  0.3204  0.6462
  557TMC3    C2 8260   0.714   1.183  10.594  0.7716  0.0829  0.5713
  557TMC3    C3 8261   0.721   1.051  10.564  0.7365  0.3669 -0.5037
  557TMC3    C4 8262   0.645   1.137  10.819 -0.2635  0.1530 -1.0403
  557TMC3    C5 8263   0.658   1.011  10.786  0.2699  0.3552 -0.4195
  557TMC3    C6 8264   0.697   0.962  10.665 -0.0380  1.1614 -0.4595
  557TMC3     C 8265   0.611   1.354  10.737  0.7694  0.4789 -0.5173
  557TMC3     O 8266   0.561   1.401  10.638 -0.1040 -0.1763 -0.3660
  557TMC3     H 8267   0.755   1.255  10.525 -0.8748  0.6615  0.1845
  557TMC3    H1 8268   0.605   1.156  10.918 -1.8036  5.2778 -2.6867
  557TMC3    H2 8269   0.689   0.855  10.648 -0.6453  0.8823  1.5987
  557TMC3    C7 8270   0.579   0.914  10.850  0.4221  0.1144 -0.3121
  557TMC3    C8 8271   0.756   1.006  10.430 -0.0911 -0.5755  0.3603
  557TMC3    O1 8272   0.495   0.855  10.783  0.3144  0.3012  0.3085
  557TMC3    O2 8273   0.815   1.082  10.354  0.3524  0.3639 -0.1033
  558TMC3    C1 8274   2.195   4.087  10.644  0.5758 -0.4132 -0.1003
  558TMC3    C2 8275   2.096   4.154  10.705  0.0609  0.4199  0.3209
  558TMC3    C3 8276   1.985   4.081  10.739 -0.1151 -0.1328 -0.0602
  558TMC3    C4 8277   2.175   3.957  10.611 -0.0089  0.1234 -0.5017
  558TMC3    C5 8278   2.059   3.885  10.637  1.0262  0.7942 -0.0686
  558TMC3    C6 8279   1.963   3.947  10.707  0.1991  0.4562 -0.3250
  558TMC3     C 8280   2.331   4.144  10.624 -1.1158 -0.3202 -0.4459
  558TMC3     O 8281   2.428   4.072  10.604 -0.1830  0.1334 -0.1862
  558TMC3     H 8282   2.115   4.253  10.747 -0.0796  1.3468 -1.8223
  558TMC3    H1 8283   2.258   3.904  10.566  1.2960  1.0949  0.7516
  558TMC3    H2 8284   1.880   3.888  10.744  0.6713  1.2777  2.0461
  558TMC3    C7 8285   2.009   3.775  10.550  0.4646 -0.1650  0.3497
  558TMC3    C8 8286   1.914   4.122  10.860 -0.6651  0.3805  0.1645
  558TMC3    O1 8287   1.899   3.736  10.577 -0.1545 -0.3582  0.1410
  558TMC3    O2 8288   1.800   4.085  10.877 -0.0774  0.3204  0.1678
  559MPD2     C 8289   2.872   0.176  10.971 -0.5026 -0.6721 -0.2612
  559MPD2    C1 8290   2.783   0.209  11.068 -0.5459  0.6026 -0.3694
  559MPD2    C2 8291   2.819   0.206  11.201 -0.2390  0.5186 -0.2872
  559MPD2    C3 8292   2.949   0.176  11.233  0.3306  0.3207  0.5042
  559MPD2    C4 8293   3.036   0.124  11.142 -0.0867  0.4226 -0.5003
  559MPD2    C5 8294   2.996   0.132  11.012  0.1033  0.6701  0.4118
  559MPD2     H 8295   2.745   0.223  11.278  0.5224 -1.6558  0.9162
  559MPD2    H1 8296   3.137   0.100  11.174 -0.1376 -0.9291 -1.3653
  559MPD2    H2 8297   2.854   0.184  10.865 -2.6552  2.5855  0.3300
  559MPD2    H3 8298   3.069   0.108  10.935 -2.8502  2.0702 -2.8208
  559MPD2     N 8299   2.988   0.185  11.364  0.0023  0.1397  0.2906
  559MPD2    H5 8300   2.910   0.178  11.428  1.0423  0.1375  1.5698
  559MPD2    N1 8301   2.650   0.244  11.025  0.2051 -0.1474 -0.1598
  559MPD2    H7 8302   2.631   0.252  10.926 -2.2293 -2.0531  0.1459
  560TMC3    C1 8303   3.130   0.132  11.535  0.8141 -0.2519  0.3150
  560TMC3    C2 8304   3.036   0.040  11.580  0.4511  0.1579  0.9380
  560TMC3    C3 8305   3.056   4.699  11.700  0.3151  0.3116 -0.7395
  560TMC3    C4 8306   3.241   0.154  11.606 -0.3611  0.0637 -0.8629
  560TMC3    C5 8307   3.258   0.086  11.722 -0.6478 -0.2790  0.1386
  560TMC3    C6 8308   3.171   4.720  11.773 -0.5395  0.2683  0.5812
  560TMC3     C 8309   3.118   0.189  11.407 -0.3375 -0.9362  0.2927
  560TMC3     O 8310   3.218   0.237  11.356  0.0764 -0.3786 -0.2715
  560TMC3     H 8311   2.953   0.020  11.513  0.7502 -0.7959  0.8598
  560TMC3    H1 8312   3.315   0.229  11.579  1.2400 -1.0031  0.6122
  560TMC3    H2 8313   3.207   4.673  11.864 -3.7389 -3.4128 -0.0602
  560TMC3    C7 8314   3.358   0.140  11.815  0.5364 -0.8666 -0.5586
  560TMC3    C8 8315   2.975   4.581  11.732 -0.7680  0.3182  0.5548
  560TMC3    O1 8316   3.343   0.113  11.933  0.1298  0.1680 -0.4883
  560TMC3    O2 8317   2.864   4.578  11.675 -0.2375  0.1343  0.0488
  561TMC3    C1 8318   1.090   4.029  11.481 -0.0311  0.2154  0.4848
  561TMC3    C2 8319   1.015   3.946  11.560  0.0339  0.1342 -0.3553
  561TMC3    C3 8320   0.932   3.999  11.662  0.0935 -0.4374  0.2995
  561TMC3    C4 8321   1.097   4.164  11.507  0.6451  0.6445  0.3071
  561TMC3    C5 8322   1.017   4.215  11.609 -0.2599  0.3896  0.0474
  561TMC3    C6 8323   0.940   4.135  11.688  0.0776  0.4099  0.5972
  561TMC3     C 8324   1.179   3.979  11.383 -0.2367 -0.7836 -0.4502
  561TMC3     O 8325   1.145   3.896  11.298  0.7168 -0.3315 -0.2929
  561TMC3     H 8326   1.020   3.840  11.538  0.7545 -0.3961  2.3967
  561TMC3    H1 8327   1.161   4.235  11.455  1.7989  1.8328  3.3287
  561TMC3    H2 8328   0.877   4.187  11.759 -0.2519  0.4245  0.2972
  561TMC3    C7 8329   1.062   4.343  11.664  0.5311  0.1391 -0.0437
  561TMC3    C8 8330   0.886   3.901  11.763 -0.1372 -0.8375  0.3252
  561TMC3    O1 8331   1.041   4.369  11.781  0.4266 -0.5830  0.0122
  561TMC3    O2 8332   0.933   3.784  11.752 -0.1796  0.1292  0.1464
  562TMC3    C1 8333   1.824   0.669  16.198 -0.4875  0.1302 -0.2307
  562TMC3    C2 8334   1.751   0.765  16.129  0.2811  0.0229  0.6330
  562TMC3    C3 8335   1.745   0.766  15.997 -0.0986  1.2354 -0.2090
  562TMC3    C4 8336   1.897   0.579  16.127  0.0815  0.6216 -0.0746
  562TMC3    C5 8337   1.900   0.589  15.994 -0.6164 -0.0142  0.2859
  562TMC3    C6 8338   1.813   0.677  15.923  0.3409  0.0032  0.1280
  562TMC3     C 8339   1.810   0.657  16.343 -0.0425  0.0105  0.1625
  562TMC3     O 8340   1.739   0.744  16.393  0.0048 -0.1470  0.8578
  562TMC3     H 8341   1.687   0.833  16.185 -0.5402 -0.0224 -0.2362
  562TMC3    H1 8342   1.948   0.496  16.175  2.5442  1.8528 -0.5515
  562TMC3    H2 8343   1.789   0.667  15.818 -1.9018  0.4677  0.5950
  562TMC3    C7 8344   1.938   0.479  15.910  0.1553 -1.1267 -0.3104
  562TMC3    C8 8345   1.618   0.797  15.934 -0.2140  0.4849 -0.5507
  562TMC3    O1 8346   1.914   0.486  15.785  0.5821 -0.4826  0.6025
  562TMC3    O2 8347   1.515   0.778  16.004 -0.1178  0.1389 -0.0449
  563MPD2     C 8348   3.945   1.375  16.141 -0.6598  0.2420 -0.5027
  563MPD2    C1 8349   3.929   1.407  16.276  0.8078 -0.1978 -0.6288
  563MPD2    C2 8350   4.043   1.418  16.362  0.2431 -0.3140 -0.1294
  563MPD2    C3 8351   4.169   1.412  16.311 -0.7043 -0.0661  0.0821
  563MPD2    C4 8352   4.181   1.402  16.171 -0.7606  1.0944 -0.1344
  563MPD2    C5 8353   4.073   1.374  16.093 -1.1979  0.2535 -0.1886
  563MPD2     H 8354   4.032   1.430  16.469  1.0399  0.3139 -0.1170
  563MPD2    H1 8355   4.276   1.381  16.123  0.2608  0.9261  1.9757
  563MPD2    H2 8356   3.864   1.348  16.074 -0.7033 -1.1422  0.1148
  563MPD2    H3 8357   4.088   1.354  15.987 -1.4775 -0.6826 -0.0482
  563MPD2     N 8358   4.281   1.431  16.389 -0.5992 -0.9014 -0.4023
  563MPD2    H5 8359   4.258   1.430  16.488 -1.5160  0.2266 -0.5990
  563MPD2    N1 8360   3.798   1.422  16.319 -0.4322 -0.6009  0.5036
  563MPD2    H7 8361   3.726   1.398  16.252 -1.2924  2.3083  0.4073
  564TMC3    C1 8362   3.668   1.435  16.518  0.0302  0.2054  0.1477
  564TMC3    C2 8363   3.597   1.338  16.455 -0.4154 -0.7318  0.1872
  564TMC3    C3 8364   3.573   1.222  16.521  0.1665  0.3439 -0.2134
  564TMC3    C4 8365   3.710   1.425  16.645  0.4856  0.1044  0.5691
  564TMC3    C5 8366   3.711   1.304  16.703 -0.5098  0.0705  0.4178
  564TMC3    C6 8367   3.628   1.211  16.647 -0.1516 -0.1602  0.4505
  564TMC3     C 8368   3.777   1.490  16.437  0.4704 -0.5016  0.2863
  564TMC3     O 8369   3.850   1.574  16.490 -0.3456 -0.1122 -0.5424
  564TMC3     H 8370   3.529   1.349  16.371 -0.2351 -0.0616  0.1346
  564TMC3    H1 8371   3.792   1.485  16.684  1.0892  1.1041 -2.1925
  564TMC3    H2 8372   3.606   1.123  16.706  0.7972 -1.9163 -1.8616
  564TMC3    C7 8373   3.845   1.243  16.710  0.2746  0.3329 -0.5958
  564TMC3    C8 8374   3.585   1.091  16.441 -0.6523  0.3965 -0.4266
  564TMC3    O1 8375   3.939   1.318  16.744 -0.7364 -0.2899  0.1048
  564TMC3    O2 8376   3.597   0.990  16.512 -0.0008  0.2075 -0.2821
  565TMC3    C1 8377   0.498   3.280  10.154  0.1025  0.1759 -0.4758
  565TMC3    C2 8378   0.419   3.245  10.263 -0.1006  0.5472  0.3270
  565TMC3    C3 8379   0.320   3.148  10.246 -0.6945  0.1846 -0.1788
  565TMC3    C4 8380   0.475   3.220  10.030 -0.6136 -0.8004 -0.8541
  565TMC3    C5 8381   0.364   3.144  10.012 -0.0416 -0.3660  0.1753
  565TMC3    C6 8382   0.296   3.098  10.119  1.0603 -0.6277 -0.0805
  565TMC3     C 8383   0.606   3.378  10.162  0.2324 -1.1272  0.1474
  565TMC3     O 8384   0.644   3.433  10.060  0.0638  0.1500  0.2244
  565TMC3     H 8385   0.422   3.289  10.362  2.0810 -1.4259  1.1204
  565TMC3    H1 8386   0.551   3.242   9.956  1.7315 -2.2878  1.1257
  565TMC3    H2 8387   0.197   3.055  10.106  0.4370  0.8591 -0.1699
  565TMC3    C7 8388   0.332   3.086   9.884 -0.0077 -0.0200  1.0556
  565TMC3    C8 8389   0.237   3.122  10.356  0.5054 -0.6435  0.0205
  565TMC3    O1 8390   0.250   2.991   9.887 -0.4001 -0.4978 -0.0428
  565TMC3    O2 8391   0.253   3.193  10.452  0.0907 -0.0500 -0.1506
  566MPD2     C 8392   1.509   0.269  14.492  0.7711 -0.3334 -0.5310
  566MPD2    C1 8393   1.638   0.225  14.529 -0.0863  0.1207 -0.2060
  566MPD2    C2 8394   1.713   0.148  14.445 -0.1815 -0.1315  0.0160
  566MPD2    C3 8395   1.670   0.115  14.316 -0.2506 -0.3623  0.0668
  566MPD2    C4 8396   1.549   0.154  14.274 -0.8362  0.3976  0.1144
  566MPD2    C5 8397   1.472   0.230  14.363  0.1122  0.2407  0.0406
  566MPD2     H 8398   1.811   0.114  14.475 -1.0001 -0.3104  2.4749
  566MPD2    H1 8399   1.508   0.143  14.174  0.5819  0.1793 -0.4357
  566MPD2    H2 8400   1.439   0.321  14.557  0.7323  1.3304 -1.8908
  566MPD2    H3 8401   1.374   0.259  14.327 -0.6563 -1.0170  1.1588
  566MPD2     N 8402   1.762   0.053  14.222  0.0505 -0.5095  0.1295
  566MPD2    H5 8403   1.721   0.034  14.131 -0.7944 -1.3559  0.6868
  566MPD2    N1 8404   1.707   0.279  14.640  0.1083 -0.2991  0.0009
  566MPD2    H7 8405   1.797   0.237  14.658 -0.0545  0.6606  3.0496
  567TMC3    C1 8406   1.819   0.447  14.732  0.4744  0.2839 -0.1384
  567TMC3    C2 8407   1.863   0.542  14.645  0.3565  0.3470  0.2701
  567TMC3    C3 8408   1.990   0.522  14.604  0.2022  0.9906 -0.2949
  567TMC3    C4 8409   1.892   0.335  14.768 -0.9168 -0.0667  0.2510
  567TMC3    C5 8410   2.019   0.321  14.726  0.0242 -0.0336  0.4112
  567TMC3    C6 8411   2.062   0.410  14.630 -0.0550 -0.5102  0.3013
  567TMC3     C 8412   1.687   0.401  14.701  0.5955 -0.1304 -0.3636
  567TMC3     O 8413   1.603   0.485  14.676  0.2289  0.4536  0.2330
  567TMC3     H 8414   1.805   0.629  14.617 -0.3246  0.0933  0.9125
  567TMC3    H1 8415   1.847   0.273  14.845  1.3275  0.5421  2.0421
  567TMC3    H2 8416   2.164   0.400  14.596  0.6355  2.0123  1.6134
  567TMC3    C7 8417   2.074   0.194  14.735 -0.1677 -0.0256  0.1262
  567TMC3    C8 8418   2.036   0.603  14.498  0.8513 -0.0695  0.1458
  567TMC3    O1 8419   2.155   0.168  14.646 -0.5048 -0.4114  0.4293
  567TMC3    O2 8420   2.096   0.546  14.410 -0.4334  0.0552 -0.5361
  568MPD2     C 8421   4.044   4.514  16.810 -0.1426  0.6365  0.1183
  568MPD2    C1 8422   4.061   4.641  16.869  0.3403  0.5510 -0.2583
  568MPD2    C2 8423   4.030   0.025  16.793  0.1300  0.0812  0.2274
  568MPD2    C3 8424   3.974   0.018  16.669  0.3860 -0.1212 -0.1916
  568MPD2    C4 8425   3.965   4.619  16.610 -0.2017  0.0501  0.2019
  568MPD2    C5 8426   3.992   4.505  16.685 -0.3395  0.5362 -0.6684
  568MPD2     H 8427   4.035   0.122  16.840 -0.1700  0.1683  0.0759
  568MPD2    H1 8428   3.942   4.596  16.507  2.3598 -1.3296 -0.0709
  568MPD2    H2 8429   4.066   4.420  16.859  0.1577  0.5245 -0.2343
  568MPD2    H3 8430   3.995   4.410  16.633  1.9114 -0.4713  1.3464
  568MPD2     N 8431   3.930   0.139  16.603 -0.2594 -0.9554 -0.1481
  568MPD2    H5 8432   3.946   0.223  16.658 -1.7706 -1.1540  0.5903
  568MPD2    N1 8433   4.102   4.652  17.002  0.5212 -0.2048 -0.2145
  568MPD2    H7 8434   4.115   4.566  17.054 -0.9789 -0.0231  0.4793
  569TMC3    C1 8435   3.833   0.285  16.459 -0.0097  0.2352  0.1623
  569TMC3    C2 8436   3.779   0.347  16.567 -0.1332 -0.2903 -0.0941
  569TMC3    C3 8437   3.807   0.482  16.573  0.0528  0.5417  0.1999
  569TMC3    C4 8438   3.890   0.354  16.350  0.6375  0.3415 -0.1938
  569TMC3    C5 8439   3.914   0.493  16.368 -0.0300  1.0175 -0.0778
  569TMC3    C6 8440   3.871   0.555  16.478  0.2297  0.3380 -0.1168
  569TMC3     C 8441   3.887   0.149  16.479 -0.1799 -0.1717 -0.3848
  569TMC3     O 8442   3.900   0.072  16.390 -0.4394  0.0283 -0.2166
  569TMC3     H 8443   3.720   0.294  16.640  0.1406  0.6252  0.7999
  569TMC3    H1 8444   3.923   0.316  16.255  2.4651 -1.8827  1.3476
  569TMC3    H2 8445   3.884   0.662  16.493 -1.4057  0.4933  0.1191
  569TMC3    C7 8446   3.891   0.569  16.244  0.3033  0.0239  0.1928
  569TMC3    C8 8447   3.763   0.549  16.695 -0.5629  0.3215 -0.3647
  569TMC3    O1 8448   3.961   0.554  16.146 -0.2613 -0.0949  0.1420
  569TMC3    O2 8449   3.658   0.509  16.742  0.1312  0.2900  0.1195
  570TMC3    C1 8450   3.449   3.880  16.538 -0.2485  0.2688  0.8847
  570TMC3    C2 8451   3.486   3.906  16.410  0.0805 -0.0542 -0.1847
  570TMC3    C3 8452   3.499   4.031  16.369  0.5694  0.0521  0.4239
  570TMC3    C4 8453   3.422   3.984  16.629 -1.1849  0.3066 -0.0994
  570TMC3    C5 8454   3.447   4.112  16.584 -0.1937 -0.2995  0.2522
  570TMC3    C6 8455   3.488   4.133  16.459 -0.0677  0.4093  0.2993
  570TMC3     C 8456   3.387   3.751  16.561 -0.2425  0.4377  0.2855
  570TMC3     O 8457   3.348   3.683  16.467  0.5904  0.0321 -0.3431
  570TMC3     H 8458   3.507   3.825  16.340 -2.2505 -1.1333  0.3449
  570TMC3    H1 8459   3.396   3.964  16.732 -1.0996 -0.3358 -0.1995
  570TMC3    H2 8460   3.514   4.231  16.421 -1.0025  0.9352  1.0062
  570TMC3    C7 8461   3.443   4.210  16.690  0.3826  0.0426 -0.1362
  570TMC3    C8 8462   3.581   4.062  16.252 -0.0543 -0.3474  0.8920
  570TMC3    O1 8463   3.434   4.175  16.807 -0.4249  0.0930  0.4293
  570TMC3    O2 8464   3.571   4.177  16.213 -0.0234 -0.1423  0.6694
  571MPD2     C 8465   1.447   0.281   0.116 -0.4667  0.3699 -0.2424
  571MPD2    C1 8466   1.359   0.182   0.164  1.0526  0.5395  0.6274
  571MPD2    C2 8467   1.247   0.223   0.235 -0.4961  0.6940  0.4737
  571MPD2    C3 8468   1.209   0.355   0.248 -0.1465 -0.5505  0.1916
  571MPD2    C4 8469   1.282   0.447   0.174 -0.1017  0.0685 -0.1476
  571MPD2    C5 8470   1.407   0.410   0.120  0.6909  1.2037  0.5370
  571MPD2     H 8471   1.177   0.144   0.257 -0.0251 -0.3474 -1.8053
  571MPD2    H1 8472   1.243   0.548   0.168 -1.0195 -0.4324 -2.6383
  571MPD2    H2 8473   1.538   0.260   0.061 -1.0292 -0.1111 -0.9838
  571MPD2    H3 8474   1.474   0.485   0.079  1.2223  1.8368  2.5443
  571MPD2     N 8475   1.101   0.394   0.323 -0.5369 -0.0855  0.0655
  571MPD2    H5 8476   1.078   0.492   0.335 -0.0091  0.0832 -0.3038
  571MPD2    N1 8477   1.392   0.041   0.140  0.1486  0.2244  0.4591
  571MPD2    H7 8478   1.487   0.022   0.109  0.2225  0.0629  0.7862
  572TMC3    C1 8479   0.964   0.402   0.519 -0.1748 -0.1823 -0.1515
  572TMC3    C2 8480   0.950   0.357   0.651 -0.2001 -0.3746 -0.1839
  572TMC3    C3 8481   0.907   0.445   0.738  0.3981 -0.5457  0.0130
  572TMC3    C4 8482   0.910   0.525   0.482 -0.3463  1.1057 -0.5138
  572TMC3    C5 8483   0.852   0.605   0.576 -0.3085 -0.2391 -0.0785
  572TMC3    C6 8484   0.850   0.567   0.711 -0.7522  0.4134  0.4621
  572TMC3     C 8485   1.044   0.319   0.425  0.3295 -0.2017  0.0170
  572TMC3     O 8486   1.072   0.208   0.470 -0.2334  0.2233 -0.9083
  572TMC3     H 8487   1.019   0.277   0.677 -0.1293 -0.3415 -0.2687
  572TMC3    H1 8488   0.924   0.560   0.380  0.3736  0.3802 -0.6582
  572TMC3    H2 8489   0.793   0.626   0.782  0.8087  1.8924  0.4744
  572TMC3    C7 8490   0.791   0.733   0.543 -0.4946 -0.2056  0.4614
  572TMC3    C8 8491   0.936   0.415   0.874  1.0369  0.2209 -0.3218
  572TMC3    O1 8492   0.771   0.802   0.637 -0.1837  0.8330  0.2946
  572TMC3    O2 8493   0.996   0.310   0.890  0.1586 -0.7160  0.6306
  573MPD2     C 8494   3.183   1.418   1.592  0.8613  0.1953  0.1913
  573MPD2    C1 8495   3.095   1.324   1.535  0.3060  0.3734 -0.0553
  573MPD2    C2 8496   3.016   1.365   1.428 -0.3591 -0.4560 -0.5202
  573MPD2    C3 8497   3.032   1.490   1.374  0.0737  0.0682  0.9772
  573MPD2    C4 8498   3.127   1.581   1.426  0.9041  1.0241 -0.2746
  573MPD2    C5 8499   3.196   1.544   1.541 -0.5315  0.5460 -0.3227
  573MPD2     H 8500   2.946   1.294   1.385 -0.6674  1.3036 -2.8891
  573MPD2    H1 8501   3.135   1.682   1.387  0.5502  1.7540  1.5425
  573MPD2    H2 8502   3.236   1.402   1.685  0.0417  1.8286  0.9268
  573MPD2    H3 8503   3.266   1.613   1.587  0.4004  0.3856 -1.4783
  573MPD2     N 8504   2.963   1.534   1.252  0.5940  0.0111 -0.8053
  573MPD2    H5 8505   2.991   1.627   1.221 -0.4793  0.2557 -1.0305
  573MPD2    N1 8506   3.083   1.198   1.597 -0.3737 -0.0586  0.5824
  573MPD2    H7 8507   3.150   1.181   1.672 -1.1569  0.6609  1.4366
  574TMC3    C1 8508   2.879   1.534   1.033 -0.1475 -0.3553  0.2589
  574TMC3    C2 8509   2.765   1.517   0.964 -0.7089 -0.1931 -0.0258
  574TMC3    C3 8510   2.750   1.572   0.839  0.0395  1.2254 -0.1795
  574TMC3    C4 8511   2.979   1.613   0.985  0.2790  0.0015  0.2101
  574TMC3    C5 8512   2.950   1.684   0.872  0.0847  0.3508  0.1537
  574TMC3    C6 8513   2.835   1.664   0.786 -1.3729  0.0751  0.4471
  574TMC3     C 8514   2.892   1.463   1.160  0.4274 -0.8207  0.0951
  574TMC3     O 8515   2.856   1.347   1.176 -0.4937 -0.4194 -0.3045
  574TMC3     H 8516   2.690   1.449   1.005  0.5329 -0.8561  1.1326
  574TMC3    H1 8517   3.076   1.620   1.033  1.5175 -1.2786 -2.1305
  574TMC3    H2 8518   2.811   1.722   0.698  2.5624 -2.1155 -2.0405
  574TMC3    C7 8519   3.049   1.778   0.822  0.5902  0.1892  0.2439
  574TMC3    C8 8520   2.619   1.545   0.773 -0.7450  0.2574 -0.2984
  574TMC3    O1 8521   3.016   1.851   0.732  0.3641 -0.1995  0.0925
  574TMC3    O2 8522   2.529   1.499   0.841  0.4371  0.4076 -0.4573
  575TMC3    C1 8523   0.061   3.210  11.197 -0.2929  0.0396 -0.1375
  575TMC3    C2 8524   0.048   3.102  11.275 -0.3549  0.3309 -0.3524
  575TMC3    C3 8525   0.023   2.981  11.214  0.5757 -0.3660 -0.0328
  575TMC3    C4 8526   0.054   3.200  11.063 -0.0577  0.3457 -0.1628
  575TMC3    C5 8527   0.026   3.077  11.001 -0.9406 -0.5771 -0.4125
  575TMC3    C6 8528   0.013   2.967  11.079  0.7625 -0.0794  0.4942
  575TMC3     C 8529   0.113   3.318  11.251  0.2875  0.6309 -0.6969
  575TMC3     O 8530   0.189   3.385  11.179  0.4490  0.3497 -0.0848
  575TMC3     H 8531   0.075   3.107  11.380 -0.0759  2.0679 -0.5078
  575TMC3    H1 8532   0.063   3.287  10.999  0.0941 -0.3423 -1.0755
  575TMC3    H2 8533   0.010   2.867  11.037  2.8062  0.6352 -1.3761
  575TMC3    C7 8534   0.052   3.067  10.862  0.0520 -0.2766 -0.4053
  575TMC3    C8 8535   4.703   2.872  11.301  0.4720 -0.5469  0.0803
  575TMC3    O1 8536   0.118   3.155  10.810  0.0535  0.1286 -0.4360
  575TMC3    O2 8537   4.720   2.891  11.422 -0.7019  0.2427 -0.7377
  576MPD2     C 8538   0.008   4.146  12.940  0.9358  0.4011 -0.1522
  576MPD2    C1 8539   4.703   4.234  12.833 -0.3875  0.3860 -0.0124
  576MPD2    C2 8540   4.639   4.350  12.867  0.2679  0.0298 -0.0518
  576MPD2    C3 8541   4.615   4.381  13.003 -0.1996 -0.0818 -0.3460
  576MPD2    C4 8542   4.646   4.294  13.101 -0.1494 -0.5166  0.3983
  576MPD2    C5 8543   4.713   4.185  13.068 -0.5447  0.9368  0.1533
  576MPD2     H 8544   4.629   4.427  12.791 -1.3784 -0.0601  0.0785
  576MPD2    H1 8545   4.623   4.317  13.204 -3.5852  1.2159 -0.7406
  576MPD2    H2 8546   0.069   4.060  12.916 -1.0029 -1.7340  2.5724
  576MPD2    H3 8547   0.026   4.128  13.151 -0.1743  0.5296 -0.2949
  576MPD2     N 8548   4.546   4.503  13.016  0.5891 -0.5686  0.6705
  576MPD2    H5 8549   4.538   4.556  12.930  0.6971 -1.4837  0.0889
  576MPD2    N1 8550   0.016   4.211  12.697  0.2078  0.4111  0.2151
  576MPD2    H7 8551   4.709   4.280  12.630 -0.5333 -0.1617 -0.0180
  577TMC3    C1 8552   0.175   4.160  12.531 -0.0030  0.1435 -0.4888
  577TMC3    C2 8553   0.279   4.078  12.501  0.4175 -1.3839  0.3470
  577TMC3    C3 8554   0.339   4.091  12.379 -0.0640  0.2886  0.7345
  577TMC3    C4 8555   0.133   4.260  12.449 -1.1826 -0.8043 -0.6069
  577TMC3    C5 8556   0.212   4.279  12.339  0.1787  0.6706 -0.3017
  577TMC3    C6 8557   0.313   4.194  12.297 -0.1377 -0.3316 -0.2298
  577TMC3     C 8558   0.116   4.122  12.657  0.9192  0.8406 -0.2409
  577TMC3     O 8559   0.170   4.035  12.720  0.2939  0.5997 -0.5600
  577TMC3     H 8560   0.323   4.001  12.564  0.3656 -1.9454 -0.2960
  577TMC3    H1 8561   0.046   4.317  12.481 -0.4458 -0.4528  0.7603
  577TMC3    H2 8562   0.364   4.216  12.204 -0.9353 -0.9040 -0.7998
  577TMC3    C7 8563   0.142   4.337  12.227  0.6500 -0.1276 -0.4170
  577TMC3    C8 8564   0.411   3.973  12.327  0.5687  0.6450 -0.0197
  577TMC3    O1 8565   0.199   4.330  12.119 -0.0288 -0.7367 -0.0398
  577TMC3    O2 8566   0.414   3.874  12.402  0.4563  0.8017  0.2524
  578MPD2     C 8567   2.335   4.725   2.235 -0.2307 -0.0695 -0.4171
  578MPD2    C1 8568   2.390   0.050   2.115  0.7622  0.0578  0.5788
  578MPD2    C2 8569   2.519   0.009   2.096 -0.8054  0.3457  0.6130
  578MPD2    C3 8570   2.590   4.642   2.171 -0.4347  0.1302 -0.4961
  578MPD2    C4 8571   2.526   4.597   2.286 -0.1426 -0.8171  0.5313
  578MPD2    C5 8572   2.407   4.648   2.321 -0.6651  0.0899 -0.5404
  578MPD2     H 8573   2.558   0.050   2.004 -0.6709 -0.8034  0.1654
  578MPD2    H1 8574   2.573   4.530   2.357 -0.2087 -2.0086 -0.5568
  578MPD2    H2 8575   2.230   0.018   2.255 -0.7032 -0.5560 -2.4554
  578MPD2    H3 8576   2.365   4.611   2.413 -0.3551  1.7115  0.2480
  578MPD2     N 8577   2.714   4.601   2.116 -0.6805  0.0693  0.2873
  578MPD2    H5 8578   2.740   4.658   2.036 -0.8890  0.0722  0.2210
  578MPD2    N1 8579   2.318   0.129   2.029  0.3256 -0.0814 -0.0938
  578MPD2    H7 8580   2.227   0.165   2.058 -0.7000 -3.7508  1.2798
  579TMC3    C1 8581   2.921   4.524   2.089  0.0935 -0.2048  0.0607
  579TMC3    C2 8582   3.043   4.490   2.140  0.5449 -0.2336 -0.2661
  579TMC3    C3 8583   3.156   4.515   2.064 -0.1554 -0.5616 -0.0647
  579TMC3    C4 8584   2.905   4.536   1.954 -0.5717 -0.2541  0.5455
  579TMC3    C5 8585   3.019   4.538   1.881  0.3622  0.2676  0.0909
  579TMC3    C6 8586   3.145   4.536   1.930  0.8317  0.4426  0.3213
  579TMC3     C 8587   2.804   4.525   2.177  0.4504  0.2836  0.3250
  579TMC3     O 8588   2.792   4.474   2.289 -0.0883  0.5874  0.7344
  579TMC3     H 8589   3.042   4.479   2.248 -2.9290 -0.8917 -0.3749
  579TMC3    H1 8590   2.806   4.524   1.911 -0.9608  1.2651  1.0139
  579TMC3    H2 8591   3.227   4.545   1.859  1.5424 -0.6844  1.0017
  579TMC3    C7 8592   3.010   4.558   1.735 -0.7386 -0.8575  1.6812
  579TMC3    C8 8593   3.290   4.493   2.121 -0.2639 -0.4449 -0.3113
  579TMC3    O1 8594   2.957   4.656   1.681 -0.2744 -0.2992 -0.3285
  579TMC3    O2 8595   3.289   4.495   2.243  0.0516  0.1450 -0.6792
  580TMC3    C1 8596   2.483   3.530  12.864  0.4119  0.2750 -0.6653
  580TMC3    C2 8597   2.607   3.589  12.852  0.0024 -0.6876  0.7550
  580TMC3    C3 8598   2.717   3.504  12.851 -0.4053 -0.4204 -0.8906
  580TMC3    C4 8599   2.466   3.396  12.864  0.5818 -0.5726  0.4015
  580TMC3    C5 8600   2.576   3.320  12.864  0.2149 -0.4945  0.3881
  580TMC3    C6 8601   2.701   3.372  12.853  0.5371  0.1644 -0.5949
  580TMC3     C 8602   2.380   3.604  12.795 -0.2750 -0.3778  0.2861
  580TMC3     O 8603   2.262   3.580  12.821  0.5608 -0.2099  0.4288
  580TMC3     H 8604   2.619   3.697  12.853  0.8692 -0.7855  0.8040
  580TMC3    H1 8605   2.371   3.345  12.854  0.4202 -0.3868  1.0060
  580TMC3    H2 8606   2.783   3.303  12.871  0.7633  0.6944  0.3840
  580TMC3    C7 8607   2.556   3.182  12.888  0.1762  1.0071  0.1209
  580TMC3    C8 8608   2.843   3.576  12.824 -0.2213  0.4232 -0.0594
  580TMC3    O1 8609   2.457   3.143  12.951 -0.6260 -0.4915  0.1170
  580TMC3    O2 8610   2.852   3.697  12.842  0.5699 -0.0138  0.3320
  581MPD2     C 8611   0.581   3.125  14.771  0.1735  0.2960  0.1865
  581MPD2    C1 8612   0.540   3.132  14.904  0.6061 -0.2650  0.2751
  581MPD2    C2 8613   0.422   3.204  14.928  0.3256 -0.0499  0.1143
  581MPD2    C3 8614   0.351   3.263  14.817  0.0383  0.0612 -0.4701
  581MPD2    C4 8615   0.409   3.262  14.688  0.2415  0.3162  0.7440
  581MPD2    C5 8616   0.524   3.194  14.669 -1.0694  0.2612 -0.2835
  581MPD2     H 8617   0.367   3.198  15.021 -0.1129  1.9024 -0.0246
  581MPD2    H1 8618   0.355   3.307  14.605  1.3624 -1.2807 -0.8610
  581MPD2    H2 8619   0.666   3.062  14.749  0.5281  0.9006 -0.1735
  581MPD2    H3 8620   0.567   3.188  14.569 -0.0988  0.3817  0.1278
  581MPD2     N 8621   0.232   3.329  14.847  0.3305 -0.0228  0.3876
  581MPD2    H5 8622   0.205   3.329  14.945  0.9908  0.6007  0.5663
  581MPD2    N1 8623   0.597   3.046  14.998 -1.0115 -0.7975  0.3165
  581MPD2    H7 8624   0.650   2.971  14.955 -0.1128  0.4652 -0.7682
  582TMC3    C1 8625   0.660   2.965  15.208  0.6209 -0.3204  0.2454
  582TMC3    C2 8626   0.729   3.004  15.316  0.2830 -0.2858 -0.2533
  582TMC3    C3 8627   0.796   2.917  15.392 -0.0927 -0.8842 -0.6173
  582TMC3    C4 8628   0.648   2.832  15.173  0.0304  0.0598  0.4586
  582TMC3    C5 8629   0.722   2.739  15.246 -0.3828 -0.2727 -0.7965
  582TMC3    C6 8630   0.792   2.783  15.357 -0.2838  0.2126  0.0795
  582TMC3     C 8631   0.589   3.072  15.131  1.2618  0.5687  0.8915
  582TMC3     O 8632   0.549   3.172  15.187 -0.6560  0.2661 -0.3505
  582TMC3     H 8633   0.750   3.108  15.337 -1.0845 -0.4275  1.8076
  582TMC3    H1 8634   0.593   2.796  15.086  0.1327 -1.9825  1.2296
  582TMC3    H2 8635   0.838   2.712  15.425  1.8046 -0.0203 -1.5772
  582TMC3    C7 8636   0.641   2.640  15.302  0.0676  0.7772 -0.1765
  582TMC3    C8 8637   0.791   2.952  15.536  0.2294 -0.2520 -0.4356
  582TMC3    O1 8638   0.695   2.541  15.343 -0.3877 -0.5815 -0.3023
  582TMC3    O2 8639   0.701   3.019  15.582  0.4848  0.1009  0.0977
  583MPD2     C 8640   0.833   4.306  17.263  0.0822  0.5635 -0.9805
  583MPD2    C1 8641   0.793   4.416  17.187  0.0359 -0.5245  0.4725
  583MPD2    C2 8642   0.689   4.497  17.243 -0.3384 -0.0276 -0.3328
  583MPD2    C3 8643   0.628   4.471  17.361 -0.3822  0.1526  0.0254
  583MPD2    C4 8644   0.671   4.359  17.430 -0.4180 -0.6144  0.6172
  583MPD2    C5 8645   0.771   4.276  17.387 -0.0518  0.2381 -0.5769
  583MPD2     H 8646   0.656   4.586  17.192 -0.5353 -0.1532 -0.4284
  583MPD2    H1 8647   0.621   4.325  17.520  1.9807 -1.5162  1.6040
  583MPD2    H2 8648   0.925   4.252  17.243 -0.2570  0.0004 -1.0101
  583MPD2    H3 8649   0.810   4.194  17.446 -0.2163  0.3675 -0.2867
  583MPD2     N 8650   0.521   4.552  17.411 -0.2181 -0.1067  0.6631
  583MPD2    H5 8651   0.514   4.646  17.372 -1.3339 -1.8547 -3.3390
  583MPD2    N1 8652   0.838   4.448  17.056 -0.0240 -0.2435  0.0998
  583MPD2    H7 8653   0.804   4.527  17.003  1.2951  0.1251 -0.1909
  584TMC3    C1 8654   0.366   4.636  17.569 -0.3313 -0.4009  0.5560
  584TMC3    C2 8655   0.355   0.009  17.475  0.5288  0.9106  0.3301
  584TMC3    C3 8656   0.343   0.141  17.513  0.7458 -0.2868 -0.3080
  584TMC3    C4 8657   0.368   4.668  17.702 -0.0310 -0.3074  0.2444
  584TMC3    C5 8658   0.347   0.076   0.033 -1.1254  0.6153 -0.3486
  584TMC3    C6 8659   0.342   0.176  17.645  1.1297  0.3290 -0.6394
  584TMC3     C 8660   0.459   4.530  17.532  0.5339 -0.0564 -0.2541
  584TMC3     O 8661   0.466   4.447  17.621 -0.0818  0.2664  0.2352
  584TMC3     H 8662   0.341   4.713  17.370 -2.8287  0.0722  0.9467
  584TMC3    H1 8663   0.362   4.592   0.076 -0.2069  0.2258  0.7642
  584TMC3    H2 8664   0.317   0.270  17.693 -1.5860  0.8368 -3.0414
  584TMC3    C7 8665   0.314   0.102   0.172 -0.7402 -0.5248  0.3355
  584TMC3    C8 8666   0.320   0.238  17.416  0.8492 -0.8774  0.3761
  584TMC3    O1 8667   0.375   0.036   0.258 -0.6806  0.2182  0.3411
  584TMC3    O2 8668   0.318   0.207  17.300 -0.4300 -0.1423 -0.3248
  585MPD2     C 8669   4.426   4.246   0.541  0.0916 -0.3769  0.4444
  585MPD2    C1 8670   4.488   4.128   0.559 -0.0538 -0.3431  0.0411
  585MPD2    C2 8671   4.497   4.036   0.458  0.7939  0.1509 -0.0602
  585MPD2    C3 8672   4.430   4.057   0.337  0.1442 -0.5762  0.4534
  585MPD2    C4 8673   4.351   4.173   0.324 -0.0398  0.4520 -0.4218
  585MPD2    C5 8674   4.357   4.264   0.425  0.0991  0.3462 -0.3289
  585MPD2     H 8675   4.567   3.953   0.463 -1.0096 -1.4836 -1.6203
  585MPD2    H1 8676   4.294   4.188   0.233 -1.7580 -0.1567  0.5543
  585MPD2    H2 8677   4.427   4.325   0.615  0.8981  0.5788 -0.5802
  585MPD2    H3 8678   4.301   4.355   0.407  1.8645  1.1063 -1.9318
  585MPD2     N 8679   4.437   3.971   0.222 -0.5107  0.2700  0.1133
  585MPD2    H5 8680   4.381   3.997   0.141 -3.6274 -0.6330  1.9600
  585MPD2    N1 8681   4.560   4.102   0.680 -0.7235 -0.2255  0.4583
  585MPD2    H7 8682   4.570   4.185   0.739  0.4454  0.1122 -0.2107
  586TMC3    C1 8683   4.510   3.779   0.086  0.0876  0.3236 -0.0562
  586TMC3    C2 8684   4.627   3.720   0.045 -0.1524 -0.0643  0.2125
  586TMC3    C3 8685   4.614   3.609  17.673 -0.0067 -0.2592 -0.5118
  586TMC3    C4 8686   4.388   3.728   0.071  0.1354 -0.2312  0.7602
  586TMC3    C5 8687   4.382   3.603   0.006  0.1218  0.0997 -0.2958
  586TMC3    C6 8688   4.495   3.548  17.653 -0.0186  0.0767 -0.5094
  586TMC3     C 8689   4.519   3.858   0.210  0.3322 -0.1234 -0.1573
  586TMC3     O 8690   4.617   3.830   0.282  0.2047  0.1630 -0.4132
  586TMC3     H 8691   0.001   3.745   0.082  0.3489  0.3307 -1.3736
  586TMC3    H1 8692   4.300   3.765   0.122  0.0438  0.4178  0.1397
  586TMC3    H2 8693   4.496   3.453  17.601 -0.3230  0.5536 -1.3844
  586TMC3    C7 8694   4.261   3.523   0.008 -0.5437  0.0751 -0.3007
  586TMC3    C8 8695   4.723   3.512  17.652 -0.4219 -0.0777 -0.1344
  586TMC3    O1 8696   4.260   3.425  17.637  0.2571 -0.3170  0.1580
  586TMC3    O2 8697   0.021   3.424   0.029 -0.1060  0.4006  0.2961
  587TMC3    C1 8698   2.490   2.102  17.211  0.1443 -0.7567  0.2226
  587TMC3    C2 8699   2.469   2.234  17.191  0.1080 -0.6679 -0.1943
  587TMC3    C3 8700   2.572   2.319  17.227 -0.8825  0.1917 -0.0353
  587TMC3    C4 8701   2.609   2.052  17.255  0.6511  0.3079 -0.3444
  587TMC3    C5 8702   2.706   2.135  17.293  0.2730 -0.0806 -0.1671
  587TMC3    C6 8703   2.690   2.268  17.276  0.4016  0.8214  0.5174
  587TMC3     C 8704   2.394   2.001  17.172 -0.3975 -0.4590 -0.5156
  587TMC3     O 8705   2.439   1.889  17.152 -0.2849  0.4402 -0.1034
  587TMC3     H 8706   2.384   2.270  17.134  1.0444 -0.2358 -1.3116
  587TMC3    H1 8707   2.619   1.946  17.273  0.0416  0.0469 -1.5786
  587TMC3    H2 8708   2.768   2.335  17.311  2.9596 -1.3765 -0.9812
  587TMC3    C7 8709   2.835   2.081  17.333 -0.0281 -0.3726 -0.0767
  587TMC3    C8 8710   2.576   2.452  17.177  0.6205 -0.3938 -0.2979
  587TMC3    O1 8711   2.837   1.965  17.381 -0.2519 -0.0474  0.1968
  587TMC3    O2 8712   2.695   2.479  17.147 -0.2107  0.0819  0.1241
  588TMC3    C1 8713   4.675   4.439  10.404  0.2326 -0.0908 -0.0014
  588TMC3    C2 8714   4.711   4.334  10.481 -0.0110 -0.4102 -0.8510
  588TMC3    C3 8715   0.102   4.340  10.551 -0.7410 -0.1575  0.4402
  588TMC3    C4 8716   0.022   4.555  10.409  0.1544 -0.2161 -0.0557
  588TMC3    C5 8717   0.138   4.565  10.486 -0.2262 -0.0324  0.4038
  588TMC3    C6 8718   0.174   4.458  10.554 -0.7938 -0.1751  0.9150
  588TMC3     C 8719   4.553   4.434  10.323 -0.0688  0.2276 -1.0132
  588TMC3     O 8720   4.471   4.349  10.349 -0.3411  0.5363  0.0896
  588TMC3     H 8721   4.650   4.245  10.471  0.8576 -1.0194 -0.7624
  588TMC3    H1 8722   4.702   4.641  10.361  0.6804  0.0935  0.0094
  588TMC3    H2 8723   0.269   4.461  10.605  0.0438 -1.2228 -0.5546
  588TMC3    C7 8724   0.228   4.672  10.460 -0.1170 -0.0867 -0.2723
  588TMC3    C8 8725   0.127   4.224  10.638 -1.0589  0.5696 -0.1734
  588TMC3    O1 8726   0.278   4.716  10.560  0.1885  0.5509  0.2499
  588TMC3    O2 8727   0.106   4.113  10.589  0.0776  0.9651  0.1708
  589TMC3    C1 8728   3.591   2.609   1.695  0.0951 -0.1470 -0.2492
  589TMC3    C2 8729   3.676   2.625   1.795  0.6900 -0.0913  0.6061
  589TMC3    C3 8730   3.789   2.549   1.796 -0.0114  0.2503  0.2050
  589TMC3    C4 8731   3.611   2.518   1.591 -0.1364 -0.2248 -0.1317
  589TMC3    C5 8732   3.719   2.439   1.602  0.1906  0.4210  0.1357
  589TMC3    C6 8733   3.812   2.453   1.701  0.2603 -0.0457 -0.3010
  589TMC3     C 8734   3.475   2.695   1.687  0.2262  0.0790  0.0502
  589TMC3     O 8735   3.374   2.640   1.640 -0.2541  0.2428  0.1038
  589TMC3     H 8736   3.646   2.680   1.884  0.0192  1.6355 -0.6862
  589TMC3    H1 8737   3.543   2.527   1.507 -1.6563  0.6339  1.1787
  589TMC3    H2 8738   3.901   2.391   1.708  0.7737  0.3728 -3.1988
  589TMC3    C7 8739   3.723   2.316   1.517  0.0803 -0.0267 -0.2059
  589TMC3    C8 8740   3.875   2.567   1.911  0.3608 -0.6812 -0.0128
  589TMC3    O1 8741   3.827   2.247   1.524 -0.4410 -0.3759 -0.2166
  589TMC3    O2 8742   3.829   2.616   2.015  0.0043  0.1045 -0.1740
  590MPD2     C 8743   2.459   2.033  16.563 -0.4414 -0.2238  0.0398
  590MPD2    C1 8744   2.555   1.932  16.583 -0.6575 -0.1558 -0.7887
  590MPD2    C2 8745   2.689   1.963  16.567  0.5719 -0.2951  0.9553
  590MPD2    C3 8746   2.735   2.092  16.549 -0.2325 -0.0251 -0.5256
  590MPD2    C4 8747   2.641   2.189  16.535 -0.1660 -0.1576  0.1658
  590MPD2    C5 8748   2.509   2.159  16.547  0.5180 -0.1414  0.2431
  590MPD2     H 8749   2.768   1.890  16.577  0.5684 -0.4610 -0.2808
  590MPD2    H1 8750   2.675   2.292  16.542  1.0584 -0.7693  3.1489
  590MPD2    H2 8751   2.351   2.022  16.564 -0.4399 -0.2125  0.4138
  590MPD2    H3 8752   2.433   2.235  16.544  1.8017  0.9758 -3.3658
  590MPD2     N 8753   2.876   2.105  16.552  0.1150 -0.6092 -0.7623
  590MPD2    H5 8754   2.930   2.021  16.572  0.6522 -0.0158  0.2571
  590MPD2    N1 8755   2.510   1.796  16.609  0.3458 -0.7389  0.4533
  590MPD2    H7 8756   2.414   1.780  16.641 -0.0400  2.0098  0.6887
  591TMC3    C1 8757   3.087   2.209  16.514  0.1195  0.3088  0.5730
  591TMC3    C2 8758   3.149   2.087  16.509 -0.1775  0.3573 -0.6961
  591TMC3    C3 8759   3.280   2.081  16.542 -0.1930  0.0581  0.3264
  591TMC3    C4 8760   3.159   2.322  16.542  0.0452 -0.2672  0.1251
  591TMC3    C5 8761   3.293   2.314  16.568 -0.3264  0.0546 -0.9223
  591TMC3    C6 8762   3.353   2.197  16.572 -0.0917 -0.5543  0.3286
  591TMC3     C 8763   2.943   2.225  16.537  0.0084  0.2802 -0.5224
  591TMC3     O 8764   2.903   2.342  16.540  0.0430 -0.2393  0.4098
  591TMC3     H 8765   3.095   1.994  16.495  1.4952 -0.6511 -0.4081
  591TMC3    H1 8766   3.121   2.424  16.539  3.8330  1.1592  0.9393
  591TMC3    H2 8767   3.454   2.192  16.611  0.4225  0.5032 -0.8398
  591TMC3    C7 8768   3.370   2.423  16.509 -0.1288  0.3976 -0.3427
  591TMC3    C8 8769   3.331   1.962  16.605  0.2819  0.8609 -0.1136
  591TMC3    O1 8770   3.324   2.539  16.512 -0.2805  0.1694 -0.6354
  591TMC3    O2 8771   3.406   1.983  16.696  0.5894 -0.3446  0.2761
  592MPD2     C 8772   3.670   2.965  11.636 -0.0706  0.5820  0.9157
  592MPD2    C1 8773   3.646   3.028  11.759  0.2912  0.7806  0.1107
  592MPD2    C2 8774   3.531   3.004  11.823 -0.6514  0.5558 -0.2881
  592MPD2    C3 8775   3.432   2.926  11.769  0.2937 -0.3932  0.1329
  592MPD2    C4 8776   3.459   2.858  11.654 -0.0704  0.1925 -0.3026
  592MPD2    C5 8777   3.577   2.877  11.586 -0.2394 -0.1118  0.0250
  592MPD2     H 8778   3.518   3.050  11.920 -0.9008 -1.1292  0.4778
  592MPD2    H1 8779   3.384   2.794  11.609  0.1021 -0.4043  0.2550
  592MPD2    H2 8780   3.763   2.980  11.582  0.3378  1.8914  1.9601
  592MPD2    H3 8781   3.601   2.816  11.500  2.9521  0.6101  0.4075
  592MPD2     N 8782   3.310   2.898  11.842 -0.9387  0.1443  0.3032
  592MPD2    H5 8783   3.311   2.948  11.930  2.9363  1.6188 -0.5645
  592MPD2    N1 8784   3.748   3.119  11.814 -0.6712 -0.0450 -0.6146
  592MPD2    H7 8785   3.810   3.156  11.743  1.7131  3.0041  3.0299
  593TMC3    C1 8786   3.853   3.276  11.951  0.0126 -0.0321  0.0131
  593TMC3    C2 8787   3.849   3.349  12.069  0.2456  0.1525  0.2258
  593TMC3    C3 8788   3.923   3.462  12.077  0.3994 -1.0043  0.0292
  593TMC3    C4 8789   3.918   3.326  11.838 -0.4391 -0.4316  0.6437
  593TMC3    C5 8790   3.980   3.447  11.849 -0.1250 -0.2009 -0.1423
  593TMC3    C6 8791   3.981   3.515  11.967 -0.5865 -0.4357 -0.2914
  593TMC3     C 8792   3.746   3.180  11.941 -0.3776 -0.1438  0.4761
  593TMC3     O 8793   3.686   3.142  12.045 -0.7639 -0.6408  0.2234
  593TMC3     H 8794   3.788   3.321  12.154  0.0836  1.3583  0.5020
  593TMC3    H1 8795   3.930   3.270  11.746 -0.6522 -0.5832  0.7081
  593TMC3    H2 8796   4.019   3.617  11.976 -1.1007 -0.0869 -1.9693
  593TMC3    C7 8797   4.008   3.534  11.733 -0.1669 -0.4548 -0.8506
  593TMC3    C8 8798   3.883   3.549  12.184 -0.3579  0.2966 -0.0726
  593TMC3    O1 8799   4.074   3.632  11.769  0.4895 -0.8180 -0.0202
  593TMC3    O2 8800   3.764   3.553  12.215 -0.8676  0.4885 -0.7583
  594MPD2     C 8801   2.272   2.138  14.008  0.2371 -0.1515 -0.2074
  594MPD2    C1 8802   2.259   2.117  14.144  0.4278 -0.2989  0.0374
  594MPD2    C2 8803   2.362   2.154  14.225  0.1809  0.8772 -0.3836
  594MPD2    C3 8804   2.474   2.218  14.176  0.2026 -0.5300  0.0871
  594MPD2    C4 8805   2.489   2.231  14.040  0.7014  0.1656 -1.0902
  594MPD2    C5 8806   2.386   2.199  13.958  0.6846  0.7264 -0.1137
  594MPD2     H 8807   2.362   2.135  14.332 -0.9161 -2.5669 -1.0192
  594MPD2    H1 8808   2.576   2.273  13.990  1.0086 -0.7215 -1.3182
  594MPD2    H2 8809   2.197   2.116  13.933  1.5853  1.2374 -1.9610
  594MPD2    H3 8810   2.388   2.224  13.853 -0.9339 -3.3077 -1.0894
  594MPD2     N 8811   2.578   2.266  14.268  0.6777  0.2190  0.1241
  594MPD2    H5 8812   2.555   2.263  14.367  1.8606  1.4312  0.4322
  594MPD2    N1 8813   2.140   2.060  14.190  0.1699  0.1392  0.0491
  594MPD2    H7 8814   2.076   2.038  14.115  0.6821 -0.4594 -0.2120
  595TMC3    C1 8815   3.000   2.391  14.425 -0.1916  0.1332 -0.2616
  595TMC3    C2 8816   2.921   2.329  14.327  0.3141 -0.3755 -0.4101
  595TMC3    C3 8817   2.785   2.353  14.336 -0.4073 -0.2629 -0.7569
  595TMC3    C4 8818   2.937   2.466  14.522 -0.2638  0.1516  0.7115
  595TMC3    C5 8819   2.803   2.480  14.527  0.5360  0.4746  0.4666
  595TMC3    C6 8820   2.726   2.418  14.436  0.7537 -0.5782  0.1255
  595TMC3     C 8821   3.123   2.332  14.463  0.5746 -0.4160 -0.5650
  595TMC3     O 8822   3.145   2.347  14.582  0.8166  0.2823  0.3812
  595TMC3     H 8823   2.965   2.272  14.245  1.7596 -1.9473  1.4683
  595TMC3    H1 8824   3.001   2.513  14.595  0.3775  0.5002 -0.0714
  595TMC3    H2 8825   2.621   2.445  14.427  0.5687 -1.5649 -0.7115
  595TMC3    C7 8826   2.738   2.526  14.642 -0.3418 -0.1509 -0.2081
  595TMC3    C8 8827   2.708   2.284  14.229  0.6638 -0.1816  0.3891
  595TMC3    O1 8828   2.626   2.480  14.667  0.2341 -0.5822  0.4969
  595TMC3    O2 8829   2.776   2.248  14.130 -0.2335  0.5314 -0.2256
  596MPD2     C 8830   1.639   4.416  17.245 -0.2557  0.1581 -1.1600
  596MPD2    C1 8831   1.613   4.537  17.189  0.7728 -0.3577  0.3577
  596MPD2    C2 8832   1.630   4.544  17.052 -0.3587 -0.0783 -0.2818
  596MPD2    C3 8833   1.662   4.436  16.970 -1.0232  0.2963 -0.6805
  596MPD2    C4 8834   1.695   4.317  17.036  0.7005  0.1775  0.5749
  596MPD2    C5 8835   1.683   4.309  17.170  0.0264 -0.1418 -0.0784
  596MPD2     H 8836   1.607   4.637  17.002  2.4024  1.3526  1.1190
  596MPD2    H1 8837   1.724   4.229  16.979  1.4431 -1.1880  3.0414
  596MPD2    H2 8838   1.624   4.393  17.350 -1.8052 -1.1740 -1.6802
  596MPD2    H3 8839   1.697   4.213  17.220 -3.7461  0.0676  1.3500
  596MPD2     N 8840   1.655   4.437  16.828  0.5339 -0.4346 -0.8004
  596MPD2    H5 8841   1.677   4.348  16.784 -1.0898 -1.0813 -0.3171
  596MPD2    N1 8842   1.558   4.646  17.267 -0.5584  0.4902  0.5311
  596MPD2    H7 8843   1.568   0.011  17.223 -1.0415  0.8505  1.1632
  597TMC3    C1 8844   1.483   0.043  17.449  0.4781 -0.0985 -0.9070
  597TMC3    C2 8845   1.541   0.160  17.400  0.1608  0.0636  0.1846
  597TMC3    C3 8846   1.480   0.273  17.407  0.1433  0.2899 -0.7964
  597TMC3    C4 8847   1.363   0.066  17.516 -0.7920 -0.2729 -0.6393
  597TMC3    C5 8848   1.308   0.185  17.527  0.1610 -0.3556 -0.0779
  597TMC3    C6 8849   1.368   0.305  17.483  0.1336  0.4699  0.6916
  597TMC3     C 8850   1.504   4.634  17.397 -0.1220 -0.3011 -0.5510
  597TMC3     O 8851   1.454   4.537  17.454  0.5672  0.5374 -0.4333
  597TMC3     H 8852   1.630   0.146  17.340  0.1377  5.1998 -0.9965
  597TMC3    H1 8853   1.304   4.708  17.552  2.8051 -2.8243 -0.7077
  597TMC3    H2 8854   1.314   0.398  17.473 -1.4890 -0.5047  0.3622
  597TMC3    C7 8855   1.177   0.195  17.586 -0.1235  0.3425  0.2759
  597TMC3    C8 8856   1.538   0.390  17.330 -0.9058 -0.0196 -0.0230
  597TMC3    O1 8857   1.135   0.093  17.641  0.2762 -0.1228 -0.0819
  597TMC3    O2 8858   1.478   0.499  17.333  0.3657 -0.4810 -0.0962
  598TMC3    C1 8859   4.611   1.658  15.900  0.4045 -0.1432 -0.4813
  598TMC3    C2 8860   4.540   1.536  15.912 -0.6383  0.1266 -0.3239
  598TMC3    C3 8861   4.551   1.447  15.815  0.1065  0.5187  0.0250
  598TMC3    C4 8862   4.685   1.700  15.796 -0.5749 -0.0434 -0.1856
  598TMC3    C5 8863   4.683   1.607  15.697  0.7089  0.3858  0.2131
  598TMC3    C6 8864   4.617   1.488  15.705  0.1916 -0.1054  0.6907
  598TMC3     C 8865   4.587   1.746  16.016 -0.1591 -0.5349  0.5602
  598TMC3     O 8866   4.678   1.822  16.047 -0.4850  0.0012  0.6535
  598TMC3     H 8867   4.491   1.511  16.006  0.8890 -2.4213 -0.2011
  598TMC3    H1 8868   0.029   1.783  15.810  0.7099 -1.2360  0.4795
  598TMC3    H2 8869   4.637   1.410  15.632  0.4689  2.5467 -2.0763
  598TMC3    C7 8870   0.048   1.627  15.584 -0.2669  0.1353 -0.1555
  598TMC3    C8 8871   4.475   1.316  15.809 -0.2886 -1.0062 -0.0665
  598TMC3    O1 8872   0.074   1.533  15.507 -0.2487  0.1385  0.7179
  598TMC3    O2 8873   4.461   1.255  15.704 -0.5981 -0.5196 -0.2577
  599MPD2     C 8874   0.009   3.731  16.271 -0.4603 -0.1328  0.0484
  599MPD2    C1 8875   4.666   3.617  16.236 -0.2365 -0.2217  0.4279
  599MPD2    C2 8876   4.534   3.619  16.236  0.2593 -0.3185 -0.0484
  599MPD2    C3 8877   4.470   3.730  16.281 -0.1001  0.3483  0.2971
  599MPD2    C4 8878   4.532   3.850  16.303 -0.0366 -0.1001  0.3900
  599MPD2    C5 8879   4.665   3.852  16.294 -0.1446 -0.2233 -0.0804
  599MPD2     H 8880   4.470   3.532  16.226 -1.8788  1.2574 -0.0524
  599MPD2    H1 8881   4.480   3.941  16.330 -1.5089 -1.1587  1.1949
  599MPD2    H2 8882   0.117   3.737  16.266 -0.5769  2.0672  0.3062
  599MPD2    H3 8883   4.723   3.942  16.313  1.1610 -0.7946 -1.3997
  599MPD2     N 8884   4.334   3.732  16.304  0.0683  0.2120  0.5542
  599MPD2    H5 8885   4.306   3.826  16.329  1.6556  1.1127 -1.0941
  599MPD2    N1 8886   0.025   3.511  16.189 -0.0554 -0.0857  0.2459
  599MPD2    H7 8887   0.125   3.516  16.206  0.0191  0.4465 -0.3505
  600TMC3    C1 8888   4.122   3.673  16.362 -0.5163 -0.0499  0.6440
  600TMC3    C2 8889   4.008   3.600  16.332 -0.7076  0.4110 -0.1981
  600TMC3    C3 8890   3.896   3.619  16.404  0.1629 -0.2773  0.0920
  600TMC3    C4 8891   4.118   3.752  16.471  0.5746 -0.1361 -0.6103
  600TMC3    C5 8892   4.002   3.771  16.548  0.3978  0.3630 -0.7053
  600TMC3    C6 8893   3.890   3.706  16.508 -0.3393 -0.0411  0.3724
  600TMC3     C 8894   4.244   3.627  16.314  0.6206  0.4710 -0.6554
  600TMC3     O 8895   4.265   3.511  16.286  0.5388 -0.6598  0.2192
  600TMC3     H 8896   4.010   3.545  16.239 -2.4264 -0.9929  0.5996
  600TMC3    H1 8897   4.210   3.805  16.488  1.0361 -0.8275 -0.9500
  600TMC3    H2 8898   3.793   3.726  16.553 -0.6523  0.9766 -0.7763
  600TMC3    C7 8899   4.001   3.856  16.661  0.8585 -0.3369  0.8190
  600TMC3    C8 8900   3.766   3.569  16.346  0.3616 -0.1234  0.6726
  600TMC3    O1 8901   3.902   3.862  16.729  0.6611 -0.2391 -0.4991
  600TMC3    O2 8902   3.678   3.654  16.326  0.1834  0.1568  0.4387
  601MPD2     C 8903   0.541   1.065   0.257 -0.3881 -0.4231 -0.0191
  601MPD2    C1 8904   0.638   1.086   0.352  1.2297 -0.0344  0.0792
  601MPD2    C2 8905   0.699   0.974   0.404  0.0336  0.5748 -0.1884
  601MPD2    C3 8906   0.672   0.852   0.365  0.7169 -0.3401 -0.3468
  601MPD2    C4 8907   0.581   0.834   0.263  0.4498 -1.2082  0.2815
  601MPD2    C5 8908   0.505   0.942   0.216 -0.3194 -0.4680  0.1742
  601MPD2     H 8909   0.777   0.986   0.479  1.3941 -0.0312 -1.5025
  601MPD2    H1 8910   0.575   0.734   0.221  0.6145 -0.1937 -2.1674
  601MPD2    H2 8911   0.482   1.147   0.218 -0.3104 -0.1834  0.3645
  601MPD2    H3 8912   0.431   0.939   0.136 -1.0151  1.0252  0.7755
  601MPD2     N 8913   0.733   0.737   0.416  0.5453 -0.3104 -0.1123
  601MPD2    H5 8914   0.726   0.649   0.366  1.3773 -1.0325  1.0555
  601MPD2    N1 8915   0.659   1.215   0.421 -0.7322 -0.3699  0.2354
  601MPD2    H7 8916   0.713   1.200   0.506  0.5743  0.4887 -0.4414
  602TMC3    C1 8917   0.622   1.445   0.477 -0.2612  0.5153  0.2320
  602TMC3    C2 8918   0.753   1.492   0.476 -0.3842 -0.2297 -0.0968
  602TMC3    C3 8919   0.775   1.622   0.508 -0.6095  0.8573  0.2053
  602TMC3    C4 8920   0.519   1.528   0.493 -0.1430  0.1191  0.3757
  602TMC3    C5 8921   0.543   1.655   0.538  0.6652  0.3274 -0.4238
  602TMC3    C6 8922   0.674   1.708   0.542  0.0865 -0.0456  0.4310
  602TMC3     C 8923   0.593   1.332   0.389 -0.0664  0.0317 -0.0209
  602TMC3     O 8924   0.537   1.364   0.287  0.1526 -0.1220 -0.2726
  602TMC3     H 8925   0.831   1.419   0.459  0.5250  0.8419 -0.5419
  602TMC3    H1 8926   0.417   1.494   0.479 -0.8194  2.6291 -0.6957
  602TMC3    H2 8927   0.689   1.805   0.588 -1.6707  1.2096 -1.6474
  602TMC3    C7 8928   0.434   1.758   0.522 -0.4930 -0.1238  0.2552
  602TMC3    C8 8929   0.899   1.675   0.447  0.0419 -0.0261 -0.2376
  602TMC3    O1 8930   0.323   1.736   0.572 -0.3743 -0.0889 -0.2541
  602TMC3    O2 8931   0.997   1.612   0.475 -0.3363  0.3881  0.0125
  603TMC3    C1 8932   4.095   2.702  11.415  0.1398 -0.1788 -0.4114
  603TMC3    C2 8933   4.149   2.663  11.526  0.2493  0.5480 -0.2724
  603TMC3    C3 8934   4.254   2.729  11.570  0.2460 -1.0088  0.5269
  603TMC3    C4 8935   4.143   2.803  11.336  0.2430  0.9027 -0.5530
  603TMC3    C5 8936   4.254   2.865  11.381  0.1424 -0.2374  0.0784
  603TMC3    C6 8937   4.308   2.831  11.496 -0.7670  1.2344  0.7629
  603TMC3     C 8938   3.979   2.619  11.383  0.3576 -0.3380 -0.5840
  603TMC3     O 8939   3.930   2.557  11.472  0.4456  0.0891  0.0332
  603TMC3     H 8940   4.117   2.577  11.584 -0.0539 -0.0432 -1.3220
  603TMC3    H1 8941   4.083   2.842  11.255 -0.0357  1.5845 -0.0216
  603TMC3    H2 8942   4.403   2.880  11.513  1.8722 -3.6333 -0.0268
  603TMC3    C7 8943   4.305   2.968  11.290 -0.0222 -0.1427 -0.0611
  603TMC3    C8 8944   4.309   2.688  11.694  0.1941 -0.1275  0.6678
  603TMC3    O1 8945   4.389   3.039  11.335  0.5305 -0.1561  0.4243
  603TMC3    O2 8946   4.258   2.589  11.746 -0.1480 -0.2036  0.0694
  604MPD2     C 8947   0.384   0.838  16.817  0.4448 -0.1987 -0.1168
  604MPD2    C1 8948   0.283   0.831  16.725 -0.0267  0.5633 -0.4841
  604MPD2    C2 8949   0.321   0.803  16.599  0.6933 -0.1696 -0.2843
  604MPD2    C3 8950   0.450   0.783  16.561 -0.1522  0.1626 -0.0142
  604MPD2    C4 8951   0.551   0.796  16.653  0.7968 -0.3401 -0.6232
  604MPD2    C5 8952   0.518   0.821  16.782  0.0491  0.5420 -0.6585
  604MPD2     H 8953   0.247   0.805  16.520  1.0683 -2.7482 -0.7126
  604MPD2    H1 8954   0.655   0.783  16.627  1.1531  0.0514  0.5781
  604MPD2    H2 8955   0.355   0.861  16.919  0.3395  0.9316 -0.4011
  604MPD2    H3 8956   0.598   0.833  16.854 -0.6385  2.2734 -0.1640
  604MPD2     N 8957   0.482   0.738  16.431  1.2366 -0.8294  0.2506
  604MPD2    H5 8958   0.402   0.722  16.370  1.6240  2.2923 -1.0989
  604MPD2    N1 8959   0.149   0.837  16.780  0.0295  0.0560 -0.2014
  604MPD2    H7 8960   0.142   0.870  16.875 -0.2009 -0.5850  0.0046
  605TMC3    C1 8961   4.643   0.836  16.787 -0.8339  0.1724 -0.2777
  605TMC3    C2 8962   4.649   0.817  16.921 -0.1731  0.7522  0.3613
  605TMC3    C3 8963   4.601   0.922  16.988  0.3268 -0.0188  0.3057
  605TMC3    C4 8964   4.555   0.915  16.724 -1.1221  0.4744 -0.2389
  605TMC3    C5 8965   4.492   1.002  16.800 -0.1202 -0.4473  1.0397
  605TMC3    C6 8966   4.511   1.011  16.931 -0.0808 -0.1314 -0.1462
  605TMC3     C 8967   0.037   0.796  16.712 -0.5958  0.6501  0.5998
  605TMC3     O 8968   0.022   0.759  16.593 -0.0794  0.1438  0.2167
  605TMC3     H 8969   4.708   0.736  16.963  0.5552  0.0031 -2.0556
  605TMC3    H1 8970   4.548   0.923  16.616  2.2838  1.2399 -0.4120
  605TMC3    H2 8971   4.465   1.097  16.979 -0.8644 -0.3372 -0.5128
  605TMC3    C7 8972   4.356   1.039  16.766 -0.1167 -0.0339 -0.2230
  605TMC3    C8 8973   4.719   0.987  17.046 -0.4396  0.5101  0.0377
  605TMC3    O1 8974   4.279   1.055  16.859  0.4131  0.0550  0.6718
  605TMC3    O2 8975   0.093   0.919  17.047 -0.2658 -0.2754 -0.0778
  606TMC3    C1 8976   2.088   3.672  17.688  0.0377 -1.0135  0.9351
  606TMC3    C2 8977   2.200   3.723   0.046  0.2326  0.1451 -0.6842
  606TMC3    C3 8978   2.262   3.661   0.151 -0.1772  0.7007 -0.2229
  606TMC3    C4 8979   2.022   3.573   0.050 -0.2393 -0.9336  0.3030
  606TMC3    C5 8980   2.078   3.517   0.164  0.0332  0.3790 -0.1003
  606TMC3    C6 8981   2.193   3.563   0.215 -0.4443  0.5186  0.2463
  606TMC3     C 8982   2.041   3.750  17.575  0.0540  0.0902  0.4466
  606TMC3     O 8983   2.128   3.807  17.514 -0.4554 -0.2520  0.2074
  606TMC3     H 8984   2.243   3.813   0.005 -0.5422  0.9383  0.2512
  606TMC3    H1 8985   1.938   3.517   0.011 -0.1623 -1.1562  0.4553
  606TMC3    H2 8986   2.227   3.508   0.302 -1.7808 -1.3557 -0.4089
  606TMC3    C7 8987   2.000   3.441   0.254 -0.2618 -0.9630 -0.0853
  606TMC3    C8 8988   2.391   3.715   0.193  0.0742 -0.1727 -0.1945
  606TMC3    O1 8989   2.058   3.350   0.312  0.1327 -0.1718  1.1456
  606TMC3    O2 8990   2.448   3.801   0.130  0.3226  0.8473 -0.3597
  607MPD2     C 8991   3.637   2.714  11.989 -0.5295 -1.0018  0.9252
  607MPD2    C1 8992   3.729   2.771  12.077  0.2058 -0.1703  0.5283
  607MPD2    C2 8993   3.689   2.786  12.207 -0.2374 -0.2888  0.1884
  607MPD2    C3 8994   3.569   2.742  12.264  0.0630  0.6219  0.0310
  607MPD2    C4 8995   3.481   2.676  12.176  0.1090  0.1934  0.0673
  607MPD2    C5 8996   3.521   2.659  12.042  0.0689  0.0955 -0.3093
  607MPD2     H 8997   3.771   2.821  12.269  0.3556 -1.4125  0.0183
  607MPD2    H1 8998   3.389   2.631  12.211  0.2750  1.1072  1.6834
  607MPD2    H2 8999   3.660   2.693  11.885 -2.1718  0.0823  0.3588
  607MPD2    H3 9000   3.456   2.612  11.969 -2.0147  1.5861  0.6165
  607MPD2     N 9001   3.547   2.760  12.403  0.5025  0.2970  1.0027
  607MPD2    H5 9002   3.624   2.812  12.445 -0.5608  0.8858  2.2316
  607MPD2    N1 9003   3.854   2.819  12.036 -0.1084  0.6984 -0.2091
  607MPD2    H7 9004   3.910   2.853  12.114 -1.0491  0.3697  0.6079
  608TMC3    C1 9005   4.055   2.864  11.922 -0.0619 -0.2442 -0.4467
  608TMC3    C2 9006   4.131   2.838  12.039 -0.0408 -0.6816  0.4211
  608TMC3    C3 9007   4.240   2.910  12.060  0.6884  0.6475  0.7710
  608TMC3    C4 9008   4.102   2.942  11.821 -0.5575  0.5464 -0.1000
  608TMC3    C5 9009   4.224   3.002  11.842  0.1989  0.4468  0.8346
  608TMC3    C6 9010   4.292   2.989  11.959  0.3448  0.2108  0.2760
  608TMC3     C 9011   3.917   2.817  11.918 -0.4119  0.5522  0.3786
  608TMC3     O 9012   3.881   2.772  11.812 -0.3388 -0.2045  1.0040
  608TMC3     H 9013   4.088   2.772  12.114  3.4064 -1.7520  1.4374
  608TMC3    H1 9014   4.031   2.973  11.745  0.0413  2.4481  0.1063
  608TMC3    H2 9015   4.377   3.048  11.989  0.6429 -0.0406 -0.0779
  608TMC3    C7 9016   4.240   3.125  11.764  0.0653  0.9046  0.5111
  608TMC3    C8 9017   4.279   2.931  12.196 -0.0798  0.5288  0.1960
  608TMC3    O1 9018   4.181   3.131  11.656  0.2302 -0.9885  0.2803
  608TMC3    O2 9019   4.400   2.942  12.214 -0.6155  0.3991  0.0285
  609TMC3    C1 9020   2.010   1.019   9.395  0.0743  0.0111  0.5932
  609TMC3    C2 9021   1.896   0.965   9.332 -0.2873  0.1396 -0.1589
  609TMC3    C3 9022   1.926   0.883   9.228  0.2384 -0.4702 -0.0775
  609TMC3    C4 9023   2.143   0.992   9.362 -0.2316  0.4290  0.4246
  609TMC3    C5 9024   2.158   0.911   9.254 -0.0513  0.6431 -0.0091
  609TMC3    C6 9025   2.055   0.845   9.192 -0.5291  0.0949 -0.3456
  609TMC3     C 9026   1.986   1.129   9.485 -0.1005  0.2245 -0.4551
  609TMC3     O 9027   1.871   1.170   9.491  0.2918 -0.3959 -0.4429
  609TMC3     H 9028   1.795   1.002   9.348 -0.1093  1.1197 -1.3129
  609TMC3    H1 9029   2.231   1.014   9.420  0.2975  0.5106 -0.4149
  609TMC3    H2 9030   2.069   0.790   9.100 -3.8330  0.0825 -0.8348
  609TMC3    C7 9031   2.287   0.851   9.234 -0.1357  0.3979 -0.2303
  609TMC3    C8 9032   1.814   0.836   9.153  0.4228 -0.2432  0.1604
  609TMC3    O1 9033   2.377   0.910   9.288 -0.0248 -0.5687  0.0919
  609TMC3    O2 9034   1.706   0.850   9.212  0.4457 -0.8768  0.3655
  610TMC3    C1 9035   4.289   2.254  13.119 -0.4341 -0.5077  0.8335
  610TMC3    C2 9036   4.339   2.286  12.994  0.0025 -0.1343 -0.2186
  610TMC3    C3 9037   4.424   2.196  12.937  0.0822 -0.3284 -0.7604
  610TMC3    C4 9038   4.336   2.138  13.181 -0.7223  0.1905 -0.5248
  610TMC3    C5 9039   4.426   2.052  13.118 -0.3752  0.3455  0.1056
  610TMC3    C6 9040   4.476   2.081  12.993  0.3350 -0.6859  0.8318
  610TMC3     C 9041   4.190   2.338  13.187  0.1396  0.2240  0.8071
  610TMC3     O 9042   4.134   2.423  13.120 -0.4148  0.7044  0.4724
  610TMC3     H 9043   4.313   2.384  12.957 -2.8777 -0.3717  1.1583
  610TMC3    H1 9044   4.289   2.110  13.275  0.3636  2.4339  0.6761
  610TMC3    H2 9045   4.544   2.020  12.934 -0.8201 -1.1217 -0.0431
  610TMC3    C7 9046   4.496   1.945  13.193 -0.1871 -0.6409 -0.4510
  610TMC3    C8 9047   4.496   2.246  12.816  0.3802 -0.0109 -0.7840
  610TMC3    O1 9048   4.609   1.921  13.156 -0.1122 -0.2136  0.1958
  610TMC3    O2 9049   4.599   2.191  12.782  0.0793 -0.0524  0.1091
  611MPD2     C 9050   3.435   3.105  10.143  0.3541  0.6000 -0.5084
  611MPD2    C1 9051   3.474   2.998  10.217 -0.5252  0.3572 -0.1185
  611MPD2    C2 9052   3.607   2.996  10.274  0.2817  0.2238  0.2986
  611MPD2    C3 9053   3.706   3.086  10.232 -0.0100  0.6973 -0.1695
  611MPD2    C4 9054   3.661   3.189  10.149 -0.5718  0.6946 -0.3972
  611MPD2    C5 9055   3.527   3.202  10.104  0.4243  0.0285 -0.1031
  611MPD2     H 9056   3.634   2.918  10.344  1.4603 -0.3714 -0.8278
  611MPD2    H1 9057   3.712   3.280  10.123 -0.0305  0.3624 -0.4931
  611MPD2    H2 9058   3.336   3.115  10.101  0.0707  0.5793  0.1411
  611MPD2    H3 9059   3.492   3.292  10.055  0.4030  0.1328  0.1050
  611MPD2     N 9060   3.842   3.078  10.278 -0.1248  0.1718 -0.1743
  611MPD2    H5 9061   3.901   3.148  10.235  1.2314 -1.3772 -0.8289
  611MPD2    N1 9062   3.370   2.909  10.250  0.3745  0.1219  0.0224
  611MPD2    H7 9063   3.280   2.950  10.229  0.3200 -0.4120 -0.8158
  612TMC3    C1 9064   4.049   2.999  10.353 -0.1667  0.6249 -0.4445
  612TMC3    C2 9065   4.127   3.023  10.464  0.0904 -0.6546 -0.8120
  612TMC3    C3 9066   4.258   3.053  10.456  0.5834  0.3343  0.1248
  612TMC3    C4 9067   4.102   3.022  10.232 -1.0976 -0.0630 -0.0697
  612TMC3    C5 9068   4.236   3.048  10.230 -0.1324  0.2441  0.1006
  612TMC3    C6 9069   4.319   3.060  10.338 -0.2920  0.3096 -0.3964
  612TMC3     C 9070   3.904   2.989  10.362 -0.1526  0.5392  0.4346
  612TMC3     O 9071   3.860   2.909  10.446  0.0360 -0.0676  0.3998
  612TMC3     H 9072   4.074   3.002  10.556  0.1191 -1.2072 -0.9186
  612TMC3    H1 9073   4.047   3.006  10.140 -0.6077 -0.2183 -0.3406
  612TMC3    H2 9074   4.425   3.076  10.323 -0.1073 -1.0720 -0.6063
  612TMC3    C7 9075   4.302   3.036  10.101 -1.3243  0.3197  0.3301
  612TMC3    C8 9076   4.323   3.103  10.574 -0.2073 -0.9272  0.9122
  612TMC3    O1 9077   4.408   2.971  10.090 -0.1463 -0.5590  0.0306
  612TMC3    O2 9078   4.427   3.168  10.565 -0.0068  0.2644  0.1386
  613MPD2     C 9079   2.669   4.301  16.823 -0.1048 -1.3001  0.1009
  613MPD2    C1 9080   2.703   4.393  16.730  0.0217 -0.0889  0.0582
  613MPD2    C2 9081   2.608   4.434  16.642 -0.4831 -0.7677 -0.4016
  613MPD2    C3 9082   2.491   4.360  16.629 -0.2051 -0.3562  0.5328
  613MPD2    C4 9083   2.459   4.255  16.714  0.2735  0.6581  0.2851
  613MPD2    C5 9084   2.549   4.227  16.814  0.4443 -0.4303 -0.8931
  613MPD2     H 9085   2.621   4.522  16.580  1.6900  0.1929  1.4390
  613MPD2    H1 9086   2.367   4.200  16.698  0.0720  0.5505  1.8275
  613MPD2    H2 9087   2.733   4.271  16.904 -2.5878 -2.4809  1.6210
  613MPD2    H3 9088   2.529   4.149  16.887 -0.8152  2.5877  2.0200
  613MPD2     N 9089   2.400   4.374  16.522 -0.4293 -0.2144 -0.5705
  613MPD2    H5 9090   2.334   4.297  16.521 -0.5860 -0.0722 -1.5363
  613MPD2    N1 9091   2.835   4.446  16.745  0.1046 -0.1518  0.2220
  613MPD2    H7 9092   2.896   4.399  16.812 -1.0424 -0.4623  1.0579
  614TMC3    C1 9093   2.855   4.517  16.511  0.0123  0.9553  0.5734
  614TMC3    C2 9094   2.839   4.388  16.463 -0.0754  0.4389 -0.2418
  614TMC3    C3 9095   2.836   4.370  16.326 -0.1249  0.3707 -0.0040
  614TMC3    C4 9096   2.873   4.625  16.429 -0.0228  0.3697  0.2679
  614TMC3    C5 9097   2.876   4.600  16.296 -0.2011  0.9386  0.2057
  614TMC3    C6 9098   2.845   4.478  16.241  0.3992 -0.2511  0.5700
  614TMC3     C 9099   2.894   4.525  16.648 -0.0887  0.8391 -0.1915
  614TMC3     O 9100   2.987   4.599  16.671  0.3964  0.1158  0.3220
  614TMC3     H 9101   2.839   4.302  16.529 -1.1030  0.3246 -0.3921
  614TMC3    H1 9102   2.890   4.719  16.480  0.8647  0.6854 -0.6260
  614TMC3    H2 9103   2.867   4.455  16.138  0.3817  0.6934  0.3577
  614TMC3    C7 9104   2.861   4.716  16.214 -0.4351  0.5401 -0.2873
  614TMC3    C8 9105   2.773   4.251  16.277 -0.3598 -0.1837 -0.5627
  614TMC3    O1 9106   2.906   0.093  16.265  0.0071  0.2513 -0.0892
  614TMC3    O2 9107   2.698   4.199  16.358 -0.0750 -0.1117 -0.7533
  615MPD2     C 9108   2.206   1.675  16.398 -0.2468  0.1822  0.1209
  615MPD2    C1 9109   2.106   1.627  16.470  0.3031  0.2316 -0.3910
  615MPD2    C2 9110   2.034   1.518  16.426 -0.0087 -0.0232  0.0144
  615MPD2    C3 9111   2.063   1.467  16.299  0.2318 -0.0533  0.2574
  615MPD2    C4 9112   2.162   1.523  16.216  0.3180  0.6350  0.0365
  615MPD2    C5 9113   2.237   1.624  16.274  0.3624 -0.3578 -0.0824
  615MPD2     H 9114   1.959   1.484  16.496  0.2134 -0.9143 -0.1784
  615MPD2    H1 9115   2.181   1.478  16.120  0.8158 -0.2798  0.5559
  615MPD2    H2 9116   2.258   1.764  16.430 -1.0899  0.4852  0.6503
  615MPD2    H3 9117   2.317   1.668  16.215 -1.2780 -0.5220 -2.4236
  615MPD2     N 9118   1.997   1.355  16.235  0.1758 -1.0146  0.6086
  615MPD2    H5 9119   2.022   1.322  16.142  2.3677 -1.2318  1.2728
  615MPD2    N1 9120   2.050   1.698  16.576 -0.4593  0.3478  0.1606
  615MPD2    H7 9121   1.953   1.675  16.596 -1.0217  0.9452 -1.9152
  616TMC3    C1 9122   2.026   1.887  16.718 -0.3448  0.8271 -0.1496
  616TMC3    C2 9123   2.095   1.979  16.796 -0.4929  0.1360  0.0093
  616TMC3    C3 9124   2.053   2.110  16.794 -1.4068 -0.2911  0.1567
  616TMC3    C4 9125   1.908   1.915  16.651 -0.2273 -0.2356  0.1727
  616TMC3    C5 9126   1.872   2.043  16.664  0.2777 -0.4536  0.1968
  616TMC3    C6 9127   1.938   2.140  16.729 -0.6626 -0.1568  0.5371
  616TMC3     C 9128   2.115   1.783  16.669  0.2452  0.4663 -0.0011
  616TMC3     O 9129   2.236   1.795  16.696  0.0544 -0.0140 -0.0945
  616TMC3     H 9130   2.175   1.948  16.861 -2.0261 -1.4842  1.1181
  616TMC3    H1 9131   1.862   1.831  16.600 -2.1091  2.3875 -2.3613
  616TMC3    H2 9132   1.908   2.244  16.738 -1.7409 -0.2863 -1.7119
  616TMC3    C7 9133   1.752   2.091  16.592  0.4560 -0.5758 -0.3136
  616TMC3    C8 9134   2.144   2.213  16.818  0.2477 -0.0986 -0.7733
  616TMC3    O1 9135   1.734   2.212  16.596  0.0166 -0.0140 -0.4432
  616TMC3    O2 9136   2.101   2.325  16.831  0.0001  0.0788 -0.3001
  617MPD2     C 9137   0.468   4.583  13.947 -0.3785  0.4418 -0.3571
  617MPD2    C1 9138   0.455   4.516  14.060 -0.4905  0.2219  0.2262
  617MPD2    C2 9139   0.326   4.488  14.100  0.7918  0.1962  0.5423
  617MPD2    C3 9140   0.220   4.504  14.010  0.3196 -0.8010 -1.0046
  617MPD2    C4 9141   0.244   4.559  13.891  0.2639 -0.1589  0.2510
  617MPD2    C5 9142   0.366   4.608  13.855  0.6259  0.0743  0.5144
  617MPD2     H 9143   0.308   4.444  14.197  0.1698  0.3276  0.4900
  617MPD2    H1 9144   0.160   4.585  13.827  0.5565 -1.2542 -0.5853
  617MPD2    H2 9145   0.561   4.632  13.918 -0.4964 -0.0459 -1.5716
  617MPD2    H3 9146   0.377   4.664  13.763 -1.6361 -0.1711  0.0974
  617MPD2     N 9147   0.084   4.472  14.037 -0.6968  0.3845 -0.2383
  617MPD2    H5 9148   0.016   4.482  13.963  2.2636  1.4766 -2.8217
  617MPD2    N1 9149   0.564   4.499  14.150 -0.0618 -0.1206  0.1022
  617MPD2    H7 9150   0.653   4.528  14.111 -0.7468 -2.0338 -2.8685
  618TMC3    C1 9151   0.694   4.431  14.331 -0.0548 -0.5300  0.1568
  618TMC3    C2 9152   0.751   4.306  14.337  0.4099 -0.5419 -0.0114
  618TMC3    C3 9153   0.884   4.295  14.358  0.6839  0.1600  0.3266
  618TMC3    C4 9154   0.764   4.543  14.348  0.3660 -1.0137 -0.0612
  618TMC3    C5 9155   0.894   4.524  14.390  0.4951  0.4083 -0.5685
  618TMC3    C6 9156   0.958   4.404  14.397 -0.1433  0.2086 -0.4806
  618TMC3     C 9157   0.566   4.428  14.269 -0.5351 -1.4930  0.1805
  618TMC3     O 9158   0.479   4.350  14.310 -0.5952  0.2109 -0.0966
  618TMC3     H 9159   0.688   4.220  14.319 -0.8510  0.1696  0.9786
  618TMC3    H1 9160   0.735   4.639  14.306 -0.5855 -1.2301  0.1067
  618TMC3    H2 9161   1.061   4.392  14.429  0.0154 -0.5050 -1.2763
  618TMC3    C7 9162   0.964   4.637  14.440 -0.6308 -0.1034 -0.1499
  618TMC3    C8 9163   0.944   4.203  14.259 -0.5712 -0.6490  0.7115
  618TMC3    O1 9164   0.899   4.712  14.511  0.4270 -0.3104 -0.1589
  618TMC3    O2 9165   0.868   4.129  14.191 -0.7285 -0.7656 -0.0168
  619MPD2     C 9166   1.947   1.300  13.864  0.0845  0.4378  0.0355
  619MPD2    C1 9167   1.815   1.328  13.809 -0.0497 -0.6101  0.1891
  619MPD2    C2 9168   1.706   1.294  13.887  0.8559  0.0443  0.3849
  619MPD2    C3 9169   1.718   1.230  14.008 -0.7577  0.2872  0.6898
  619MPD2    C4 9170   1.844   1.207  14.059  0.2545 -0.3807 -0.5256
  619MPD2    C5 9171   1.960   1.236  13.987  0.0213 -0.4476 -0.0220
  619MPD2     H 9172   1.603   1.316  13.860  0.2945  0.0889  2.4967
  619MPD2    H1 9173   1.851   1.174  14.162 -4.5048  0.4549  0.0796
  619MPD2    H2 9174   2.032   1.316  13.798  1.0461  1.1169  1.4508
  619MPD2    H3 9175   2.059   1.215  14.025  1.0581  1.3942 -1.7222
  619MPD2     N 9176   1.609   1.177  14.088 -0.0373 -0.5492 -0.1757
  619MPD2    H5 9177   1.632   1.140  14.180  2.7523 -0.4729 -0.8379
  619MPD2    N1 9178   1.792   1.410  13.696  0.4452 -0.4054 -0.5410
  619MPD2    H7 9179   1.693   1.411  13.673  0.3978 -0.9965 -0.3523
  620TMC3    C1 9180   1.832   1.544  13.511  0.0096 -0.0038 -0.3669
  620TMC3    C2 9181   1.723   1.494  13.449  0.4066 -0.2717 -0.6333
  620TMC3    C3 9182   1.687   1.568  13.342  0.0566 -0.1103  0.2087
  620TMC3    C4 9183   1.901   1.651  13.471  0.0847  0.6174  0.1712
  620TMC3    C5 9184   1.843   1.740  13.385  0.5754  0.1940 -0.0757
  620TMC3    C6 9185   1.749   1.688  13.308  0.4960  1.2551  0.7564
  620TMC3     C 9186   1.890   1.475  13.627  0.9477  0.0422 -1.4716
  620TMC3     O 9187   2.010   1.488  13.643 -0.7612 -0.4553  0.4393
  620TMC3     H 9188   1.670   1.404  13.481  0.0837 -0.5004 -1.7976
  620TMC3    H1 9189   1.980   1.686  13.536  0.9283 -0.3812 -0.3219
  620TMC3    H2 9190   1.705   1.746  13.228  0.6733  0.8405  0.3568
  620TMC3    C7 9191   1.792   1.853  13.453  0.3579  0.4080  0.2656
  620TMC3    C8 9192   1.570   1.537  13.270  0.8265  0.8966  0.0162
  620TMC3    O1 9193   1.864   1.891  13.543  0.1222 -0.1990 -0.0988
  620TMC3    O2 9194   1.560   1.583  13.154  0.3219  0.7343 -0.3114
  621MPD2     C 9195   2.319   1.454  10.317  0.0347  0.3126  0.0919
  621MPD2    C1 9196   2.421   1.371  10.277  0.0546 -0.4150  0.4061
  621MPD2    C2 9197   2.505   1.409  10.168  0.3400  1.3619 -0.8122
  621MPD2    C3 9198   2.495   1.532  10.104 -0.1785  0.7656 -0.0217
  621MPD2    C4 9199   2.388   1.611  10.134 -0.1686  0.1915 -0.3145
  621MPD2    C5 9200   2.304   1.564  10.232 -0.4765 -0.1037 -1.1764
  621MPD2     H 9201   2.577   1.335  10.134  1.5838  2.8514 -1.4445
  621MPD2    H1 9202   2.369   1.704  10.082  0.8120  0.4204 -0.2714
  621MPD2    H2 9203   2.236   1.431  10.383  1.0870 -3.6714  0.0319
  621MPD2    H3 9204   2.209   1.615  10.243 -0.5778 -1.3156  3.4568
  621MPD2     N 9205   2.597   1.562  10.023  0.0565  0.1933  0.5705
  621MPD2    H5 9206   2.675   1.498  10.029 -0.0512  0.0495  0.4197
  621MPD2    N1 9207   2.449   1.244  10.339  0.1487 -1.0255 -0.2376
  621MPD2    H7 9208   2.523   1.189  10.297  1.4122  1.3101 -1.0847
  622TMC3    C1 9209   2.418   1.046  10.481 -0.5761 -0.0791  0.7934
  622TMC3    C2 9210   2.329   0.975  10.557  0.3134  0.5930  0.3626
  622TMC3    C3 9211   2.380   0.868  10.624  0.2932 -0.0958 -0.2255
  622TMC3    C4 9212   2.549   1.010  10.475 -0.4798  0.6767  0.0842
  622TMC3    C5 9213   2.601   0.895  10.539 -0.4748 -0.1629 -0.3929
  622TMC3    C6 9214   2.511   0.825  10.607 -0.0569  0.2487 -0.1148
  622TMC3     C 9215   2.369   1.182  10.435  0.0479 -0.3553 -0.6551
  622TMC3     O 9216   2.255   1.217  10.473 -0.2444 -0.4166  0.1861
  622TMC3     H 9217   2.230   1.013  10.580 -0.5748 -0.8713 -1.0196
  622TMC3    H1 9218   2.612   1.060  10.401  0.9979  1.0151  1.5755
  622TMC3    H2 9219   2.540   0.739  10.666  1.4108  1.0866  0.3874
  622TMC3    C7 9220   2.694   0.821  10.464  0.0947  0.2783 -0.3398
  622TMC3    C8 9221   2.292   0.753  10.628  0.5298 -0.4366  0.9638
  622TMC3    O1 9222   2.813   0.859  10.438 -0.2572 -0.3951  0.6534
  622TMC3    O2 9223   2.336   0.644  10.590 -0.3340 -0.0392  0.3889
  623MPD2     C 9224   0.305   1.130  16.301  0.3027 -0.2900 -0.4437
  623MPD2    C1 9225   0.252   1.181  16.417  0.1975  0.8694 -0.9892
  623MPD2    C2 9226   0.343   1.190  16.521  0.3135 -0.1163 -0.0989
  623MPD2    C3 9227   0.481   1.157  16.513  0.1437  0.0348  0.4738
  623MPD2    C4 9228   0.527   1.111  16.390  0.5301 -0.0502 -0.0645
  623MPD2    C5 9229   0.438   1.097  16.288  0.1626 -0.5538 -0.3649
  623MPD2     H 9230   0.310   1.227  16.618 -1.6555 -2.3989  0.0920
  623MPD2    H1 9231   0.631   1.085  16.378  0.5642 -0.0090  0.1432
  623MPD2    H2 9232   0.239   1.117  16.216 -0.6423  2.4297 -0.1350
  623MPD2    H3 9233   0.469   1.053  16.193  0.3490  1.4042 -1.2166
  623MPD2     N 9234   0.558   1.166  16.628 -0.2876 -0.2869 -0.3484
  623MPD2    H5 9235   0.512   1.206  16.709  0.2282  0.8186 -0.5991
  623MPD2    N1 9236   0.117   1.187  16.427  0.2433 -0.3757  0.1459
  623MPD2    H7 9237   0.064   1.203  16.341 -0.4629  0.1226  0.6743
  624TMC3    C1 9238   0.818   0.998  16.967  0.5651 -0.2376  0.2648
  624TMC3    C2 9239   0.713   1.038  17.053  0.0581  0.4670 -0.3787
  624TMC3    C3 9240   0.622   1.128  17.008  0.6896  0.0967  0.0280
  624TMC3    C4 9241   0.813   1.034  16.838 -0.2258  0.5785 -0.5862
  624TMC3    C5 9242   0.715   1.119  16.793 -0.4212 -0.5281  0.3548
  624TMC3    C6 9243   0.606   1.159  16.874  0.2001  0.2117  0.5527
  624TMC3     C 9244   0.949   1.018  17.022  0.3398  0.3956  0.5503
  624TMC3     O 9245   0.962   1.114  17.099 -0.0237 -0.3408 -0.2002
  624TMC3     H 9246   0.730   1.020  17.158 -1.6095 -1.6388 -0.4712
  624TMC3    H1 9247   0.895   1.005  16.774 -1.4379 -2.2952 -0.8850
  624TMC3    H2 9248   0.530   1.229  16.841 -0.1037 -1.4912 -2.4067
  624TMC3    C7 9249   0.687   1.123  16.647  0.2445 -0.5336  0.3659
  624TMC3    C8 9250   0.504   1.123  17.085  0.4602 -0.5802 -0.4890
  624TMC3    O1 9251   0.767   1.070  16.570  0.1375 -0.2754  0.1527
  624TMC3    O2 9252   0.477   1.014  17.139  0.5241  0.3941  0.0150
  625MPD2     C 9253   0.772   2.874   1.224  0.0283  0.1250  0.1238
  625MPD2    C1 9254   0.828   2.990   1.198  0.0249 -0.7392 -0.3278
  625MPD2    C2 9255   0.929   3.041   1.282  0.5288  0.0032 -0.2602
  625MPD2    C3 9256   0.958   2.974   1.397 -0.4135 -0.0575  0.9110
  625MPD2    C4 9257   0.877   2.862   1.431  0.1583  0.2956  0.8241
  625MPD2    C5 9258   0.798   2.803   1.334 -0.4074  0.3760 -0.3171
  625MPD2     H 9259   0.986   3.131   1.260 -2.2359  1.9629  0.5981
  625MPD2    H1 9260   0.889   2.809   1.524  0.4927 -1.1879 -0.0615
  625MPD2    H2 9261   0.707   2.834   1.146  1.7378  1.8960 -2.2136
  625MPD2    H3 9262   0.749   2.708   1.354  0.8444  0.2871  2.4457
  625MPD2     N 9263   1.067   3.024   1.482 -0.3592 -0.2838 -0.6356
  625MPD2    H5 9264   1.121   3.104   1.450 -0.2173  0.2930  1.0509
  625MPD2    N1 9265   0.793   3.066   1.079  0.3464  0.0383 -0.6272
  625MPD2    H7 9266   0.837   3.157   1.068  0.1442  0.1813 -0.2416
  626TMC3    C1 9267   0.690   3.122   0.871 -0.0259 -1.0076 -0.2652
  626TMC3    C2 9268   0.634   3.067   0.757  0.2158 -0.6245  0.4603
  626TMC3    C3 9269   0.560   3.153   0.677 -0.0680 -0.2201  0.5548
  626TMC3    C4 9270   0.676   3.253   0.906  0.0861  0.0659 -0.2657
  626TMC3    C5 9271   0.603   3.333   0.825 -0.4126  0.2446  0.4372
  626TMC3    C6 9272   0.551   3.288   0.709  0.3928 -0.2608 -0.1448
  626TMC3     C 9273   0.703   3.023   0.978 -0.7470 -0.0173  0.3100
  626TMC3     O 9274   0.629   2.926   0.973  0.1930 -0.4450  0.3583
  626TMC3     H 9275   0.647   2.960   0.743 -0.1698 -0.6143  0.0213
  626TMC3    H1 9276   0.702   3.291   1.004 -0.9857  1.1522 -0.4022
  626TMC3    H2 9277   0.488   3.349   0.646 -0.8245 -1.4488 -0.0916
  626TMC3    C7 9278   0.533   3.434   0.901 -0.0417  0.4202 -0.1005
  626TMC3    C8 9279   0.550   3.119   0.535  0.2740 -0.2454 -0.1738
  626TMC3    O1 9280   0.590   3.476   1.002  0.1650 -0.2011 -0.3667
  626TMC3    O2 9281   0.548   3.209   0.452  0.3469  0.3163  0.1036
  627MPD2     C 9282   4.163   3.319  14.609 -0.6493  0.1673 -0.0124
  627MPD2    C1 9283   4.268   3.252  14.676 -0.2373 -0.8042  0.9101
  627MPD2    C2 9284   4.268   3.110  14.692  0.0898  0.9105  0.0729
  627MPD2    C3 9285   4.169   3.035  14.625  0.0164  0.0476 -0.3190
  627MPD2    C4 9286   4.067   3.097  14.560 -0.4042 -0.3211  0.4037
  627MPD2    C5 9287   4.068   3.234  14.553 -0.4224  0.8567 -0.5231
  627MPD2     H 9288   4.344   3.069  14.758  0.4730  0.9977 -0.3168
  627MPD2    H1 9289   3.992   3.045  14.501 -0.2011 -1.1191  0.8405
  627MPD2    H2 9290   4.166   3.425  14.585 -0.1485  0.5678  1.8007
  627MPD2    H3 9291   3.988   3.280  14.496  0.4390  0.2481 -2.2284
  627MPD2     N 9292   4.167   2.895  14.651  0.6464  0.1974  0.0527
  627MPD2    H5 9293   4.239   2.851  14.708  1.4888  0.4217 -0.8458
  627MPD2    N1 9294   4.369   3.317  14.747 -0.9342  0.1488  0.2873
  627MPD2    H7 9295   4.415   3.265  14.821 -1.3676  0.5638  0.8432
  628TMC3    C1 9296   4.528   3.486  14.798  0.2509 -0.3295 -0.3829
  628TMC3    C2 9297   4.624   3.396  14.788 -0.0534 -0.0265 -0.3119
  628TMC3    C3 9298   0.025   3.431  14.830 -0.4969  0.0439 -0.6265
  628TMC3    C4 9299   4.559   3.615  14.843  0.3733 -0.1359 -0.2762
  628TMC3    C5 9300   4.685   3.645  14.874  0.0029 -0.1447 -0.7108
  628TMC3    C6 9301   0.053   3.551  14.884 -0.5523 -0.2315  0.0126
  628TMC3     C 9302   4.397   3.456  14.741  0.6280  0.6258 -0.3494
  628TMC3     O 9303   4.333   3.551  14.696 -0.2288  0.6185  0.1582
  628TMC3     H 9304   4.610   3.302  14.736  1.5286  0.3437 -1.3867
  628TMC3    H1 9305   4.481   3.689  14.850 -0.7053 -1.3720  0.9872
  628TMC3    H2 9306   0.157   3.580  14.887 -0.4725 -0.3406 -1.6130
  628TMC3    C7 9307   0.005   3.779  14.863 -0.8309 -0.9396  0.1536
  628TMC3    C8 9308   0.137   3.371  14.761  0.9565  0.2428 -0.1204
  628TMC3    O1 9309   0.118   3.796  14.907  0.0251  0.2912 -0.7710
  628TMC3    O2 9310   0.118   3.333  14.647 -0.0586  0.0929 -0.2359
  629MPD2     C 9311   2.614   2.405  16.863  0.3675  0.4773 -0.0336
  629MPD2    C1 9312   2.623   2.268  16.887  0.6537  0.7311  0.2049
  629MPD2    C2 9313   2.506   2.198  16.879 -0.7880  0.4184 -0.1659
  629MPD2    C3 9314   2.382   2.248  16.855  0.1433  0.1507  0.6767
  629MPD2    C4 9315   2.376   2.379  16.822  0.5286 -0.8176 -0.0663
  629MPD2    C5 9316   2.492   2.460  16.828  0.1138 -0.5066 -0.3392
  629MPD2     H 9317   2.518   2.095  16.909  2.6954  0.9421  0.2587
  629MPD2    H1 9318   2.281   2.429  16.808 -0.3614 -1.6955  2.8931
  629MPD2    H2 9319   2.699   2.471  16.862 -1.5274  2.9331  0.0624
  629MPD2    H3 9320   2.480   2.563  16.795 -1.6508 -0.4390  0.5356
  629MPD2     N 9321   2.272   2.165  16.841  0.2158 -0.2521  1.0869
  629MPD2    H5 9322   2.279   2.065  16.859 -1.2199 -0.6156 -0.4037
  629MPD2    N1 9323   2.756   2.213  16.903 -0.0451  0.5800 -0.0322
  629MPD2    H7 9324   2.834   2.278  16.898  1.6859 -1.4438  0.6250
  630TMC3    C1 9325   2.932   2.061  16.942  0.8028 -0.4618 -0.3027
  630TMC3    C2 9326   3.022   2.153  16.907 -0.2772 -0.2160  0.1004
  630TMC3    C3 9327   3.152   2.129  16.946 -0.3464  0.2973 -0.2957
  630TMC3    C4 9328   2.963   1.956  17.025 -0.3533  0.2590  0.0654
  630TMC3    C5 9329   3.093   1.931  17.049 -0.3650  0.7880 -0.7192
  630TMC3    C6 9330   3.192   2.020  17.023 -0.5913 -0.8551  0.7606
  630TMC3     C 9331   2.785   2.084  16.925 -0.0640  0.4328 -0.5050
  630TMC3     O 9332   2.704   1.994  16.934 -0.4081  0.1295 -0.2234
  630TMC3     H 9333   2.993   2.215  16.823 -1.6578 -1.2247 -0.1590
  630TMC3    H1 9334   2.889   1.878  17.040 -1.8187  1.7440  0.5323
  630TMC3    H2 9335   3.295   2.006  17.055  0.6697 -0.4753 -3.0259
  630TMC3    C7 9336   3.129   1.804  17.104  0.1717 -0.2065  0.4562
  630TMC3    C8 9337   3.254   2.229  16.937  0.2976  0.4962 -0.5773
  630TMC3    O1 9338   3.061   1.711  17.062 -0.0266 -0.3716  0.0124
  630TMC3    O2 9339   3.365   2.197  16.977  0.4848 -0.2326  0.7508
  631MPD2     C 9340   1.034   1.241  16.016 -0.2766  0.8010  0.2439
  631MPD2    C1 9341   1.120   1.280  15.916 -0.3485  0.2319  0.8652
  631MPD2    C2 9342   1.255   1.244  15.909  0.4386 -0.5723  0.6702
  631MPD2    C3 9343   1.311   1.169  16.007  0.4886  0.8409  0.4256
  631MPD2    C4 9344   1.226   1.118  16.107 -0.1139 -1.1991 -0.1748
  631MPD2    C5 9345   1.092   1.158  16.105  0.0696 -0.6966 -0.4863
  631MPD2     H 9346   1.319   1.273  15.826  0.0965  2.1735  1.3475
  631MPD2    H1 9347   1.255   1.053  16.188  0.9152 -0.1032  0.3318
  631MPD2    H2 9348   0.933   1.279  16.024  0.0206  1.7409 -0.5298
  631MPD2    H3 9349   1.030   1.120  16.186  0.1466 -0.8734 -0.5094
  631MPD2     N 9350   1.450   1.150  16.005  0.1741 -0.2615  0.2786
  631MPD2    H5 9351   1.496   1.186  15.922 -1.4645 -0.2792 -0.6279
  631MPD2    N1 9352   1.072   1.383  15.826  0.3886  0.4443  0.3527
  631MPD2    H7 9353   0.980   1.422  15.844  0.3678 -0.2181  1.7140
  632TMC3    C1 9354   1.079   1.555  15.662  0.6159  0.5044  0.7124
  632TMC3    C2 9355   1.005   1.642  15.740 -0.1863  0.2976  0.4148
  632TMC3    C3 9356   0.974   1.767  15.682  0.1071 -0.6288 -0.0994
  632TMC3    C4 9357   1.099   1.578  15.530  0.2033 -0.4783 -0.1105
  632TMC3    C5 9358   1.067   1.702  15.479 -0.4133 -0.7512 -0.5071
  632TMC3    C6 9359   1.011   1.801  15.551  0.2730 -0.1455  0.6905
  632TMC3     C 9360   1.131   1.424  15.712  0.2231  0.4789 -0.0715
  632TMC3     O 9361   1.215   1.364  15.644  0.5416  0.0125 -0.2263
  632TMC3     H 9362   0.974   1.610  15.839  2.2514  0.6447  1.3033
  632TMC3    H1 9363   1.175   1.515  15.486  0.3043  0.0654 -0.7123
  632TMC3    H2 9364   1.003   1.903  15.514 -0.4030  0.2617  1.9557
  632TMC3    C7 9365   1.100   1.731  15.342 -0.1020  0.4824 -0.2220
  632TMC3    C8 9366   0.910   1.859  15.772  0.3928 -0.2079  0.2349
  632TMC3    O1 9367   1.100   1.844  15.296  0.3327 -0.3583  0.0798
  632TMC3    O2 9368   0.864   1.811  15.877  0.2985  0.3143 -0.3531
  633MPD2     C 9369   0.953   4.357   0.145  0.0483 -0.6976 -0.4237
  633MPD2    C1 9370   0.994   4.301   0.027  0.3147 -0.3793  0.1171
  633MPD2    C2 9371   1.010   4.155   0.030 -0.5278  0.3350  0.3403
  633MPD2    C3 9372   0.990   4.086   0.153  0.6236  0.2009 -0.1337
  633MPD2    C4 9373   0.946   4.160   0.266 -0.1302  0.0746  0.5549
  633MPD2    C5 9374   0.920   4.294   0.263  0.3152  0.5074 -0.0112
  633MPD2     H 9375   1.065   4.100  17.657  0.5361  2.5235 -0.5032
  633MPD2    H1 9376   0.942   4.122   0.368  1.9562  1.3421  1.1332
  633MPD2    H2 9377   0.944   4.465   0.151 -0.9451 -0.6130 -3.3143
  633MPD2    H3 9378   0.895   4.350   0.353 -3.8535 -0.3913 -0.6379
  633MPD2     N 9379   1.022   3.953   0.178 -0.2845  0.4223 -0.1288
  633MPD2    H5 9380   1.018   3.927   0.276  1.7231 -0.3414 -0.2397
  633MPD2    N1 9381   1.030   4.365  17.615  0.3048 -0.0238  0.3980
  633MPD2    H7 9382   1.071   4.310  17.539  1.6125  1.0548  0.3309
  634TMC3    C1 9383   1.077   4.520  17.458 -0.0118 -0.1086 -0.2815
  634TMC3    C2 9384   1.169   4.442  17.396 -1.0446  0.1826  1.1279
  634TMC3    C3 9385   1.192   4.465  17.260 -0.1570  0.1139 -0.0915
  634TMC3    C4 9386   1.013   4.623  17.393  0.6848  0.2460 -0.3130
  634TMC3    C5 9387   1.057   4.656  17.267  0.3891  0.1484  0.6676
  634TMC3    C6 9388   1.141   4.573  17.200  0.8557 -0.6168  0.1940
  634TMC3     C 9389   1.024   4.501  17.588  0.5022 -0.4247  0.3183
  634TMC3     O 9390   0.952   4.584  17.646  0.0487 -0.2913 -0.5760
  634TMC3     H 9391   1.225   4.370  17.454 -0.3319 -1.9993 -2.2761
  634TMC3    H1 9392   0.931   4.675  17.441  1.7021  0.5309  1.1203
  634TMC3    H2 9393   1.157   4.586  17.094  1.5568  0.9891  0.5023
  634TMC3    C7 9394   0.980   0.035  17.195 -0.0668 -0.1294 -0.4084
  634TMC3    C8 9395   1.275   4.368  17.194  0.0241 -0.4929  0.0767
  634TMC3    O1 9396   0.982   0.018  17.074 -0.7182 -0.6478 -0.2650
  634TMC3    O2 9397   1.308   4.271  17.257 -0.4034  0.0443 -0.3281
  635TMC3    C1 9398   1.381   4.532   0.129 -0.0749 -0.9227  0.1201
  635TMC3    C2 9399   1.495   4.545   0.056  1.3012  0.1654  0.2209
  635TMC3    C3 9400   1.568   4.434   0.033 -0.3107 -0.0501  0.0141
  635TMC3    C4 9401   1.343   4.409   0.178 -0.7366 -0.2609  0.1313
  635TMC3    C5 9402   1.431   4.309   0.172 -0.4084 -0.3625  0.4059
  635TMC3    C6 9403   1.546   4.317   0.098  0.2814 -0.0108 -0.5101
  635TMC3     C 9404   1.311   4.656   0.169  0.6548  0.1421  0.0873
  635TMC3     O 9405   1.194   4.654   0.209 -0.2561 -0.2154  0.2918
  635TMC3     H 9406   1.510   4.638   0.001 -0.7086  1.3122  1.5895
  635TMC3    H1 9407   1.261   4.408   0.248 -1.5587 -1.3968 -0.8446
  635TMC3    H2 9408   1.613   4.233   0.086 -0.8351 -1.0073  0.2147
  635TMC3    C7 9409   1.421   4.186   0.253 -0.2316  0.1516  0.6497
  635TMC3    C8 9410   1.688   4.456  17.657  0.1894  0.1680  0.6551
  635TMC3    O1 9411   1.514   4.106   0.243  0.7587 -0.2339  0.0640
  635TMC3    O2 9412   1.739   4.567  17.667  0.0282  0.4206 -0.2913
  636MPD2     C 9413   2.025   0.233  15.768 -0.3578 -0.6884  0.3222
  636MPD2    C1 9414   2.033   0.255  15.910  0.5150 -0.1558 -0.6131
  636MPD2    C2 9415   2.099   0.158  15.982 -0.5828  0.5009  0.0121
  636MPD2    C3 9416   2.169   0.047  15.929  0.3425 -0.0361 -0.1426
  636MPD2    C4 9417   2.166   0.038  15.796 -0.0007 -0.3091 -0.1214
  636MPD2    C5 9418   2.089   0.123  15.720 -0.2199  0.1400 -0.0353
  636MPD2     H 9419   2.110   0.170  16.089  2.2777 -1.4956 -0.0763
  636MPD2    H1 9420   2.221   4.686  15.743 -0.1145 -1.3938  1.3255
  636MPD2    H2 9421   1.990   0.301  15.691 -1.3882 -1.0854  0.4393
  636MPD2    H3 9422   2.083   0.091  15.617 -1.3478  1.9598 -0.5423
  636MPD2     N 9423   2.238   4.672  16.010 -0.0914 -0.1940  0.4523
  636MPD2    H5 9424   2.223   4.680  16.110  1.6694  0.4372  0.6612
  636MPD2    N1 9425   1.984   0.367  15.978  0.3907  0.1181  0.4492
  636MPD2    H7 9426   1.989   0.377  16.079  0.6360  0.9706  0.3519
  637TMC3    C1 9427   2.341   4.470  16.072 -0.5990 -0.0086 -0.5293
  637TMC3    C2 9428   2.339   4.512  16.200  0.2378 -0.6726 -0.7022
  637TMC3    C3 9429   2.330   4.419  16.297 -0.2350  0.2185  0.1765
  637TMC3    C4 9430   2.326   4.340  16.031 -0.0678 -0.7897 -0.2836
  637TMC3    C5 9431   2.296   4.256  16.132 -0.8123 -0.1191 -0.2332
  637TMC3    C6 9432   2.298   4.287  16.265  0.0565 -0.3734  0.4014
  637TMC3     C 9433   2.318   4.563  15.967 -1.1802  0.4429 -0.3537
  637TMC3     O 9434   2.353   4.528  15.851 -0.3395 -0.5280  0.5015
  637TMC3     H 9435   2.380   4.608  16.228  0.0850 -0.4759 -1.1577
  637TMC3    H1 9436   2.312   4.315  15.926  1.9178  1.0767 -0.9996
  637TMC3    H2 9437   2.292   4.205  16.336  0.4199  1.4277  2.5056
  637TMC3    C7 9438   2.268   4.117  16.092 -0.5001  0.7214 -0.4439
  637TMC3    C8 9439   2.420   4.443  16.406  0.5596  0.8694  0.1968
  637TMC3    O1 9440   2.154   4.078  16.108  1.1036 -0.2682 -0.2276
  637TMC3    O2 9441   2.512   4.525  16.383  1.0115 -0.2458 -0.4747
  638MPD2     C 9442   2.061   3.839  15.080 -0.4628 -0.4985  0.1249
  638MPD2    C1 9443   2.035   3.718  15.014  0.1996 -0.5222 -0.0012
  638MPD2    C2 9444   2.049   3.593  15.077 -0.2040 -0.2310 -0.7866
  638MPD2    C3 9445   2.069   3.588  15.212 -0.6420  0.5646  0.0546
  638MPD2    C4 9446   2.077   3.710  15.282 -0.1203  0.3640 -0.0752
  638MPD2    C5 9447   2.073   3.828  15.215  0.3949 -0.2033 -0.1167
  638MPD2     H 9448   2.058   3.509  15.009 -1.2611 -1.8398  1.0754
  638MPD2    H1 9449   2.087   3.717  15.390  0.9886  1.2248 -0.2304
  638MPD2    H2 9450   2.056   3.931  15.023 -2.1598 -0.8900 -0.3455
  638MPD2    H3 9451   2.083   3.918  15.275  0.1968  0.8386 -1.6452
  638MPD2     N 9452   2.081   3.457  15.272  0.0473  0.0322 -0.0501
  638MPD2    H5 9453   2.074   3.374  15.215 -1.5900  0.3505 -0.3136
  638MPD2    N1 9454   2.030   3.722  14.874 -0.3387  0.5300  0.0352
  638MPD2    H7 9455   2.030   3.811  14.825  0.4903 -0.6152 -2.0594
  639TMC3    C1 9456   2.095   3.299  15.445  0.3026 -0.0459  0.2286
  639TMC3    C2 9457   1.975   3.247  15.402 -0.2378  0.0504 -0.6316
  639TMC3    C3 9458   1.928   3.140  15.471  0.2298 -0.9317 -0.5160
  639TMC3    C4 9459   2.162   3.244  15.552 -0.5405 -0.8699 -0.3508
  639TMC3    C5 9460   2.108   3.138  15.613 -0.2841 -0.3275  0.1672
  639TMC3    C6 9461   1.990   3.079  15.572 -0.0544  0.1613  0.3080
  639TMC3     C 9462   2.121   3.439  15.404  0.1714  0.3141  0.5828
  639TMC3     O 9463   2.182   3.513  15.482 -0.3793 -0.4142 -0.4167
  639TMC3     H 9464   1.917   3.278  15.315 -1.3809  0.8814  0.4165
  639TMC3    H1 9465   2.259   3.284  15.579  0.0601 -1.4209 -1.7029
  639TMC3    H2 9466   1.957   2.987  15.620 -1.1257  0.2127 -0.3303
  639TMC3    C7 9467   2.201   3.038  15.670 -0.6957  0.3216  0.2329
  639TMC3    C8 9468   1.849   3.053  15.385  0.1110  0.3315  0.4092
  639TMC3    O1 9469   2.149   2.958  15.746  0.0608 -0.2238 -0.2103
  639TMC3    O2 9470   1.893   3.031  15.274  0.4649  0.5061  0.0059
  640MPD2     C 9471   2.913   2.130   9.589  0.1215 -0.3838 -0.0260
  640MPD2    C1 9472   2.789   2.083   9.618 -0.4164 -0.4641  0.5867
  640MPD2    C2 9473   2.702   2.170   9.681  0.2474 -0.5938 -0.3240
  640MPD2    C3 9474   2.740   2.297   9.720  0.0340 -0.1004 -0.2512
  640MPD2    C4 9475   2.870   2.337   9.694  0.6465  0.1680  0.1898
  640MPD2    C5 9476   2.961   2.256   9.629  0.3215  0.2594  0.0108
  640MPD2     H 9477   2.600   2.139   9.703  0.7542 -0.2927  2.4153
  640MPD2    H1 9478   2.904   2.437   9.719  2.6085 -0.7983  1.4112
  640MPD2    H2 9479   2.980   2.063   9.535  1.3829 -0.8681  2.1147
  640MPD2    H3 9480   3.065   2.282   9.613 -0.5946  3.7733 -0.2245
  640MPD2     N 9481   2.662   2.389   9.790  0.0190 -0.1507 -0.6846
  640MPD2    H5 9482   2.705   2.480   9.800 -1.3607  0.2840  1.2556
  640MPD2    N1 9483   2.746   1.957   9.564  1.0706  0.8435  0.5505
  640MPD2    H7 9484   2.810   1.887   9.528 -0.9242  1.2623 -3.8113
  641TMC3    C1 9485   2.584   1.794   9.557 -0.5967  0.3769 -0.3585
  641TMC3    C2 9486   2.684   1.697   9.557 -0.1160  0.3077  0.1001
  641TMC3    C3 9487   2.649   1.565   9.537 -0.3817  0.0452  0.2881
  641TMC3    C4 9488   2.451   1.758   9.543  0.3003  0.2703  0.4253
  641TMC3    C5 9489   2.420   1.628   9.528 -0.0631  0.2188 -0.5732
  641TMC3    C6 9490   2.517   1.537   9.522 -0.0843  0.0366  0.0070
  641TMC3     C 9491   2.612   1.934   9.566 -0.0264  0.4748 -0.0082
  641TMC3     O 9492   2.514   2.010   9.547 -0.6438  0.4855  0.5275
  641TMC3     H 9493   2.789   1.721   9.572  0.2751 -2.2331  1.4665
  641TMC3    H1 9494   2.373   1.834   9.536  0.3844  0.3710  0.5782
  641TMC3    H2 9495   2.489   1.433   9.519 -0.9908  0.2843  0.1006
  641TMC3    C7 9496   2.282   1.578   9.514  0.1740 -0.1850  0.5371
  641TMC3    C8 9497   2.740   1.453   9.575 -0.0268 -0.3001 -0.4154
  641TMC3    O1 9498   2.258   1.475   9.451 -0.1974 -0.2953  0.1543
  641TMC3    O2 9499   2.681   1.358   9.620  0.5821 -0.2571 -0.0387
  642TMC3    C1 9500   3.733   3.460  12.632  0.4612 -0.3237 -0.0373
  642TMC3    C2 9501   3.860   3.425  12.593 -0.3752 -0.5385 -0.2404
  642TMC3    C3 9502   3.886   3.312  12.528 -0.1691  0.4408 -0.7148
  642TMC3    C4 9503   3.627   3.378  12.600  0.0074  0.4943 -0.8728
  642TMC3    C5 9504   3.665   3.258  12.530  0.0458 -0.5514  0.6013
  642TMC3    C6 9505   3.790   3.226  12.491 -0.2181  1.0155 -0.0150
  642TMC3     C 9506   3.711   3.566  12.731  0.1103 -0.1347  0.3507
  642TMC3     O 9507   3.809   3.613  12.784  0.1022 -1.1928  0.0872
  642TMC3     H 9508   3.935   3.490  12.636 -1.4796  0.4661  0.1748
  642TMC3    H1 9509   3.530   3.406  12.640 -1.0324 -0.1000 -2.9776
  642TMC3    H2 9510   3.801   3.132  12.438 -1.2330 -0.1959  1.9345
  642TMC3    C7 9511   3.554   3.167  12.492  0.0197 -0.0708  0.1096
  642TMC3    C8 9512   4.008   3.305  12.445 -0.4916  0.4120  0.2788
  642TMC3    O1 9513   3.558   3.114  12.380  0.4564  0.1225 -0.4516
  642TMC3    O2 9514   4.000   3.253  12.334  0.5920 -0.1240  0.2082
  643TMC3    C1 9515   2.829   2.834   0.862 -0.3286  0.2513 -0.4940
  643TMC3    C2 9516   2.695   2.838   0.844 -0.2317  0.3900  0.0366
  643TMC3    C3 9517   2.635   2.735   0.775  0.4675 -0.1243  0.0357
  643TMC3    C4 9518   2.898   2.730   0.802  0.5530  0.0958 -0.3892
  643TMC3    C5 9519   2.835   2.629   0.742  0.0512 -0.4230 -0.2865
  643TMC3    C6 9520   2.698   2.628   0.718 -0.6319  0.4790 -0.4274
  643TMC3     C 9521   2.884   2.941   0.948  0.4212 -0.6234 -0.3054
  643TMC3     O 9522   2.837   3.055   0.933  0.1447 -0.1698  0.1393
  643TMC3     H 9523   2.633   2.909   0.898 -2.2392 -0.0603 -1.7091
  643TMC3    H1 9524   3.006   2.725   0.806  0.5645  0.4264 -0.2456
  643TMC3    H2 9525   2.650   2.552   0.658 -1.6131  0.4482  0.3946
  643TMC3    C7 9526   2.918   2.589   0.621 -0.7294 -0.1377  0.0235
  643TMC3    C8 9527   2.544   2.784   0.669 -0.5459  0.0829  0.0331
  643TMC3    O1 9528   3.002   2.662   0.579 -0.1201  0.0932  0.1723
  643TMC3    O2 9529   2.480   2.704   0.602 -0.6860  0.1878  0.8551
  644MPD2     C 9530   3.012   1.814   9.159  0.5487 -0.0987  0.2323
  644MPD2    C1 9531   2.948   1.701   9.189  0.2152 -0.2833  0.0853
  644MPD2    C2 9532   2.810   1.699   9.194 -0.4573  0.1320  0.2344
  644MPD2    C3 9533   2.738   1.816   9.181 -0.0673  0.2293  0.5649
  644MPD2    C4 9534   2.801   1.937   9.170  0.0786 -0.7318 -0.7254
  644MPD2    C5 9535   2.936   1.928   9.159 -0.7726  0.4108  0.0247
  644MPD2     H 9536   2.755   1.608   9.215  1.6460 -1.7158 -2.2300
  644MPD2    H1 9537   2.769   2.040   9.161  0.7990 -0.5382 -1.0471
  644MPD2    H2 9538   3.118   1.828   9.144  0.5625  2.8914  2.9574
  644MPD2    H3 9539   2.990   2.022   9.166 -1.1471  0.7175 -1.1697
  644MPD2     N 9540   2.598   1.812   9.186 -0.5159 -0.0299 -0.2978
  644MPD2    H5 9541   2.553   1.720   9.183  0.0091 -0.2321 -2.2965
  644MPD2    N1 9542   3.025   1.582   9.205 -0.0253 -0.2264 -0.0840
  644MPD2    H7 9543   3.124   1.594   9.191 -0.1465 -0.0317 -0.7970
  645TMC3    C1 9544   2.367   1.869   9.194 -0.6170 -0.0164  0.3645
  645TMC3    C2 9545   2.288   1.944   9.270 -0.6382  0.0239  1.3512
  645TMC3    C3 9546   2.160   1.906   9.299  0.6371 -0.1643 -0.1932
  645TMC3    C4 9547   2.324   1.754   9.141  0.3502  0.0226  0.3250
  645TMC3    C5 9548   2.199   1.703   9.170 -0.3217 -0.4716  0.2454
  645TMC3    C6 9549   2.115   1.786   9.248  0.3909 -0.0265  0.2403
  645TMC3     C 9550   2.507   1.912   9.183 -0.0218  0.1130  0.3660
  645TMC3     O 9551   2.530   2.029   9.201  0.2406 -0.2464 -0.4472
  645TMC3     H 9552   2.328   2.042   9.289 -0.7162  0.7619 -2.2247
  645TMC3    H1 9553   2.397   1.696   9.086  0.9114  1.7533 -0.7852
  645TMC3    H2 9554   2.016   1.746   9.271 -1.0134  3.6204  0.5415
  645TMC3    C7 9555   2.183   1.561   9.152  0.4965  0.7911  0.8349
  645TMC3    C8 9556   2.070   2.005   9.348 -0.2310  0.3954  1.0138
  645TMC3    O1 9557   2.281   1.496   9.118  0.7732  0.5779  0.0760
  645TMC3    O2 9558   2.126   2.118   9.335  0.1124  0.4355  0.2112
  646MPD2     C 9559   2.289   2.440  14.912  0.3064 -0.1486  0.0316
  646MPD2    C1 9560   2.200   2.397  15.003 -0.0473  0.0541  0.0615
  646MPD2    C2 9561   2.069   2.415  14.976 -0.0456 -0.3040 -0.1979
  646MPD2    C3 9562   2.019   2.476  14.858 -0.6342  0.0297 -0.0997
  646MPD2    C4 9563   2.110   2.514  14.767 -0.0846  0.5906  0.6679
  646MPD2    C5 9564   2.240   2.496  14.798  0.2166 -0.8853 -0.0770
  646MPD2     H 9565   1.999   2.378  15.049  1.0285 -0.5583  0.7074
  646MPD2    H1 9566   2.079   2.553  14.671 -0.0335  1.0092  0.8215
  646MPD2    H2 9567   2.396   2.421  14.914 -0.5806 -4.7755  2.7536
  646MPD2    H3 9568   2.308   2.532  14.721  0.6719 -0.0114  0.7430
  646MPD2     N 9569   1.884   2.499  14.850  0.8768 -0.7030  0.4294
  646MPD2    H5 9570   1.831   2.467  14.930  0.6871 -0.2097  0.5033
  646MPD2    N1 9571   2.252   2.317  15.108 -0.3308  0.8308  0.4371
  646MPD2    H7 9572   2.351   2.298  15.102 -0.7988 -1.2541 -0.6117
  647TMC3    C1 9573   2.263   2.178  15.294 -0.4766 -0.1267  0.1494
  647TMC3    C2 9574   2.199   2.084  15.362  0.1519 -0.1162  0.3858
  647TMC3    C3 9575   2.258   2.022  15.471  0.1277 -0.9084 -0.6129
  647TMC3    C4 9576   2.394   2.206  15.324 -0.3787  0.2911 -0.2513
  647TMC3    C5 9577   2.457   2.133  15.423  0.0583  0.5017  0.6316
  647TMC3    C6 9578   2.387   2.051  15.506  0.6784 -0.1645 -0.0553
  647TMC3     C 9579   2.180   2.258  15.209 -0.6691 -0.0962  0.1833
  647TMC3     O 9580   2.056   2.247  15.228  0.2785 -0.1435 -0.1425
  647TMC3     H 9581   2.098   2.054  15.333  0.7835 -0.3418 -1.6151
  647TMC3    H1 9582   2.440   2.295  15.282 -1.3565  0.5191 -0.8384
  647TMC3    H2 9583   2.427   2.009  15.597 -1.7031 -2.4007 -0.0330
  647TMC3    C7 9584   2.595   2.149  15.458 -0.1934  0.1721  0.2888
  647TMC3    C8 9585   2.234   1.881  15.489 -0.1429 -0.4136  0.2455
  647TMC3    O1 9586   2.622   2.102  15.567  0.4004 -0.1842 -0.5359
  647TMC3    O2 9587   2.325   1.815  15.526  0.0984 -1.0938 -0.0664
  648TMC3    C1 9588   1.644   4.529  16.611  0.1342 -0.4922  1.0537
  648TMC3    C2 9589   1.730   4.428  16.567  0.6784  0.1469  0.1301
  648TMC3    C3 9590   1.719   4.393  16.436 -0.8700 -0.4443 -0.0134
  648TMC3    C4 9591   1.540   4.580  16.532 -0.1712 -0.9067  0.0565
  648TMC3    C5 9592   1.530   4.529  16.402  0.4690  0.0323  0.4885
  648TMC3    C6 9593   1.619   4.435  16.351 -0.8958  0.4418 -0.3219
  648TMC3     C 9594   1.616   4.539  16.752  0.3160  0.1092  0.2700
  648TMC3     O 9595   1.564   4.640  16.785  0.5018 -0.1123 -0.4752
  648TMC3     H 9596   1.795   4.365  16.627 -2.2206 -1.0093  2.0658
  648TMC3    H1 9597   1.474   4.658  16.566 -2.6219 -3.3492  0.8831
  648TMC3    H2 9598   1.632   4.403  16.248 -0.3275 -0.8289  0.1461
  648TMC3    C7 9599   1.466   4.613  16.299  0.0690 -0.2048  0.3949
  648TMC3    C8 9600   1.784   4.270  16.399  1.0124  0.4157  0.4455
  648TMC3    O1 9601   1.490   4.591  16.185  0.3394 -0.2880  0.0194
  648TMC3    O2 9602   1.899   4.251  16.432 -0.1678  0.4910 -0.1115
  649TMC3    C1 9603   0.903   0.847  13.192  0.1500 -0.7058 -0.1857
  649TMC3    C2 9604   1.012   0.892  13.251 -0.5397 -0.3032 -0.7439
  649TMC3    C3 9605   1.048   0.842  13.374  0.0829 -0.6067 -0.1514
  649TMC3    C4 9606   0.826   0.750  13.246 -0.1833 -0.0591 -0.1980
  649TMC3    C5 9607   0.868   0.698  13.360 -1.0549 -0.5245  0.2536
  649TMC3    C6 9608   0.972   0.743  13.434  0.4016  0.3017  0.4864
  649TMC3     C 9609   0.869   0.906  13.064 -0.3279 -0.2451  0.3244
  649TMC3     O 9610   0.755   0.889  13.023 -0.1633 -0.4216  0.1246
  649TMC3     H 9611   1.052   0.989  13.224  0.2041 -0.5329 -0.4758
  649TMC3    H1 9612   0.725   0.734  13.210 -0.1701  1.2598 -0.8253
  649TMC3    H2 9613   1.004   0.681  13.517  0.8260 -0.2143 -0.0720
  649TMC3    C7 9614   0.790   0.600  13.428  0.0248 -0.2825 -0.0945
  649TMC3    C8 9615   1.152   0.891  13.447  0.3580  0.3151 -0.0324
  649TMC3    O1 9616   0.804   0.587  13.549  0.4024 -0.2066 -0.3403
  649TMC3    O2 9617   1.162   0.851  13.566 -0.1837 -0.6625  0.1496
  650TMC3    C1 9618   3.031   2.767  13.478 -0.2744  0.1850 -0.1792
  650TMC3    C2 9619   2.952   2.860  13.540  0.4740  0.6425 -0.0128
  650TMC3    C3 9620   2.825   2.879  13.486 -0.1790  0.0362  0.1701
  650TMC3    C4 9621   2.993   2.684  13.370  0.0753  0.0024  0.0947
  650TMC3    C5 9622   2.858   2.689  13.338  0.1949  1.0702 -0.0413
  650TMC3    C6 9623   2.777   2.793  13.392 -0.2420 -0.0702 -0.7054
  650TMC3     C 9624   3.166   2.749  13.531  0.1645  0.3623  0.1166
  650TMC3     O 9625   3.173   2.776  13.652  0.2554 -0.3127 -0.6312
  650TMC3     H 9626   3.000   2.925  13.613 -0.9480 -0.3009  1.7653
  650TMC3    H1 9627   3.056   2.612  13.318 -1.1093 -0.6495 -0.4235
  650TMC3    H2 9628   2.670   2.785  13.377 -0.3400 -2.1170  0.9162
  650TMC3    C7 9629   2.819   2.656  13.195  0.4928 -0.0133  0.2250
  650TMC3    C8 9630   2.796   3.018  13.464  0.2992  0.3060 -0.1999
  650TMC3    O1 9631   2.891   2.567  13.145 -0.3567 -0.1586  0.0887
  650TMC3    O2 9632   2.886   3.090  13.501 -0.1412 -0.2896 -0.1934
  651MPD2     C 9633   1.760   0.083  10.668 -0.5758  0.0725 -0.0359
  651MPD2    C1 9634   1.760   0.164  10.778 -0.0193  0.1646 -0.0569
  651MPD2    C2 9635   1.877   0.226  10.816 -0.2386 -0.2735  0.3012
  651MPD2    C3 9636   1.993   0.213  10.748 -0.2501 -0.2401  0.2530
  651MPD2    C4 9637   1.996   0.137  10.633 -0.2909 -0.9494 -0.5234
  651MPD2    C5 9638   1.879   0.074  10.598 -0.4075 -0.6079 -0.3108
  651MPD2     H 9639   1.878   0.279  10.911  1.6310 -1.3901  0.8914
  651MPD2    H1 9640   2.081   0.126  10.567 -0.4141 -0.2789 -0.8039
  651MPD2    H2 9641   1.677   0.024  10.631  1.1605 -1.0593 -2.1546
  651MPD2    H3 9642   1.885   0.015  10.508 -1.8427 -0.4100 -0.5355
  651MPD2     N 9643   2.102   0.282  10.804  0.5034  1.0485 -0.6917
  651MPD2    H5 9644   2.087   0.333  10.891 -1.1542  1.5277 -1.2618
  651MPD2    N1 9645   1.642   0.190  10.853 -0.0554  0.5805 -0.7181
  651MPD2    H7 9646   1.652   0.262  10.924 -2.1828  0.1230  0.0336
  652TMC3    C1 9647   2.467   0.371  11.019 -0.3247  0.9704 -0.9594
  652TMC3    C2 9648   2.419   0.306  10.903 -0.4728  0.0069 -0.5056
  652TMC3    C3 9649   2.307   0.368  10.844 -0.1237  0.1844  0.2083
  652TMC3    C4 9650   2.399   0.474  11.083 -0.3486 -0.1501 -0.6356
  652TMC3    C5 9651   2.294   0.529  11.016 -0.6558  0.2968 -0.5096
  652TMC3    C6 9652   2.242   0.468  10.903 -0.5290  0.0320  0.4256
  652TMC3     C 9653   2.554   0.294  11.108  0.1166  0.5225 -0.5007
  652TMC3     O 9654   2.544   0.314  11.227 -0.0990 -0.2581  0.6393
  652TMC3     H 9655   2.469   0.224  10.852 -1.8442  0.5538 -2.7648
  652TMC3    H1 9656   2.434   0.526  11.172 -2.0767  0.6676 -0.4148
  652TMC3    H2 9657   2.166   0.523  10.849 -0.3488 -2.7732 -2.7019
  652TMC3    C7 9658   2.282   0.670  11.021 -0.2509 -0.8345  0.5907
  652TMC3    C8 9659   2.230   0.290  10.753 -0.7095  0.1085 -0.4807
  652TMC3    O1 9660   2.167   0.719  11.010 -0.0786 -0.3658  0.4303
  652TMC3    O2 9661   2.284   0.218  10.669 -0.6548 -1.5328  0.2895
  653MPD2     C 9662   0.623   4.348   0.502 -0.6168  0.0323 -0.2904
  653MPD2    C1 9663   0.575   4.444   0.411 -0.7068  0.2289 -0.4391
  653MPD2    C2 9664   0.506   4.393   0.304  0.2723  0.0360 -0.9206
  653MPD2    C3 9665   0.515   4.256   0.268  0.4058 -0.1079 -0.5155
  653MPD2    C4 9666   0.566   4.171   0.357  0.2752 -0.3609  0.1568
  653MPD2    C5 9667   0.616   4.214   0.472  0.7838 -0.3705  0.5687
  653MPD2     H 9668   0.461   4.464   0.236  1.1008 -2.1810 -3.7990
  653MPD2    H1 9669   0.555   4.065   0.338  1.5835 -0.4652 -0.0167
  653MPD2    H2 9670   0.675   4.368   0.595 -1.1120  1.1125 -0.2509
  653MPD2    H3 9671   0.657   4.142   0.543  0.4010  0.8552  2.0423
  653MPD2     N 9672   0.467   4.212   0.143 -0.5153  0.2357 -0.1404
  653MPD2    H5 9673   0.429   4.283   0.081  1.6172  2.9783  1.6519
  653MPD2    N1 9674   0.583   4.581   0.430 -0.2887  0.5412  0.0231
  653MPD2    H7 9675   0.542   4.645   0.362  2.4016  0.2020 -1.9507
  654TMC3    C1 9676   0.387   4.064  17.663 -0.2873 -0.1891 -0.4755
  654TMC3    C2 9677   0.308   4.167  17.622 -0.1048  0.2033 -0.5878
  654TMC3    C3 9678   0.237   4.142  17.512 -0.8557  0.2807  0.4050
  654TMC3    C4 9679   0.389   3.943  17.599 -0.7334  0.3109  0.0725
  654TMC3    C5 9680   0.302   3.920  17.493 -0.3909  0.2185 -0.4404
  654TMC3    C6 9681   0.228   4.024  17.442 -0.0469 -0.0042 -0.1889
  654TMC3     C 9682   0.467   4.081   0.089 -0.1747 -0.7316  0.1177
  654TMC3     O 9683   0.500   3.975   0.143  0.1153  0.0670 -0.3932
  654TMC3     H 9684   0.332   4.270  17.646  1.3746  0.3029 -2.4897
  654TMC3    H1 9685   0.451   3.859  17.628 -1.0360 -0.2478 -0.9000
  654TMC3    H2 9686   0.153   3.997  17.368 -0.1955 -1.9068  0.6555
  654TMC3    C7 9687   0.350   3.837  17.388 -0.0551 -0.2741 -0.2846
  654TMC3    C8 9688   0.159   4.249  17.448 -0.8764  0.0335 -0.1620
  654TMC3    O1 9689   0.331   3.886  17.276  0.1147  0.3047 -0.2336
  654TMC3    O2 9690   0.129   4.350  17.506 -0.0934  0.2922  0.5305
  655MPD2     C 9691   1.925   4.561  16.235  0.2510  0.0460 -0.8329
  655MPD2    C1 9692   1.859   4.651  16.145  0.2299  0.1649  0.3827
  655MPD2    C2 9693   1.853   4.620  16.012 -0.5209 -0.2409 -0.1077
  655MPD2    C3 9694   1.908   4.499  15.973  0.4864 -0.4986 -0.2741
  655MPD2    C4 9695   1.964   4.410  16.062  0.3224  0.1629  0.7972
  655MPD2    C5 9696   1.972   4.448  16.189  0.3152  0.4907  0.3492
  655MPD2     H 9697   1.805   4.688  15.942  2.5225  0.6766 -1.3222
  655MPD2    H1 9698   1.996   4.311  16.034 -1.2322  0.1206 -0.8314
  655MPD2    H2 9699   1.928   4.574  16.342 -3.4339 -2.4779 -0.4688
  655MPD2    H3 9700   2.022   4.380  16.257  2.4495  1.2420 -0.4529
  655MPD2     N 9701   1.917   4.459  15.839 -0.0504  0.5440  0.2198
  655MPD2    H5 9702   1.972   4.374  15.827  0.6426  0.5335  3.3981
  655MPD2    N1 9703   1.814   0.052  16.181  0.4459  0.6392  0.3903
  655MPD2    H7 9704   1.780   0.110  16.105  1.5075  0.2183 -0.3929
  656TMC3    C1 9705   1.739   0.221  16.326 -0.5574  0.3090  0.0957
  656TMC3    C2 9706   1.704   0.249  16.450 -0.3117  0.3847 -0.1560
  656TMC3    C3 9707   1.597   0.325  16.466 -0.0581  1.0967  0.0704
  656TMC3    C4 9708   1.678   0.277  16.218  0.3954  0.2223 -0.2707
  656TMC3    C5 9709   1.580   0.372  16.237  0.8453 -0.0607  0.3503
  656TMC3    C6 9710   1.530   0.390  16.364  0.5762 -0.0539  0.5262
  656TMC3     C 9711   1.836   0.118  16.304  0.6851 -0.2397 -0.6526
  656TMC3     O 9712   1.905   0.073  16.396  0.5051 -0.1014 -0.5987
  656TMC3     H 9713   1.751   0.199  16.534 -1.4640 -0.1677  0.1631
  656TMC3    H1 9714   1.721   0.269  16.119 -0.6056 -0.4883 -0.6446
  656TMC3    H2 9715   1.453   0.464  16.384  1.1026  0.1777  1.6534
  656TMC3    C7 9716   1.518   0.427  16.119  0.3507  0.5196 -0.0242
  656TMC3    C8 9717   1.507   0.288  16.575 -0.4218  1.1831  0.2373
  656TMC3    O1 9718   1.582   0.414  16.019  0.4158 -0.5339  0.1293
  656TMC3    O2 9719   1.533   0.184  16.637 -0.4618  0.1968 -0.2715
  657TMC3    C1 9720   0.952   4.029  15.134 -0.2702  0.2474  0.1315
  657TMC3    C2 9721   0.912   4.028  15.262 -0.1436 -0.2342 -0.0865
  657TMC3    C3 9722   0.814   4.120  15.307 -0.2074 -0.1102  0.3343
  657TMC3    C4 9723   0.896   4.114  15.041  0.0930 -0.9596 -0.6933
  657TMC3    C5 9724   0.801   4.200  15.094 -0.2918 -0.0745 -0.3768
  657TMC3    C6 9725   0.753   4.202  15.221  0.5677 -0.2945  0.0386
  657TMC3     C 9726   1.029   3.922  15.087  0.3009  0.0241  0.2178
  657TMC3     O 9727   1.017   3.895  14.967  0.1924 -0.2243 -0.3221
  657TMC3     H 9728   0.953   3.959  15.335 -2.5694 -1.7641 -0.1726
  657TMC3    H1 9729   0.922   4.098  14.937 -0.2828  0.6658 -1.0361
  657TMC3    H2 9730   0.684   4.277  15.258  1.4645  0.4726  0.1391
  657TMC3    C7 9731   0.752   4.291  14.991 -0.5441 -0.0983 -0.2117
  657TMC3    C8 9732   0.804   4.128  15.460  0.1789  0.0191  1.2193
  657TMC3    O1 9733   0.804   4.293  14.880  0.0912 -0.6908 -0.3570
  657TMC3    O2 9734   0.895   4.076  15.523 -0.0991  0.5846 -0.0026
  658MPD2     C 9735   2.011   4.452  14.908  0.2313  0.6898 -0.1983
  658MPD2    C1 9736   2.016   4.534  15.015 -0.0795 -0.1494  0.0717
  658MPD2    C2 9737   2.022   4.666  14.988 -0.2368 -0.0416  0.3441
  658MPD2    C3 9738   2.039   4.715  14.860  0.1059 -0.5357  0.3294
  658MPD2    C4 9739   2.059   4.630  14.765  0.3191  0.5543 -0.7524
  658MPD2    C5 9740   2.036   4.500  14.784 -0.2066 -0.3508  0.5287
  658MPD2     H 9741   2.029   0.013  15.068  0.0639 -0.6757  0.8946
  658MPD2    H1 9742   2.089   4.653  14.664  3.5199  1.1697  0.3446
  658MPD2    H2 9743   1.992   4.346  14.919 -1.4894  0.9314 -0.8639
  658MPD2    H3 9744   2.038   4.428  14.702 -0.4996 -1.3067  1.3525
  658MPD2     N 9745   2.033   0.128  14.847  0.3020  0.1730 -0.4577
  658MPD2    H5 9746   2.009   0.182  14.929  1.6361  1.1733 -0.7113
  658MPD2    N1 9747   1.994   4.482  15.146 -0.2918 -0.0293 -0.0970
  658MPD2    H7 9748   1.998   4.382  15.160 -2.6603 -0.3524 -1.8666
  659TMC3    C1 9749   1.943   4.479  15.383 -0.4824  0.4848 -0.7758
  659TMC3    C2 9750   1.979   4.519  15.504 -0.7112  0.3703  0.1097
  659TMC3    C3 9751   1.911   4.465  15.611  0.8839 -0.4422 -0.5997
  659TMC3    C4 9752   1.837   4.397  15.362 -0.2172 -0.2485 -0.0170
  659TMC3    C5 9753   1.776   4.344  15.470  0.3750 -0.9532 -0.0828
  659TMC3    C6 9754   1.815   4.366  15.596 -0.1814 -0.1856  0.1770
  659TMC3     C 9755   1.999   4.552  15.261  0.4974  0.9768  0.4690
  659TMC3     O 9756   2.051   4.661  15.282  0.0976 -0.4570 -0.1112
  659TMC3     H 9757   2.038   4.605  15.533 -0.5598 -0.0037  0.9208
  659TMC3    H1 9758   1.808   4.372  15.260 -1.8597 -2.2729  0.9590
  659TMC3    H2 9759   1.747   4.336  15.675 -0.0012  1.3948  0.9286
  659TMC3    C7 9760   1.636   4.338  15.460  0.2873 -0.1963  0.5712
  659TMC3    C8 9761   1.886   4.539  15.730 -0.1598  0.2962  0.3254
  659TMC3    O1 9762   1.583   4.406  15.545  0.0274  0.0268  0.2339
  659TMC3    O2 9763   1.818   4.640  15.719 -0.4394 -0.0320  0.6525
  660MPD2     C 9764   0.126   3.497  13.095 -0.0948  0.2411 -0.0008
  660MPD2    C1 9765   4.720   3.526  13.053  0.5067 -0.2074 -0.7401
  660MPD2    C2 9766   4.618   3.465  13.112  0.8789 -0.4301  0.0739
  660MPD2    C3 9767   4.645   3.373  13.216 -0.0770 -0.6785 -0.4993
  660MPD2    C4 9768   0.049   3.341  13.246 -0.6810  0.4973  0.3657
  660MPD2    C5 9769   0.155   3.405  13.183  0.4977 -0.2969  0.7182
  660MPD2     H 9770   4.517   3.496  13.089  1.3054  0.5005 -0.5101
  660MPD2    H1 9771   0.071   3.286  13.336  0.6194 -0.1067 -0.3258
  660MPD2    H2 9772   0.205   3.562  13.062  0.4344 -0.1059  0.5730
  660MPD2    H3 9773   0.258   3.389  13.215 -0.2852 -2.0668  2.3458
  660MPD2     N 9774   4.550   3.295  13.284 -0.1466  0.3877  0.5100
  660MPD2    H5 9775   4.580   3.219  13.344  0.2654  0.9341  0.9933
  660MPD2    N1 9776   4.710   3.627  12.954  0.0552 -0.0919  0.8819
  660MPD2    H7 9777   0.072   3.673  12.932  0.4934 -1.8724 -1.1183
  661TMC3    C1 9778   4.625   3.800  12.815  0.2667 -0.6098 -0.1011
  661TMC3    C2 9779   4.716   3.792  12.705  0.1904 -0.6775  0.1027
  661TMC3    C3 9780   4.678   3.857  12.588  0.1393 -0.4358  0.0971
  661TMC3    C4 9781   4.507   3.868  12.806 -0.5922 -0.1449 -0.3762
  661TMC3    C5 9782   4.463   3.920  12.689  0.3511  0.6236  0.3611
  661TMC3    C6 9783   4.547   3.907  12.579  0.5447  0.4212 -0.4386
  661TMC3     C 9784   4.597   3.686  12.897 -0.4196  0.5729  0.1906
  661TMC3     O 9785   4.479   3.652  12.916  0.1817  0.0842 -0.1724
  661TMC3     H 9786   0.076   3.725  12.701  1.4557  0.9494  0.1625
  661TMC3    H1 9787   4.442   3.878  12.891  0.0389  2.2215 -0.1778
  661TMC3    H2 9788   4.502   3.924  12.482 -1.1095  3.2715  0.8489
  661TMC3    C7 9789   4.314   3.898  12.668  0.5110  0.6701 -0.1061
  661TMC3    C8 9790   0.020   3.821  12.464 -0.1648  0.2461 -0.1554
  661TMC3    O1 9791   4.246   3.904  12.772 -0.1849 -0.2326 -0.1073
  661TMC3    O2 9792   0.088   3.717  12.464 -0.1378 -0.0765 -0.2518
  662MPD2     C 9793   0.263   3.226  17.309 -0.0023 -0.1348 -0.1165
  662MPD2    C1 9794   0.239   3.199  17.442 -0.2225 -0.1894  0.3643
  662MPD2    C2 9795   0.179   3.298  17.519 -0.0663  0.0657  0.6416
  662MPD2    C3 9796   0.138   3.420  17.459 -0.1158 -0.7421  0.6348
  662MPD2    C4 9797   0.162   3.434  17.323 -0.2562 -0.4924 -0.1244
  662MPD2    C5 9798   0.220   3.339  17.248  0.4840  0.3825 -0.0974
  662MPD2     H 9799   0.136   3.269  17.614 -2.7944 -2.6250 -1.4219
  662MPD2    H1 9800   0.125   3.518  17.264  3.3817 -0.6582 -2.6468
  662MPD2    H2 9801   0.297   3.147  17.243  1.2871  0.8182 -0.6043
  662MPD2    H3 9802   0.226   3.363  17.142  1.1117 -1.9613 -0.5898
  662MPD2     N 9803   0.055   3.519  17.524  0.2886 -0.3967  0.1301
  662MPD2    H5 9804   0.034   3.602  17.468 -0.1236 -0.4319  0.2343
  662MPD2    N1 9805   0.246   3.071  17.505 -0.4353 -0.0926  0.6462
  662MPD2    H7 9806   0.213   3.062  17.600 -3.7407  2.5994 -0.2048
  663TMC3    C1 9807   0.256   2.830  17.517  0.4773  0.6910  0.1851
  663TMC3    C2 9808   0.171   2.833  17.630  0.6443 -0.3049 -0.1451
  663TMC3    C3 9809   0.135   2.718  17.688  0.4425 -0.2402  0.2542
  663TMC3    C4 9810   0.311   2.715  17.464 -0.3910 -0.2079  0.1276
  663TMC3    C5 9811   0.262   2.602  17.519  0.3542  0.0853 -0.2962
  663TMC3    C6 9812   0.194   2.607  17.641 -0.1822  0.0267  1.2527
  663TMC3     C 9813   0.294   2.952  17.447  0.1608 -0.1688 -0.4922
  663TMC3     O 9814   0.343   2.942  17.334  1.0722 -0.1125 -0.5137
  663TMC3     H 9815   0.103   2.916  17.644  2.1331  0.3721  3.0016
  663TMC3    H1 9816   0.365   2.705  17.371 -0.3228  2.9252 -0.1721
  663TMC3    H2 9817   0.125   2.525  17.656 -0.4746 -0.3455 -1.9947
  663TMC3    C7 9818   0.283   2.473  17.454  0.4182 -0.1197 -0.1430
  663TMC3    C8 9819   4.723   2.705  17.699 -0.0398 -0.4308 -0.4829
  663TMC3    O1 9820   0.283   2.476  17.335  0.7287  0.1985 -0.2571
  663TMC3    O2 9821   4.665   2.715  17.594 -0.1308 -0.0461 -0.1806
  664MPD2     C 9822   3.167   1.510   0.563  0.0067 -0.1316  0.2069
  664MPD2    C1 9823   3.291   1.539   0.599  0.6328 -0.0374  0.3679
  664MPD2    C2 9824   3.343   1.499   0.717 -0.0237  0.2205 -0.2307
  664MPD2    C3 9825   3.264   1.432   0.806 -0.0991  0.7487  0.1871
  664MPD2    C4 9826   3.131   1.407   0.769 -0.4362 -0.1530  0.0439
  664MPD2    C5 9827   3.085   1.440   0.647  0.2535  0.1875 -0.0821
  664MPD2     H 9828   3.440   1.541   0.742 -0.0125  0.2542 -0.3290
  664MPD2    H1 9829   3.058   1.364   0.836 -1.0893  1.9070  0.6575
  664MPD2    H2 9830   3.118   1.549   0.474 -1.2188  0.7928  1.2916
  664MPD2    H3 9831   2.984   1.407   0.628 -0.0300  1.5661 -0.8948
  664MPD2     N 9832   3.318   1.405   0.933 -0.3237 -0.5562  0.3736
  664MPD2    H5 9833   3.414   1.432   0.952 -1.8459  2.9622  3.2167
  664MPD2    N1 9834   3.375   1.612   0.516  0.6810 -0.1518  0.1201
  664MPD2    H7 9835   3.468   1.639   0.549  0.5298 -0.3033  0.6670
  665TMC3    C1 9836   3.330   1.285   1.140  0.4566 -0.4414 -0.4081
  665TMC3    C2 9837   3.292   1.169   1.197 -0.3064  0.6271  0.4816
  665TMC3    C3 9838   3.342   1.133   1.323 -0.5598  0.5233 -0.4590
  665TMC3    C4 9839   3.406   1.380   1.206  0.2913 -0.1383  0.3786
  665TMC3    C5 9840   3.440   1.348   1.337  0.8743 -0.4623 -0.1686
  665TMC3    C6 9841   3.414   1.224   1.389  0.1360  0.1276  0.2309
  665TMC3     C 9842   3.252   1.326   1.023 -0.5173  0.4739  0.1363
  665TMC3     O 9843   3.156   1.260   1.000  0.7439  0.3304  0.0997
  665TMC3     H 9844   3.242   1.090   1.143 -1.7892  1.7272  0.2582
  665TMC3    H1 9845   3.445   1.473   1.167 -1.5346 -0.6545 -2.6883
  665TMC3    H2 9846   3.454   1.192   1.484 -0.6837 -1.9335 -0.1181
  665TMC3    C7 9847   3.573   1.399   1.387  0.3787 -0.1356 -0.1503
  665TMC3    C8 9848   3.329   1.000   1.381 -0.5383 -0.7481 -0.2039
  665TMC3    O1 9849   3.660   1.328   1.340 -0.0010  0.0276  0.3402
  665TMC3    O2 9850   3.410   0.969   1.465 -0.5488 -0.2876  0.1534
  666TMC3    C1 9851   2.758   1.685   9.904 -0.2582  0.2368 -0.3089
  666TMC3    C2 9852   2.841   1.578   9.939  0.9695  0.7463  0.1958
  666TMC3    C3 9853   2.972   1.600   9.975  0.0563  0.6817  0.3503
  666TMC3    C4 9854   2.805   1.812   9.889  0.2279 -0.2414 -0.1781
  666TMC3    C5 9855   2.938   1.825   9.912  0.5716 -0.3667 -1.2727
  666TMC3    C6 9856   3.026   1.724   9.956 -0.0192 -0.5234  0.1077
  666TMC3     C 9857   2.620   1.680   9.953 -0.2150 -0.2586 -0.5028
  666TMC3     O 9858   2.544   1.769   9.917 -0.3412  0.3811 -0.2996
  666TMC3     H 9859   2.811   1.474   9.935 -0.2305  1.0649  0.8595
  666TMC3    H1 9860   2.744   1.894   9.853 -0.2852 -1.0825 -1.2234
  666TMC3    H2 9861   3.120   1.760   9.997  1.4865 -1.3271 -2.6421
  666TMC3    C7 9862   2.982   1.962   9.929  0.6402  0.3650  0.2129
  666TMC3    C8 9863   3.032   1.503  10.070 -0.2990  0.4318 -0.6589
  666TMC3    O1 9864   3.084   2.005   9.890  0.0121 -0.7611  0.2628
  666TMC3    O2 9865   2.964   1.408  10.099  0.4636 -0.1320 -0.2690
  667MPD2     C 9866   3.748   1.230  15.320  0.2954 -0.1634 -0.5702
  667MPD2    C1 9867   3.721   1.232  15.451  0.0608  0.3525  0.0934
  667MPD2    C2 9868   3.613   1.158  15.501  0.1049 -0.1044 -0.2296
  667MPD2    C3 9869   3.538   1.070  15.415  0.2670  0.0561 -0.2521
  667MPD2    C4 9870   3.575   1.066  15.285 -0.1227  0.5044 -0.2508
  667MPD2    C5 9871   3.666   1.156  15.238 -0.0129  0.4915  0.3923
  667MPD2     H 9872   3.598   1.169  15.608  2.1552 -1.4696  0.2089
  667MPD2    H1 9873   3.526   0.998  15.216  3.0171 -1.8500 -0.1626
  667MPD2    H2 9874   3.835   1.281  15.279  0.1782  0.0417 -0.5666
  667MPD2    H3 9875   3.693   1.144  15.134 -0.2325 -0.2308  0.4190
  667MPD2     N 9876   3.424   0.990  15.452  0.6617 -0.5204 -0.1662
  667MPD2    H5 9877   3.369   0.946  15.379  1.0851 -0.4831 -0.5060
  667MPD2    N1 9878   3.797   1.308  15.545  0.7642 -0.2060 -0.0921
  667MPD2    H7 9879   3.771   1.295  15.642  0.9057  0.1541 -0.0076
  668TMC3    C1 9880   3.943   1.459  15.638 -0.6090  0.1185  0.1027
  668TMC3    C2 9881   4.073   1.509  15.647  0.3369 -0.1563  0.4799
  668TMC3    C3 9882   4.094   1.581  15.757 -0.4465  1.2424  0.0014
  668TMC3    C4 9883   3.841   1.486  15.726  0.1829  0.0235  0.2543
  668TMC3    C5 9884   3.879   1.563  15.831 -0.0631 -0.0230 -0.3567
  668TMC3    C6 9885   4.005   1.603  15.850 -0.1331  0.3737  0.0086
  668TMC3     C 9886   3.905   1.386  15.522 -0.2353  0.2531  0.1019
  668TMC3     O 9887   3.983   1.393  15.423  0.5306 -0.0892  0.0487
  668TMC3     H 9888   4.149   1.475  15.577  0.0050 -0.5650  0.3173
  668TMC3    H1 9889   3.740   1.447  15.724 -0.4654  1.6343  0.9048
  668TMC3    H2 9890   4.034   1.658  15.938 -0.6470 -1.1637  1.1357
  668TMC3    C7 9891   3.778   1.576  15.932 -0.5165  0.7224  0.3071
  668TMC3    C8 9892   4.220   1.650  15.779 -0.8729  0.8416  0.4828
  668TMC3    O1 9893   3.693   1.488  15.944 -0.1647  0.1649 -0.4694
  668TMC3    O2 9894   4.260   1.672  15.894  0.4727  0.4945  0.0759
  669TMC3    C1 9895   1.869   1.802  14.481 -0.0226  0.1531  0.8204
  669TMC3    C2 9896   1.758   1.802  14.401 -0.5406  0.5048 -0.2477
  669TMC3    C3 9897   1.764   1.886  14.294  0.2212  0.4495 -0.3586
  669TMC3    C4 9898   1.978   1.885  14.464  0.4882 -0.0780  0.0620
  669TMC3    C5 9899   1.984   1.955  14.338 -0.2139 -0.8892  0.0642
  669TMC3    C6 9900   1.875   1.959  14.257  0.0507 -0.2493 -0.2575
  669TMC3     C 9901   1.850   1.729  14.603  0.2129  0.4259  0.0863
  669TMC3     O 9902   1.763   1.647  14.597  0.0271  0.4584  0.1948
  669TMC3     H 9903   1.678   1.730  14.415  0.8335 -0.9334  0.2002
  669TMC3    H1 9904   2.067   1.883  14.525 -0.2914  0.4389  1.2027
  669TMC3    H2 9905   1.879   2.015  14.164  0.0356 -0.5908 -0.4651
  669TMC3    C7 9906   2.107   2.029  14.319  0.6044  0.0975  0.0433
  669TMC3    C8 9907   1.643   1.895  14.223  0.4506 -0.3024 -0.5090
  669TMC3    O1 9908   2.172   2.043  14.421  0.3316  0.2990  0.3519
  669TMC3    O2 9909   1.557   1.820  14.259  0.2802 -0.6695 -0.1042
  670MPD2     C 9910   0.244   4.237  13.759  0.3768 -0.4087 -0.5764
  670MPD2    C1 9911   0.346   4.214  13.851  0.3489  0.1485  0.7759
  670MPD2    C2 9912   0.319   4.149  13.972  0.1837 -0.2376 -0.3107
  670MPD2    C3 9913   0.199   4.106  14.010 -0.2844  0.8686 -0.2700
  670MPD2    C4 9914   0.095   4.120  13.912  0.4844 -1.2464  0.6950
  670MPD2    C5 9915   0.119   4.193  13.796 -1.3955 -0.1223  0.3824
  670MPD2     H 9916   0.399   4.144  14.044 -1.3596 -1.0272  1.3681
  670MPD2    H1 9917   4.719   4.084  13.928  0.7816 -2.7050 -0.6926
  670MPD2    H2 9918   0.265   4.287  13.665 -0.3285  0.3983 -0.3019
  670MPD2    H3 9919   0.042   4.209  13.722 -1.7427  0.5337  0.8831
  670MPD2     N 9920   0.184   4.060  14.138  0.1878 -0.5890  0.3150
  670MPD2    H5 9921   0.269   4.056  14.193  0.0753 -2.1372  0.3738
  670MPD2    N1 9922   0.481   4.234  13.818 -0.4168 -0.2382  0.7098
  670MPD2    H7 9923   0.548   4.204  13.887  1.2773 -0.5240 -1.0809
  671TMC3    C1 9924   0.062   3.951  14.325  0.1591 -0.3568  0.3826
  671TMC3    C2 9925   0.170   3.966  14.410  0.5446 -0.4005 -0.7076
  671TMC3    C3 9926   0.171   3.883  14.516  0.3702  0.3654  0.2854
  671TMC3    C4 9927   4.682   3.869  14.361 -0.1260  0.1887  0.1496
  671TMC3    C5 9928   4.700   3.778  14.466  0.7239  0.1564  0.0300
  671TMC3    C6 9929   0.088   3.781  14.537  0.1178  0.2264  0.1395
  671TMC3     C 9930   0.066   4.000  14.188 -0.5956  1.2302 -0.2487
  671TMC3     O 9931   4.698   3.970  14.118  0.0993 -0.3509 -0.2708
  671TMC3     H 9932   0.254   4.029  14.388  0.6786 -0.6821 -1.0008
  671TMC3    H1 9933   4.604   3.851  14.288 -0.8039  0.1046  0.9005
  671TMC3    H2 9934   0.109   3.701  14.607  0.1453 -1.4906 -1.8385
  671TMC3    C7 9935   4.689   3.653  14.395 -0.1130  0.2516 -0.8257
  671TMC3    C8 9936   0.307   3.858  14.569 -0.3456  0.1722 -0.2255
  671TMC3    O1 9937   0.070   3.609  14.342  0.8946  0.2601 -0.1771
  671TMC3    O2 9938   0.393   3.861  14.480 -1.0245  0.7533 -0.6432
  672MPD2     C 9939   0.223   4.222   1.594  0.0196 -0.3497 -0.3211
  672MPD2    C1 9940   0.314   4.136   1.637  0.0042  0.3553 -0.4888
  672MPD2    C2 9941   0.384   4.166   1.749  0.3850  0.0283  1.0595
  672MPD2    C3 9942   0.367   4.289   1.813  0.1591  0.3100  0.1494
  672MPD2    C4 9943   0.280   4.382   1.760 -1.0945 -0.6803  0.1045
  672MPD2    C5 9944   0.201   4.342   1.654 -0.0845 -0.7264  0.6239
  672MPD2     H 9945   0.447   4.091   1.795  0.6045 -1.5778 -1.8420
  672MPD2    H1 9946   0.276   4.485   1.792  0.1037 -0.3063 -0.9375
  672MPD2    H2 9947   0.155   4.192   1.515  1.3676  0.2819 -1.7127
  672MPD2    H3 9948   0.118   4.407   1.629  1.3919  0.5860 -0.8850
  672MPD2     N 9949   0.453   4.336   1.919 -0.4705 -0.5335 -0.5099
  672MPD2    H5 9950   0.431   4.429   1.954 -1.5476 -1.0384  0.1593
  672MPD2    N1 9951   0.347   4.028   1.560 -0.0357  0.3006  0.0648
  672MPD2    H7 9952   0.320   4.039   1.462 -1.9107  3.2879  0.8855
  673TMC3    C1 9953   0.492   3.859   1.500 -0.0177 -0.3030  0.6540
  673TMC3    C2 9954   0.494   3.723   1.511  0.1303 -0.2790 -0.3549
  673TMC3    C3 9955   0.537   3.651   1.406 -0.4484 -0.3934 -0.2200
  673TMC3    C4 9956   0.530   3.922   1.385  0.4731 -0.3337  0.2483
  673TMC3    C5 9957   0.573   3.846   1.278  0.1270 -0.7081 -0.9731
  673TMC3    C6 9958   0.571   3.711   1.285  0.2269  0.2939 -0.0414
  673TMC3     C 9959   0.416   3.928   1.603  0.6715 -0.9095  0.2091
  673TMC3     O 9960   0.429   3.882   1.717  0.6435 -0.5306  0.2600
  673TMC3     H 9961   0.449   3.676   1.598 -1.9084 -1.5405 -2.0843
  673TMC3    H1 9962   0.542   4.030   1.385  0.2011 -0.3031 -1.0158
  673TMC3    H2 9963   0.609   3.654   1.200 -0.7223 -1.2960  0.5939
  673TMC3    C7 9964   0.642   3.921   1.167  0.4860 -0.1616  0.5074
  673TMC3    C8 9965   0.590   3.517   1.426 -0.4065 -0.1204 -0.7939
  673TMC3    O1 9966   0.733   3.863   1.111 -0.5256  0.0897 -0.0654
  673TMC3    O2 9967   0.602   3.439   1.330 -0.3551 -0.1251  0.1027
  674MPD2     C 9968   0.659   3.686   0.631  0.0431  0.2648  0.0595
  674MPD2    C1 9969   0.533   3.682   0.571  0.4433 -0.1630  0.1053
  674MPD2    C2 9970   0.434   3.740   0.640  0.5047 -0.6732  0.6522
  674MPD2    C3 9971   0.454   3.805   0.758 -0.3384  0.3252  0.1476
  674MPD2    C4 9972   0.576   3.818   0.814 -0.1128  0.2867 -0.3390
  674MPD2    C5 9973   0.681   3.759   0.751  0.6828  0.0564 -0.7778
  674MPD2     H 9974   0.335   3.732   0.599  0.5326  1.6129  0.1676
  674MPD2    H1 9975   0.593   3.861   0.912 -1.7428  0.1566 -0.0063
  674MPD2    H2 9976   0.746   3.636   0.591  0.7822  1.1808  0.5100
  674MPD2    H3 9977   0.772   3.758   0.810  0.2836 -0.7171 -0.1754
  674MPD2     N 9978   0.330   3.844   0.809  0.0566 -0.0349  0.3879
  674MPD2    H5 9979   0.250   3.839   0.745  0.5441 -1.2465 -0.1115
  674MPD2    N1 9980   0.511   3.594   0.462  0.3131 -0.2944 -0.3850
  674MPD2    H7 9981   0.598   3.558   0.425  0.1040 -1.5789  0.3469
  675TMC3    C1 9982   0.398   3.471   0.282  0.1220 -0.1916 -0.2494
  675TMC3    C2 9983   0.292   3.388   0.268 -0.1203  0.0125  0.2082
  675TMC3    C3 9984   0.296   3.290   0.176 -0.9872 -0.5378  0.1632
  675TMC3    C4 9985   0.515   3.441   0.215  0.0277  0.2115  0.0653
  675TMC3    C5 9986   0.518   3.340   0.119  0.5975  0.0858  0.0353
  675TMC3    C6 9987   0.403   3.263   0.092  1.1526 -0.0887 -0.8138
  675TMC3     C 9988   0.393   3.568   0.399  0.0078  0.3816  0.2266
  675TMC3     O 9989   0.278   3.580   0.438 -0.4035 -0.0028  0.2686
  675TMC3     H 9990   0.195   3.425   0.298  0.1089  0.0553  0.8926
  675TMC3    H1 9991   0.584   3.524   0.206  0.3916  0.2333  3.4159
  675TMC3    H2 9992   0.403   3.173   0.032 -1.2630 -1.4303  1.2099
  675TMC3    C7 9993   0.636   3.291   0.066  0.5902  0.1068  0.0237
  675TMC3    C8 9994   0.183   3.194   0.173 -0.4830  0.0295 -0.3077
  675TMC3    O1 9995   0.623   3.246  17.656  0.0884  0.4881 -0.2568
  675TMC3    O2 9996   0.178   3.113   0.078 -0.2938 -0.3607  0.3217
  676MPD2     C 9997   3.030   2.698  11.315  0.1124 -0.5680  0.1390
  676MPD2    C1 9998   2.922   2.608  11.332  0.6358 -0.0016  0.1949
  676MPD2    C2 9999   2.941   2.470  11.312  0.1190  0.2174  0.1870
  676MPD2    C310000   3.067   2.416  11.278 -0.4448 -0.6198  0.4009
  676MPD2    C410001   3.167   2.509  11.269 -0.5218 -0.2014 -0.6444
  676MPD2    C510002   3.147   2.645  11.275 -0.4182  0.3333 -0.3260
  676MPD2     H10003   2.868   2.398  11.346  0.4837  0.7524  2.0995
  676MPD2    H110004   3.269   2.479  11.252 -0.1082  1.1890 -0.5548
  676MPD2    H210005   3.021   2.805  11.324  1.4629 -0.3817 -0.6334
  676MPD2    H310006   3.238   2.699  11.252  0.2793  1.1027  4.3813
  676MPD2     N10007   3.104   2.284  11.254  0.3943  0.3113  0.2241
  676MPD2    H510008   3.203   2.269  11.239  0.4300  0.4170  0.3544
  676MPD2    N110009   2.795   2.641  11.380 -0.3208 -0.2011  0.0043
  676MPD2    H710010   2.738   2.559  11.401  0.0749 -0.9333 -1.7397
  677TMC3    C110011   2.629   2.768  11.482 -0.0514  0.1807 -0.6626
  677TMC3    C210012   2.536   2.669  11.468  0.0296 -0.6208  0.2802
  677TMC3    C310013   2.433   2.675  11.560  0.0430  0.3442 -0.3435
  677TMC3    C410014   2.619   2.868  11.577  0.1486  0.4504  0.2221
  677TMC3    C510015   2.516   2.875  11.657 -0.6292  0.7289 -0.1603
  677TMC3    C610016   2.410   2.788  11.635  0.0109  0.3259  0.9420
  677TMC3     C10017   2.753   2.763  11.416 -0.0909  0.1283  0.0588
  677TMC3     O10018   2.816   2.866  11.396 -0.4263  0.0788 -0.5097
  677TMC3     H10019   2.556   2.577  11.414 -0.7340 -0.6866  0.1242
  677TMC3    H110020   2.704   2.936  11.576  0.2386  0.3291 -0.2936
  677TMC3    H210021   2.322   2.786  11.699 -0.1355 -0.5830  0.7099
  677TMC3    C710022   2.524   2.958  11.774  0.4946  0.0894  0.5067
  677TMC3    C810023   2.349   2.562  11.575 -0.5504  0.3378  0.0314
  677TMC3    O110024   2.428   2.978  11.844 -0.5951  0.1870 -0.3201
  677TMC3    O210025   2.324   2.514  11.466  0.1221 -0.2881 -0.6401
  678MPD2     C10026   4.335   2.502   2.129 -0.1002 -0.1326 -0.1166
  678MPD2    C110027   4.351   2.502   1.991 -0.1268  0.0294 -0.4512
  678MPD2    C210028   4.237   2.508   1.912 -0.1530 -0.7615 -0.3705
  678MPD2    C310029   4.107   2.526   1.962 -0.5796  0.2136  0.4622
  678MPD2    C410030   4.093   2.517   2.098 -0.6156  0.4085  0.2981
  678MPD2    C510031   4.205   2.505   2.181 -0.6375 -0.8907  0.1359
  678MPD2     H10032   4.248   2.493   1.805  0.0942 -0.9035 -0.3255
  678MPD2    H110033   4.003   2.519   2.158 -0.7206  2.7365  0.0421
  678MPD2    H210034   4.420   2.484   2.194  0.1277  0.0642 -0.3626
  678MPD2    H310035   4.199   2.500   2.289 -0.1376  0.6758  0.2376
  678MPD2     N10036   4.000   2.543   1.872  0.5545 -0.2724  1.1577
  678MPD2    H510037   4.016   2.547   1.771 -0.9702  0.9699  0.9653
  678MPD2    N110038   4.470   2.486   1.922  0.1979 -0.5055 -0.5301
  678MPD2    H710039   4.465   2.502   1.822 -2.0190  1.1250 -0.1689
  679TMC3    C110040   0.206   2.369   1.850  0.3822  0.1406 -0.4799
  679TMC3    C210041   0.102   2.406   1.936 -0.2172  0.7955  0.0151
  679TMC3    C310042   4.706   2.446   1.885 -0.1707  0.2083  0.2678
  679TMC3    C410043   0.196   2.382   1.715  0.6051  0.3616  0.3646
  679TMC3    C510044   0.073   2.419   1.669  0.0771 -0.2523  0.2935
  679TMC3    C610045   4.691   2.452   1.747  0.4276  0.0243  0.0563
  679TMC3     C10046   0.310   2.274   1.888 -0.9684  0.3304 -0.5444
  679TMC3     O10047   0.317   2.170   1.823  0.0082 -0.1489  0.4088
  679TMC3     H10048   0.118   2.400   2.043 -0.5677  1.0061  0.0801
  679TMC3    H110049   0.284   2.362   1.655  0.1256 -1.0729  0.1444
  679TMC3    H210050   4.607   2.507   1.707 -0.1385 -0.8092  0.0911
  679TMC3    C710051   0.046   2.427   1.520 -0.7984 -0.0479  0.0622
  679TMC3    C810052   4.596   2.465   1.977 -0.1970  0.1782  0.0737
  679TMC3    O110053   4.651   2.424   1.489 -0.2965 -0.6780 -0.1848
  679TMC3    O210054   4.629   2.462   2.096  0.5610 -0.4586 -0.4287
  680MPD2     C10055   0.777   0.532  14.035  0.0119 -0.7325  0.5176
  680MPD2    C110056   0.654   0.560  14.096 -0.6944 -0.8658  0.0135
  680MPD2    C210057   0.633   0.681  14.154  0.8249  0.6268 -0.4235
  680MPD2    C310058   0.727   0.788  14.136  0.1330 -0.1079 -0.0723
  680MPD2    C410059   0.837   0.766  14.059 -0.1502 -0.1955 -0.5849
  680MPD2    C510060   0.865   0.639  14.027  0.0912 -0.1501 -0.4430
  680MPD2     H10061   0.540   0.709  14.201  0.1502 -0.2004 -1.2652
  680MPD2    H110062   0.925   0.828  14.048 -0.6536  0.2393 -2.1742
  680MPD2    H210063   0.803   0.433  14.000  1.0505  0.0443 -0.9034
  680MPD2    H310064   0.966   0.629  13.988 -0.2719  2.3627 -2.0129
  680MPD2     N10065   0.707   0.913  14.193  0.3398 -0.4129  0.2247
  680MPD2    H510066   0.778   0.981  14.167  2.4398 -2.2564  1.1399
  680MPD2    N110067   0.561   0.457  14.087 -0.1638  0.0973 -0.4651
  680MPD2    H710068   0.579   0.387  14.016  0.1987  0.9722 -1.2378
  681TMC3    C110069   0.354   0.384  14.055  0.3722 -0.1903  0.8654
  681TMC3    C210070   0.219   0.382  14.077 -0.7964 -0.0831 -0.1106
  681TMC3    C310071   0.137   0.308  13.997 -0.1270  0.4098 -0.4402
  681TMC3    C410072   0.397   0.326  13.939 -0.2527  0.2622  0.1040
  681TMC3    C510073   0.305   0.259  13.850  0.0782  0.4092 -0.6858
  681TMC3    C610074   0.175   0.235  13.887  0.0043  0.0256 -0.1976
  681TMC3     C10075   0.438   0.462  14.141  0.4787  0.2631 -0.0273
  681TMC3     O10076   0.383   0.527  14.230 -0.4105  0.2722  0.1146
  681TMC3     H10077   0.176   0.457  14.141 -0.8644 -0.3618  0.1719
  681TMC3    H110078   0.498   0.319  13.900  0.0834  1.7840  0.7005
  681TMC3    H210079   0.109   0.178  13.822  0.4873 -1.5364  0.6889
  681TMC3    C710080   0.343   0.223  13.714 -0.5913 -0.2868  0.2759
  681TMC3    C810081   4.718   0.320  14.030  0.4773  0.3955 -0.2816
  681TMC3    O110082   0.275   0.138  13.663  0.2096  0.0646  0.0964
  681TMC3    O210083   4.641   0.283  13.946  0.0937 -0.2971  0.1093
  682MPD2     C10084   2.057   2.882  10.575 -0.4767 -0.2615  0.3503
  682MPD2    C110085   2.076   2.750  10.600 -0.7208 -0.1679 -0.1443
  682MPD2    C210086   2.013   2.694  10.707 -0.2377 -0.7995 -0.1653
  682MPD2    C310087   1.942   2.761  10.803  0.6637 -0.2704 -0.4439
  682MPD2    C410088   1.932   2.898  10.786 -0.0433  0.0477  0.2887
  682MPD2    C510089   1.980   2.954  10.666 -0.1821 -0.2618  0.9042
  682MPD2     H10090   2.032   2.588  10.724  0.9962 -0.6419 -0.6168
  682MPD2    H110091   1.881   2.966  10.854 -0.0283 -0.3720  0.7152
  682MPD2    H210092   2.115   2.946  10.509 -0.1959 -0.0091  0.8438
  682MPD2    H310093   1.977   3.060  10.644  0.1066  0.0762  2.5064
  682MPD2     N10094   1.897   2.697  10.925  0.5732 -0.0863  0.3914
  682MPD2    H510095   1.867   2.757  11.001  0.0552  0.7204 -0.4578
  682MPD2    N110096   2.151   2.659  10.520 -0.1597  0.0426  0.4186
  682MPD2    H710097   2.143   2.562  10.547  1.1355 -0.3976 -0.7888
  683TMC3    C110098   1.911   2.547  11.320  0.0041  0.2790 -0.1173
  683TMC3    C210099   1.913   2.416  11.341  0.0815 -0.0929 -0.2501
  683TMC3    C310100   1.894   2.335  11.229 -0.3164 -0.7773  0.1568
  683TMC3    C410101   1.901   2.599  11.191  1.2060  0.0042 -0.3192
  683TMC3    C510102   1.875   2.519  11.083  0.4596  0.1065  0.5880
  683TMC3    C610103   1.877   2.381  11.102 -0.2540 -0.0272 -0.3258
  683TMC3     C10104   1.922   2.641  11.433 -0.7083  0.1346  0.5898
  683TMC3     O10105   1.939   2.757  11.396 -0.5586 -0.4545  0.4639
  683TMC3     H10106   1.918   2.371  11.439  3.5329 -3.5264 -2.0182
  683TMC3    H110107   1.894   2.706  11.174 -0.1936 -0.2962 -1.6944
  683TMC3    H210108   1.855   2.313  11.021  1.8954 -1.1010 -0.0020
  683TMC3    C710109   1.887   2.561  10.946  0.9196  0.1864 -0.9484
  683TMC3    C810110   1.926   2.194  11.232  0.7886  0.2457  0.3619
  683TMC3    O110111   1.884   2.472  10.866 -0.4984 -0.6817 -0.5883
  683TMC3    O210112   1.893   2.122  11.139 -0.2068  0.0146 -0.3165
  684MPD2     C10113   4.592   1.624  17.039  0.3372  0.0639 -0.3253
  684MPD2    C110114   4.585   1.653  16.902  0.1137 -0.5190  0.1600
  684MPD2    C210115   4.628   1.778  16.859 -0.3071  0.3708 -0.1415
  684MPD2    C310116   4.668   1.882  16.946  0.4751  0.2676 -0.1018
  684MPD2    C410117   4.655   1.860  17.080  0.2824 -0.3111  0.1003
  684MPD2    C510118   4.630   1.728  17.123 -0.6710 -0.2067 -0.6713
  684MPD2     H10119   4.623   1.801  16.753  0.5948 -3.4826 -1.0130
  684MPD2    H110120   4.679   1.937  17.154 -2.4946  0.4265  0.2433
  684MPD2    H210121   4.558   1.528  17.075 -0.5428  0.1284 -0.9909
  684MPD2    H310122   4.623   1.712  17.230 -1.7048  0.4137 -0.6392
  684MPD2     N10123   4.707   2.011  16.907  0.0717  0.0434  0.2631
  684MPD2    H510124   0.002   2.083  16.976  3.3889 -0.5877 -0.0630
  684MPD2    N110125   4.537   1.562  16.808  0.4933  0.1610  0.3943
  684MPD2    H710126   4.530   1.585  16.709  0.5513 -2.9672 -0.3521
  685TMC3    C110127   4.495   1.362  16.695  0.7120  0.0671 -0.7219
  685TMC3    C210128   4.451   1.440  16.587 -0.5224  0.6689  0.1457
  685TMC3    C310129   4.500   1.416  16.461 -0.1050  1.0003  0.0156
  685TMC3    C410130   4.601   1.277  16.675  0.4141  0.0963 -0.3942
  685TMC3    C510131   4.649   1.257  16.545  0.7915 -0.2748  0.5220
  685TMC3    C610132   4.603   1.328  16.442 -0.1505  0.0918  0.0978
  685TMC3     C10133   4.508   1.426  16.828  1.3675 -0.3084 -0.0211
  685TMC3     O10134   4.531   1.349  16.922 -0.1266  0.4855 -0.4541
  685TMC3     H10135   4.393   1.527  16.616 -0.3123  0.8620 -0.0040
  685TMC3    H110136   4.646   1.228  16.760 -0.8356 -0.4487 -0.0391
  685TMC3    H210137   4.649   1.314  16.345 -0.9957 -1.1349 -0.1308
  685TMC3    C710138   0.048   1.184  16.544  0.0982 -0.4378  0.1051
  685TMC3    C810139   4.416   1.424  16.345 -0.1755 -0.4979  0.0295
  685TMC3    O110140   0.099   1.147  16.652  0.3366 -0.0447  0.2833
  685TMC3    O210141   4.463   1.420  16.231 -0.1464 -0.2839 -0.1763
  686MPD2     C10142   1.443   1.508  15.769 -0.3399 -0.6026 -0.6474
  686MPD2    C110143   1.510   1.483  15.886  0.2014 -0.7832  0.4369
  686MPD2    C210144   1.634   1.424  15.881 -0.0687  0.1494  0.3929
  686MPD2    C310145   1.694   1.388  15.767 -0.2201  0.4082  0.3962
  686MPD2    C410146   1.626   1.425  15.652  0.2646 -0.4510 -0.4267
  686MPD2    C510147   1.501   1.475  15.652 -0.2657 -0.5895 -0.0304
  686MPD2     H10148   1.693   1.414  15.972  0.9172  2.5482  0.0205
  686MPD2    H110149   1.672   1.410  15.555  2.8165  0.2832  0.6837
  686MPD2    H210150   1.352   1.566  15.773 -1.3280 -2.2854  0.8053
  686MPD2    H310151   1.448   1.507  15.564 -1.2875 -1.4619  0.2739
  686MPD2     N10152   1.827   1.336  15.753  0.0331  0.1337  0.0386
  686MPD2    H510153   1.859   1.348  15.658 -0.2672  0.9407  0.0463
  686MPD2    N110154   1.455   1.511  16.008  0.1285 -0.4827 -0.9824
  686MPD2    H710155   1.514   1.493  16.089 -0.0720  1.3995 -0.4228
  687TMC3    C110156   1.849   1.189  15.950 -0.3513 -0.8128 -0.0390
  687TMC3    C210157   1.709   1.156  15.950  0.8719  0.1845 -0.7317
  687TMC3    C310158   1.658   1.142  16.080  0.4307  0.4959  0.1219
  687TMC3    C410159   1.923   1.204  16.064 -0.0845  0.9866  0.3373
  687TMC3    C510160   1.856   1.191  16.188 -0.7367  0.4569  0.3353
  687TMC3    C610161   1.725   1.154  16.196 -0.3107  0.7318 -0.0078
  687TMC3     C10162   1.910   1.261  15.842 -0.2826 -0.0388  0.5313
  687TMC3     O10163   2.034   1.265  15.846  0.0660  0.6110  0.2381
  687TMC3     H10164   1.661   1.131  15.856  1.2855  1.5688 -1.3150
  687TMC3    H110165   2.031   1.214  16.062 -0.2233  2.1776 -1.1734
  687TMC3    H210166   1.667   1.173  16.286  0.5730  2.2306  0.2458
  687TMC3    C710167   1.904   1.278  16.291 -0.0187 -0.9589  0.4411
  687TMC3    C810168   1.525   1.108  16.106  0.0651 -0.0114  0.2085
  687TMC3    O110169   1.836   1.284  16.393  0.1761 -0.6530  0.0601
  687TMC3    O210170   1.494   1.057  16.212 -0.1373 -0.5346  0.0296
  688MPD2     C10171   0.777   0.472   0.035 -0.0790  0.2952 -0.7495
  688MPD2    C110172   0.817   0.345   0.074  0.3094 -0.0995 -0.3589
  688MPD2    C210173   0.924   0.294   0.010  0.5654  0.0557  0.6882
  688MPD2    C310174   0.990   0.363  17.612 -0.2564  0.2796  0.2049
  688MPD2    C410175   0.945   0.486  17.572 -0.3517 -0.3767  0.3129
  688MPD2    C510176   0.836   0.540  17.637  0.4643 -0.8829  0.0310
  688MPD2     H10177   0.966   0.200   0.042 -1.8191  0.2021  4.3709
  688MPD2    H110178   0.996   0.545  17.496  0.6852  1.1110  2.1766
  688MPD2    H210179   0.703   0.535   0.084 -1.6402 -1.2477 -1.1112
  688MPD2    H310180   0.797   0.635  17.603  1.7030 -0.9776 -1.6704
  688MPD2     N10181   1.116   0.317  17.561 -0.5026  0.6293 -0.8758
  688MPD2    H510182   1.157   0.389  17.501 -2.4857  2.6601  0.2067
  688MPD2    N110183   0.764   0.278   0.184 -0.2987 -0.3715  0.3244
  688MPD2    H710184   0.788   0.181   0.205  1.0765  0.5035  2.7370
  689TMC3    C110185   0.654   0.255   0.399  0.1606  0.2300  0.3549
  689TMC3    C210186   0.600   0.323   0.503 -0.3894  0.5515  0.3525
  689TMC3    C310187   0.603   0.267   0.627  0.2756  0.4584 -0.2384
  689TMC3    C410188   0.676   0.123   0.406 -0.4370  0.3411  0.0306
  689TMC3    C510189   0.660   0.064   0.527  0.1613 -0.2182  0.5391
  689TMC3    C610190   0.643   0.133   0.644 -0.5688 -0.0261 -0.2123
  689TMC3     C10191   0.683   0.337   0.276 -0.4412 -0.2541  0.7004
  689TMC3     O10192   0.648   0.454   0.282  0.2233  0.6346 -0.2701
  689TMC3     H10193   0.567   0.424   0.481  0.4832  1.0489  1.3763
  689TMC3    H110194   0.695   0.062   0.319  0.6837  0.5738  0.1158
  689TMC3    H210195   0.618   0.081   0.736 -0.6567 -2.2308 -1.4774
  689TMC3    C710196   0.641   4.642   0.536 -0.2014  0.2171 -0.0280
  689TMC3    C810197   0.577   0.342   0.749  0.2240  0.3607 -0.2553
  689TMC3    O110198   0.675   4.600   0.645 -0.0088  0.7390 -0.3457
  689TMC3    O210199   0.620   0.286   0.849  0.2434 -0.7169  0.7589
  690MPD2     C10200   3.148   2.374  16.131  0.4835  0.5174 -0.3632
  690MPD2    C110201   3.100   2.352  16.008 -0.5221  0.4377  0.5390
  690MPD2    C210202   3.181   2.377  15.895  0.3969 -0.7245 -0.1193
  690MPD2    C310203   3.307   2.428  15.910 -0.1480 -0.8065  0.0286
  690MPD2    C410204   3.348   2.462  16.038  0.2833 -0.3655 -0.6926
  690MPD2    C510205   3.265   2.436  16.143 -0.4760  0.9860  0.3177
  690MPD2     H10206   3.150   2.335  15.800  0.3930 -0.7314 -0.1149
  690MPD2    H110207   3.440   2.512  16.067 -1.9369  1.2258  3.6403
  690MPD2    H210208   3.093   2.363  16.224 -1.3922  0.4859 -1.4583
  690MPD2    H310209   3.293   2.461  16.245 -0.2885 -1.1162  0.7806
  690MPD2     N10210   3.395   2.425  15.800  0.2440  0.2228  0.3103
  690MPD2    H510211   3.348   2.399  15.713 -1.1265  2.9577  0.2205
  690MPD2    N110212   2.976   2.300  15.988 -0.4554 -0.1187 -0.0050
  690MPD2    H710213   2.947   2.286  15.892  1.6466 -2.6243 -0.3045
  691TMC3    C110214   2.783   2.165  16.032  0.4985  0.2193 -0.5382
  691TMC3    C210215   2.686   2.122  16.117  0.0952  0.0869 -0.2443
  691TMC3    C310216   2.604   2.015  16.085  0.3089 -0.7454 -0.1427
  691TMC3    C410217   2.804   2.104  15.915  0.6036 -0.7627  0.4309
  691TMC3    C510218   2.729   1.993  15.885  0.5584  0.5415  0.2029
  691TMC3    C610219   2.622   1.950  15.968 -0.2424 -0.0565 -1.0714
  691TMC3     C10220   2.884   2.263  16.087  0.6377 -0.0063 -0.2530
  691TMC3     O10221   2.885   2.270  16.210 -0.6355  0.4571  0.1306
  691TMC3     H10222   2.679   2.163  16.217 -1.4656  2.8689 -1.4817
  691TMC3    H110223   2.877   2.132  15.840 -2.1086 -0.1307 -1.9791
  691TMC3    H210224   2.553   1.875  15.930 -0.1208 -0.4001 -0.6182
  691TMC3    C710225   2.780   1.913  15.771 -0.6935  1.0010 -0.2068
  691TMC3    C810226   2.474   1.996  16.152  0.0327  0.1390  0.0859
  691TMC3    O110227   2.897   1.936  15.738 -0.8865  0.5283  0.2159
  691TMC3    O210228   2.416   1.889  16.142  0.4670  0.3026 -0.2330
  692TMC3    C110229   0.081   3.294  16.138  0.0334 -0.3770  0.9951
  692TMC3    C210230   0.168   3.311  16.241  0.2204 -0.3375  0.5397
  692TMC3    C310231   0.199   3.195  16.310  0.7309  0.3676 -0.4207
  692TMC3    C410232   0.027   3.174  16.104 -0.5537 -0.6375  0.0184
  692TMC3    C510233   0.056   3.066  16.174 -0.5531 -0.6452 -0.3695
  692TMC3    C610234   0.137   3.075  16.288  0.2715 -0.0223 -0.4718
  692TMC3     C10235   4.710   3.394  16.134  0.1323  0.3951 -0.3961
  692TMC3     O10236   4.603   3.360  16.087 -0.1364  0.3522  0.2212
  692TMC3     H10237   0.252   3.379  16.236 -0.5196  0.7434  3.1558
  692TMC3    H110238   4.695   3.161  16.013 -1.2185  1.1535  0.1791
  692TMC3    H210239   0.166   2.993  16.353 -2.1703 -0.5947 -0.1138
  692TMC3    C710240   0.004   2.938  16.134 -0.1868  0.0096  0.4411
  692TMC3    C810241   0.235   3.220  16.451 -0.6164 -0.3155 -0.4235
  692TMC3    O110242   4.673   2.922  16.027  0.4345 -0.6180  0.4975
  692TMC3    O210243   0.244   3.112  16.513  0.0515 -0.4274 -0.3621
  693MPD2     C10244   4.351   1.343  11.067 -0.0839 -0.2579 -0.8415
  693MPD2    C110245   4.271   1.234  11.050  0.2076 -0.2034 -0.3157
  693MPD2    C210246   4.328   1.108  11.044  0.4573  0.4063 -0.3514
  693MPD2    C310247   4.464   1.089  11.049  0.8402  0.0682  0.2377
  693MPD2    C410248   4.535   1.199  11.056 -0.7516 -0.9244 -0.2512
  693MPD2    C510249   4.489   1.322  11.065  0.0916  0.5637  0.4682
  693MPD2     H10250   4.263   1.021  11.040  0.0206  0.7133  0.1233
  693MPD2    H110251   4.643   1.193  11.059 -0.6942 -1.0098 -2.2430
  693MPD2    H210252   4.314   1.445  11.070  0.5451 -0.1624  3.7979
  693MPD2    H310253   4.560   1.404  11.063  0.7990 -0.0859 -1.0855
  693MPD2     N10254   4.525   0.967  11.068 -0.2422 -0.3700  0.6801
  693MPD2    H510255   4.624   0.962  11.092 -0.1442  0.7356  0.5217
  693MPD2    N110256   4.128   1.240  11.045  0.5662  0.0747 -0.5212
  693MPD2    H710257   4.085   1.325  11.080  0.9471  0.4664 -1.0033
  694TMC3    C110258   3.912   1.147  11.076  0.0729 -0.0792 -0.4457
  694TMC3    C210259   3.823   1.050  11.035 -0.3820 -0.2276  0.5496
  694TMC3    C310260   3.742   1.001  11.139  0.1437  0.2657  0.1937
  694TMC3    C410261   3.924   1.193  11.209  0.1432  0.5321 -0.1906
  694TMC3    C510262   3.836   1.142  11.302 -1.2615  0.2022  0.1116
  694TMC3    C610263   3.746   1.050  11.269  0.5627  0.7080 -0.3389
  694TMC3     C10264   4.039   1.137  11.006 -0.3767 -0.5073  0.2403
  694TMC3     O10265   4.053   1.040  10.935  0.4562  0.5959  0.3242
  694TMC3     H10266   3.829   1.010  10.934 -1.6470 -0.7749  0.6902
  694TMC3    H110267   4.016   1.241  11.240  0.4557  1.6322 -2.7761
  694TMC3    H210268   3.672   1.020  11.341  0.9767 -2.4754 -1.2570
  694TMC3    C710269   3.863   1.182  11.432  0.0380 -0.2436  0.5164
  694TMC3    C810270   3.629   0.913  11.103 -0.7005 -0.1179  0.4157
  694TMC3    O110271   3.911   1.293  11.452 -0.2712  0.2268 -0.7050
  694TMC3    O210272   3.557   0.875  11.194  0.2683  0.1760  0.2399
  695MPD2     C10273   0.770   3.578  13.765 -0.5010 -0.0117  0.0193
  695MPD2    C110274   0.699   3.511  13.859 -0.0331  0.3207 -0.6250
  695MPD2    C210275   0.566   3.487  13.831 -0.1721 -0.8656 -0.3419
  695MPD2    C310276   0.505   3.533  13.716 -0.2820  0.7256  0.4043
  695MPD2    C410277   0.579   3.596  13.621 -0.0863 -0.3525  0.1004
  695MPD2    C510278   0.711   3.614  13.648  0.1731 -0.4259 -0.0211
  695MPD2     H10279   0.514   3.430  13.908 -0.9165  0.1896 -0.0612
  695MPD2    H110280   0.537   3.633  13.529  1.3961  2.0378  0.3892
  695MPD2    H210281   0.876   3.594  13.782 -0.4998 -0.7659  0.7646
  695MPD2    H310282   0.776   3.665  13.578 -0.3941 -1.3456 -1.2059
  695MPD2     N10283   0.369   3.496  13.715 -0.4563 -0.3687 -0.3880
  695MPD2    H510284   0.343   3.424  13.782  0.2193  1.2845  1.6412
  695MPD2    N110285   0.749   3.486  13.994  0.3975 -0.0336  0.2001
  695MPD2    H710286   0.684   3.444  14.059  0.9761 -0.9938  0.1626
  696TMC3    C110287   0.166   3.457  13.625 -0.1212 -0.8163 -0.2327
  696TMC3    C210288   0.135   3.406  13.751 -0.2213  0.5399 -0.6525
  696TMC3    C310289   0.013   3.402  13.805  0.3881  0.5725  0.2702
  696TMC3    C410290   0.064   3.505  13.545  0.2784 -0.0549  0.5643
  696TMC3    C510291   4.671   3.511  13.608  0.4043  0.1395 -0.2199
  696TMC3    C610292   4.643   3.474  13.736  0.2017  0.0058  0.5465
  696TMC3     C10293   0.288   3.525  13.608  0.5007  0.2507  0.1000
  696TMC3     O10294   0.309   3.599  13.511  0.2363  0.2487  0.1062
  696TMC3     H10295   0.210   3.347  13.800 -0.7777  1.2902  1.0933
  696TMC3    H110296   0.088   3.554  13.452 -0.9427  1.2418  0.9344
  696TMC3    H210297   4.543   3.488  13.776 -0.8106 -0.3866 -1.8393
  696TMC3    C710298   4.582   3.614  13.557  0.1376 -0.0051  0.1301
  696TMC3    C810299   4.719   3.394  13.951 -0.5450 -0.1692 -0.2910
  696TMC3    O110300   4.566   3.610  13.435 -0.0357 -0.7448 -0.4881
  696TMC3    O210301   0.094   3.401  14.018 -0.0630 -0.3621 -0.2859
  697MPD2     C10302   4.255   0.291  16.397  0.0020  0.6318  0.2464
  697MPD2    C110303   4.266   0.263  16.263  0.5107 -0.0699  0.7549
  697MPD2    C210304   4.294   0.364  16.171 -0.4542 -0.0189  0.2624
  697MPD2    C310305   4.318   0.496  16.221 -0.1626 -0.4486  0.1011
  697MPD2    C410306   4.290   0.523  16.353 -0.2324 -0.4598  0.0542
  697MPD2    C510307   4.265   0.420  16.440 -0.2214 -0.8028 -0.3386
  697MPD2     H10308   4.299   0.339  16.065  0.7726 -2.2071  0.8450
  697MPD2    H110309   4.302   0.620  16.400 -0.0297  0.1175 -1.1663
  697MPD2    H210310   4.233   0.215  16.471 -0.2140 -0.7942 -1.2668
  697MPD2    H310311   4.258   0.450  16.544  3.1511 -0.9273 -0.0854
  697MPD2     N10312   4.374   0.594  16.133  0.1663  0.7184 -0.1877
  697MPD2    H510313   4.402   0.550  16.046 -2.2937 -2.1822  0.4807
  697MPD2    N110314   4.246   0.137  16.209 -0.3633  0.6690  0.3286
  697MPD2    H710315   4.230   0.126  16.109  1.2937 -1.3164  0.2803
  698TMC3    C110316   4.508   0.778  16.075  0.1496 -0.6198  0.2200
  698TMC3    C210317   4.590   0.879  16.124 -0.0997 -0.0714 -0.2329
  698TMC3    C310318   4.650   0.964  16.028 -0.1070 -0.3429  0.2697
  698TMC3    C410319   4.487   0.755  15.942  0.5790  0.4950 -0.6187
  698TMC3    C510320   4.537   0.843  15.854 -0.0806  0.4642 -0.3541
  698TMC3    C610321   4.619   0.950  15.893  0.6823  0.0458 -1.1383
  698TMC3     C10322   4.423   0.716  16.173  0.4535  0.0220  0.0561
  698TMC3     O10323   4.421   0.776  16.279  0.0399  0.1616 -0.9231
  698TMC3     H10324   4.618   0.884  16.228  1.0192 -1.0565 -0.4872
  698TMC3    H110325   4.417   0.680  15.906 -0.2165  0.8614  0.1394
  698TMC3    H210326   4.627   1.039  15.832  1.7541  0.8948  0.2164
  698TMC3    C710327   4.493   0.836  15.716  0.1061  0.3059  0.0665
  698TMC3    C810328   4.704   1.095  16.077  0.1881 -0.4702  0.3542
  698TMC3    O110329   4.393   0.771  15.684 -0.1332  0.0291  0.2048
  698TMC3    O210330   4.679   1.131  16.192  0.0171  0.0033  0.0919
  699TMC3    C110331   4.348   3.235  13.379 -0.1005  0.5064 -1.0047
  699TMC3    C210332   4.426   3.165  13.461 -0.0519  0.0469 -0.3213
  699TMC3    C310333   4.361   3.063  13.532  0.4530  0.4318 -0.6274
  699TMC3    C410334   4.219   3.222  13.352 -0.4219 -0.4490  0.9644
  699TMC3    C510335   4.159   3.122  13.427  0.3992  0.7883  0.5090
  699TMC3    C610336   4.233   3.038  13.504 -0.6589 -0.2969 -0.4321
  699TMC3     C10337   4.416   3.321  13.283  0.0089 -0.6315  0.0157
  699TMC3     O10338   4.353   3.400  13.215 -0.0570 -0.2175  0.5129
  699TMC3     H10339   4.514   3.209  13.506  0.9673 -1.3875 -0.8922
  699TMC3    H110340   4.160   3.274  13.278  0.6968  0.2385  0.5706
  699TMC3    H210341   4.183   2.967  13.570 -0.7831 -0.5977 -0.8540
  699TMC3    C710342   4.016   3.121  13.439 -0.0587 -0.0580 -0.5913
  699TMC3    C810343   4.418   3.025  13.663  0.4324  0.4058  0.5591
  699TMC3    O110344   3.964   3.233  13.460  0.0590  0.6212  0.4821
  699TMC3    O210345   4.339   2.970  13.737 -0.0684  0.1697 -0.2436
  700TMC3    C110346   3.345   0.696  17.614  0.3749  0.3900  0.6646
  700TMC3    C210347   3.418   0.581  17.604 -0.8921  0.1014  0.4682
  700TMC3    C310348   3.522   0.561  17.684  0.5269 -0.5875 -0.9046
  700TMC3    C410349   3.370   0.788   0.014 -0.3911 -0.6057 -0.0318
  700TMC3    C510350   3.473   0.754   0.101  0.3476 -0.0049 -0.8797
  700TMC3    C610351   3.554   0.648   0.083  0.0769 -0.8667  0.2030
  700TMC3     C10352   3.308   0.752  17.480  0.1338  0.2212 -0.1918
  700TMC3     O10353   3.273   0.670  17.396  0.4342 -0.2148 -0.7245
  700TMC3     H10354   3.391   0.514  17.522 -0.9401 -0.0333  0.5950
  700TMC3    H110355   3.314   0.881   0.018 -2.0435 -1.5697 -0.7735
  700TMC3    H210356   3.633   0.621   0.153  0.5272  0.2811  0.1395
  700TMC3    C710357   3.533   0.855   0.189  0.1479 -0.4617 -0.0749
  700TMC3    C810358   3.606   0.448  17.665 -0.0366 -0.1229  0.5472
  700TMC3    O110359   3.653   0.847   0.205 -0.4593  0.7978  0.1565
  700TMC3    O210360   3.724   0.470  17.673  0.5430  0.6826  0.3698
  701TMC3    C110361   3.191   4.606  15.993  0.5237 -0.0430  0.4767
  701TMC3    C210362   3.127   4.619  15.880  0.7606  0.2202  0.7194
  701TMC3    C310363   3.104   0.022  15.826 -0.6028 -0.3971 -0.4505
  701TMC3    C410364   3.225   4.715  16.068 -0.2472 -0.0516 -0.2205
  701TMC3    C510365   3.218   0.108  16.008  0.9296 -0.4363 -0.4082
  701TMC3    C610366   3.156   0.134  15.888  0.2598  0.0292  0.9606
  701TMC3     C10367   3.177   4.482  16.069  0.1058  0.5781  0.0603
  701TMC3     O10368   3.176   4.493  16.188 -0.3810 -0.1083  0.6040
  701TMC3     H10369   3.078   4.535  15.832 -1.3088  1.9345 -0.1773
  701TMC3    H110370   3.280   4.712  16.161 -1.1296  0.3002  0.3183
  701TMC3    H210371   3.159   0.234  15.846 -0.2651 -0.7594 -0.9490
  701TMC3    C710372   3.232   0.232  16.079 -0.4093  0.2071 -0.4352
  701TMC3    C810373   3.032   0.046  15.702 -0.4267  0.2260  0.2235
  701TMC3    O110374   3.267   0.335  16.027 -0.5329  0.0981 -0.4694
  701TMC3    O210375   3.030   0.164  15.667 -0.4470 -0.1435 -0.0870
  702MPD2     C10376   2.941   1.958  10.588 -0.6735 -1.2322 -0.0758
  702MPD2    C110377   3.038   2.037  10.642  1.3049 -0.0326 -0.0619
  702MPD2    C210378   3.081   2.153  10.598 -0.6248 -0.2971 -0.0145
  702MPD2    C310379   3.011   2.201  10.491  0.0542 -0.7199 -0.1059
  702MPD2    C410380   2.904   2.132  10.439  0.2223 -0.5331  0.3628
  702MPD2    C510381   2.867   2.016  10.489 -0.4807  0.8016 -0.2815
  702MPD2     H10382   3.163   2.208  10.642 -1.3963 -0.5342  1.7078
  702MPD2    H110383   2.850   2.167  10.351 -0.4493  0.4836  1.1901
  702MPD2    H210384   2.924   1.854  10.616 -2.7788 -0.0307  3.0815
  702MPD2    H310385   2.792   1.965  10.429 -1.0070  0.8564  0.3222
  702MPD2     N10386   3.039   2.331  10.427  0.2073 -0.1304  0.8031
  702MPD2    H510387   2.981   2.359  10.349 -0.2470  0.5626  1.3878
  702MPD2    N110388   3.093   1.993  10.764  0.4314 -0.3257  0.3927
  702MPD2    H710389   3.057   1.903  10.793 -2.1485  0.1166 -1.4074
  703TMC3    C110390   3.136   2.547  10.389 -0.7358 -0.1520 -0.3800
  703TMC3    C210391   3.020   2.619  10.424  1.4987 -0.7912 -0.0191
  703TMC3    C310392   3.035   2.758  10.429 -0.2864  0.0875 -0.8041
  703TMC3    C410393   3.255   2.607  10.368 -0.0728 -0.0387  0.2003
  703TMC3    C510394   3.256   2.744  10.362 -0.4290  0.0394 -0.5907
  703TMC3    C610395   3.154   2.816  10.395 -0.0305  0.7044  0.4679
  703TMC3     C10396   3.136   2.420  10.467  0.4935  0.4624  0.1760
  703TMC3     O10397   3.233   2.404  10.539 -0.0929  0.5663 -0.4143
  703TMC3     H10398   2.925   2.567  10.424  0.9448  0.2259  3.0591
  703TMC3    H110399   3.331   2.536  10.337 -0.7018 -0.4755 -0.3330
  703TMC3    H210400   3.169   2.924  10.401 -0.3651  0.6413  2.6066
  703TMC3    C710401   3.384   2.798  10.326 -0.2864  0.2628 -0.5407
  703TMC3    C810402   2.929   2.858  10.460 -0.6452 -0.7412  0.2315
  703TMC3    O110403   3.489   2.734  10.338  0.3543 -0.1360 -0.4012
  703TMC3    O210404   2.963   2.972  10.432  0.7072 -0.0065 -0.2485
  704TMC3    C110405   0.528   0.308  12.443 -0.8053  0.4598  0.1710
  704TMC3    C210406   0.656   0.351  12.480 -0.1414  0.1114  0.2786
  704TMC3    C310407   0.722   0.269  12.569 -0.3801 -0.2108  0.3110
  704TMC3    C410408   0.478   0.191  12.491  0.2284  0.1836 -0.1248
  704TMC3    C510409   0.552   0.101  12.566  0.2184 -0.8649  0.2716
  704TMC3    C610410   0.679   0.147  12.600  0.7579 -0.0486 -0.2988
  704TMC3     C10411   0.454   0.381  12.342  0.0846 -0.7446  0.4807
  704TMC3     O10412   0.334   0.389  12.354 -0.3010  0.7404 -0.2082
  704TMC3     H10413   0.695   0.449  12.456 -2.3855  0.4112 -2.0931
  704TMC3    H110414   0.375   0.171  12.462  0.6839 -0.7215 -1.1312
  704TMC3    H210415   0.751   0.082  12.648  1.5741  0.2256 -1.1535
  704TMC3    C710416   0.548   4.688  12.532 -0.5142 -0.0728 -0.1459
  704TMC3    C810417   0.860   0.298  12.595 -0.0692  0.5520  0.5633
  704TMC3    O110418   0.638   4.617  12.573 -0.9226  0.4717 -0.5148
  704TMC3    O210419   0.910   0.372  12.512 -0.2015 -0.1449 -0.3577
  705MPD2     C10420   0.422   2.881  16.904 -0.4505  0.4666  0.3040
  705MPD2    C110421   0.338   2.926  16.802 -0.4620 -0.6844 -0.5645
  705MPD2    C210422   0.205   2.962  16.826  0.6734  0.2999  0.1996
  705MPD2    C310423   0.158   2.934  16.954  0.1758 -0.5933  0.2330
  705MPD2    C410424   0.244   2.893  17.055  0.0861 -0.7428  0.0638
  705MPD2    C510425   0.378   2.885  17.029 -0.4705 -0.2102 -0.5543
  705MPD2     H10426   0.146   2.999  16.743 -2.4303 -2.4879  1.1241
  705MPD2    H110427   0.207   2.876  17.155 -0.6098  0.5542  0.0336
  705MPD2    H210428   0.530   2.871  16.897 -0.4810  0.9539 -0.8985
  705MPD2    H310429   0.443   2.854  17.111 -1.0539  0.9036  0.3210
  705MPD2     N10430   0.024   2.961  16.988  0.3669 -0.8547 -0.7538
  705MPD2    H510431   4.721   2.972  17.085 -2.0745 -2.0875 -1.3094
  705MPD2    N110432   0.393   2.954  16.674 -0.4148 -0.5384  0.1227
  705MPD2    H710433   0.332   3.011  16.616  2.5115  2.1463 -0.2682
  706TMC3    C110434   0.675   2.965  16.302 -0.1622 -1.2476 -0.4457
  706TMC3    C210435   0.669   3.105  16.293 -0.7757 -0.1186  0.1778
  706TMC3    C310436   0.606   3.176  16.394 -0.4156 -0.5372  0.5704
  706TMC3    C410437   0.624   2.894  16.406  0.0955  0.1353  0.2699
  706TMC3    C510438   0.553   2.967  16.494 -0.1627  0.0477  0.3374
  706TMC3    C610439   0.544   3.103  16.493  0.4720  1.1186  0.0133
  706TMC3     C10440   0.772   2.900  16.214 -0.0139 -0.0685 -0.5629
  706TMC3     O10441   0.836   2.807  16.264  0.0289 -0.0961 -0.4808
  706TMC3     H10442   0.718   3.164  16.216  1.4742  0.1917  1.8426
  706TMC3    H110443   0.644   2.791  16.432  0.4572 -0.3247 -1.8141
  706TMC3    H210444   0.489   3.154  16.571 -1.2898 -0.9227  0.1253
  706TMC3    C710445   0.509   2.900  16.622 -0.6116 -0.9666  0.2761
  706TMC3    C810446   0.621   3.321  16.406  0.5221 -0.7198 -0.3386
  706TMC3    O110447   0.584   2.813  16.664  0.2452  0.9429 -0.0031
  706TMC3    O210448   0.638   3.395  16.305  0.2588 -0.3232 -0.8509
  707TMC3    C110449   2.535   0.311   2.257  0.0590  0.1149  0.5610
  707TMC3    C210450   2.653   0.245   2.276  0.2683  0.4120 -0.3388
  707TMC3    C310451   2.674   0.174   2.393 -0.4179 -0.9381  0.6774
  707TMC3    C410452   2.447   0.328   2.356 -0.6420  0.2958  1.1537
  707TMC3    C510453   2.468   0.250   2.468  0.6720  0.6433 -0.0008
  707TMC3    C610454   2.576   0.175   2.490  0.0505  0.1338 -0.7798
  707TMC3     C10455   2.540   0.408   2.143  0.6920 -0.1228  0.2258
  707TMC3     O10456   2.632   0.386   2.063  0.1802  0.0455  0.2242
  707TMC3     H10457   2.715   0.222   2.191  0.2948  1.3750 -0.5818
  707TMC3    H110458   2.346   0.360   2.330  0.2643  2.5933  0.4878
  707TMC3    H210459   2.586   0.117   2.581  0.9790  4.2240  1.7200
  707TMC3    C710460   2.365   0.253   2.571 -0.3253 -0.6523 -0.2888
  707TMC3    C810461   2.802   0.134   2.437  0.2396  0.0540  0.0917
  707TMC3    O110462   2.397   0.193   2.672 -0.0461 -0.2248 -0.2870
  707TMC3    O210463   2.804   0.061   2.536 -0.3323 -0.0117 -0.3494
  708MPD2     C10464   3.613   1.426  13.986  0.5242  0.2875  0.2081
  708MPD2    C110465   3.495   1.360  13.976  0.2977  0.1159 -0.4171
  708MPD2    C210466   3.458   1.283  14.083  1.0544  0.6877  0.3370
  708MPD2    C310467   3.538   1.268  14.198 -0.2487 -0.3008 -0.0254
  708MPD2    C410468   3.670   1.317  14.196 -0.3665 -0.0393 -0.1898
  708MPD2    C510469   3.705   1.397  14.090  0.3115  0.3192  0.1803
  708MPD2     H10470   3.360   1.235  14.081  1.1341  0.6123 -2.1873
  708MPD2    H110471   3.750   1.296  14.267  0.8473  0.7767 -1.3088
  708MPD2    H210472   3.652   1.483  13.902 -2.0725  1.4633 -0.1892
  708MPD2    H310473   3.802   1.446  14.097  0.6942 -0.4945  0.6113
  708MPD2     N10474   3.502   1.190  14.315  0.2295  0.5519  0.0417
  708MPD2    H510475   3.567   1.184  14.393 -1.6066  0.7151  1.6058
  708MPD2    N110476   3.417   1.377  13.857  0.2127  0.3136  0.2157
  708MPD2    H710477   3.437   1.453  13.793 -2.0825  1.3694  0.7680
  709TMC3    C110478   3.273   1.287  13.677 -0.4752  0.3657 -0.4005
  709TMC3    C210479   3.257   1.422  13.644 -0.4944 -0.4773  0.2817
  709TMC3    C310480   3.124   1.460  13.630 -0.2737  0.2237  0.2550
  709TMC3    C410481   3.164   1.203  13.697 -0.2424  0.2379  0.2398
  709TMC3    C510482   3.037   1.256  13.690 -0.0892 -0.4315 -0.6589
  709TMC3    C610483   3.016   1.386  13.651  0.7059  0.1821 -0.1634
  709TMC3     C10484   3.355   1.267  13.802  0.0157 -0.1050 -0.1766
  709TMC3     O10485   3.345   1.154  13.844 -0.5747 -0.4025  0.5078
  709TMC3     H10486   3.342   1.487  13.636 -0.3352 -0.8544 -1.1012
  709TMC3    H110487   3.168   1.097  13.719 -3.3802  0.4096  1.5469
  709TMC3    H210488   2.916   1.425  13.664  0.2233 -2.2119  3.6566
  709TMC3    C710489   2.935   1.201  13.778  0.4334 -0.2903 -0.2344
  709TMC3    C810490   3.100   1.606  13.626  0.1128  0.4539 -0.1452
  709TMC3    O110491   2.821   1.235  13.751  0.2143 -0.3123 -0.6634
  709TMC3    O210492   2.997   1.646  13.680 -0.3999 -0.6076 -0.5092
  710TMC3    C110493   4.280   2.729   0.892  0.6581  0.1531 -1.0192
  710TMC3    C210494   4.310   2.710   0.758  0.8034  0.8105 -0.7754
  710TMC3    C310495   4.422   2.638   0.715 -0.2904 -0.0058 -0.7235
  710TMC3    C410496   4.362   2.671   0.984 -0.0514 -0.0278 -0.1234
  710TMC3    C510497   4.472   2.593   0.939 -0.2800 -0.0729  0.3042
  710TMC3    C610498   4.506   2.579   0.805 -0.3574  0.1432 -0.2144
  710TMC3     C10499   4.165   2.800   0.934 -0.0455  0.9249 -0.1714
  710TMC3     O10500   4.083   2.812   0.844  0.2502 -0.0498  0.0719
  710TMC3     H10501   4.250   2.755   0.680  0.2822  0.6200 -0.4826
  710TMC3    H110502   4.335   2.674   1.089  0.3883  0.4089 -0.0222
  710TMC3    H210503   4.597   2.532   0.768 -0.6975 -0.5525 -0.1651
  710TMC3    C710504   4.551   2.535   1.044 -0.1460 -0.2457 -0.1084
  710TMC3    C810505   4.452   2.615   0.572  0.8180 -0.3174 -0.2759
  710TMC3    O110506   4.500   2.531   1.155  0.1360 -0.6811  0.2473
  710TMC3    O210507   4.555   2.548   0.553  0.4349  0.6333  0.3495
  711TMC3    C110508   4.269   4.021  15.564  0.5725 -0.2937 -0.3259
  711TMC3    C210509   4.294   4.099  15.676  0.3012 -0.9627  0.0748
  711TMC3    C310510   4.410   4.092  15.741  0.0812 -0.7755 -0.4924
  711TMC3    C410511   4.368   3.932  15.521  0.3373 -0.2109  0.1221
  711TMC3    C510512   4.475   3.918  15.602  0.8113  0.0130 -0.1915
  711TMC3    C610513   4.501   3.995  15.705  0.1711  0.5241  0.4593
  711TMC3     C10514   4.130   3.990  15.529  0.3714  0.7241 -0.3883
  711TMC3     O10515   4.123   3.907  15.441 -0.1210  0.3892  0.2941
  711TMC3     H10516   4.220   4.175  15.700  2.3796  1.4841 -1.2206
  711TMC3    H110517   4.363   3.876  15.428 -0.6734 -0.6342  0.4375
  711TMC3    H210518   4.599   3.994  15.752  0.3739 -0.9408  0.0118
  711TMC3    C710519   4.523   3.780  15.618 -0.2959  0.0171  0.8653
  711TMC3    C810520   4.404   4.158  15.871  0.4591  0.1714  0.4108
  711TMC3    O110521   4.636   3.770  15.668 -0.0920  0.6356  0.2928
  711TMC3    O210522   4.291   4.192  15.904  0.8372 -0.8166  0.2707
  712MPD2     C10523   1.454   0.323  14.009 -0.8345 -0.4711 -0.5233
  712MPD2    C110524   1.327   0.360  14.047  0.0732  0.3726 -0.2100
  712MPD2    C210525   1.304   0.485  14.095  0.1720 -0.2422 -0.6584
  712MPD2    C310526   1.406   0.578  14.103  0.8524 -0.2181  0.0124
  712MPD2    C410527   1.537   0.539  14.076 -0.1238 -0.2345  0.7033
  712MPD2    C510528   1.554   0.415  14.023  0.7771 -1.0083  0.6569
  712MPD2     H10529   1.202   0.515  14.120 -0.2380 -1.1972 -1.1649
  712MPD2    H110530   1.623   0.605  14.080  0.4682 -0.8971 -1.1192
  712MPD2    H210531   1.481   0.226  13.968 -1.6866 -0.2900 -1.5007
  712MPD2    H310532   1.654   0.388  13.991  0.3769 -0.2957 -1.1794
  712MPD2     N10533   1.396   0.713  14.147  0.0021 -0.1865  0.7640
  712MPD2    H510534   1.479   0.767  14.170 -0.6857  1.2434 -0.1176
  712MPD2    N110535   1.213   0.275  14.024  0.0380  0.7628 -0.2926
  712MPD2    H710536   1.121   0.303  14.056 -0.4287 -0.3538 -0.6893
  713TMC3    C110537   1.281   0.914  14.219  0.0445 -0.7624 -0.1007
  713TMC3    C210538   1.386   0.990  14.173 -0.2088 -0.3158  0.6298
  713TMC3    C310539   1.379   1.124  14.149 -0.1302 -0.0694  0.9934
  713TMC3    C410540   1.158   0.977  14.224 -0.1514 -0.3715 -0.4214
  713TMC3    C510541   1.146   1.106  14.181  0.0004  0.4574  0.6078
  713TMC3    C610542   1.254   1.185  14.140  0.2690  0.0844  0.1310
  713TMC3     C10543   1.271   0.772  14.165  0.1527  0.4702  1.0369
  713TMC3     O10544   1.164   0.719  14.173  0.2742 -0.3676 -0.4709
  713TMC3     H10545   1.475   0.943  14.134  1.4284  1.2631  2.4984
  713TMC3    H110546   1.067   0.919  14.238  0.3939 -0.8046  1.2876
  713TMC3    H210547   1.237   1.287  14.107  1.8354  0.5049  0.6472
  713TMC3    C710548   1.041   1.118  14.084 -1.2332  0.0957  0.3112
  713TMC3    C810549   1.476   1.185  14.057 -0.5517  0.0068  0.3193
  713TMC3    O110550   0.929   1.078  14.113  0.2795 -0.5020 -0.2612
  713TMC3    O210551   1.416   1.237  13.965 -0.2281  0.4291  0.2442
  714MPD2     C10552   3.175   4.127   2.029  0.3584 -0.9621  0.0375
  714MPD2    C110553   3.197   4.062   1.906  0.9318  0.1920 -0.5635
  714MPD2    C210554   3.097   4.086   1.806  1.3621 -0.0412 -0.0006
  714MPD2    C310555   2.978   4.147   1.831 -0.6399  0.3702  0.0080
  714MPD2    C410556   2.949   4.199   1.959 -0.2687 -0.4716 -0.3962
  714MPD2    C510557   3.051   4.188   2.056 -0.4939 -0.4261 -0.7892
  714MPD2     H10558   3.113   4.048   1.706  0.9935 -0.1490 -0.0208
  714MPD2    H110559   2.850   4.237   1.978 -0.4211 -2.1363  2.1546
  714MPD2    H210560   3.239   4.105   2.114  1.6574 -0.5630 -0.8547
  714MPD2    H310561   3.029   4.219   2.158  1.0833 -1.1175 -0.2358
  714MPD2     N10562   2.892   4.151   1.718  0.6696  0.1050 -0.7346
  714MPD2    H510563   2.919   4.102   1.633 -1.1186 -2.0350 -0.0694
  714MPD2    N110564   3.320   4.008   1.885  0.1373 -0.4661 -0.0080
  714MPD2    H710565   3.382   4.007   1.966  0.2570  2.1603 -0.0871
  715TMC3    C110566   3.493   3.884   1.794  0.2015  0.8569  0.6633
  715TMC3    C210567   3.522   3.764   1.737  0.4374  0.9310 -0.2247
  715TMC3    C310568   3.653   3.726   1.737 -0.2434 -0.9532 -0.0290
  715TMC3    C410569   3.584   3.954   1.869 -0.7845 -0.0760  0.1346
  715TMC3    C510570   3.718   3.916   1.862 -0.2152 -0.4537 -0.2651
  715TMC3    C610571   3.750   3.802   1.796 -0.8335  0.5236 -0.8695
  715TMC3     C10572   3.365   3.934   1.775 -0.1129  0.1876  0.3382
  715TMC3     O10573   3.292   3.884   1.691  0.0776  0.7256  0.0300
  715TMC3     H10574   3.450   3.710   1.677  0.0026  0.2503  0.8943
  715TMC3    H110575   3.552   4.056   1.889 -1.8147 -0.0203 -1.7239
  715TMC3    H210576   3.853   3.769   1.794 -0.3607  1.8323  1.8606
  715TMC3    C710577   3.813   3.960   1.961 -0.2249 -0.0969  0.1590
  715TMC3    C810578   3.683   3.600   1.690 -0.4174 -0.1281  0.6873
  715TMC3    O110579   3.933   3.943   1.940  0.2734  0.8623  0.1840
  715TMC3    O210580   3.609   3.540   1.614 -0.1522 -0.1842 -0.2305
  716MPD2     C10581   3.099   1.447   9.649 -0.4571  0.0190 -0.2762
  716MPD2    C110582   2.977   1.400   9.599  0.0315 -0.2763  0.4242
  716MPD2    C210583   2.967   1.263   9.578 -0.0379 -0.7209 -0.7421
  716MPD2    C310584   3.075   1.175   9.596 -0.1551  0.0289 -0.3604
  716MPD2    C410585   3.195   1.229   9.644 -0.2171  0.4651  0.1546
  716MPD2    C510586   3.208   1.365   9.669 -0.3581  0.2811  0.0438
  716MPD2     H10587   2.870   1.224   9.549 -1.1230  1.1963  0.3031
  716MPD2    H110588   3.278   1.165   9.670  1.0363  1.1980 -2.0458
  716MPD2    H210589   3.118   1.551   9.672  1.2030 -0.5983  1.1096
  716MPD2    H310590   3.301   1.407   9.707 -0.2699 -0.6800  0.8620
  716MPD2     N10591   3.060   1.034   9.562  0.0483 -0.5161  0.4056
  716MPD2    H510592   2.969   1.006   9.527  0.6521 -1.7016 -0.1973
  716MPD2    N110593   2.876   1.489   9.587  0.3546  0.2836 -0.4575
  716MPD2    H710594   2.905   1.586   9.579  2.9267 -0.2539  2.5439
  717TMC3    C110595   3.103   0.819   9.491  0.6024 -0.1096 -0.3586
  717TMC3    C210596   2.978   0.821   9.432  0.1039 -0.3932 -0.2810
  717TMC3    C310597   2.906   0.708   9.429  0.3314 -0.1943 -0.1065
  717TMC3    C410598   3.158   0.703   9.541  0.5671  0.5711  0.3984
  717TMC3    C510599   3.083   0.586   9.530  0.2229 -0.1738  0.4075
  717TMC3    C610600   2.958   0.591   9.482  0.8166 -0.3330  0.2305
  717TMC3     C10601   3.160   0.942   9.549 -0.1220  0.0475 -0.2583
  717TMC3     O10602   3.282   0.945   9.566  0.1310 -0.5923 -0.5905
  717TMC3     H10603   2.936   0.912   9.391 -1.7345 -1.1686 -0.0908
  717TMC3    H110604   3.260   0.717   9.575  0.5470 -1.2026  1.1708
  717TMC3    H210605   2.898   0.501   9.481  1.7038 -0.9507  1.3610
  717TMC3    C710606   3.138   0.460   9.584  0.0125 -0.1003  0.3110
  717TMC3    C810607   2.785   0.708   9.342  0.4254  0.1117  0.6107
  717TMC3    O110608   3.105   0.355   9.533  0.0050 -0.6814 -0.0274
  717TMC3    O210609   2.741   0.816   9.305 -0.5178 -0.1959  0.5521
  718MPD2     C10610   2.587   1.004  13.038  0.1240  0.6944 -0.3920
  718MPD2    C110611   2.549   0.882  12.974  0.5897 -0.5795 -0.2449
  718MPD2    C210612   2.521   0.767  13.041  0.5498  1.2034 -0.0709
  718MPD2    C310613   2.530   0.771  13.180 -0.1085  0.0409  0.2518
  718MPD2    C410614   2.571   0.885  13.251 -0.5244  0.0702 -0.4557
  718MPD2    C510615   2.591   1.001  13.175 -0.1144 -0.2570 -0.2351
  718MPD2     H10616   2.490   0.676  12.991  1.8070  0.0996  1.1630
  718MPD2    H110617   2.585   0.881  13.359 -1.5021  1.7747 -0.2595
  718MPD2    H210618   2.614   1.091  12.980 -1.5668 -0.0343 -2.2506
  718MPD2    H310619   2.604   1.095  13.229 -0.7321 -0.8067  0.8814
  718MPD2     N10620   2.523   0.645  13.247  0.3532  0.0565 -0.1653
  718MPD2    H510621   2.508   0.558  13.196  0.5268  0.8786 -1.5947
  718MPD2    N110622   2.563   0.888  12.834  0.0091  0.5578  0.2155
  718MPD2    H710623   2.580   0.976  12.787  0.9515  0.6582  0.7298
  719TMC3    C110624   2.618   0.781  12.636  0.5250 -0.0657  0.2939
  719TMC3    C210625   2.637   0.657  12.585 -0.1724 -0.1302  0.4209
  719TMC3    C310626   2.758   0.614  12.542  0.2693 -0.4352  0.4158
  719TMC3    C410627   2.715   0.872  12.622  0.3508  0.1068  0.0960
  719TMC3    C510628   2.829   0.834  12.557 -0.5379 -0.0086 -0.2666
  719TMC3    C610629   2.853   0.703  12.519  0.3149  0.2130  0.8110
  719TMC3     C10630   2.528   0.785  12.747  0.0565 -0.0377 -0.4325
  719TMC3     O10631   2.474   0.677  12.770 -0.1625 -0.2686 -0.4549
  719TMC3     H10632   2.567   0.575  12.597 -0.1999 -0.2723 -0.7353
  719TMC3    H110633   2.707   0.979  12.637 -0.5931 -0.0611  0.8279
  719TMC3    H210634   2.954   0.675  12.493  0.9091  1.7310  1.4488
  719TMC3    C710635   2.942   0.920  12.565 -1.2267  0.5725  0.3420
  719TMC3    C810636   2.806   0.494  12.605  0.2540  0.1991 -0.5469
  719TMC3    O110637   2.928   1.035  12.527  0.1778  0.3836 -0.1167
  719TMC3    O210638   2.891   0.433  12.544 -0.0880 -0.1061  0.1002
  720MPD2     C10639   0.661   2.446  14.393  0.0489  1.3437  0.3682
  720MPD2    C110640   0.737   2.406  14.285  0.3535 -0.3161  1.1079
  720MPD2    C210641   0.839   2.317  14.298  0.2182 -0.9567 -0.5132
  720MPD2    C310642   0.878   2.270  14.417 -0.6576 -0.0015  0.4645
  720MPD2    C410643   0.806   2.310  14.526  0.0588  0.7284 -0.3711
  720MPD2    C510644   0.697   2.394  14.518  0.6043 -1.0632  0.1508
  720MPD2     H10645   0.896   2.286  14.212  2.5978  2.0204 -0.0276
  720MPD2    H110646   0.827   2.283  14.629  3.1463  0.8786 -0.9607
  720MPD2    H210647   0.572   2.505  14.376 -0.4196 -0.1264 -2.2506
  720MPD2    H310648   0.645   2.419  14.610  0.7000 -2.3384  0.5473
  720MPD2     N10649   0.993   2.180  14.431  0.3809  0.2675 -0.7319
  720MPD2    H510650   1.052   2.176  14.349 -2.5944 -0.6257 -2.8241
  720MPD2    N110651   0.697   2.460  14.161  0.5288  0.0319  0.3597
  720MPD2    H710652   0.622   2.527  14.162 -0.1996 -0.7767 -0.2889
  721TMC3    C110653   1.151   2.054  14.540 -0.5301 -0.0417 -0.5412
  721TMC3    C210654   1.165   1.946  14.624  0.1476  0.3416  0.2860
  721TMC3    C310655   1.284   1.877  14.617 -0.3945  0.1689  0.2699
  721TMC3    C410656   1.246   2.094  14.453  0.1097 -0.0551 -0.1326
  721TMC3    C510657   1.362   2.030  14.461  0.7135  0.0654 -1.0500
  721TMC3    C610658   1.381   1.911  14.529  0.3378 -0.0024 -0.4401
  721TMC3     C10659   1.018   2.105  14.541 -0.0057  0.0491  0.8842
  721TMC3     O10660   0.940   2.078  14.633  0.2702 -0.5785  0.0832
  721TMC3     H10661   1.087   1.911  14.691 -1.3115 -0.4045 -1.8157
  721TMC3    H110662   1.247   2.193  14.408  0.3472  1.0278  2.2448
  721TMC3    H210663   1.473   1.853  14.521  0.4025  0.0451  0.0071
  721TMC3    C710664   1.482   2.112  14.456 -0.4670  0.0482  0.1108
  721TMC3    C810665   1.302   1.758  14.704 -0.2012 -0.5098  0.3867
  721TMC3    O110666   1.478   2.214  14.391 -0.1442  0.0946  0.9259
  721TMC3    O210667   1.381   1.677  14.660  0.0878  0.5591  0.6029
  722MPD2     C10668   0.017   1.067  14.031  0.6592 -0.6744  0.0795
  722MPD2    C110669   4.716   1.059  13.893 -0.1533 -0.3707  0.2283
  722MPD2    C210670   4.590   1.033  13.855 -0.0934  0.3215 -0.2454
  722MPD2    C310671   4.492   1.014  13.952 -0.8597  0.4756 -0.6298
  722MPD2    C410672   4.524   1.008  14.083  0.4895  0.4883  0.9572
  722MPD2    C510673   4.649   1.035  14.128  0.4941  0.6743 -0.5199
  722MPD2     H10674   4.564   1.042  13.750  0.6395  1.2487 -0.3519
  722MPD2    H110675   4.457   0.987  14.166  1.8478  0.4484  2.0385
  722MPD2    H210676   0.120   1.088  14.058  0.5989 -0.9810  0.5442
  722MPD2    H310677   4.670   1.037  14.235 -1.5582 -2.6068 -0.0664
  722MPD2     N10678   4.362   0.993  13.904  0.8930  0.0050 -0.7149
  722MPD2    H510679   4.351   0.990  13.803 -0.3272  0.3593 -0.6009
  722MPD2    N110680   0.086   1.091  13.792 -0.0042 -0.2497 -0.0486
  722MPD2    H710681   0.060   1.076  13.695 -2.2289 -0.3601  0.5661
  723TMC3    C110682   4.132   0.945  13.891 -0.0773 -0.8523 -0.1254
  723TMC3    C210683   4.052   0.835  13.899 -0.2403 -0.3013  0.7663
  723TMC3    C310684   3.972   0.804  13.796 -0.6318  0.1695  0.4027
  723TMC3    C410685   4.119   1.039  13.795  0.7868  0.1498 -0.8367
  723TMC3    C510686   4.034   1.005  13.695  0.3706 -0.8747 -0.3965
  723TMC3    C610687   3.955   0.892  13.694 -0.6874 -0.8438  0.3383
  723TMC3     C10688   4.247   0.963  13.973  0.7376  0.7405 -0.1259
  723TMC3     O10689   4.236   0.926  14.091  0.1520 -0.0849 -0.4383
  723TMC3     H10690   4.053   0.765  13.983 -1.7381  0.9983  1.8759
  723TMC3    H110691   4.185   1.124  13.794 -0.8720  1.4248 -1.2270
  723TMC3    H210692   3.883   0.871  13.616 -2.7698  1.5599  1.6100
  723TMC3    C710693   4.019   1.101  13.584 -1.4733 -0.2237  0.0956
  723TMC3    C810694   3.875   0.697  13.815 -0.8167  1.0234  0.3505
  723TMC3    O110695   4.007   1.061  13.469  0.1967 -0.0589 -0.0875
  723TMC3    O210696   3.832   0.673  13.928  0.0272 -0.6188 -0.1988
  724TMC3    C110697   0.037   3.214   9.657 -0.3375 -0.7250  0.3415
  724TMC3    C210698   0.045   3.266   9.788 -0.2831 -0.3009 -0.1775
  724TMC3    C310699   0.102   3.389   9.806  0.1216  0.0294  0.2370
  724TMC3    C410700   0.095   3.272   9.549  0.9727  0.1572 -0.6084
  724TMC3    C510701   0.167   3.379   9.573  0.4509  0.0985 -0.1183
  724TMC3    C610702   0.172   3.438   9.699 -0.2535  0.7679 -0.2085
  724TMC3     C10703   4.719   3.078   9.649 -0.2187 -0.3884 -0.2054
  724TMC3     O10704   4.720   3.009   9.750  0.3858  0.3063  0.0491
  724TMC3     H10705   0.001   3.214   9.872 -0.0560 -0.1138  0.0556
  724TMC3    H110706   0.131   3.207   9.469  1.2106  4.1867 -3.7941
  724TMC3    H210707   0.222   3.533   9.715 -0.4021  0.3161  2.7905
  724TMC3    C710708   0.252   3.437   9.474 -0.2955 -0.6373  0.2897
  724TMC3    C810709   0.133   3.432   9.944 -0.5728 -0.3162 -0.5804
  724TMC3    O110710   0.329   3.523   9.505  0.2641  0.0263 -0.1650
  724TMC3    O210711   0.106   3.355  10.035 -0.6484  0.3448 -0.2866
  725TMC3    C110712   1.325   2.557  13.157  0.8363 -0.6573  0.0413
  725TMC3    C210713   1.276   2.573  13.029 -0.4715 -0.2306  0.1245
  725TMC3    C310714   1.304   2.479  12.940  0.0477  0.0180 -0.5694
  725TMC3    C410715   1.406   2.450  13.194  0.8116  0.3778  0.0936
  725TMC3    C510716   1.422   2.358  13.099  0.3142 -0.4777  0.5391
  725TMC3    C610717   1.363   2.363  12.977 -0.6756  0.2919  0.2730
  725TMC3     C10718   1.325   2.673  13.245 -0.4579 -0.4169 -0.0847
  725TMC3     O10719   1.291   2.775  13.183  0.3476  0.0252  0.7441
  725TMC3     H10720   1.211   2.656  13.002  0.8914  1.4337  1.9280
  725TMC3    H110721   1.448   2.443  13.293  1.8329 -0.0947 -0.3702
  725TMC3    H210722   1.396   2.287  12.907 -2.0387 -0.8126  0.8278
  725TMC3    C710723   1.511   2.246  13.121  0.5650 -0.9275  0.4095
  725TMC3    C810724   1.259   2.484  12.801 -0.3307 -0.0158  0.6109
  725TMC3    O110725   1.485   2.146  13.051  0.0397  0.6003  0.2130
  725TMC3    O210726   1.259   2.379  12.739 -0.2020  0.0632 -0.9427
  726MPD2     C10727   3.876   4.096  10.628 -0.0949 -0.2371 -0.1231
  726MPD2    C110728   3.930   4.061  10.747 -0.1758  0.2814  0.1681
  726MPD2    C210729   3.838   4.018  10.845  0.5543 -0.9726 -0.0886
  726MPD2    C310730   3.705   4.016  10.819  0.7851 -0.0491  0.0176
  726MPD2    C410731   3.656   4.044  10.690  0.4087  0.0635  0.5821
  726MPD2    C510732   3.746   4.085  10.596 -1.0283  0.0085 -0.6874
  726MPD2     H10733   3.880   3.982  10.938 -1.0634 -1.0545  0.6205
  726MPD2    H110734   3.550   4.065  10.687  0.1150 -1.5465  0.0094
  726MPD2    H210735   3.939   4.139  10.551  0.7634 -0.4249  0.4710
  726MPD2    H310736   3.716   4.123  10.499  2.9601  0.2812 -1.8489
  726MPD2     N10737   3.609   3.991  10.917  0.1783  0.5965 -0.4216
  726MPD2    H510738   3.512   3.984  10.887 -0.4300  1.2405  1.3847
  726MPD2    N110739   4.069   4.065  10.771 -0.2651  1.2452  0.0484
  726MPD2    H710740   4.100   4.034  10.862 -0.5292  0.5107 -0.1103
  727TMC3    C110741   4.275   4.169  10.750 -0.0760  0.2527  0.2874
  727TMC3    C210742   4.317   4.292  10.713 -0.5438  0.1979  0.0101
  727TMC3    C310743   4.440   4.343  10.755 -0.1579 -0.1232  0.2891
  727TMC3    C410744   4.343   4.086  10.838 -0.8122  0.0595  0.4238
  727TMC3    C510745   4.464   4.133  10.878  0.2708 -0.5984  0.0120
  727TMC3    C610746   4.516   4.253  10.841 -0.1082  0.5566 -0.1839
  727TMC3     C10747   4.155   4.130  10.686 -0.1375 -0.4574 -0.5024
  727TMC3     O10748   4.157   4.144  10.564 -0.2725  0.6349  0.5907
  727TMC3     H10749   4.251   4.356  10.656 -0.9253 -1.0594 -0.9375
  727TMC3    H110750   4.292   4.000  10.879  0.1340 -0.0129  1.4318
  727TMC3    H210751   4.609   4.285  10.886 -0.8135  1.9445  0.3163
  727TMC3    C710752   4.528   4.059  10.984  0.6436 -0.1107  0.3011
  727TMC3    C810753   4.501   4.465  10.719 -0.1404 -0.1473  0.7885
  727TMC3    O110754   4.593   4.131  11.058 -0.4917 -0.1233  0.2241
  727TMC3    O210755   4.614   4.484  10.761  0.0958  0.0096 -0.3829
  728TMC3    C110756   3.585   2.466  15.670 -0.4501  0.2579 -0.0855
  728TMC3    C210757   3.700   2.542  15.673 -0.4107  0.3642  0.2324
  728TMC3    C310758   3.735   2.619  15.561 -0.4023 -0.0597  0.7574
  728TMC3    C410759   3.501   2.463  15.563  0.4793 -0.2344  0.1579
  728TMC3    C510760   3.534   2.541  15.454  0.0908 -0.1096  0.5004
  728TMC3    C610761   3.649   2.612  15.455 -0.3319  0.6181  0.5750
  728TMC3     C10762   3.529   2.436  15.805 -0.1959  0.3783 -0.4957
  728TMC3     O10763   3.608   2.450  15.896  0.3376  0.1930  0.0443
  728TMC3     H10764   3.769   2.534  15.757  0.6156 -1.3173 -0.7608
  728TMC3    H110765   3.412   2.402  15.559 -0.6662  1.4140  0.5038
  728TMC3    H210766   3.683   2.660  15.364 -1.1510 -1.0896 -0.6279
  728TMC3    C710767   3.417   2.602  15.391 -0.3311 -0.1221 -0.3716
  728TMC3    C810768   3.786   2.750  15.578  0.4449  0.2962  0.2410
  728TMC3    O110769   3.310   2.542  15.389  0.3601 -0.0835 -0.1376
  728TMC3    O210770   3.730   2.836  15.510  0.1928  0.6157 -0.2205
  729MPD2     C10771   0.994   3.546  17.086  0.0846 -0.5327 -0.4624
  729MPD2    C110772   1.117   3.523  17.144  0.1757  1.1546  0.4046
  729MPD2    C210773   1.119   3.502  17.276  0.5243 -0.4208  0.0421
  729MPD2    C310774   1.009   3.514  17.356 -0.3920  0.0357  0.1296
  729MPD2    C410775   0.890   3.542  17.300 -0.7871  0.7341  1.2353
  729MPD2    C510776   0.886   3.558  17.161 -0.3816 -0.5025  0.0881
  729MPD2     H10777   1.216   3.472  17.315  0.6072 -2.3773 -1.6714
  729MPD2    H110778   0.794   3.552  17.350 -1.4978 -0.0018 -0.0042
  729MPD2    H210779   0.982   3.574  16.982 -1.2050 -0.2916 -0.2549
  729MPD2    H310780   0.790   3.558  17.111 -1.1296  0.0908  1.5012
  729MPD2     N10781   1.012   3.506  17.497  0.1895  0.2085 -0.0261
  729MPD2    H510782   0.925   3.528  17.545 -0.9438 -0.6847 -1.6861
  729MPD2    N110783   1.238   3.542  17.064  0.4414 -0.7318  0.1315
  729MPD2    H710784   1.231   3.574  16.968  2.7228  0.6204  0.4014
  730TMC3    C110785   1.091   3.511   0.012 -0.4433 -0.6546  0.1298
  730TMC3    C210786   1.199   3.497   0.098 -0.0900 -0.8764  0.3214
  730TMC3    C310787   1.222   3.581   0.202 -0.3160 -0.3388 -0.6550
  730TMC3    C410788   1.018   3.627   0.025 -0.1155  0.0617  0.0602
  730TMC3    C510789   1.048   3.720   0.119  0.6459  0.4211 -0.3131
  730TMC3    C610790   1.152   3.702   0.207 -0.1934 -0.1193  0.2520
  730TMC3     C10791   1.117   3.471  17.576  0.0329 -0.4287  0.2785
  730TMC3     O10792   1.218   3.418  17.534 -0.6017  0.1184 -0.0100
  730TMC3     H10793   1.268   3.417   0.073  1.8133  0.3246  1.7560
  730TMC3    H110794   0.929   3.654  17.672 -0.1307  0.2244  0.1676
  730TMC3    H210795   1.182   3.780   0.276 -0.4873 -1.1947  1.5959
  730TMC3    C710796   1.030   3.855   0.080 -0.7458  0.0080 -0.4120
  730TMC3    C810797   1.355   3.571   0.262 -0.0696  0.6946 -0.9390
  730TMC3    O110798   1.007   3.868  17.662 -0.0287 -0.0498 -0.2966
  730TMC3    O210799   1.426   3.668   0.271 -0.5929 -0.0172 -0.1505
  731MPD2     C10800   1.442   2.078  12.097  0.3564  0.7117  0.0575
  731MPD2    C110801   1.354   1.999  12.041 -0.1717  0.3215  0.0336
  731MPD2    C210802   1.222   2.008  12.083 -0.0552  0.1542  0.2225
  731MPD2    C310803   1.185   2.110  12.172  0.0002  0.1882 -0.9537
  731MPD2    C410804   1.279   2.184  12.233 -0.2604 -0.2599 -0.2011
  731MPD2    C510805   1.410   2.169  12.191  0.7226  0.5221  0.0922
  731MPD2     H10806   1.141   1.945  12.051  0.5101 -0.0368 -0.8191
  731MPD2    H110807   1.268   2.256  12.313 -2.4794 -2.4752  1.4797
  731MPD2    H210808   1.546   2.080  12.069  0.4134 -0.5585  0.1749
  731MPD2    H310809   1.490   2.235  12.221 -0.0972  0.2283  2.8566
  731MPD2     N10810   1.052   2.120  12.204  0.4609  0.2412  0.1565
  731MPD2    H510811   0.985   2.058  12.161  0.1858  0.5750  0.0987
  731MPD2    N110812   1.402   1.899  11.955  0.1602 -0.4815 -0.1224
  731MPD2    H710813   1.499   1.904  11.928 -0.6799  1.0885 -2.8294
  732TMC3    C110814   1.409   1.701  11.829  0.1808 -0.6004  0.2093
  732TMC3    C210815   1.338   1.634  11.729  0.3114  0.0799  0.0704
  732TMC3    C310816   1.329   1.495  11.728 -0.1636 -0.3984 -0.0900
  732TMC3    C410817   1.469   1.625  11.927 -0.2651  0.0692 -0.2417
  732TMC3    C510818   1.478   1.494  11.908  0.1709  0.5625 -0.2801
  732TMC3    C610819   1.416   1.424  11.808 -0.1868 -0.2151 -1.0529
  732TMC3     C10820   1.328   1.792  11.902  0.5711  0.1447 -0.0670
  732TMC3     O10821   1.214   1.756  11.921 -0.1890  0.2384 -0.2959
  732TMC3     H10822   1.289   1.692  11.651  1.4695 -1.0881 -1.5114
  732TMC3    H110823   1.509   1.680  12.012  1.2683 -1.4778  0.0506
  732TMC3    H210824   1.421   1.316  11.805 -0.7692 -0.3081  1.3752
  732TMC3    C710825   1.453   1.417  12.032  0.1998  0.6348  0.8679
  732TMC3    C810826   1.194   1.447  11.731  1.1039 -0.5243  0.1377
  732TMC3    O110827   1.369   1.328  12.029 -0.1298  0.1004 -0.2377
  732TMC3    O210828   1.178   1.326  11.714 -0.2827 -0.2292 -1.3920
  733TMC3    C110829   2.343   0.312  13.362  0.0095  0.4672 -0.7059
  733TMC3    C210830   2.368   0.443  13.396  0.0200  0.1069  0.1543
  733TMC3    C310831   2.491   0.490  13.407 -1.1686 -0.2854 -0.5284
  733TMC3    C410832   2.448   0.228  13.340 -0.6713  0.1401  0.4732
  733TMC3    C510833   2.574   0.279  13.354  0.6314  0.3934 -0.8950
  733TMC3    C610834   2.599   0.408  13.385 -0.7526 -0.1935  0.5667
  733TMC3     C10835   2.221   0.305  13.283 -0.0937  0.9756 -0.1666
  733TMC3     O10836   2.208   0.391  13.197 -0.1085 -0.2772  0.2353
  733TMC3     H10837   2.282   0.508  13.405  2.4253  3.1185  1.2165
  733TMC3    H110838   2.427   0.123  13.327  1.2249 -0.0239 -1.1797
  733TMC3    H210839   2.697   0.453  13.397 -0.4841 -0.7087  0.3158
  733TMC3    C710840   2.650   0.224  13.247 -0.5193  0.1713  0.8329
  733TMC3    C810841   2.515   0.630  13.383 -0.0856 -0.0166  0.7608
  733TMC3    O110842   2.634   0.108  13.218  0.5771 -0.3384 -0.0603
  733TMC3    O210843   2.562   0.694  13.478 -0.0270 -0.4703  0.6355
  734MPD2     C10844   4.157   2.905  12.703 -0.4903  0.1725  0.1586
  734MPD2    C110845   4.045   2.908  12.624  0.3709  0.1808  0.2612
  734MPD2    C210846   4.050   2.925  12.486 -0.2684  0.6114  0.6373
  734MPD2    C310847   4.175   2.935  12.418  0.1605 -0.3387  0.2857
  734MPD2    C410848   4.289   2.936  12.500  0.2951 -0.7977  0.6549
  734MPD2    C510849   4.280   2.915  12.637  0.1263  0.4080  0.2997
  734MPD2     H10850   3.955   2.911  12.436 -0.9479  1.3510  1.7310
  734MPD2    H110851   4.386   2.948  12.452  0.3356  1.0900  1.2311
  734MPD2    H210852   4.166   2.893  12.810 -1.2809  1.7129  0.4066
  734MPD2    H310853   4.373   2.912  12.692 -0.2429  2.6710  1.0555
  734MPD2     N10854   4.171   2.945  12.280  0.4671  0.6365 -0.3724
  734MPD2    H510855   4.078   2.957  12.242  0.4744 -1.6087 -1.1035
  734MPD2    N110856   3.921   2.871  12.688 -0.3837  0.7361  0.2836
  734MPD2    H710857   3.928   2.845  12.786  2.3809  2.2637  0.5120
  735TMC3    C110858   3.705   2.793  12.706  0.0498  0.1851  0.1675
  735TMC3    C210859   3.577   2.820  12.657 -0.2114 -0.0777  0.7346
  735TMC3    C310860   3.492   2.719  12.623  0.2198 -0.3631  0.4299
  735TMC3    C410861   3.743   2.660  12.729 -0.3525 -0.5127  0.8623
  735TMC3    C510862   3.647   2.563  12.710  0.1827  0.1953  0.1042
  735TMC3    C610863   3.523   2.590  12.658  0.2379 -0.1908 -0.3095
  735TMC3     C10864   3.795   2.868  12.629  0.0740  0.0877 -0.6286
  735TMC3     O10865   3.755   2.881  12.513  0.5448  0.4219  0.1688
  735TMC3     H10866   3.542   2.921  12.642  2.1597  0.8866  1.6380
  735TMC3    H110867   3.843   2.642  12.766 -1.6107 -1.3805  3.7958
  735TMC3    H210868   3.454   2.517  12.616 -0.5365  0.8069 -0.7465
  735TMC3    C710869   3.692   2.421  12.723  0.5898  0.2758  0.1671
  735TMC3    C810870   3.446   2.716  12.485 -0.3628  0.0560  0.0605
  735TMC3    O110871   3.616   2.334  12.763  0.3135 -0.4260  0.3131
  735TMC3    O210872   3.347   2.661  12.444 -0.6637  0.1162 -0.1661
  736MPD2     C10873   3.864   2.163  12.763  0.5832 -0.0552 -0.1602
  736MPD2    C110874   3.891   2.273  12.687  0.1237  0.2896 -0.0359
  736MPD2    C210875   4.015   2.279  12.630  0.0047  0.1317  0.0222
  736MPD2    C310876   4.100   2.170  12.627 -0.1436 -0.3350  0.1585
  736MPD2    C410877   4.057   2.056  12.691 -0.3027  0.8849 -0.3194
  736MPD2    C510878   3.940   2.050  12.760  0.4478  0.5758 -0.1507
  736MPD2     H10879   4.029   2.374  12.581  0.6961  0.9809  1.9044
  736MPD2    H110880   4.120   1.968  12.690 -1.3234  0.1533  0.1607
  736MPD2    H210881   3.783   2.162  12.834 -0.2941 -2.0130 -1.1895
  736MPD2    H310882   3.921   1.958  12.814  2.5047 -0.7194 -1.5934
  736MPD2     N10883   4.225   2.167  12.558 -0.1295 -0.2259 -0.5020
  736MPD2    H510884   4.288   2.087  12.564 -0.3544 -0.4863 -1.5914
  736MPD2    N110885   3.815   2.393  12.675 -0.1728  0.5369 -0.5444
  736MPD2    H710886   3.869   2.473  12.642  0.2574  0.5615  0.2139
  737TMC3    C110887   4.368   2.213  12.372 -0.4493  0.4955  0.0104
  737TMC3    C210888   4.429   2.313  12.301  0.3066  0.5314  0.9058
  737TMC3    C310889   4.564   2.304  12.275 -0.0626 -0.3960 -0.1032
  737TMC3    C410890   4.434   2.103  12.414  0.0615 -0.1890 -0.9479
  737TMC3    C510891   4.564   2.090  12.370 -0.8279 -0.0747  0.6508
  737TMC3    C610892   4.637   2.190  12.309 -0.2923 -0.1291  0.4912
  737TMC3     C10893   4.246   2.247  12.443 -0.3377  0.6879 -0.2576
  737TMC3     O10894   4.178   2.339  12.400 -0.1089 -0.7927  0.5548
  737TMC3     H10895   4.373   2.406  12.295  0.8932  0.5910 -3.3115
  737TMC3    H110896   4.390   2.017  12.464  0.0116  1.3873  1.6929
  737TMC3    H210897   0.017   2.192  12.285 -0.2488  2.4182  0.8969
  737TMC3    C710898   4.609   1.949  12.360 -0.2094  0.1014 -0.4937
  737TMC3    C810899   4.636   2.402  12.188  0.2136 -0.3031 -0.5026
  737TMC3    O110900   4.567   1.868  12.445 -0.9133  0.1481  0.2106
  737TMC3    O210901   0.033   2.408  12.195 -0.5407  0.5800  0.0964
  738MPD2     C10902   0.077   1.380  16.072  0.3029 -0.0144 -0.1373
  738MPD2    C110903   0.105   1.284  15.979 -0.7619 -0.0355  0.2564
  738MPD2    C210904   0.198   1.308  15.881  0.3528 -0.1611  0.5943
  738MPD2    C310905   0.240   1.438  15.862  0.7933  0.0607 -0.6423
  738MPD2    C410906   0.211   1.538  15.948 -0.2012 -0.0576  0.6252
  738MPD2    C510907   0.141   1.501  16.061  0.1400  0.1422  0.0164
  738MPD2     H10908   0.236   1.233  15.813  1.2462  0.6042  0.2524
  738MPD2    H110909   0.242   1.642  15.941 -2.5707  0.6389  0.4446
  738MPD2    H210910   0.001   1.367  16.148  1.5049  0.5469  1.1355
  738MPD2    H310911   0.120   1.585  16.127  0.9350  0.2719  0.0953
  738MPD2     N10912   0.324   1.479  15.753 -0.1429 -0.2274 -1.2111
  738MPD2    H510913   0.353   1.576  15.747 -1.2695  0.1442 -0.6423
  738MPD2    N110914   0.046   1.158  15.977 -0.7929  0.2597 -1.0400
  738MPD2    H710915   0.069   1.093  15.902  1.4381 -0.9862  0.7159
  739TMC3    C110916   0.412   1.476  15.529  0.4585  0.2156 -0.4047
  739TMC3    C210917   0.413   1.417  15.403  0.5487 -0.4087 -0.5764
  739TMC3    C310918   0.496   1.470  15.304 -0.0772  0.0708  0.2672
  739TMC3    C410919   0.481   1.589  15.557  0.2497  0.4538  0.1333
  739TMC3    C510920   0.560   1.636  15.453 -0.5216 -0.6106 -0.1231
  739TMC3    C610921   0.559   1.586  15.324  0.1401 -0.4062  0.6484
  739TMC3     C10922   0.340   1.404  15.635  0.7646 -0.0309  0.0185
  739TMC3     O10923   0.304   1.289  15.607 -0.1321 -0.1414 -0.4800
  739TMC3     H10924   0.357   1.327  15.380  0.0204 -0.1577 -0.2907
  739TMC3    H110925   0.514   1.611  15.658  0.6243 -0.0327  0.1188
  739TMC3    H210926   0.608   1.640  15.245  0.9510 -2.3734 -0.2064
  739TMC3    C710927   0.621   1.766  15.461  0.6185  0.3827 -0.0687
  739TMC3    C810928   0.536   1.387  15.196 -0.6263  0.1129  0.3494
  739TMC3    O110929   0.714   1.788  15.385  0.0205  0.0162 -0.0740
  739TMC3    O210930   0.587   1.440  15.097  0.3708  0.5954 -0.2187
  740TMC3    C110931   0.873   2.720  14.495 -0.0386  0.3923 -0.0700
  740TMC3    C210932   0.954   2.668  14.603  0.2584 -0.0725 -0.1820
  740TMC3    C310933   1.045   2.567  14.584  0.9724 -0.0055  0.6303
  740TMC3    C410934   0.905   2.673  14.371 -0.7325 -0.1411  0.3916
  740TMC3    C510935   1.014   2.591  14.353 -0.7249 -0.1610  0.3424
  740TMC3    C610936   1.081   2.532  14.455  0.0800  0.1270  0.0543
  740TMC3     C10937   0.739   2.770  14.513 -0.0841 -0.1917  0.5282
  740TMC3     O10938   0.687   2.844  14.427  0.3651 -0.7961 -0.0832
  740TMC3     H10939   0.926   2.693  14.705 -0.0520  1.2632 -0.5888
  740TMC3    H110940   0.837   2.688  14.288 -1.0351 -1.7569  0.3518
  740TMC3    H210941   1.160   2.461  14.435  0.0760  0.3719 -0.8158
  740TMC3    C710942   1.063   2.562  14.219 -0.3347 -0.2398 -0.2994
  740TMC3    C810943   1.078   2.487  14.696  0.1567  0.0492 -0.3661
  740TMC3    O110944   1.139   2.470  14.214  0.3118 -0.4654 -0.4870
  740TMC3    O210945   0.995   2.477  14.786 -0.0349  0.4477  0.0719
  741TMC3    C110946   4.647   2.097  13.539  0.4944 -0.4127  0.5232
  741TMC3    C210947   4.566   2.028  13.627 -0.3051 -0.0426 -0.0861
  741TMC3    C310948   4.615   1.927  13.706  0.5524  0.4025 -0.2180
  741TMC3    C410949   0.056   2.088  13.568 -0.3036 -0.7024  0.0481
  741TMC3    C510950   0.103   2.004  13.664 -0.2809  1.0545  0.5452
  741TMC3    C610951   0.022   1.915  13.732 -0.3180 -0.2406  0.4983
  741TMC3     C10952   4.596   2.203  13.450  1.1578 -0.0936 -0.1483
  741TMC3     O10953   4.476   2.228  13.453 -0.0622  0.2582  0.2711
  741TMC3     H10954   4.459   2.040  13.616 -0.5332 -0.0270  2.0249
  741TMC3    H110955   0.125   2.155  13.518 -0.9718  0.8083  1.1671
  741TMC3    H210956   0.067   1.843  13.799  0.1694 -0.9126 -0.5444
  741TMC3    C710957   0.232   2.024  13.715 -0.2074 -0.1273 -0.3219
  741TMC3    C810958   4.519   1.865  13.793 -0.7883 -0.0297  0.1945
  741TMC3    O110959   0.315   2.039  13.629 -0.5947  0.3701  0.0362
  741TMC3    O210960   4.420   1.929  13.823 -0.2943  0.3848 -0.7077
  742TMC3    C110961   0.010   0.078  15.946  0.0539  0.1269 -0.5454
  742TMC3    C210962   4.649   0.109  15.847  0.0341 -0.3234  0.3414
  742TMC3    C310963   4.704   0.137  15.723 -0.8745  0.5327  0.4414
  742TMC3    C410964   0.145   0.113  15.943  0.2654 -0.1405  0.0851
  742TMC3    C510965   0.191   0.158  15.824  0.1703  0.2514 -0.2848
  742TMC3    C610966   0.112   0.165  15.716 -0.3058 -0.4943  0.8037
  742TMC3     C10967   4.676   0.074  16.077 -0.6859  0.5140 -0.7148
  742TMC3     O10968   4.581   0.150  16.100 -0.1448 -0.1063 -0.0052
  742TMC3     H10969   4.550   0.067  15.858 -0.8982  2.3237  1.9310
  742TMC3    H110970   0.214   0.089  16.024  0.5476  1.0353  0.1928
  742TMC3    H210971   0.160   0.181  15.620  0.2835 -0.7923  1.0452
  742TMC3    C710972   0.335   0.144  15.797  0.4274 -0.4771 -0.4186
  742TMC3    C810973   4.627   0.125  15.596  0.3288  0.9023  0.0904
  742TMC3    O110974   0.368   0.087  15.691 -0.9114 -0.0370 -0.6346
  742TMC3    O210975   4.696   0.109  15.492  0.0983 -0.6358 -0.5685
  743MPD2     C10976   4.066   0.346   1.883  0.0090  0.5400  0.5871
  743MPD2    C110977   3.974   0.378   1.785  0.4844  0.2247  0.4721
  743MPD2    C210978   4.017   0.416   1.661  0.0786 -0.9416  0.1624
  743MPD2    C310979   4.148   0.404   1.621 -0.2611  0.2260  0.5530
  743MPD2    C410980   4.241   0.355   1.716  0.1721  0.8950 -0.0556
  743MPD2    C510981   4.197   0.328   1.842  0.4446 -0.2363  0.5360
  743MPD2     H10982   3.939   0.442   1.589  0.8011 -1.1410 -0.6914
  743MPD2    H110983   4.346   0.348   1.691 -0.0584  2.3387 -1.4064
  743MPD2    H210984   4.043   0.321   1.986 -1.1450 -0.5827  0.0585
  743MPD2    H310985   4.272   0.294   1.912  1.1122 -1.0511 -0.5648
  743MPD2     N10986   4.176   0.443   1.491  0.2571 -0.5115 -0.4446
  743MPD2    H510987   4.100   0.461   1.426 -1.9368 -0.2353  2.1963
  743MPD2    N110988   3.833   0.392   1.809  0.1370 -0.0866  0.3305
  743MPD2    H710989   3.783   0.393   1.721  1.8069 -0.3181 -0.6225
  744TMC3    C110990   3.620   0.380   1.902  0.0485 -0.8500 -0.2367
  744TMC3    C210991   3.540   0.352   2.009 -0.1330 -0.8169 -0.4542
  744TMC3    C310992   3.411   0.405   2.013  0.0466  0.4718  0.3647
  744TMC3    C410993   3.572   0.438   1.789  0.8667  0.0054  0.7847
  744TMC3    C510994   3.439   0.479   1.795  0.3763  0.1445  0.2008
  744TMC3    C610995   3.360   0.476   1.904  0.4645  0.3840  0.6036
  744TMC3     C10996   3.766   0.370   1.925  0.4628 -0.7567  0.3937
  744TMC3     O10997   3.813   0.327   2.032 -0.2783 -0.0480  0.2811
  744TMC3     H10998   3.578   0.304   2.098 -2.4282 -2.4824 -0.3735
  744TMC3    H110999   3.627   0.452   1.697  0.1968 -3.3863 -0.1206
  744TMC3    H211000   3.255   0.501   1.907 -0.2242 -2.1038 -1.9641
  744TMC3    C711001   3.390   0.536   1.674  0.6828  0.2095 -0.1127
  744TMC3    C811002   3.325   0.384   2.130 -0.3940 -0.0271 -0.2928
  744TMC3    O111003   3.460   0.540   1.573  0.5981 -0.4512  0.1034
  744TMC3    O211004   3.229   0.461   2.134 -0.7105 -0.2951  0.4843
  745TMC3    C111005   1.088   0.115  13.910  0.7450  0.2893 -0.6061
  745TMC3    C211006   0.987   0.130  14.006 -0.2735  0.1541  0.0907
  745TMC3    C311007   0.859   0.095  13.965  0.3874 -0.3816  0.4618
  745TMC3    C411008   1.062   0.089  13.779 -0.5087  0.4855  0.0783
  745TMC3    C511009   0.930   0.071  13.745 -0.3510 -0.2268 -0.0588
  745TMC3    C611010   0.827   0.066  13.831  0.6173  0.1935  0.0021
  745TMC3     C11011   1.220   0.150  13.954 -0.8508  0.1459  1.0093
  745TMC3     O11012   1.318   0.107  13.897 -0.1834 -0.1233 -0.7870
  745TMC3     H11013   1.024   0.135  14.107 -0.1252  0.6559  0.0114
  745TMC3    H111014   1.150   0.080  13.716  0.1686 -1.4767  1.3353
  745TMC3    H211015   0.728   0.064  13.787  0.8141  1.9273 -0.5108
  745TMC3    C711016   0.886   0.123  13.612 -0.1426  0.3434  0.2425
  745TMC3    C811017   0.739   0.126  14.046  0.9947  0.9533 -0.2945
  745TMC3    O111018   0.826   0.031  13.550  0.2290  0.0428  0.1929
  745TMC3    O211019   0.632   0.127  13.986 -0.0347  0.4511 -0.8176
  746TMC3    C111020   3.070   2.061  11.188 -0.2017  0.2723  0.6601
  746TMC3    C211021   3.149   2.093  11.079  0.7606  0.0262 -0.1126
  746TMC3    C311022   3.160   1.998  10.978  0.4645  0.4150  0.6677
  746TMC3    C411023   2.992   1.954  11.191 -0.3528 -0.5257 -0.4967
  746TMC3    C511024   3.003   1.865  11.086 -0.0360  0.5897  0.2542
  746TMC3    C611025   3.093   1.874  10.976  0.5162  0.1286 -0.3317
  746TMC3     C11026   3.015   2.176  11.260  0.2544 -0.1309 -0.1282
  746TMC3     O11027   2.893   2.191  11.266 -0.5250 -0.5516  0.3563
  746TMC3     H11028   3.206   2.186  11.073  2.9010 -1.4110 -2.1115
  746TMC3    H111029   2.904   1.954  11.253  1.6252  0.5292  2.3142
  746TMC3    H211030   3.106   1.793  10.905  2.3124  1.5042 -1.5682
  746TMC3    C711031   2.901   1.760  11.067  0.1530 -0.4841  0.5321
  746TMC3    C811032   3.177   2.060  10.849  0.6774  0.4080  1.3803
  746TMC3    O111033   2.876   1.749  10.946  0.3899  0.1047 -0.5426
  746TMC3    O211034   3.208   2.177  10.848 -0.1795 -0.2821 -0.2194
  747TMC3    C111035   0.360   1.670  11.477  0.3780 -1.0151 -0.3662
  747TMC3    C211036   0.266   1.631  11.568 -0.1136  0.2422  0.2527
  747TMC3    C311037   0.286   1.671  11.698 -0.0293 -0.3642  0.5188
  747TMC3    C411038   0.478   1.738  11.507 -0.1650  0.0439  0.7630
  747TMC3    C511039   0.495   1.773  11.637 -0.5168 -0.4029 -0.0606
  747TMC3    C611040   0.393   1.750  11.730  0.3954  0.2273 -0.0184
  747TMC3     C11041   0.321   1.660  11.336  0.5075  0.0389  0.1988
  747TMC3     O11042   0.206   1.644  11.303  0.5910  0.4745 -0.3592
  747TMC3     H11043   0.168   1.597  11.538 -0.8416  1.2871  1.4330
  747TMC3    H111044   0.534   1.780  11.424 -1.6862 -1.6228 -1.1038
  747TMC3    H211045   0.428   1.770  11.831 -1.4380 -1.7796  1.0089
  747TMC3    C711046   0.624   1.834  11.670 -0.2517 -1.7355 -0.0637
  747TMC3    C811047   0.195   1.629  11.801 -0.4462  0.3022 -0.1172
  747TMC3    O111048   0.637   1.897  11.772  0.4600 -0.1987  0.3977
  747TMC3    O211049   0.120   1.528  11.784 -0.3540 -0.1135 -0.7576
  748MPD2     C11050   2.298   2.498   1.543  0.3779 -0.1052 -0.4452
  748MPD2    C111051   2.302   2.620   1.483 -0.1550  0.2035  0.1028
  748MPD2    C211052   2.420   2.697   1.493  0.4183  0.2739  0.6184
  748MPD2    C311053   2.538   2.641   1.545 -0.0697 -0.6009  0.2515
  748MPD2    C411054   2.528   2.517   1.606 -0.5404  0.2056  0.2694
  748MPD2    C511055   2.408   2.446   1.607  0.4635  0.1073 -0.5689
  748MPD2     H11056   2.423   2.799   1.460 -0.2477  1.2532  3.5354
  748MPD2    H111057   2.601   2.454   1.657  0.2005  0.7525 -0.1164
  748MPD2    H211058   2.210   2.435   1.534  1.1202 -0.6671 -3.8299
  748MPD2    H311059   2.396   2.355   1.665  1.1269 -0.7508 -1.7557
  748MPD2     N11060   2.656   2.721   1.545 -0.1420 -0.5936  0.0264
  748MPD2    H511061   2.648   2.820   1.524  0.8889  0.1569  3.1058
  748MPD2    N111062   2.180   2.672   1.432 -0.2677 -0.3204  0.0778
  748MPD2    H711063   2.103   2.613   1.459 -1.8798  2.0708  0.7097
  749TMC3    C111064   2.856   2.800   1.636 -0.4416  0.2015  0.2175
  749TMC3    C211065   2.941   2.779   1.741 -0.3309  0.0528  0.2284
  749TMC3    C311066   2.986   2.890   1.812  0.2531  0.2083  0.5735
  749TMC3    C411067   2.819   2.925   1.597 -0.1816  0.2706  0.3149
  749TMC3    C511068   2.877   3.030   1.662 -0.4824 -0.4770 -0.3271
  749TMC3    C611069   2.960   3.017   1.766  0.1002 -0.4095 -0.4502
  749TMC3     C11070   2.770   2.682   1.611 -1.2673  0.6853 -0.0666
  749TMC3     O11071   2.803   2.576   1.661 -0.0790  0.2602 -0.0639
  749TMC3     H11072   2.961   2.676   1.770  0.0733  0.3964  1.1372
  749TMC3    H111073   2.774   2.947   1.501  1.9303  0.4051 -0.6448
  749TMC3    H211074   2.996   3.104   1.819  0.1820 -1.4680  1.2624
  749TMC3    C711075   2.862   3.162   1.613  0.5174  0.7372  0.0678
  749TMC3    C811076   3.090   2.879   1.913  0.3537  0.1155  0.3234
  749TMC3    O111077   2.938   3.252   1.646  0.0942 -0.1582  0.2659
  749TMC3    O211078   3.117   2.971   1.990 -0.1879 -0.5692  0.0463
  750MPD2     C11079   3.154   3.813  11.984  0.4056  0.2324 -0.0834
  750MPD2    C111080   3.021   3.804  11.968  0.8614  0.0870  0.1483
  750MPD2    C211081   2.973   3.710  11.879 -0.7715  0.1829  0.2585
  750MPD2    C311082   3.062   3.628  11.806 -0.2840  0.2290 -0.4041
  750MPD2    C411083   3.200   3.649  11.815 -0.4482 -0.5251 -0.0317
  750MPD2    C511084   3.242   3.740  11.907  0.0656 -0.2668 -0.4323
  750MPD2     H11085   2.868   3.681  11.882 -0.6817 -0.0335  1.1320
  750MPD2    H111086   3.267   3.584  11.759 -0.8809 -0.1574 -0.9736
  750MPD2    H211087   3.192   3.883  12.057 -1.4765  2.1148 -0.9100
  750MPD2    H311088   3.347   3.753  11.929 -0.7648  2.7021  1.7164
  750MPD2     N11089   3.017   3.521  11.728  0.1650 -0.1570 -0.5301
  750MPD2    H511090   3.086   3.481  11.666  1.2825  2.6980 -1.1152
  750MPD2    N111091   2.936   3.886  12.044  0.8142  0.0738  0.9304
  750MPD2    H711092   2.973   3.955  12.109  0.4866  0.3568  0.8217
  751TMC3    C111093   2.884   3.362  11.621  0.0879  0.1289 -0.2440
  751TMC3    C211094   2.767   3.340  11.554 -0.3183  0.6990 -0.3319
  751TMC3    C311095   2.754   3.238  11.465  0.6149  0.4721  0.5027
  751TMC3    C411096   2.995   3.296  11.590 -0.3069  0.0205 -0.4393
  751TMC3    C511097   2.981   3.207  11.486 -0.4139  0.1861 -0.0288
  751TMC3    C611098   2.863   3.170  11.432 -0.6632  0.2344  0.0484
  751TMC3     C11099   2.887   3.479  11.707  0.1099 -0.4588 -0.3170
  751TMC3     O11100   2.785   3.515  11.762 -0.1318  0.5320  0.4665
  751TMC3     H11101   2.683   3.407  11.567 -0.3823 -0.0200  2.9585
  751TMC3    H111102   3.091   3.305  11.640 -0.4656  0.1042 -0.1548
  751TMC3    H211103   2.862   3.088  11.362 -0.2348  0.6371 -0.4352
  751TMC3    C711104   3.109   3.158  11.427 -0.6384  0.4975 -0.3307
  751TMC3    C811105   2.621   3.188  11.416 -0.2379  0.2518 -0.5347
  751TMC3    O111106   3.213   3.198  11.476 -0.1656 -0.0092  0.0010
  751TMC3    O211107   2.625   3.120  11.316 -0.9254  0.3704 -0.3445
  752TMC3    C111108   2.039   3.101   0.047 -0.1774  0.2355  0.6638
  752TMC3    C211109   1.906   3.057   0.033  0.2534  0.8398  0.6034
  752TMC3    C311110   1.849   2.999   0.143 -0.4866 -0.1798 -0.4170
  752TMC3    C411111   2.109   3.085   0.165 -0.2959  0.2654  0.1140
  752TMC3    C511112   2.041   3.036   0.273  0.0310  0.0419  0.0950
  752TMC3    C611113   1.918   2.985   0.265  0.5988 -0.1856 -0.2695
  752TMC3     C11114   2.094   3.199  17.656 -0.2405  0.6625  0.1018
  752TMC3     O11115   2.202   3.240  17.690 -0.3253 -0.2396  0.1805
  752TMC3     H11116   1.863   3.048  17.636  0.5696  0.9399  0.4558
  752TMC3    H111117   2.213   3.115   0.179  0.0278 -1.2420  0.9598
  752TMC3    H211118   1.883   2.944   0.359  0.1874 -0.1750 -0.4192
  752TMC3    C711119   2.110   3.007   0.395 -0.6155  0.9050 -0.2262
  752TMC3    C811120   1.710   2.960   0.129  0.0517 -0.4359 -0.0614
  752TMC3    O111121   2.111   2.886   0.424  0.1232 -0.0803 -0.3353
  752TMC3    O211122   1.647   3.005   0.030 -0.2185 -0.3666 -0.2815
  753TMC3    C111123   3.945   0.350  14.010 -0.2646  1.0304  0.4382
  753TMC3    C211124   3.916   0.332  14.143  0.3482  0.2990  0.5860
  753TMC3    C311125   3.814   0.251  14.171 -0.4031 -0.4787  0.1630
  753TMC3    C411126   3.875   0.287  13.912 -1.1234 -0.4116  0.7386
  753TMC3    C511127   3.764   0.212  13.938 -0.0925 -0.5298  0.8358
  753TMC3    C611128   3.734   0.192  14.077 -0.2323  0.1613 -0.4035
  753TMC3     C11129   4.056   0.447  13.981 -0.5324 -0.0910  0.1381
  753TMC3     O11130   4.101   0.510  14.077 -0.3380 -0.1027 -0.4486
  753TMC3     H11131   3.988   0.362  14.218 -1.3001  1.7652  1.5834
  753TMC3    H111132   3.902   0.303  13.808  0.1598  1.1181  1.3086
  753TMC3    H211133   3.652   0.126  14.105 -0.9467  0.9919 -0.5057
  753TMC3    C711134   3.700   0.139  13.828  0.7442 -0.2688 -0.4835
  753TMC3    C811135   3.785   0.239  14.310 -0.9199 -0.2884 -0.3889
  753TMC3    O111136   3.751   0.134  13.715 -0.0585  0.5944  0.2312
  753TMC3    O211137   3.712   0.146  14.341  0.2874 -0.0770  0.2673
  754MPD2     C11138   1.558   3.080  12.849 -0.3390 -0.0109 -0.7463
  754MPD2    C111139   1.652   3.109  12.944  0.4443 -0.0132 -0.0512
  754MPD2    C211140   1.655   3.239  12.999  0.2066  0.1767 -0.1521
  754MPD2    C311141   1.547   3.328  12.979  0.3321 -0.1967  0.3047
  754MPD2    C411142   1.447   3.293  12.886  0.0578 -0.4463  0.3950
  754MPD2    C511143   1.462   3.174  12.817 -0.4567  0.5803  0.2970
  754MPD2     H11144   1.729   3.264  13.074  0.9968  1.0502 -1.2228
  754MPD2    H111145   1.366   3.361  12.863  1.3317  1.2525  0.9444
  754MPD2    H211146   1.552   2.980  12.805 -0.7155  0.1624 -1.0912
  754MPD2    H311147   1.393   3.164  12.734 -0.3682  1.8464  0.0787
  754MPD2     N11148   1.528   3.443  13.056 -0.4863 -0.0462  0.1958
  754MPD2    H511149   1.431   3.462  13.082 -0.6800 -2.4251  1.2316
  754MPD2    N111150   1.721   3.000  12.991  0.3365 -0.3727 -0.2483
  754MPD2    H711151   1.705   2.917  12.936 -1.3642  1.4517 -2.4861
  755MPD2     C11152   2.007   3.639  14.012  0.5018 -0.1656 -0.3444
  755MPD2    C111153   1.924   3.724  13.943  1.0487 -0.1361 -0.5342
  755MPD2    C211154   1.856   3.687  13.831  0.8297 -0.0390  0.2534
  755MPD2    C311155   1.864   3.551  13.789 -0.2723  0.0526  0.1891
  755MPD2    C411156   1.949   3.461  13.860  0.5431  0.3026 -0.1893
  755MPD2    C511157   2.014   3.508  13.977 -0.2058 -0.5929 -0.4903
  755MPD2     H11158   1.789   3.753  13.777 -0.0150 -0.3301  0.9392
  755MPD2    H111159   1.950   3.357  13.830  1.2593  0.5550 -1.0277
  755MPD2    H211160   2.076   3.679  14.085 -2.6906  1.0778  2.0102
  755MPD2    H311161   2.064   3.434  14.038 -0.8202 -1.3425 -0.9017
  755MPD2     N11162   1.783   3.498  13.683 -0.1665  0.3437 -0.0097
  755MPD2    H511163   1.796   3.398  13.677 -2.6388  0.1302 -1.5156
  755MPD2    N111164   1.910   3.856  13.987  0.9346 -0.2250 -0.0555
  755MPD2    H711165   1.861   3.917  13.922 -0.1012 -0.2563  0.6951
  756MPD2     C11166   1.975   3.544  10.382  0.0136  0.0393  0.2730
  756MPD2    C111167   2.091   3.621  10.377 -0.1082 -0.3741 -0.3084
  756MPD2    C211168   2.183   3.597  10.281  0.2819  0.6717  0.2134
  756MPD2    C311169   2.166   3.494  10.185 -0.4746 -0.1261  0.6976
  756MPD2    C411170   2.054   3.412  10.195  0.4731  0.5476 -0.0839
  756MPD2    C511171   1.959   3.437  10.293 -0.3514  0.1075  0.5812
  756MPD2     H11172   2.278   3.648  10.278  0.0532  1.0108 -1.3046
  756MPD2    H111173   2.038   3.334  10.121 -1.3297 -1.0527  1.9845
  756MPD2    H211174   1.890   3.570  10.443 -0.8729 -1.8948 -0.1394
  756MPD2    H311175   1.873   3.371  10.296 -0.3048  0.0650  1.0801
  756MPD2     N11176   2.270   3.471  10.096 -0.1246 -0.5384  0.3699
  756MPD2    H511177   2.357   3.519  10.115  1.6126 -2.9334 -1.4931
  756MPD2    N111178   2.109   3.728  10.466  0.2002  0.2856 -0.2188
  756MPD2    H711179   2.200   3.773  10.465  1.6316 -2.5860  0.7453
  757MPD2     C11180   2.455   2.651   9.530 -0.2049 -1.5128 -0.4561
  757MPD2    C111181   2.346   2.690   9.612 -0.1177 -0.1855 -0.2216
  757MPD2    C211182   2.352   2.819   9.669  0.5250 -0.4964 -0.2157
  757MPD2    C311183   2.467   2.896   9.650  0.3544  0.2892  0.3691
  757MPD2    C411184   2.574   2.847   9.569  0.1458 -0.1490  0.0981
  757MPD2    C511185   2.565   2.723   9.514 -0.3917 -0.5741 -0.5655
  757MPD2     H11186   2.272   2.856   9.732  0.0022 -0.4498 -0.9076
  757MPD2    H111187   2.664   2.899   9.537 -0.0121 -0.5929 -1.0746
  757MPD2    H211188   2.444   2.564   9.466  0.6464 -2.0402  0.1218
  757MPD2    H311189   2.641   2.682   9.449  1.2770 -1.2175  1.7926
  757MPD2     N11190   2.465   3.013   9.725 -0.0684  0.7299  0.7591
  757MPD2    H511191   2.376   3.045   9.763 -1.0217 -0.8649 -0.1139
  757MPD2    N111192   2.227   2.606   9.623  0.0946  0.4038  0.4036
  757MPD2    H711193   2.230   2.508   9.596  0.7586  0.4283  0.3708
  758MPD2     C11194   2.596   3.018  16.393 -0.0753  0.2847 -0.9577
  758MPD2    C111195   2.651   3.107  16.479  0.2437 -0.3952  0.1009
  758MPD2    C211196   2.570   3.159  16.582  0.3429  0.0254 -0.4500
  758MPD2    C311197   2.442   3.116  16.600  0.0789 -0.2717  0.6660
  758MPD2    C411198   2.394   3.027  16.513 -0.2032 -0.3288 -0.2072
  758MPD2    C511199   2.467   2.979  16.407  0.3564 -0.0894 -0.3546
  758MPD2     H11200   2.620   3.224  16.653 -2.0163  1.0613  0.2611
  758MPD2    H111201   2.290   2.994  16.517 -0.9313  2.0221  0.4823
  758MPD2    H211202   2.650   2.968  16.313  0.5727  2.0690 -1.6394
  758MPD2    H311203   2.418   2.916  16.334 -1.0563  0.5720  0.0139
  758MPD2     N11204   2.363   3.168  16.707 -0.1240  0.3715  0.3841
  758MPD2    H511205   2.271   3.126  16.715  0.1331 -0.4479 -0.9075
  758MPD2    N111206   2.788   3.134  16.466  0.5968 -0.0462 -0.0408
  758MPD2    H711207   2.842   3.082  16.398 -0.8628 -0.4522 -0.8685
  759MPD2     C11208   1.339   1.475  10.778 -0.2458 -1.0026 -0.0366
  759MPD2    C111209   1.437   1.391  10.733 -0.9732 -0.0518  0.0261
  759MPD2    C211210   1.512   1.435  10.628  0.0265 -0.5387  0.0896
  759MPD2    C311211   1.474   1.533  10.543 -0.5787 -0.0437 -0.4673
  759MPD2    C411212   1.374   1.613  10.588 -0.4569  0.1816 -0.2831
  759MPD2    C511213   1.301   1.578  10.703 -0.2587 -0.3078 -0.2218
  759MPD2     H11214   1.595   1.373  10.594  0.6759  0.0015  0.6993
  759MPD2    H111215   1.337   1.701  10.535  2.5478  1.2712 -0.5999
  759MPD2    H211216   1.284   1.450  10.868 -0.3625 -0.2622  0.0932
  759MPD2    H311217   1.215   1.637  10.730 -0.8916 -1.4915  0.3444
  759MPD2     N11218   1.520   1.545  10.413  0.3556  0.0524 -0.2138
  759MPD2    H511219   1.591   1.479  10.380 -0.0377 -1.1681  1.3714
  759MPD2    N111220   1.456   1.260  10.788  0.7303 -0.1112  0.3614
  759MPD2    H711221   1.542   1.216  10.759  1.0706  1.4577 -1.0086
  760MPD2     C11222   1.096   3.710  12.079  0.8827  0.2034 -0.1461
  760MPD2    C111223   1.232   3.715  12.094 -0.4596 -0.3694 -0.3668
  760MPD2    C211224   1.303   3.597  12.123  0.6841  0.3056 -0.4077
  760MPD2    C311225   1.241   3.478  12.153  0.2493 -0.2085 -0.9423
  760MPD2    C411226   1.104   3.478  12.140  0.0324 -0.2762  0.6856
  760MPD2    C511227   1.033   3.592  12.102 -0.2470  0.7687  0.0805
  760MPD2     H11228   1.411   3.605  12.124  0.6335  0.7888  1.7441
  760MPD2    H111229   1.052   3.384  12.150  0.6097 -0.6423  0.2352
  760MPD2    H211230   1.043   3.800  12.050 -0.6900 -1.0896 -1.2250
  760MPD2    H311231   0.926   3.575  12.099 -0.3094  1.1792  0.0371
  760MPD2     N11232   1.321   3.361  12.179 -0.2241  0.1523  0.2995
  760MPD2    H511233   1.272   3.281  12.218 -2.4083  0.7879 -1.1578
  760MPD2    N111234   1.304   3.836  12.066 -0.0074 -0.3503  0.3754
  760MPD2    H711235   1.403   3.845  12.088  0.1398  0.7790 -0.7352
  761MPD2     C11236   2.133   3.023  11.466  0.0769  0.5129  0.7066
  761MPD2    C111237   2.240   2.970  11.405 -0.3971 -0.4792  0.0212
  761MPD2    C211238   2.365   3.036  11.410 -0.0639 -0.4873 -0.2179
  761MPD2    C311239   2.387   3.143  11.490  0.2558  0.8729  0.3266
  761MPD2    C411240   2.278   3.190  11.564 -0.0929  0.1831  0.3910
  761MPD2    C511241   2.159   3.132  11.548 -0.1518 -0.3249 -0.5935
  761MPD2     H11242   2.446   2.993  11.352  0.9697 -0.3396  1.1239
  761MPD2    H111243   2.292   3.281  11.620 -2.0564  0.0304  1.1464
  761MPD2    H211244   2.039   2.970  11.465 -0.9904  2.4081  0.1734
  761MPD2    H311245   2.073   3.162  11.607  0.6609  1.4607 -0.3454
  761MPD2     N11246   2.512   3.216  11.500  0.4073 -0.2297 -0.0283
  761MPD2    H511247   2.513   3.288  11.572 -0.1370  0.1475 -0.3932
  761MPD2    N111248   2.213   2.862  11.322  0.3690  0.3706  0.4860
  761MPD2    H711249   2.114   2.843  11.312  1.2760 -4.4069  0.6061
  762MPD2     C11250   2.482   3.034  10.663  0.0274  0.7954  0.9073
  762MPD2    C111251   2.495   2.899  10.685 -0.7472  0.5017 -0.1351
  762MPD2    C211252   2.608   2.826  10.640  0.0412  0.1886  0.1462
  762MPD2    C311253   2.708   2.888  10.571  0.1372 -0.3141  1.1195
  762MPD2    C411254   2.700   3.023  10.545 -0.1992  0.0490  0.1247
  762MPD2    C511255   2.585   3.089  10.586 -0.8046 -0.0686 -0.0837
  762MPD2     H11256   2.608   2.718  10.640  1.3196  0.1812  2.2080
  762MPD2    H111257   2.763   3.080  10.478 -1.1023 -0.0643 -0.8267
  762MPD2    H211258   2.404   3.098  10.703 -2.6023 -1.1650 -1.0169
  762MPD2    H311259   2.581   3.197  10.579 -3.2655 -0.0822  1.1953
  762MPD2     N11260   2.821   2.812  10.534 -0.3319 -0.2144 -0.1421
  762MPD2    H511261   2.823   2.715  10.565 -2.4025 -0.0845  0.4132
  762MPD2    N111262   2.397   2.837  10.760 -0.2448 -0.4000  0.2771
  762MPD2    H711263   2.317   2.889  10.794 -0.3125 -0.6625  0.5119
  763MPD2     C11264   4.567   3.201  16.587  0.2483 -0.9557 -0.7799
  763MPD2    C111265   4.490   3.282  16.510  0.2747  0.9498  0.2784
  763MPD2    C211266   4.471   3.413  16.564 -0.0043  0.3516 -0.5330
  763MPD2    C311267   4.552   3.453  16.668  0.3849 -0.3063  0.2603
  763MPD2    C411268   4.642   3.376  16.726  0.2211  0.3887 -0.5481
  763MPD2    C511269   4.657   3.244  16.683  0.1765 -0.1340  0.5498
  763MPD2     H11270   4.407   3.481  16.508 -1.3187 -0.2282  0.2554
  763MPD2    H111271   4.696   3.410  16.814 -0.0290  0.2183 -0.3300
  763MPD2    H211272   4.559   3.093  16.577 -2.5503 -0.6379 -1.6667
  763MPD2    H311273   4.691   3.163  16.747 -1.7886  0.2320  2.0710
  763MPD2     N11274   4.562   3.585  16.722  0.5060 -0.3119 -0.2238
  763MPD2    H511275   4.632   3.607  16.791  0.5507 -0.5981 -0.1784
  763MPD2    N111276   4.428   3.246  16.388 -0.2435  0.1672  0.0592
  763MPD2    H711277   4.370   3.310  16.334 -2.6774 -2.3745 -0.3445
  764MPD2     C11278   3.003   4.630  17.476  0.4399 -0.8589  0.4729
  764MPD2    C111279   2.921   4.519  17.461  0.2757  0.5312  0.3839
  764MPD2    C211280   2.934   4.423  17.554 -0.6904  0.3037  0.4805
  764MPD2    C311281   3.011   4.451  17.670 -0.9467 -0.7841 -0.1550
  764MPD2    C411282   3.103   4.555  17.676 -0.0462  0.2676 -0.4259
  764MPD2    C511283   3.101   4.647  17.572 -0.1448  0.4907  0.0128
  764MPD2     H11284   2.881   4.330  17.539  3.5589 -2.0944  0.4336
  764MPD2    H111285   3.177   4.564   0.052 -0.3064  1.6429 -0.3407
  764MPD2    H211286   2.991   4.719  17.415  0.3902 -1.6898 -0.7306
  764MPD2    H311287   3.174   0.001  17.561 -0.7848  1.5939  3.6053
  764MPD2     N11288   3.003   4.356   0.080  0.4267 -0.1918 -0.3619
  764MPD2    H511289   2.932   4.284   0.071  1.0507 -0.8469 -0.0703
  764MPD2    N111290   2.828   4.496  17.352 -0.1218  0.6066 -0.2548
  764MPD2    H711291   2.771   4.414  17.369  1.3582 -0.3086  0.2421
  765MPD2     C11292   2.024   2.160  16.351  0.8479  0.1594 -0.2101
  765MPD2    C111293   2.099   2.266  16.318 -0.4763 -0.5441 -0.3042
  765MPD2    C211294   2.226   2.244  16.269  0.5465 -0.4883  0.0732
  765MPD2    C311295   2.280   2.117  16.254 -0.2389  0.2071  0.0482
  765MPD2    C411296   2.201   2.011  16.298 -0.5156  0.1268 -0.5886
  765MPD2    C511297   2.072   2.033  16.340 -0.9686  0.2054 -0.2093
  765MPD2     H11298   2.278   2.317  16.208 -0.4911  1.0060  0.9730
  765MPD2    H111299   2.242   1.913  16.279  0.1161  0.0673  1.0956
  765MPD2    H211300   1.924   2.174  16.391  1.1216 -0.8213  0.8435
  765MPD2    H311301   2.001   1.958  16.374 -0.0957  0.2081  1.6427
  765MPD2     N11302   2.412   2.110  16.203 -0.2191 -0.8178  0.4235
  765MPD2    H511303   2.466   2.195  16.197 -2.0533  0.2980 -0.1554
  765MPD2    N111304   2.044   2.397  16.308  0.2224 -0.4808  0.0548
  765MPD2    H711305   1.944   2.409  16.322 -0.0052 -1.5695 -0.6363
  766MPD2     C11306   1.631   2.664  15.784 -0.3211  0.3861  0.1723
  766MPD2    C111307   1.766   2.658  15.804 -0.0745 -0.4876  0.0111
  766MPD2    C211308   1.856   2.651  15.694 -0.0581  0.7469  0.3388
  766MPD2    C311309   1.807   2.655  15.567  0.0516 -0.2788 -0.1600
  766MPD2    C411310   1.673   2.669  15.547 -0.3609  0.2805 -0.4824
  766MPD2    C511311   1.590   2.658  15.655 -0.0644  0.6901  0.4421
  766MPD2     H11312   1.962   2.660  15.714 -0.3693 -0.3238  2.3980
  766MPD2    H111313   1.617   2.676  15.455  0.5985  0.2472 -1.0627
  766MPD2    H211314   1.553   2.657  15.859 -0.4653  0.9722  0.0748
  766MPD2    H311315   1.482   2.662  15.648  0.0526 -1.6190 -2.4921
  766MPD2     N11316   1.884   2.666  15.456 -0.3615  0.0012  0.0771
  766MPD2    H511317   1.843   2.701  15.370  0.2856  1.5509  0.3896
  766MPD2    N111318   1.815   2.669  15.939  0.2224 -0.1240 -0.0694
  766MPD2    H711319   1.916   2.672  15.949  0.2826 -2.7513 -0.0145
  767MPD2     C11320   1.506   2.934  15.459 -0.1649 -0.0251 -0.5512
  767MPD2    C111321   1.622   2.957  15.388  0.2958  0.8997  0.0068
  767MPD2    C211322   1.624   2.902  15.260  0.6602  0.6767  0.3492
  767MPD2    C311323   1.515   2.834  15.208  0.3382 -0.0227 -0.0712
  767MPD2    C411324   1.392   2.833  15.277 -0.0123 -0.4738  0.5376
  767MPD2    C511325   1.394   2.877  15.404 -0.0518  0.4722  0.6579
  767MPD2     H11326   1.717   2.910  15.206  0.0159  0.5413 -0.7993
  767MPD2    H111327   1.297   2.790  15.249  0.0430 -1.0652  1.2694
  767MPD2    H211328   1.511   2.978  15.558  1.1931 -0.7760 -0.2930
  767MPD2    H311329   1.305   2.879  15.465 -1.5537 -0.2829 -1.4993
  767MPD2     N11330   1.530   2.767  15.083  0.6921  0.2418  0.1277
  767MPD2    H511331   1.624   2.766  15.044  0.6599  1.3197  0.0430
  767MPD2    N111332   1.729   3.023  15.448  0.1856 -0.0864 -0.5848
  767MPD2    H711333   1.714   3.062  15.540  0.3919  0.5920 -0.8317
  768MPD2     C11334   3.093   1.592  10.532  0.4874  0.1556  0.3118
  768MPD2    C111335   3.014   1.549  10.635 -0.4250 -0.0855  0.3537
  768MPD2    C211336   3.067   1.545  10.761  0.2491 -0.2329  0.2312
  768MPD2    C311337   3.200   1.579  10.780  0.2560 -0.0286  0.5253
  768MPD2    C411338   3.277   1.632  10.681  0.2872  0.5842 -0.7851
  768MPD2    C511339   3.219   1.647  10.555 -0.1950  0.0402 -0.5864
  768MPD2     H11340   2.998   1.511  10.837  1.0062 -0.3413  0.8754
  768MPD2    H111341   3.379   1.661  10.702 -0.3286  0.8203  1.8096
  768MPD2    H211342   3.049   1.612  10.435 -0.6005 -2.2915  0.3024
  768MPD2    H311343   3.272   1.693  10.472  0.7238 -1.5363 -0.8941
  768MPD2     N11344   3.255   1.568  10.914 -0.4012  0.3139  0.7638
  768MPD2    H511345   3.344   1.612  10.936 -0.1989 -0.5126  1.6112
  768MPD2    N111346   2.883   1.493  10.613  0.0956 -0.2355 -0.3753
  768MPD2    H711347   2.835   1.456  10.694  1.1633 -0.0500  0.3560
  769MPD2     C11348   2.750   4.612  15.315  0.9292  0.1600  0.7556
  769MPD2    C111349   2.783   4.506  15.394  0.5132 -0.1451  0.4252
  769MPD2    C211350   2.827   4.531  15.521 -0.6410  0.2655 -1.0637
  769MPD2    C311351   2.872   4.654  15.555 -0.8297  0.4116 -0.0449
  769MPD2    C411352   2.845   0.037  15.468 -0.4208  0.3103 -0.8035
  769MPD2    C511353   2.774   0.017  15.353 -0.3796 -0.3264 -0.3329
  769MPD2     H11354   2.859   4.451  15.587 -1.5109  1.3813  0.7058
  769MPD2    H111355   2.885   0.135  15.489  1.0714 -0.5957  0.6342
  769MPD2    H211356   2.711   4.586  15.217  0.3876 -0.0435  1.0232
  769MPD2    H311357   2.753   0.093  15.279  0.9227  1.0915  0.7725
  769MPD2     N11358   2.957   4.662  15.664  0.7791 -0.3566 -0.8526
  769MPD2    H511359   2.963   4.573  15.713  0.4684  0.4570  0.6373
  769MPD2    N111360   2.744   4.373  15.347 -0.0572  0.2258 -0.1674
  769MPD2    H711361   2.704   4.363  15.254 -0.5777 -0.2563  0.1126
  770MPD2     C11362   2.784   3.341  15.759  0.0695 -0.0611  0.0377
  770MPD2    C111363   2.862   3.348  15.641  0.5118 -0.5266 -0.2458
  770MPD2    C211364   2.858   3.454  15.549  0.8324 -0.4607  0.2502
  770MPD2    C311365   2.783   3.563  15.583  0.2698 -0.8472 -0.6977
  770MPD2    C411366   2.716   3.561  15.703  0.7259  0.3659  0.0055
  770MPD2    C511367   2.715   3.456  15.782  0.5053  0.6188  0.3528
  770MPD2     H11368   2.918   3.446  15.459  3.2827 -1.6593  1.9759
  770MPD2    H111369   2.645   3.637  15.733 -1.1988 -0.7177 -1.8146
  770MPD2    H211370   2.803   3.262  15.830 -3.2722 -0.4047  0.5463
  770MPD2    H311371   2.648   3.458  15.867  0.9691  3.1657  0.6623
  770MPD2     N11372   2.780   3.673  15.500 -0.1637 -0.0173  0.3695
  770MPD2    H511373   2.837   3.662  15.417 -2.1189 -1.0691 -0.8240
  770MPD2    N111374   2.936   3.232  15.611  0.1325 -0.0810  0.1418
  770MPD2    H711375   2.913   3.144  15.657 -1.1558  0.5380  0.6668
  771MPD2     C11376   4.345   2.269  14.355 -0.0055  0.2295  0.1348
  771MPD2    C111377   4.285   2.363  14.272 -0.3391 -0.2378  0.9280
  771MPD2    C211378   4.202   2.315  14.168  0.2223  0.0775  0.0659
  771MPD2    C311379   4.189   2.179  14.136  0.3500 -0.3099  0.1981
  771MPD2    C411380   4.267   2.089  14.213  0.0255 -0.1168 -0.4968
  771MPD2    C511381   4.335   2.136  14.319 -0.1412 -0.9132 -0.2454
  771MPD2     H11382   4.145   2.387  14.112  1.8619  2.8411  1.9116
  771MPD2    H111383   4.272   1.982  14.200  0.5156 -0.2608  0.9752
  771MPD2    H211384   4.402   2.307  14.440  0.4679 -0.5537  0.1627
  771MPD2    H311385   4.385   2.064  14.384  0.8224  1.1489  1.3283
  771MPD2     N11386   4.118   2.136  14.021 -0.6150 -0.0121 -0.1416
  771MPD2    H511387   4.063   2.204  13.970 -0.2592 -0.2561 -0.8587
  771MPD2    N111388   4.297   2.502  14.298 -0.8615  0.2122  0.2137
  771MPD2    H711389   4.247   2.558  14.230 -1.7707 -2.7925 -1.6021
  772MPD2     C11390   3.920   3.107  14.099 -0.3529  0.4349  0.8140
  772MPD2    C111391   3.923   3.010  14.204 -0.2719 -0.5561  0.3442
  772MPD2    C211392   3.798   2.969  14.252 -0.0898 -0.2869  0.0619
  772MPD2    C311393   3.678   3.021  14.199 -0.5307  0.0186  0.5370
  772MPD2    C411394   3.681   3.110  14.100 -0.0881 -0.4234 -0.3022
  772MPD2    C511395   3.801   3.162  14.055 -0.1539 -0.1441 -0.0788
  772MPD2     H11396   3.792   2.885  14.320  0.8020  0.2182  0.7660
  772MPD2    H111397   3.589   3.148  14.057 -0.5114 -2.2426 -0.9759
  772MPD2    H211398   4.011   3.160  14.073 -0.3879  0.3630  0.5490
  772MPD2    H311399   3.801   3.241  13.981  1.3344 -0.5793 -0.5238
  772MPD2     N11400   3.550   2.971  14.236  0.1420  0.9101  0.4849
  772MPD2    H511401   3.478   2.993  14.168  0.7241 -0.6096 -0.6416
  772MPD2    N111402   4.038   2.951  14.261  0.0462  0.6429  0.0568
  772MPD2    H711403   4.025   2.887  14.339  0.0815  2.6489  1.7209
  773MPD2     C11404   3.315   3.459   0.615  0.0493  0.1502  0.1909
  773MPD2    C111405   3.242   3.353   0.570  0.4243 -0.1727 -0.2867
  773MPD2    C211406   3.254   3.230   0.634  1.1097  0.5473  0.0745
  773MPD2    C311407   3.343   3.205   0.741  0.1529 -0.0390  0.6421
  773MPD2    C411408   3.409   3.316   0.792 -1.1230  1.1205 -0.6281
  773MPD2    C511409   3.393   3.440   0.730  0.1788 -0.3241  0.2829
  773MPD2     H11410   3.195   3.146   0.599 -0.9423  1.0779  2.2523
  773MPD2    H111411   3.474   3.308   0.878  1.3486  1.6106 -2.4464
  773MPD2    H211412   3.313   3.556   0.566  2.1286  1.5467  2.8945
  773MPD2    H311413   3.437   3.533   0.762  2.5991 -1.8442  1.3780
  773MPD2     N11414   3.356   3.068   0.781 -0.1848 -0.3204 -0.3773
  773MPD2    H511415   3.301   2.996   0.735  2.1311 -1.1994 -1.7828
  773MPD2    N111416   3.157   3.364   0.454 -0.6572 -0.1799  0.4264
  773MPD2    H711417   3.099   3.281   0.447  0.4609 -1.0184  1.0846
  774MPD2     C11418   1.717   2.468  13.814 -0.0650 -0.0278 -0.1865
  774MPD2    C111419   1.857   2.482  13.785 -0.1660  0.0733  0.2101
  774MPD2    C211420   1.894   2.527  13.659  0.3324 -0.0460  0.3840
  774MPD2    C311421   1.796   2.547  13.558  0.1936 -0.3420  0.2711
  774MPD2    C411422   1.665   2.518  13.583 -0.0300 -0.2415 -0.1573
  774MPD2    C511423   1.630   2.492  13.708  0.0137 -0.8515 -0.2831
  774MPD2     H11424   1.997   2.549  13.631  0.1323 -0.5894 -0.7738
  774MPD2    H111425   1.591   2.529  13.504  1.1283  1.6776 -0.9954
  774MPD2    H211426   1.670   2.456  13.912  0.3489 -2.6717 -0.3198
  774MPD2    H311427   1.523   2.491  13.722  0.3177 -2.5051  1.9109
  774MPD2     N11428   1.841   2.584  13.429  1.1499 -0.1348  0.4453
  774MPD2    H511429   1.939   2.605  13.413  0.5658  0.0737 -2.9640
  774MPD2    N111430   1.952   2.460  13.887 -0.4835 -0.2784 -0.0316
  774MPD2    H711431   1.917   2.456  13.982  1.7789 -2.1805  0.7166
  775MPD2     C11432   3.867   3.866  16.119  0.3795 -0.5259 -0.2769
  775MPD2    C111433   3.792   3.977  16.151  0.3081 -0.0026  0.0490
  775MPD2    C211434   3.855   4.106  16.136  0.1792 -0.4689  0.0285
  775MPD2    C311435   3.982   4.123  16.085  0.8033  0.4787  0.7767
  775MPD2    C411436   4.037   4.009  16.035 -0.1103  0.5775 -0.4492
  775MPD2    C511437   3.990   3.888  16.065  0.9323 -0.2308  0.5841
  775MPD2     H11438   3.803   4.197  16.164 -1.0723 -2.1754  3.2265
  775MPD2    H111439   4.138   4.009  15.996  0.1051 -0.4198  0.1041
  775MPD2    H211440   3.837   3.763  16.134 -2.4676  0.8779  3.5326
  775MPD2    H311441   4.050   3.802  16.038 -0.0145 -1.3702  2.1067
  775MPD2     N11442   4.048   4.246  16.073 -0.3676 -0.0598  0.6901
  775MPD2    H511443   4.130   4.242  16.013 -0.7966 -0.0946  0.1128
  775MPD2    N111444   3.668   3.963  16.219 -0.5331 -0.2980 -0.5877
  775MPD2    H711445   3.643   3.873  16.259  0.3917 -0.9777 -1.5423
  776MPD2     C11446   3.141   4.414  12.269 -0.5633  0.6285  0.1784
  776MPD2    C111447   3.036   4.448  12.181 -0.2839  0.0566 -0.4956
  776MPD2    C211448   3.025   4.573  12.114 -0.1557  0.3737  0.3015
  776MPD2    C311449   3.124   4.663  12.151 -0.4731 -0.4264 -0.1400
  776MPD2    C411450   3.230   4.634  12.237  0.0206  0.2187 -0.2108
  776MPD2    C511451   3.229   4.510  12.293 -0.5096  0.4894  1.4777
  776MPD2     H11452   2.945   4.591  12.043 -1.5622 -1.4572  1.4257
  776MPD2    H111453   3.313   4.700  12.257 -0.4071  0.5060  0.6601
  776MPD2    H211454   3.143   4.321  12.323 -2.5729  0.6182  0.2484
  776MPD2    H311455   3.306   4.493  12.368  0.5784 -1.1697 -0.0151
  776MPD2     N11456   3.120   0.074  12.104  0.2347  0.3400 -0.1255
  776MPD2    H511457   3.200   0.136  12.114  0.2330  0.1474  1.0451
  776MPD2    N111458   2.937   4.350  12.164 -0.4356  0.2692 -0.2847
  776MPD2    H711459   2.961   4.259  12.202 -0.1875 -0.7209 -2.8064
  777MPD2     C11460   3.894   1.712   1.630  0.5836  0.3176 -0.2992
  777MPD2    C111461   3.772   1.777   1.622 -0.0641  0.2307 -0.1671
  777MPD2    C211462   3.672   1.717   1.549 -0.2209  0.1190  1.1803
  777MPD2    C311463   3.692   1.591   1.491  0.0191 -0.6839  0.0917
  777MPD2    C411464   3.822   1.538   1.494 -0.3655 -0.0242  0.0047
  777MPD2    C511465   3.925   1.597   1.568 -0.2795  0.2426  0.3319
  777MPD2     H11466   3.570   1.755   1.544 -0.8260 -1.7358 -0.4612
  777MPD2    H111467   3.844   1.449   1.437 -1.3304 -1.0161  1.1638
  777MPD2    H211468   3.978   1.761   1.678  0.3550 -0.1609  0.5817
  777MPD2    H311469   4.016   1.541   1.585 -1.5733 -1.6131  1.1031
  777MPD2     N11470   3.575   1.524   1.439 -0.4109 -0.7880 -0.3269
  777MPD2    H511471   3.486   1.566   1.464 -0.0005  0.6754 -1.3103
  777MPD2    N111472   3.756   1.891   1.696 -0.6417 -0.0426  0.4967
  777MPD2    H711473   3.842   1.925   1.738 -0.5840  1.9225 -1.2442
  778MPD2     C11474   4.388   1.890  15.775  0.1942 -0.0687  0.3979
  778MPD2    C111475   4.353   1.815  15.666 -0.3623 -0.3519 -0.1070
  778MPD2    C211476   4.405   1.852  15.543 -0.1703 -0.5345  0.3494
  778MPD2    C311477   4.486   1.962  15.531 -0.8544 -0.0916 -0.4231
  778MPD2    C411478   4.516   2.035  15.642  0.2686  0.0758 -0.4763
  778MPD2    C511479   4.465   1.997  15.759  0.2994 -0.4315 -0.3966
  778MPD2     H11480   4.380   1.799  15.452  2.7748 -1.3297 -0.0167
  778MPD2    H111481   4.584   2.119  15.636 -0.7175  0.9110  0.0764
  778MPD2    H211482   4.348   1.874  15.874 -0.2177  2.8148  0.6974
  778MPD2    H311483   4.479   2.052  15.852  1.3729  0.1931 -0.9243
  778MPD2     N11484   4.528   2.000  15.397  0.6887  0.0787 -0.0676
  778MPD2    H511485   4.503   1.934  15.323  1.4904 -0.5843  0.2592
  778MPD2    N111486   4.268   1.701  15.663  0.4072 -0.2720  0.5189
  778MPD2    H711487   4.242   1.669  15.571  1.6157 -3.4895  1.2892
  779MPD2     C11488   3.817   1.334  14.960 -0.2409 -0.5487  0.4428
  779MPD2    C111489   3.841   1.246  14.862  0.0668  0.2318 -0.0686
  779MPD2    C211490   3.828   1.285  14.735  0.9746 -0.0959 -0.8228
  779MPD2    C311491   3.793   1.414  14.697  0.7204 -0.2843  0.0590
  779MPD2    C411492   3.781   1.505  14.798 -0.3286 -0.4456  0.7592
  779MPD2    C511493   3.782   1.466  14.924 -0.5342  0.6770 -0.1199
  779MPD2     H11494   3.837   1.215  14.653 -0.4840 -1.4390  0.1601
  779MPD2    H111495   3.763   1.609  14.773  0.7480 -0.6736 -0.9673
  779MPD2    H211496   3.822   1.300  15.062 -1.6667 -0.7252  0.4506
  779MPD2    H311497   3.767   1.541  15.001 -0.3508  1.2227 -0.6153
  779MPD2     N11498   3.781   1.445  14.563 -0.2327 -0.1833  0.0577
  779MPD2    H511499   3.807   1.368  14.501 -0.6966  0.9093 -1.4733
  779MPD2    N111500   3.873   1.116  14.898 -0.2302 -0.1655 -0.1931
  779MPD2    H711501   3.892   1.058  14.817  2.6257 -0.8373  0.9656
  780MPD2     C11502   3.712   0.703   1.408  0.2927 -0.0190 -0.1788
  780MPD2    C111503   3.653   0.660   1.296  0.2965 -0.7175  0.0776
  780MPD2    C211504   3.705   0.698   1.175  0.2113  0.7680  0.3739
  780MPD2    C311505   3.826   0.773   1.171 -0.1514 -0.3361 -0.0575
  780MPD2    C411506   3.877   0.824   1.285  0.5399  0.0471 -0.0972
  780MPD2    C511507   3.820   0.786   1.408 -1.0287 -0.7180 -0.2148
  780MPD2     H11508   3.650   0.678   1.083 -2.4503 -0.3096  2.1869
  780MPD2    H111509   3.963   0.888   1.297 -0.3595  0.9678  1.4256
  780MPD2    H211510   3.665   0.682   1.503  0.8589  0.1836  0.1500
  780MPD2    H311511   3.871   0.808   1.502 -1.0977  1.8183 -0.7634
  780MPD2     N11512   3.866   0.809   1.044  0.3257 -1.2991  0.8611
  780MPD2    H511513   3.808   0.777   0.967  1.4669  0.6838 -0.7997
  780MPD2    N111514   3.532   0.578   1.308  0.9779  0.1572  0.2414
  780MPD2    H711515   3.520   0.533   1.397  1.1962 -0.9577 -0.2931
  781MPD2     C11516   0.819   2.925  12.057 -0.0390 -0.7005 -0.0812
  781MPD2    C111517   0.813   2.816  12.134 -0.0814 -0.3019  0.1985
  781MPD2    C211518   0.905   2.713  12.114  0.5679 -0.9025 -0.7607
  781MPD2    C311519   1.002   2.728  12.013  0.0260 -0.4982  0.2684
  781MPD2    C411520   1.010   2.842  11.939 -0.0839  0.1844 -0.1234
  781MPD2    C511521   0.918   2.940  11.962 -0.3736  0.5413  0.3630
  781MPD2     H11522   0.901   2.626  12.178  2.0706 -1.1334 -0.9921
  781MPD2    H111523   1.081   2.842  11.857 -0.0723  0.2725 -0.1134
  781MPD2    H211524   0.754   3.011  12.070 -0.8915 -1.0811 -1.7420
  781MPD2    H311525   0.913   3.033  11.906  2.7273  1.7144  2.0376
  781MPD2     N11526   1.103   2.634  11.995 -0.0698 -0.5260 -0.6278
  781MPD2    H511527   1.183   2.664  11.940  0.6050  1.7502  1.5803
  781MPD2    N111528   0.715   2.825  12.241 -0.0285  0.0329  0.6274
  781MPD2    H711529   0.656   2.907  12.233 -1.4165 -1.1888 -1.6513
  782MPD2     C11530   2.990   3.482  10.785  0.1101  0.0248 -0.4257
  782MPD2    C111531   3.125   3.487  10.761  0.4361 -0.4152 -0.1110
  782MPD2    C211532   3.199   3.582  10.835 -0.2906  0.4910 -0.1687
  782MPD2    C311533   3.131   3.671  10.921 -0.5565 -1.0295  0.1229
  782MPD2    C411534   2.995   3.658  10.942  0.1901 -0.4376 -0.3397
  782MPD2    C511535   2.929   3.559  10.879 -0.3201  0.4890 -0.8002
  782MPD2     H11536   3.306   3.591  10.820 -0.5508  1.4269 -1.4980
  782MPD2    H111537   2.942   3.714  11.019  0.3848 -1.2834  0.4077
  782MPD2    H211538   2.932   3.396  10.752 -0.1893  0.2027 -0.3577
  782MPD2    H311539   2.823   3.536  10.884 -0.2242  0.2928  0.2394
  782MPD2     N11540   3.209   3.766  10.990 -0.2394  0.1414  0.4909
  782MPD2    H511541   3.308   3.763  10.968 -0.1802  1.7951  0.5718
  782MPD2    N111542   3.174   3.383  10.672  0.1172  0.4441  0.0586
  782MPD2    H711543   3.101   3.320  10.641 -0.5461  0.4983  1.5099
  783MPD2     C11544   3.292   2.980  11.291 -0.1456  0.3985 -0.2883
  783MPD2    C111545   3.194   3.046  11.225 -0.5479 -0.1830  0.7793
  783MPD2    C211546   3.192   3.053  11.084  0.0127 -1.3307 -0.0592
  783MPD2    C311547   3.292   2.987  11.010  0.0304  0.4726 -0.7279
  783MPD2    C411548   3.387   2.905  11.076  0.0974  0.2356 -0.7148
  783MPD2    C511549   3.379   2.903  11.215 -0.2740 -0.2703  0.4903
  783MPD2     H11550   3.127   3.120  11.030  1.4964  0.3982  0.2918
  783MPD2    H111551   3.468   2.848  11.031  0.7930  0.9723 -0.4030
  783MPD2    H211552   3.295   2.980  11.399 -1.7182 -0.4312 -0.2463
  783MPD2    H311553   3.451   2.839  11.265  0.1272  0.2227  0.5510
  783MPD2     N11554   3.291   3.008  10.871 -0.6955 -0.0782 -0.3436
  783MPD2    H511555   3.227   3.079  10.839  0.3518  1.7799  1.6521
  783MPD2    N111556   3.087   3.109  11.300 -0.2078 -0.9218 -0.6010
  783MPD2    H711557   3.007   3.146  11.250  1.9612  1.5206 -2.2597
  784MPD2     C11558   0.851   3.179   1.704 -0.5197 -0.9381 -0.4773
  784MPD2    C111559   0.859   3.307   1.763  0.2664  0.8327  0.2504
  784MPD2    C211560   0.795   3.417   1.713  0.1199 -0.4888  0.8804
  784MPD2    C311561   0.719   3.401   1.599  0.1635 -0.0957 -0.7953
  784MPD2    C411562   0.696   3.278   1.552 -0.3007 -0.0036  0.3435
  784MPD2    C511563   0.761   3.166   1.598 -0.8557 -0.1557  0.0548
  784MPD2     H11564   0.808   3.512   1.764  2.2516 -1.6941  2.5230
  784MPD2    H111565   0.632   3.265   1.465  0.9060 -1.6379 -0.2999
  784MPD2    H211566   0.908   3.096   1.745  0.9912  0.1452 -0.3737
  784MPD2    H311567   0.746   3.072   1.547 -0.4021  0.5688 -1.4272
  784MPD2     N11568   0.651   3.514   1.552 -0.0789  0.8589 -0.1567
  784MPD2    H511569   0.662   3.604   1.598 -0.2711  0.7431  0.1072
  784MPD2    N111570   0.953   3.337   1.866  0.7383 -0.4873 -0.1344
  784MPD2    H711571   0.955   3.434   1.897 -2.7730 -0.3816 -0.1830
  785MPD2     C11572   1.307   1.992  10.975 -0.1689 -0.1693 -0.1706
  785MPD2    C111573   1.292   2.050  11.097 -0.4004  0.7902 -0.3608
  785MPD2    C211574   1.174   2.033  11.169 -0.5053  0.1776  0.5156
  785MPD2    C311575   1.065   1.973  11.113 -0.2732  0.7103 -0.3997
  785MPD2    C411576   1.078   1.918  10.987 -0.8190 -0.1586  0.2934
  785MPD2    C511577   1.197   1.923  10.918  0.7864 -0.3584  0.5448
  785MPD2     H11578   1.143   2.079  11.262 -1.2947  1.3538 -0.3176
  785MPD2    H111579   1.004   1.857  10.936 -1.1413  1.1283 -0.7794
  785MPD2    H211580   1.399   2.009  10.920 -0.3218  0.9979 -0.0716
  785MPD2    H311581   1.210   1.875  10.822  1.6122  0.6046  0.1773
  785MPD2     N11582   0.945   1.967  11.189  0.3956  0.2395 -0.6891
  785MPD2    H511583   0.949   1.999  11.285  1.8703 -1.9184 -0.0397
  785MPD2    N111584   1.402   2.125  11.159  0.4218 -0.0689  0.0345
  785MPD2    H711585   1.485   2.133  11.101 -0.6557 -0.6295 -1.5825
  786MPD2     C11586   4.206   0.018  15.333 -0.1615 -0.4677  0.2926
  786MPD2    C111587   4.342   4.724  15.301  0.5218 -0.0867  0.1140
  786MPD2    C211588   4.431   0.029  15.396  0.5564 -0.5023 -0.2605
  786MPD2    C311589   4.390   0.086  15.523  1.0274 -0.0855  0.4845
  786MPD2    C411590   4.260   0.095  15.555  0.6456  0.6556 -0.3396
  786MPD2    C511591   4.161   0.066  15.452 -0.0064 -0.7788  0.9296
  786MPD2     H11592   4.535   0.011  15.371 -0.1892  0.0408 -3.6319
  786MPD2    H111593   4.226   0.120  15.655 -0.1996 -0.4935 -0.3454
  786MPD2    H211594   4.126   4.724  15.262 -0.0281 -2.3883  0.6709
  786MPD2    H311595   4.053   0.063  15.467 -0.3122  0.8288 -0.9957
  786MPD2     N11596   4.487   0.136  15.612  0.1189  0.0369 -1.0079
  786MPD2    H511597   4.457   0.167  15.704 -2.2166  0.8766 -2.0554
  786MPD2    N111598   4.386   4.672  15.179 -0.3374 -0.6475  0.1003
  786MPD2    H711599   4.486   4.660  15.169 -0.7399 -2.2426 -2.0570
  787MPD2     C11600   4.410   3.933  15.046  0.0193  0.0807  0.3148
  787MPD2    C111601   4.512   4.027  15.052  0.1081 -0.1729  0.1440
  787MPD2    C211602   4.630   4.001  15.117 -0.1352  0.4223 -0.6159
  787MPD2    C311603   4.649   3.883  15.184 -0.3977  0.5892 -0.4821
  787MPD2    C411604   4.538   3.794  15.201  0.7424 -0.0543  1.1034
  787MPD2    C511605   4.422   3.816  15.126  0.6022  0.3005  0.4313
  787MPD2     H11606   4.715   4.067  15.129 -1.0062  1.4040  0.1581
  787MPD2    H111607   4.555   3.699  15.251 -2.0532 -1.2793 -0.2886
  787MPD2    H211608   4.318   3.949  14.993 -0.3070  0.7848  1.0818
  787MPD2    H311609   4.342   3.744  15.138  2.3362 -1.5237  0.9877
  787MPD2     N11610   0.053   3.859  15.240 -0.4529  0.5535 -0.5053
  787MPD2    H511611   0.132   3.921  15.221 -0.1683  0.8741  1.7318
  787MPD2    N111612   4.484   4.152  14.985  0.2958 -0.1038 -0.0336
  787MPD2    H711613   4.394   4.157  14.938  0.6479  0.4739 -0.6553
  788MPD2     C11614   1.366   3.647   1.579  0.0055  0.4724  0.2449
  788MPD2    C111615   1.301   3.537   1.522  0.0642 -0.1273  0.2510
  788MPD2    C211616   1.282   3.536   1.389  0.3410  0.6355  0.0120
  788MPD2    C311617   1.315   3.631   1.298 -0.0957  0.0759 -0.0892
  788MPD2    C411618   1.373   3.742   1.354 -0.1999 -0.2087 -0.0750
  788MPD2    C511619   1.399   3.747   1.490 -0.2156 -0.1680  0.4194
  788MPD2     H11620   1.244   3.443   1.349 -0.6221  2.4872 -3.3736
  788MPD2    H111621   1.405   3.816   1.281 -1.7722 -0.3616 -0.9160
  788MPD2    H211622   1.383   3.658   1.685  1.6250  2.0707 -0.1671
  788MPD2    H311623   1.441   3.835   1.536 -0.6887  0.8338 -1.0522
  788MPD2     N11624   1.287   3.627   1.161  0.0105 -0.4084  0.3500
  788MPD2    H511625   1.304   3.712   1.108  2.3232 -1.0698  0.0396
  788MPD2    N111626   1.276   3.420   1.587  0.2136  0.3660  0.2433
  788MPD2    H711627   1.229   3.352   1.529 -0.0135  0.6139  0.1435
  789MPD2     C11628   2.531   2.720  17.050  0.6010 -0.1528  0.1974
  789MPD2    C111629   2.433   2.647  17.102 -0.2245 -0.3246  0.5996
  789MPD2    C211630   2.301   2.672  17.084  0.2142  0.2845  0.8972
  789MPD2    C311631   2.268   2.783  17.008  0.1487  0.0482 -0.3616
  789MPD2    C411632   2.371   2.852  16.946 -0.1005 -0.5318  0.0290
  789MPD2    C511633   2.501   2.829  16.978  0.9411 -0.0720 -0.5673
  789MPD2     H11634   2.225   2.607  17.126  0.4246  0.7926  2.0716
  789MPD2    H111635   2.359   2.936  16.878 -3.5587 -0.8440  0.2560
  789MPD2    H211636   2.633   2.687  17.063 -0.0914 -2.8466 -1.3452
  789MPD2    H311637   2.573   2.893  16.928  2.0150 -1.0189 -0.2243
  789MPD2     N11638   2.136   2.817  16.979 -0.3022  0.5116  0.3193
  789MPD2    H511639   2.115   2.881  16.903  1.3667 -0.2429 -0.7649
  789MPD2    N111640   2.459   2.526  17.175 -0.5526 -0.1293  0.4644
  789MPD2    H711641   2.378   2.473  17.206 -1.3868  1.1259  0.4738
  790MPD2     C11642   2.771   0.178  14.080  0.1214 -0.2838  0.0031
  790MPD2    C111643   2.844   0.064  14.070 -0.5174  0.1165 -1.0385
  790MPD2    C211644   2.864   0.006  13.947  0.4082 -0.3457  0.6478
  790MPD2    C311645   2.811   0.062  13.833  0.5484  0.3034  0.3081
  790MPD2    C411646   2.743   0.183  13.841  0.3790 -0.1219 -0.3352
  790MPD2    C511647   2.726   0.240  13.968 -0.4670  0.1173  0.0179
  790MPD2     H11648   2.902   4.630  13.945 -0.1571 -0.5343 -0.6819
  790MPD2    H111649   2.688   0.228  13.759  1.4883  1.6787 -0.0919
  790MPD2    H211650   2.747   0.223  14.176 -1.2966  1.0906 -1.0175
  790MPD2    H311651   2.659   0.325  13.973  0.6851  1.0421 -0.2248
  790MPD2     N11652   2.806   4.709  13.711  0.4565 -0.0787  0.2365
  790MPD2    H511653   2.868   4.629  13.709  0.9970  0.4302 -2.5791
  790MPD2    N111654   2.892   4.722  14.185 -0.5454 -0.3551 -0.1979
  790MPD2    H711655   2.848   0.027  14.271 -0.7228 -1.0261 -0.0571
  791MPD2     C11656   2.340   4.683  13.083 -0.0813  0.0351  0.5874
  791MPD2    C111657   2.362   4.559  13.142 -0.3101 -0.2087  0.1852
  791MPD2    C211658   2.277   4.452  13.114 -0.0676 -0.9093 -0.4451
  791MPD2    C311659   2.163   4.463  13.041 -0.7112  0.0251 -0.2499
  791MPD2    C411660   2.141   4.585  12.981  0.6881  0.3553 -0.2785
  791MPD2    C511661   2.231   4.693  13.002  0.7208 -0.4651  0.5534
  791MPD2     H11662   2.303   4.353  13.151 -0.7450 -0.9655 -0.1182
  791MPD2    H111663   2.054   4.609  12.920  0.2645 -0.4137  0.0234
  791MPD2    H211664   2.406   0.043  13.093  0.7980 -0.4229 -1.2406
  791MPD2    H311665   2.216   0.064  12.955  2.2188  0.0709  1.1882
  791MPD2     N11666   2.081   4.349  13.033  0.3871  0.0216  0.4573
  791MPD2    H511667   2.102   4.264  13.085 -0.2824 -0.1122  0.5033
  791MPD2    N111668   2.484   4.548  13.222  0.4352  0.3530  0.0959
  791MPD2    H711669   2.538   4.633  13.234 -1.9596  1.7192  1.2103
  792MPD2     C11670   3.128   4.263  11.814  0.0654 -0.0921  0.0900
  792MPD2    C111671   3.024   4.354  11.792 -0.5013  0.6517  0.0651
  792MPD2    C211672   2.898   4.300  11.770  0.9082 -0.1845  0.0107
  792MPD2    C311673   2.888   4.162  11.751  0.5220  0.0507  0.6318
  792MPD2    C411674   2.990   4.076  11.762  0.1460 -0.0336  0.1211
  792MPD2    C511675   3.108   4.130  11.800 -0.4234 -0.4709 -0.1973
  792MPD2     H11676   2.819   4.372  11.750  0.1690 -0.4157  2.1485
  792MPD2    H111677   2.967   3.971  11.749  1.8478 -0.5046  0.9521
  792MPD2    H211678   3.231   4.294  11.830 -0.5681  1.6716  0.7476
  792MPD2    H311679   3.186   4.059  11.828 -0.0638 -0.5598 -1.4074
  792MPD2     N11680   2.756   4.112  11.723  0.1616  0.1690  0.3441
  792MPD2    H511681   2.763   4.016  11.690  0.9700  0.4785 -0.3787
  792MPD2    N111682   3.054   4.490  11.799  0.6609  0.0881  0.1291
  792MPD2    H711683   3.148   4.509  11.831  0.9544 -1.6175  0.2880
  793MPD2     C11684   1.878   4.225  11.132 -0.6354 -0.3192 -0.3486
  793MPD2    C111685   2.001   4.178  11.088  0.2423  0.8608 -0.3884
  793MPD2    C211686   2.103   4.167  11.179  0.2346 -0.5052  0.0132
  793MPD2    C311687   2.093   4.199  11.313 -0.0994  0.3195 -0.0063
  793MPD2    C411688   1.970   4.254  11.348  0.0287 -0.0381 -0.4624
  793MPD2    C511689   1.870   4.277  11.259  0.4278 -0.2938 -0.0096
  793MPD2     H11690   2.196   4.124  11.145 -0.5353 -1.4576 -0.9157
  793MPD2    H111691   1.948   4.289  11.449 -0.5338 -1.1109 -0.2160
  793MPD2    H211692   1.795   4.241  11.065 -1.5241  1.7665  1.2852
  793MPD2    H311693   1.777   4.320  11.295 -0.4181 -1.6566 -0.5645
  793MPD2     N11694   2.204   4.161  11.395 -0.4307 -0.0162 -0.2481
  793MPD2    H511695   2.270   4.094  11.357  0.5574  1.7288 -1.5798
  793MPD2    N111696   2.015   4.145  10.951 -0.1128 -0.7374 -0.4071
  793MPD2    H711697   2.112   4.147  10.919 -0.0567  3.2070  0.0517
  794MPD2     C11698   3.012   3.773  17.417  0.5249 -0.4442  0.5557
  794MPD2    C111699   2.932   3.665  17.443 -0.7094  0.2137  0.7364
  794MPD2    C211700   2.870   3.597  17.343  0.1220 -0.0501  0.4466
  794MPD2    C311701   2.880   3.640  17.212  0.4547  0.0533 -0.4683
  794MPD2    C411702   2.965   3.744  17.185  0.0392 -0.6275 -0.6831
  794MPD2    C511703   3.026   3.812  17.292  0.0195 -0.7444 -0.1187
  794MPD2     H11704   2.803   3.515  17.368  0.2708 -0.6138 -1.0437
  794MPD2    H111705   2.989   3.790  17.090  0.3032 -0.0086 -0.3196
  794MPD2    H211706   3.054   3.842  17.490  1.5621  0.6425 -1.0696
  794MPD2    H311707   3.096   3.890  17.261 -1.6193  0.8700  0.2482
  794MPD2     N11708   2.791   3.576  17.113 -0.0416  0.3453 -0.9857
  794MPD2    H511709   2.737   3.496  17.145 -2.3168  2.2069 -0.1645
  794MPD2    N111710   2.903   3.620  17.572  0.2258  0.4769  0.2295
  794MPD2    H711711   2.818   3.567  17.593  0.3305  1.6275  3.6935
  795MPD2     C11712   0.922   1.146  13.589  0.7485  0.0304  0.0700
  795MPD2    C111713   0.837   1.138  13.697  0.3559  0.3608 -0.9565
  795MPD2    C211714   0.888   1.133  13.828  0.1613 -0.1952 -0.2056
  795MPD2    C311715   1.028   1.147  13.834 -0.9442  0.6014 -0.2058
  795MPD2    C411716   1.108   1.178  13.725  0.1020  0.3398  0.0872
  795MPD2    C511717   1.055   1.175  13.603 -0.5895 -0.7777  0.0489
  795MPD2     H11718   0.823   1.123  13.914 -0.3115 -0.2153 -0.5644
  795MPD2    H111719   1.213   1.197  13.745  1.1797 -2.8490 -2.5212
  795MPD2    H211720   0.890   1.142  13.486  0.7635 -0.4831  0.0826
  795MPD2    H311721   1.114   1.204  13.517  1.1051 -1.2185  1.0762
  795MPD2     N11722   1.093   1.148  13.960  0.0852 -0.3405 -0.2984
  795MPD2    H511723   1.194   1.163  13.957  0.0443  0.3443  1.7617
  795MPD2    N111724   0.698   1.118  13.685  0.5859 -0.8500 -0.3801
  795MPD2    H711725   0.643   1.105  13.769 -1.8548 -1.4910 -2.0828
  796MPD2     C11726   0.015   2.426  16.190  0.1902 -0.4334  0.6204
  796MPD2    C111727   0.040   2.483  16.313  0.0213  0.9474 -0.6773
  796MPD2    C211728   0.038   2.622  16.320 -0.2476  0.1556  0.5237
  796MPD2    C311729   0.010   2.703  16.217 -0.2781  0.0251 -0.2109
  796MPD2    C411730   4.695   2.646  16.098 -0.3414  0.1185 -0.6046
  796MPD2    C511731   4.704   2.508  16.087  0.4203  0.0136  0.6714
  796MPD2     H11732   0.044   2.661  16.421  0.1474  0.3116  0.4406
  796MPD2    H111733   4.657   2.703  16.015 -1.6185  0.1714  0.0184
  796MPD2    H211734   0.021   2.319  16.171 -2.4824 -0.3508 -0.5969
  796MPD2    H311735   4.689   2.458  15.992 -0.9101  1.3579  0.1832
  796MPD2     N11736   0.023   2.842  16.232  0.1718  0.3832 -0.0960
  796MPD2    H511737   0.060   2.883  16.317  1.3510 -0.0783 -0.3918
  796MPD2    N111738   0.064   2.400  16.429 -0.5740 -0.3727 -0.3831
  796MPD2    H711739   0.046   2.300  16.426  2.3846 -0.8833 -0.9492
  797MPD2     C11740   0.280   2.013   0.456 -0.0362 -0.8108  0.2206
  797MPD2    C111741   0.411   1.988   0.428 -0.1617  1.2256 -0.0444
  797MPD2    C211742   0.479   2.088   0.349  0.2884  0.1648 -0.3219
  797MPD2    C311743   0.413   2.195   0.297  0.0398  1.0446  0.3100
  797MPD2    C411744   0.282   2.212   0.320  0.6254  1.0389 -0.4777
  797MPD2    C511745   0.221   2.122   0.406 -0.0333  0.7867 -1.1639
  797MPD2     H11746   0.584   2.076   0.324  0.8661  1.9361  1.2894
  797MPD2    H111747   0.225   2.292   0.274  0.0434  1.5046  1.0340
  797MPD2    H211748   0.225   1.946   0.522 -1.3168  0.2073  0.1840
  797MPD2    H311749   0.114   2.138   0.416 -0.0016 -1.0214  2.3193
  797MPD2     N11750   0.492   2.290   0.236  0.4852  0.6737  1.0839
  797MPD2    H511751   0.593   2.276   0.232 -0.1381 -3.5208  0.3040
  797MPD2    N111752   0.485   1.871   0.465 -0.0705 -0.1403  0.0748
  797MPD2    H711753   0.579   1.860   0.428  0.8477  0.6632  2.1789
  798MPD2     C11754   1.140   2.048   0.197  0.2910 -0.5735 -0.7794
  798MPD2    C111755   1.007   2.083   0.211 -0.6475 -0.0556 -0.3671
  798MPD2    C211756   0.924   1.992   0.275 -0.1661  0.3321 -0.3174
  798MPD2    C311757   0.973   1.881   0.326 -0.0777 -0.3466  0.4932
  798MPD2    C411758   1.109   1.849   0.318  0.8091  0.5959 -0.4098
  798MPD2    C511759   1.193   1.932   0.249  0.3197  0.2923  0.0099
  798MPD2     H11760   0.817   2.001   0.290 -0.1181 -0.3320  0.4435
  798MPD2    H111761   1.148   1.760   0.367  2.3826  0.5508 -1.7519
  798MPD2    H211762   1.204   2.122   0.150 -1.2928  1.5599  0.4690
  798MPD2    H311763   1.300   1.916   0.240  0.3006  0.7678 -0.9831
  798MPD2     N11764   0.876   1.790   0.376 -0.2239  0.1883 -0.2657
  798MPD2    H511765   0.780   1.820   0.380 -0.8994 -1.7987 -1.3831
  798MPD2    N111766   0.957   2.203   0.147 -0.0922  0.3350  0.6306
  798MPD2    H711767   1.012   2.250   0.076 -0.4241  2.6937  1.9278
  799MPD2     C11768   0.057   4.065  14.806 -1.0118  0.5119 -0.0474
  799MPD2    C111769   4.686   3.993  14.746 -0.1879  0.0799 -0.3084
  799MPD2    C211770   4.612   4.044  14.643  0.4528 -0.3401 -0.3877
  799MPD2    C311771   4.648   4.171  14.590 -0.9393  0.7216 -0.0431
  799MPD2    C411772   0.028   4.243  14.651  0.0431 -0.3283  0.3440
  799MPD2    C511773   0.096   4.181  14.756  0.4842 -0.0959  0.1901
  799MPD2     H11774   4.533   3.988  14.593 -0.3874  1.4094 -1.0163
  799MPD2    H111775   0.058   4.344  14.626 -4.9170  1.1082  0.2815
  799MPD2    H211776   0.090   4.028  14.903 -1.6753 -1.9732 -0.7749
  799MPD2    H311777   0.165   4.245  14.811  1.6252 -0.2544 -1.0318
  799MPD2     N11778   4.604   4.230  14.471  0.4157 -0.2538 -0.2200
  799MPD2    H511779   4.663   4.300  14.428  1.7923 -1.0605  0.3432
  799MPD2    N111780   4.647   3.867  14.788  0.0722  0.1108 -0.0168
  799MPD2    H711781   4.556   3.841  14.751  0.8204 -2.2286 -0.1987
  800MPD2     C11782   0.491   0.185  14.480  0.3589 -0.0136  0.0406
  800MPD2    C111783   0.621   0.230  14.501  0.3820 -0.2009  0.4339
  800MPD2    C211784   0.715   0.220  14.399 -0.3403 -0.0361 -0.2727
  800MPD2    C311785   0.681   0.174  14.273  0.4107 -0.7226  0.2383
  800MPD2    C411786   0.549   0.139  14.260  1.2076  0.7311 -0.5444
  800MPD2    C511787   0.454   0.134  14.361  0.0453 -0.2219 -0.1836
  800MPD2     H11788   0.817   0.255  14.413  0.3561 -2.3705  0.4648
  800MPD2    H111789   0.509   0.103  14.166 -0.9954  2.9197 -0.4526
  800MPD2    H211790   0.417   0.200  14.558  1.6696  1.6020  0.9766
  800MPD2    H311791   0.352   0.104  14.340 -0.0443  0.2023 -0.3519
  800MPD2     N11792   0.770   0.177  14.169 -0.3036  0.7546  0.1562
  800MPD2    H511793   0.863   0.211  14.189 -0.0856 -0.4573  1.1469
  800MPD2    N111794   0.650   0.287  14.628 -0.1553 -0.3594  0.1915
  800MPD2    H711795   0.568   0.294  14.688 -0.6342  0.1403 -0.5056
  801MPD2     C11796   0.325   0.565  15.200  0.0561 -0.0743  0.2929
  801MPD2    C111797   0.329   0.480  15.089 -0.0591 -0.1651  0.1570
  801MPD2    C211798   0.213   0.414  15.049 -0.2053  0.3127 -0.7120
  801MPD2    C311799   0.095   0.418  15.119 -0.7806 -0.2195 -0.0540
  801MPD2    C411800   0.095   0.492  15.229  0.3569  0.2547 -0.3259
  801MPD2    C511801   0.197   0.578  15.265  0.5470 -1.3868  0.6773
  801MPD2     H11802   0.216   0.361  14.955  0.5196 -0.9577  0.0393
  801MPD2    H111803   0.006   0.510  15.288  1.5686  0.5524  1.4194
  801MPD2    H211804   0.405   0.609  15.259  0.0032  1.2436 -0.6153
  801MPD2    H311805   0.184   0.627  15.360  0.2862 -0.4384  0.1526
  801MPD2     N11806   4.700   0.354  15.085 -0.4192  0.0053  0.2355
  801MPD2    H511807   4.620   0.392  15.134 -1.4336 -2.4934  0.4946
  801MPD2    N111808   0.452   0.457  15.022  0.1936  0.5468 -0.0434
  801MPD2    H711809   0.451   0.394  14.942 -1.6921 -0.7832  1.0179
  802MPD2     C11810   0.341   1.061   0.592 -0.2263  0.0902 -0.4202
  802MPD2    C111811   0.229   1.113   0.531  0.2635 -0.1198 -0.5298
  802MPD2    C211812   0.174   1.039   0.432  0.0551 -0.6214  0.0055
  802MPD2    C311813   0.222   0.912   0.394 -0.0863 -0.6885 -0.6598
  802MPD2    C411814   0.327   0.858   0.472  0.3788 -0.0701 -0.0510
  802MPD2    C511815   0.390   0.939   0.564 -0.6156 -0.3961  0.5376
  802MPD2     H11816   0.099   1.088   0.370  0.6280 -1.3542 -1.2475
  802MPD2    H111817   0.372   0.764   0.443 -0.3392 -0.2897 -0.4535
  802MPD2    H211818   0.403   1.123   0.655 -1.6055  0.1948  0.8576
  802MPD2    H311819   0.484   0.910   0.609 -0.0308  1.7431  0.7108
  802MPD2     N11820   0.166   0.851   0.280 -0.1834 -0.0347 -0.5623
  802MPD2    H511821   0.094   0.903   0.232  0.5576  0.2165 -1.4017
  802MPD2    N111822   0.175   1.246   0.564  0.0056  0.1697  0.2185
  802MPD2    H711823   0.092   1.273   0.512 -0.2348 -1.0010 -0.0028
  803MPD2     C11824   1.290   0.184  11.998  0.0735  0.5772 -0.5934
  803MPD2    C111825   1.341   0.112  12.102 -0.4288 -0.5557  0.0645
  803MPD2    C211826   1.303   4.710  12.131 -0.6248  0.8703 -0.3029
  803MPD2    C311827   1.226   4.635  12.041  0.8330  0.8424  0.4706
  803MPD2    C411828   1.165   4.712  11.945 -0.2486  0.8666  0.1111
  803MPD2    C511829   1.202   0.117  11.921 -0.2258  0.5445  0.4767
  803MPD2     H11830   1.350   4.658  12.214 -0.5427  2.7279  0.8009
  803MPD2    H111831   1.101   4.659  11.875 -0.5811  2.1754 -0.5840
  803MPD2    H211832   1.316   0.288  11.981  0.1368  0.4394 -1.3527
  803MPD2    H311833   1.159   0.173  11.838  1.2401 -2.1721 -2.1398
  803MPD2     N11834   1.181   4.499  12.052  0.1432 -0.1037 -0.0950
  803MPD2    H511835   1.107   4.478  11.986  0.1185  2.0825 -0.7576
  803MPD2    N111836   1.429   0.172  12.198 -0.4712  0.1889 -0.3108
  803MPD2    H711837   1.434   0.120  12.285  0.4648  0.8539  0.0286
  804MPD2     C11838   0.210   0.490  17.294 -0.1849  0.0939 -0.0105
  804MPD2    C111839   0.299   0.486  17.400  0.2873  0.1917  0.1500
  804MPD2    C211840   0.349   0.610  17.440  0.0885 -0.1551  0.1293
  804MPD2    C311841   0.317   0.729  17.382 -0.5534  0.1973  0.6848
  804MPD2    C411842   0.232   0.730  17.279 -0.3599 -0.0423 -0.0745
  804MPD2    C511843   0.171   0.613  17.241 -0.2068  0.4060  0.0562
  804MPD2     H11844   0.423   0.612  17.518  1.6081 -1.8137 -1.2705
  804MPD2    H111845   0.213   0.819  17.220  0.2589  0.5409  0.6188
  804MPD2    H211846   0.160   0.399  17.263  1.6142 -1.0335  0.4016
  804MPD2    H311847   0.097   0.627  17.163  1.2483  0.1183 -1.3900
  804MPD2     N11848   0.382   0.847  17.411  0.1209  0.8592  0.6092
  804MPD2    H511849   0.351   0.932  17.365 -2.0909  0.2643  1.0086
  804MPD2    N111850   0.340   0.365  17.462  0.1402  0.3345 -0.0684
  804MPD2    H711851   0.390   0.367  17.550  1.3086  1.0848 -0.7565
  805MPD2     C11852   4.452   4.234  16.155 -0.2944  0.0041  0.5415
  805MPD2    C111853   4.547   4.173  16.077  0.2288 -0.3496  0.4169
  805MPD2    C211854   4.671   4.162  16.123  0.0662  0.3806 -0.6166
  805MPD2    C311855   4.716   4.214  16.247 -0.5757  0.0453  0.1654
  805MPD2    C411856   4.618   4.273  16.320 -0.0386  0.2054 -0.6465
  805MPD2    C511857   4.488   4.279  16.281 -0.1779 -0.2361  0.7205
  805MPD2     H11858   0.021   4.110  16.065  0.1491  1.8097 -1.7860
  805MPD2    H111859   4.642   4.310  16.418  1.3333  2.8536 -1.9893
  805MPD2    H211860   4.349   4.244  16.120  0.0296 -1.6578 -0.8765
  805MPD2    H311861   4.425   4.342  16.343 -0.0003  0.5386  0.1170
  805MPD2     N11862   0.126   4.197  16.289  0.6415  0.2715  0.3069
  805MPD2    H511863   0.187   4.172  16.212  1.0323  0.8029  0.4469
  805MPD2    N111864   4.518   4.137  15.941  0.8062  0.2680  0.0562
  805MPD2    H711865   4.596   4.108  15.883  1.2693 -2.2626  1.9473
  806MPD2     C11866   4.454   3.044   0.373  0.2107 -0.0860 -1.1120
  806MPD2    C111867   4.513   3.128   0.462  0.1825  0.2093  0.9075
  806MPD2    C211868   4.647   3.168   0.438 -0.8339  0.9833 -0.3892
  806MPD2    C311869   4.708   3.132   0.324  0.2546 -0.2350 -0.1796
  806MPD2    C411870   4.643   3.056   0.229  0.0695  1.2611  0.0040
  806MPD2    C511871   4.517   3.016   0.254 -0.5811  0.4939  0.0127
  806MPD2     H11872   4.704   3.239   0.498  1.9830 -2.7498  1.3984
  806MPD2    H111873   4.699   3.024   0.142 -1.0405 -0.6266 -0.0004
  806MPD2    H211874   4.349   3.017   0.382  0.4898 -1.5162 -2.1371
  806MPD2    H311875   4.466   2.959   0.177  1.1993 -0.7893 -0.2189
  806MPD2     N11876   0.114   3.193   0.297  0.0383 -0.3755  0.0970
  806MPD2    H511877   0.142   3.266   0.362 -0.5224  0.5415 -0.7096
  806MPD2    N111878   4.446   3.156   0.585  0.5528 -0.0803  0.4449
  806MPD2    H711879   4.355   3.115   0.603  0.0262  0.8611 -0.1222
  807MPD2     C11880   4.561   2.844   1.284 -0.1360  0.0916 -0.5370
  807MPD2    C111881   4.576   2.978   1.307  0.2926 -0.2069 -0.0063
  807MPD2    C211882   4.619   3.025   1.434  0.0983  0.3422 -0.3856
  807MPD2    C311883   4.658   2.930   1.526  0.3833 -0.9769 -0.6859
  807MPD2    C411884   4.648   2.795   1.500 -0.6548  0.1014 -0.7802
  807MPD2    C511885   4.598   2.755   1.380  0.4704 -0.4476  0.3077
  807MPD2     H11886   4.629   3.132   1.447  1.6081  0.6189 -3.6688
  807MPD2    H111887   4.672   2.727   1.580 -1.1461  0.9897  0.1264
  807MPD2    H211888   4.509   2.796   1.202  1.2019 -1.7784 -0.2757
  807MPD2    H311889   4.578   2.650   1.364 -3.7976  0.3580  0.5354
  807MPD2     N11890   4.708   2.979   1.650  0.4778  0.4418  0.0276
  807MPD2    H511891   4.682   3.075   1.667 -2.5350 -0.4838  0.7675
  807MPD2    N111892   4.529   3.074   1.215  0.3099  0.5378 -1.6681
  807MPD2    H711893   4.539   3.175   1.227  1.4278  0.0311  1.4498
  808MPD2     C11894   0.736   4.657   9.724  0.1002  0.2401 -0.7617
  808MPD2    C111895   0.778   4.628   9.852 -0.3258  0.2764  0.0518
  808MPD2    C211896   0.847   4.724   9.925 -0.5192 -0.7036  0.3406
  808MPD2    C311897   0.882   0.120   9.871 -0.1208 -0.0818  1.0047
  808MPD2    C411898   0.841   0.149   9.740 -0.2214 -0.2086  0.1298
  808MPD2    C511899   0.769   0.052   9.675  0.7336 -0.5552 -0.6052
  808MPD2     H11900   0.884   4.707  10.026 -2.1699 -0.4574  0.9891
  808MPD2    H111901   0.866   0.239   9.685 -0.9215  0.3581  0.7347
  808MPD2    H211902   0.683   4.585   9.662  1.2645 -0.9974 -0.3199
  808MPD2    H311903   0.732   0.073   9.575 -0.2831 -1.3082 -0.3794
  808MPD2     N11904   0.948   0.223   9.939  0.4615 -0.4405 -0.6049
  808MPD2    H511905   0.971   0.310   9.890  0.6424  0.0130  0.2922
  808MPD2    N111906   0.758   4.504   9.917 -0.1994 -0.0041 -0.5635
  808MPD2    H711907   0.801   4.496  10.009 -0.1277  1.0825 -0.5039
  809MPD2     C11908   1.807   0.762  10.001 -0.1215 -0.6785 -0.5855
  809MPD2    C111909   1.796   0.634   9.960 -1.4282  0.3013  1.1594
  809MPD2    C211910   1.670   0.567   9.962 -0.3008  0.5124 -0.4915
  809MPD2    C311911   1.563   0.626  10.024 -0.2024 -0.1091 -0.2031
  809MPD2    C411912   1.580   0.754  10.061  0.4038  0.5381  0.2299
  809MPD2    C511913   1.700   0.817  10.059 -0.9624  0.2498 -0.6238
  809MPD2     H11914   1.654   0.466   9.926 -2.8015  0.4180  0.8455
  809MPD2    H111915   1.486   0.798  10.091  1.4625  1.8621  1.5689
  809MPD2    H211916   1.896   0.824   9.998  0.8904 -2.0345  1.7502
  809MPD2    H311917   1.706   0.915  10.105 -1.6760 -0.7217  1.5486
  809MPD2     N11918   1.436   0.565  10.044 -0.2306 -0.4782 -0.2289
  809MPD2    H511919   1.363   0.618  10.090 -0.5349 -0.9362 -0.1787
  809MPD2    N111920   1.919   0.581   9.903  0.5117 -0.7332 -0.2491
  809MPD2    H711921   1.983   0.659   9.901 -1.5328  0.9140 -1.6579
  810MPD2     C11922   0.309   0.197  11.589 -1.3361 -0.4121 -0.2112
  810MPD2    C111923   0.228   0.130  11.498  0.7306  0.3588 -0.4550
  810MPD2    C211924   0.212   0.183  11.373  0.0140 -0.0280 -0.2256
  810MPD2    C311925   0.279   0.297  11.331  0.4372 -0.3993  0.1746
  810MPD2    C411926   0.360   0.359  11.424 -0.0677 -0.5523  0.0220
  810MPD2    C511927   0.383   0.306  11.546  0.1600  0.9097 -1.0333
  810MPD2     H11928   0.152   0.131  11.299 -0.7288  0.9002 -0.2631
  810MPD2    H111929   0.417   0.446  11.393  2.0623 -1.1367  2.2975
  810MPD2    H211930   0.327   0.155  11.687 -0.3702 -1.7204 -0.9536
  810MPD2    H311931   0.461   0.351  11.606 -1.6914 -1.0916  2.9175
  810MPD2     N11932   0.272   0.345  11.194  0.5194 -0.1644  0.2595
  810MPD2    H511933   0.329   0.425  11.171 -0.8042  0.6837 -0.0418
  810MPD2    N111934   0.182   0.003  11.541 -0.2980 -0.7394  0.3490
  810MPD2    H711935   0.207   4.694  11.633  1.1176 -0.2025  0.1709
  811MPD2     C11936   0.228   3.987  11.084 -0.1959 -0.7318 -0.1635
  811MPD2    C111937   0.222   4.127  11.109 -0.5674 -0.3251 -0.1673
  811MPD2    C211938   0.214   4.211  11.007 -1.0356  0.6551  0.7739
  811MPD2    C311939   0.195   4.158  10.879 -0.6358 -0.3788 -0.2847
  811MPD2    C411940   0.202   4.020  10.855 -0.3362  0.2416  0.7467
  811MPD2    C511941   0.216   3.932  10.963  0.3669 -0.2056 -0.4350
  811MPD2     H11942   0.223   4.318  11.019  3.0764  0.3717  0.2124
  811MPD2    H111943   0.184   3.972  10.759  2.4225 -0.6702  0.6795
  811MPD2    H211944   0.230   3.922  11.171  0.6542 -2.4685 -1.4732
  811MPD2    H311945   0.210   3.824  10.956  0.3594 -0.1193 -1.8063
  811MPD2     N11946   0.161   4.253  10.775  0.2469  0.3326  0.1808
  811MPD2    H511947   0.153   4.350  10.804  1.6875  1.1394 -2.1617
  811MPD2    N111948   0.218   4.166  11.246  0.0061  0.1844 -0.2996
  811MPD2    H711949   0.218   4.088  11.310  0.4097  0.3405 -0.1132
  812MPD2     C11950   3.950   4.413  12.666 -0.3998 -0.4244  0.3090
  812MPD2    C111951   3.871   4.487  12.756  0.0456 -0.0481 -0.6003
  812MPD2    C211952   3.833   4.422  12.876 -0.3762  0.3865 -0.3940
  812MPD2    C311953   3.871   4.292  12.906  0.9091 -0.8859 -0.8091
  812MPD2    C411954   3.961   4.233  12.823  0.3334  1.0641 -0.0613
  812MPD2    C511955   3.997   4.296  12.707  0.4270  0.6160 -0.4619
  812MPD2     H11956   3.769   4.474  12.946  0.0273  1.3397 -0.7335
  812MPD2    H111957   4.018   4.142  12.838 -2.1472 -0.3396  0.8908
  812MPD2    H211958   3.980   4.450  12.569 -0.4841 -2.9750 -0.6790
  812MPD2    H311959   4.053   4.241  12.632 -0.7499 -0.3653 -0.6159
  812MPD2     N11960   3.824   4.224  13.025  0.7499 -0.6854 -0.2361
  812MPD2    H511961   3.773   4.277  13.095  0.1492 -1.1796 -0.2973
  812MPD2    N111962   3.830   4.619  12.731  0.9001  0.1121  0.4210
  812MPD2    H711963   3.871   4.663  12.649 -0.7241  0.8776  0.0118
  813MPD2     C11964   3.341   1.703  12.955  0.8369  0.0933  0.0436
  813MPD2    C111965   3.336   1.834  13.004  0.2023  0.2151  0.5960
  813MPD2    C211966   3.238   1.872  13.090 -0.8145 -0.5697  0.0316
  813MPD2    C311967   3.138   1.784  13.120 -0.2815  0.2188 -0.7405
  813MPD2    C411968   3.137   1.656  13.072  0.1726 -0.4801 -0.0912
  813MPD2    C511969   3.238   1.617  12.987  0.4307  0.1575  0.2215
  813MPD2     H11970   3.238   1.973  13.130  1.8848  0.9302 -3.8102
  813MPD2    H111971   3.065   1.581  13.101 -1.6487  1.8785  1.4063
  813MPD2    H211972   3.421   1.664  12.894 -0.7432  1.5201 -3.0210
  813MPD2    H311973   3.235   1.512  12.961  1.4644  0.5603 -1.5031
  813MPD2     N11974   3.038   1.830  13.202  0.1355 -0.0995 -0.1373
  813MPD2    H511975   3.036   1.929  13.221  0.4737 -0.6118  2.5104
  813MPD2    N111976   3.452   1.919  12.990  0.5822 -0.2322  0.3574
  813MPD2    H711977   3.537   1.881  12.950  0.1619  0.5999 -1.3430
  814MPD2     C11978   3.066   3.015  12.498  0.0401 -0.0963 -0.5955
  814MPD2    C111979   3.176   2.975  12.414  0.2933  0.2369 -0.2136
  814MPD2    C211980   3.301   3.024  12.444 -0.7322 -0.9762 -0.2467
  814MPD2    C311981   3.320   3.110  12.552 -0.0412 -0.7481  0.1170
  814MPD2    C411982   3.222   3.127  12.644 -0.0500  0.2118  0.4032
  814MPD2    C511983   3.097   3.099  12.604  0.3152 -0.0322  1.0255
  814MPD2     H11984   3.377   2.987  12.376 -0.5397 -0.1756 -0.4694
  814MPD2    H111985   3.239   3.192  12.729  1.5568  3.1197 -2.1241
  814MPD2    H211986   2.965   2.977  12.489 -0.6741  0.6637  3.8652
  814MPD2    H311987   3.017   3.122  12.675  0.9983 -1.8572  2.3648
  814MPD2     N11988   3.452   3.169  12.581 -0.3542  0.2986  0.9447
  814MPD2    H511989   3.459   3.224  12.666  0.9241 -0.4733  1.3234
  814MPD2    N111990   3.165   2.900  12.296 -0.0188 -0.2995  0.0725
  814MPD2    H711991   3.243   2.911  12.233 -0.6207 -1.5929 -0.8931
  815MPD2     C11992   4.129   1.473  12.042  0.1398  0.4492  0.4305
  815MPD2    C111993   4.086   1.363  12.109  0.1687 -0.4874 -0.7563
  815MPD2    C211994   3.977   1.388  12.198  0.9271 -0.5611  0.0463
  815MPD2    C311995   3.911   1.504  12.215  0.3569  0.0928 -0.0946
  815MPD2    C411996   3.957   1.611  12.141  0.7085 -0.4757 -0.5188
  815MPD2    C511997   4.066   1.597  12.056 -0.3022  0.1811 -0.5582
  815MPD2     H11998   3.933   1.303  12.249 -0.3926 -0.3612 -0.7430
  815MPD2    H111999   3.919   1.713  12.151  0.9405 -0.3148 -1.3119
  815MPD2    H212000   4.203   1.464  11.963  2.4310  0.4731  2.5953
  815MPD2    H312001   4.107   1.677  11.996  0.7746  0.0552  0.0125
  815MPD2     N12002   3.794   1.501  12.296 -0.6932 -0.0673 -1.0169
  815MPD2    H512003   3.776   1.415  12.347 -0.2557  0.9645  0.9036
  815MPD2    N112004   4.121   1.238  12.064  0.0705 -0.5645 -0.5112
  815MPD2    H712005   4.194   1.238  11.993 -0.6876  0.7862 -1.2957
  816MPD2     C12006   3.519   0.094  17.632  0.3051 -0.0855 -0.0585
  816MPD2    C112007   3.596   0.210  17.621  0.0560 -0.6331 -0.6515
  816MPD2    C212008   3.730   0.207  17.573 -0.3447 -0.0986  0.4822
  816MPD2    C312009   3.786   0.085  17.551  0.0249  0.8656  0.4231
  816MPD2    C412010   3.706   4.695  17.556  0.2817  0.0566  0.2372
  816MPD2    C512011   3.581   4.704  17.605  0.2290  0.0833 -0.0722
  816MPD2     H12012   3.798   0.288  17.547 -1.0528  0.5194  0.5710
  816MPD2    H112013   3.742   4.596  17.530 -0.4698 -0.1234 -0.1140
  816MPD2    H212014   3.415   0.095  17.664  1.0019  2.1719  2.1373
  816MPD2    H312015   3.524   4.613  17.611 -2.0477  1.5065 -0.1768
  816MPD2     N12016   3.921   0.079  17.517 -0.1827  0.0370  0.2766
  816MPD2    H512017   3.972   0.165  17.498  1.7493 -1.5001 -1.4639
  816MPD2    N112018   3.536   0.334  17.642  0.0048 -0.5621 -0.8696
  816MPD2    H712019   3.441   0.348  17.673  1.6485  1.9674  3.0306
  817MPD2     C12020   3.843   1.173   9.627 -0.1595 -0.2297 -0.1723
  817MPD2    C112021   3.762   1.068   9.585 -0.6220  0.3553  0.3596
  817MPD2    C212022   3.644   1.089   9.517  0.6163 -0.3960  0.3908
  817MPD2    C312023   3.594   1.216   9.491  0.3693  0.0666  0.1498
  817MPD2    C412024   3.670   1.326   9.525 -0.7390  0.2200  0.2309
  817MPD2    C512025   3.793   1.300   9.592 -0.4324 -0.0923 -0.1610
  817MPD2     H12026   3.589   1.002   9.485  0.3082 -0.1452  0.2437
  817MPD2    H112027   3.639   1.429   9.514 -0.8680  0.0733 -0.7509
  817MPD2    H212028   3.937   1.160   9.679  0.1855  2.3064 -0.1629
  817MPD2    H312029   3.855   1.386   9.614  1.5909 -1.5725  0.0192
  817MPD2     N12030   3.466   1.223   9.431 -0.1261  0.4681 -0.5806
  817MPD2    H512031   3.424   1.132   9.411 -1.7678  1.1221 -0.0678
  817MPD2    N112032   3.792   0.932   9.615  0.0430  0.2226  0.4165
  817MPD2    H712033   3.717   0.872   9.581 -0.0537  0.0435  0.9458
  818MPD2     C12034   2.898   2.437  10.127  0.3507  0.4836 -0.9908
  818MPD2    C112035   2.793   2.349  10.155 -0.0432 -0.5008 -0.8435
  818MPD2    C212036   2.798   2.217  10.116 -0.2238  0.4182 -0.0030
  818MPD2    C312037   2.899   2.166  10.042 -0.9064  0.3494  0.4556
  818MPD2    C412038   3.004   2.258  10.007 -0.3107 -0.1661  0.3528
  818MPD2    C512039   3.002   2.392  10.051  0.5255  0.0495 -0.0304
  818MPD2     H12040   2.713   2.156  10.144  0.2134  0.1578  0.7468
  818MPD2    H112041   3.080   2.228   9.936  0.3322 -0.4343  1.1518
  818MPD2    H212042   2.893   2.542  10.153 -0.4882 -0.0250  0.8959
  818MPD2    H312043   3.077   2.457  10.007  2.2817 -1.8024  0.2067
  818MPD2     N12044   2.890   2.029  10.006 -0.8094 -0.3720  0.0212
  818MPD2    H512045   2.817   1.977  10.053 -0.4344 -0.2884  0.6916
  818MPD2    N112046   2.684   2.387  10.242 -0.2161  0.8994 -0.0635
  818MPD2    H712047   2.613   2.321  10.272 -0.3512  1.5254  0.9735
  819MPD2     C12048   0.723   3.332  15.654 -0.1723  0.6273 -0.3460
  819MPD2    C112049   0.697   3.296  15.787 -0.3087 -0.0693 -0.5559
  819MPD2    C212050   0.806   3.278  15.875 -1.0772  0.4601 -0.3780
  819MPD2    C312051   0.934   3.284  15.819 -0.7471 -0.6981  0.0368
  819MPD2    C412052   0.948   3.317  15.681  0.3435  0.0320  0.2968
  819MPD2    C512053   0.847   3.343  15.591  0.3825 -0.1225  0.2488
  819MPD2     H12054   0.781   3.235  15.971  0.3396 -0.8508 -0.5898
  819MPD2    H112055   1.049   3.306  15.643 -0.0516  1.8933 -1.3074
  819MPD2    H212056   0.643   3.352  15.584  1.9985  0.9314 -2.7485
  819MPD2    H312057   0.861   3.369  15.487  2.1992 -3.1218 -0.2749
  819MPD2     N12058   1.054   3.233  15.878 -0.7009 -0.7414 -0.2287
  819MPD2    H512059   1.140   3.243  15.825  0.2440  0.5747  1.5998
  819MPD2    N112060   0.560   3.273  15.820  0.0600  0.4005 -0.5699
  819MPD2    H712061   0.493   3.285  15.745 -0.8790  1.7201  0.4711
  820MPD2     C12062   4.361   3.467  15.502  0.0255 -0.5429  0.5327
  820MPD2    C112063   4.455   3.545  15.556  0.4177 -0.1301  0.0923
  820MPD2    C212064   4.570   3.488  15.603  0.2085 -0.1921  0.5563
  820MPD2    C312065   4.588   3.345  15.602 -0.7916  0.1168  0.5157
  820MPD2    C412066   4.490   3.267  15.542 -0.6919  0.5980 -0.3560
  820MPD2    C512067   4.374   3.329  15.487  0.3373 -0.0951  0.0558
  820MPD2     H12068   4.655   3.545  15.640  0.8005 -0.8940  0.2984
  820MPD2    H112069   4.500   3.159  15.542  0.7849  0.7307 -0.5864
  820MPD2    H212070   4.271   3.514  15.464  1.1527  1.8577  0.8512
  820MPD2    H312071   4.293   3.276  15.439 -1.0944  2.9866 -0.9301
  820MPD2     N12072   4.703   3.276  15.646 -1.0163 -0.2707  0.7564
  820MPD2    H512073   4.719   3.180  15.617 -0.1049 -0.4312  1.7709
  820MPD2    N112074   4.442   3.689  15.552  0.2634  0.1917 -0.1339
  820MPD2    H712075   4.354   3.725  15.517  0.5990  0.2019 -0.9601
  821MPD2     C12076   0.902   0.230  13.335 -0.0363  0.6909 -0.1762
  821MPD2    C112077   0.977   0.284  13.440 -0.3807 -0.3447 -0.0861
  821MPD2    C212078   1.069   0.388  13.409  0.2994  0.2477 -0.3730
  821MPD2    C312079   1.089   0.424  13.272 -0.4310  0.5317  0.3877
  821MPD2    C412080   1.021   0.356  13.174 -0.1176 -0.2355  0.4208
  821MPD2    C512081   0.924   0.268  13.206  0.7504 -0.1698  0.8075
  821MPD2     H12082   1.125   0.429  13.492  1.2741 -1.3969 -0.2175
  821MPD2    H112083   1.033   0.392  13.072 -1.1405  2.6940  1.3691
  821MPD2    H212084   0.823   0.161  13.359  1.6636 -1.3970 -0.6141
  821MPD2    H312085   0.854   0.239  13.129  0.3347 -0.0949  1.1540
  821MPD2     N12086   1.187   0.510  13.227  0.5845  0.3899 -0.2816
  821MPD2    H512087   1.200   0.510  13.126 -0.3389 -1.0173 -0.4055
  821MPD2    N112088   0.951   0.237  13.573 -0.0197 -0.1891 -0.1721
  821MPD2    H712089   0.984   0.295  13.650  1.3125 -0.4099 -0.5787
  822MPD2     C12090   1.296   0.084  16.160  0.0102 -0.0371 -0.4173
  822MPD2    C112091   1.282   0.055  16.295 -0.0933 -0.0160  0.5436
  822MPD2    C212092   1.178   0.119  16.364  0.1890 -0.3670 -0.1500
  822MPD2    C312093   1.086   0.198  16.306 -0.1195  0.2747  1.0329
  822MPD2    C412094   1.108   0.232  16.177 -0.2480 -0.2583 -0.1033
  822MPD2    C512095   1.212   0.172  16.108 -0.3449 -0.2915 -0.0303
  822MPD2     H12096   1.164   0.085  16.466  1.2680  0.9902  0.4454
  822MPD2    H112097   1.044   0.303  16.127 -2.1326 -0.8274  1.4961
  822MPD2    H212098   1.361   0.025  16.097  0.7799  0.2245  0.1368
  822MPD2    H312099   1.225   0.187  16.001 -2.1050  1.1359 -0.0490
  822MPD2     N12100   1.005   0.267  16.397  0.3982  0.2914 -0.2714
  822MPD2    H512101   1.004   0.230  16.492  0.4239  1.7639  0.3054
  822MPD2    N112102   1.363   4.680  16.362 -0.1662  0.1792  0.6754
  822MPD2    H712103   1.343   4.662  16.460 -0.2189 -0.7498  0.4896
  823MPD2     C12104   0.630   0.402  17.143  0.3749 -0.1294 -0.8404
  823MPD2    C112105   0.699   0.334  17.046  0.0030 -0.5212 -1.3330
  823MPD2    C212106   0.794   0.240  17.086 -0.2776 -0.2817  0.6972
  823MPD2    C312107   0.809   0.215  17.224 -0.1829 -0.3187 -0.3758
  823MPD2    C412108   0.750   0.301  17.317  0.2199 -0.3281 -0.4943
  823MPD2    C512109   0.659   0.397  17.277  0.0386 -0.2967 -0.1502
  823MPD2     H12110   0.839   0.173  17.014  0.3755  1.2121 -0.2708
  823MPD2    H112111   0.773   0.279  17.421  0.1934  0.9075 -0.2243
  823MPD2    H212112   0.560   0.482  17.118  1.9217  2.3512  2.7117
  823MPD2    H312113   0.612   0.463  17.349 -0.7691  0.1279 -1.0698
  823MPD2     N12114   0.901   0.117  17.273  0.4952  0.1795  0.5112
  823MPD2    H512115   0.908   0.105  17.373 -1.5111  1.8185  0.8335
  823MPD2    N112116   0.673   0.361  16.905 -0.3106  0.9634 -0.0540
  823MPD2    H712117   0.601   0.430  16.885 -0.3880  1.0554  0.5183
  824MPD2     C12118   1.612   3.954  16.343  1.0759 -0.1158  0.0445
  824MPD2    C112119   1.716   4.049  16.330  0.2953  0.1522 -0.3775
  824MPD2    C212120   1.825   4.015  16.256  0.3806 -0.3312 -0.2436
  824MPD2    C312121   1.840   3.889  16.209  0.4291 -0.0472 -0.3915
  824MPD2    C412122   1.741   3.791  16.232  0.1030 -0.1987 -0.3740
  824MPD2    C512123   1.628   3.829  16.296 -0.3834 -0.0936 -0.7932
  824MPD2     H12124   1.908   4.084  16.247 -1.1867  1.0961 -3.7426
  824MPD2    H112125   1.732   3.686  16.204 -1.5705  0.0023 -0.6132
  824MPD2    H212126   1.525   3.978  16.404  1.1412  2.4624 -0.9177
  824MPD2    H312127   1.555   3.755  16.328  1.1316 -1.6039 -0.8294
  824MPD2     N12128   1.959   3.869  16.138  0.4488 -0.1315  0.4005
  824MPD2    H512129   2.019   3.951  16.136  0.9812 -0.5102  0.8236
  824MPD2    N112130   1.687   4.181  16.372  0.7017  0.5572 -0.2458
  824MPD2    H712131   1.588   4.205  16.376  0.5574 -0.0367 -0.1678
  825MPD2     C12132   2.365   3.867  15.381 -0.2586  0.2403  0.5106
  825MPD2    C112133   2.327   3.939  15.491  0.1426 -0.4012 -0.0859
  825MPD2    C212134   2.346   4.081  15.491  0.0646  0.6669  0.2337
  825MPD2    C312135   2.387   4.142  15.373  0.3344  0.6718 -0.1439
  825MPD2    C412136   2.418   4.066  15.258 -0.3736 -0.0219 -0.6210
  825MPD2    C512137   2.413   3.933  15.264  0.3134 -0.0101 -0.0436
  825MPD2     H12138   2.320   4.137  15.581  0.9589  1.4019  0.0344
  825MPD2    H112139   2.445   4.114  15.164 -0.0099  2.3310  0.6925
  825MPD2    H212140   2.356   3.759  15.383 -0.5109  0.2152 -1.9852
  825MPD2    H312141   2.449   3.876  15.179  1.3179  1.8421 -0.8580
  825MPD2     N12142   2.396   4.287  15.358 -0.3698  0.2142 -0.2186
  825MPD2    H512143   2.444   4.320  15.275 -1.0153 -0.7669 -0.9852
  825MPD2    N112144   2.266   3.861  15.590  0.2358 -0.0361  0.0129
  825MPD2    H712145   2.274   3.762  15.573  2.1195  0.1375 -0.0941
  826MPD2     C12146   2.304   3.963  14.065  0.0481 -0.4239 -0.6132
  826MPD2    C112147   2.247   4.003  13.947  0.2502 -0.1094  0.7972
  826MPD2    C212148   2.207   4.137  13.927  1.1243  0.1744 -0.3414
  826MPD2    C312149   2.233   4.226  14.028 -0.0871  0.5481  0.3457
  826MPD2    C412150   2.319   4.190  14.133  0.6799 -0.4456 -0.0956
  826MPD2    C512151   2.356   4.061  14.145 -0.4378 -0.8717  0.3180
  826MPD2     H12152   2.137   4.167  13.849  0.7013 -3.4626 -1.3798
  826MPD2    H112153   2.354   4.265  14.203  0.1732  0.6220 -0.9760
  826MPD2    H212154   2.341   3.861  14.076  1.6978  0.1412 -0.9203
  826MPD2    H312155   2.424   4.036  14.226 -0.1074 -1.5726 -0.1689
  826MPD2     N12156   2.182   4.364  14.035  0.1823  0.2478  0.4019
  826MPD2    H512157   2.225   4.425  14.104 -1.7398  2.2047 -0.1401
  826MPD2    N112158   2.227   3.903  13.847  0.1584 -0.6678  0.0321
  826MPD2    H712159   2.259   3.809  13.868 -1.0761 -1.5395 -1.9545
  827MPD2     C12160   2.818   0.292  10.637  0.6277 -0.2638 -0.8366
  827MPD2    C112161   2.735   0.383  10.690 -1.2062  0.2364  0.2580
  827MPD2    C212162   2.615   0.407  10.623  0.6209  0.2536 -0.0128
  827MPD2    C312163   2.577   0.336  10.517  0.4851  0.8684 -0.9999
  827MPD2    C412164   2.671   0.245  10.459  0.3467  0.1329 -0.7980
  827MPD2    C512165   2.786   0.212  10.533 -0.2507 -0.0533  1.0883
  827MPD2     H12166   2.542   0.475  10.666  0.0677  0.6849 -1.6324
  827MPD2    H112167   2.643   0.194  10.367  2.0754 -1.9107 -0.1685
  827MPD2    H212168   2.910   0.281  10.694 -1.7245  1.0300  3.2195
  827MPD2    H312169   2.848   0.127  10.506  1.3737  1.6467 -0.5077
  827MPD2     N12170   2.444   0.359  10.457  0.0087 -0.7636  0.3767
  827MPD2    H512171   2.387   0.433  10.497 -0.0119 -2.1863  2.9761
  827MPD2    N112172   2.781   0.444  10.807 -0.1474  0.3236  0.4487
  827MPD2    H712173   2.877   0.418  10.828 -0.4613 -1.2839 -0.0642
  828MPD2     C12174   1.417   0.697  12.860  0.4306  0.0958 -0.1459
  828MPD2    C112175   1.350   0.690  12.744  0.1451 -0.5118 -0.0259
  828MPD2    C212176   1.416   0.698  12.620 -0.4698  0.0120  0.0620
  828MPD2    C312177   1.555   0.712  12.616  0.5078  0.0076  0.9109
  828MPD2    C412178   1.628   0.716  12.736 -0.3011  0.0397  0.0040
  828MPD2    C512179   1.555   0.718  12.856  0.1575 -0.4883 -0.4448
  828MPD2     H12180   1.362   0.681  12.527  1.7596  0.3707 -1.3067
  828MPD2    H112181   1.735   0.733  12.733 -0.0254 -1.9339 -1.9132
  828MPD2    H212182   1.377   0.696  12.961 -3.5270  0.9121 -1.7391
  828MPD2    H312183   1.603   0.733  12.952 -0.0631  0.3942 -0.4753
  828MPD2     N12184   1.637   0.708  12.498  0.4599  0.5084  0.2262
  828MPD2    H512185   1.735   0.728  12.511  0.3509  0.1787  1.5846
  828MPD2    N112186   1.210   0.677  12.740  0.3476  0.5166  0.4323
  828MPD2    H712187   1.168   0.652  12.650 -1.0822  2.2767  0.5949
  829MPD2     C12188   0.452   0.872  12.144  0.1108 -0.6617 -0.0662
  829MPD2    C112189   0.377   0.854  12.255  0.0471  0.8102 -0.0870
  829MPD2    C212190   0.444   0.809  12.371 -0.1751 -0.1209 -0.2449
  829MPD2    C312191   0.580   0.785  12.368 -0.1349  0.1733  1.1348
  829MPD2    C412192   0.651   0.803  12.252 -0.2117  0.4230  0.6061
  829MPD2    C512193   0.587   0.842  12.139 -0.2774  0.3008 -0.0740
  829MPD2     H12194   0.395   0.796  12.467 -1.3329  2.3735 -0.4973
  829MPD2    H112195   0.756   0.776  12.244 -0.3449 -0.1842  0.8491
  829MPD2    H212196   0.407   0.900  12.049 -0.8865  0.6727  0.7953
  829MPD2    H312197   0.637   0.853  12.043 -0.4976  0.9281 -0.1129
  829MPD2     N12198   0.640   0.740  12.487 -0.4803 -0.1763  0.1980
  829MPD2    H512199   0.581   0.712  12.565  0.5321 -0.1155  0.9741
  829MPD2    N112200   0.232   0.860  12.239 -0.6441 -0.1919  0.0817
  829MPD2    H712201   0.194   0.893  12.150  1.8557  0.7906 -0.6168
  830MPD2     C12202   1.831   3.068  15.915 -0.3920  0.3236 -0.6514
  830MPD2    C112203   1.709   3.098  15.852  0.0363  0.1904 -0.5895
  830MPD2    C212204   1.709   3.215  15.780  0.6874  0.2537  0.3450
  830MPD2    C312205   1.815   3.300  15.765 -0.1111 -0.1470  0.8820
  830MPD2    C412206   1.929   3.270  15.838 -0.3326 -0.0159  0.6093
  830MPD2    C512207   1.930   3.156  15.909 -0.3824  0.2591 -0.0966
  830MPD2     H12208   1.622   3.235  15.720  1.8734  0.4261 -1.2976
  830MPD2    H112209   2.020   3.328  15.844 -0.7886  0.5815  1.8281
  830MPD2    H212210   1.840   2.995  15.994  2.1682 -1.9013 -3.0141
  830MPD2    H312211   2.017   3.134  15.969  0.6355  2.8359 -0.6152
  830MPD2     N12212   1.804   3.421  15.691 -0.6189  0.3031 -0.4561
  830MPD2    H512213   1.718   3.429  15.637 -0.4625  2.6799 -0.3728
  830MPD2    N112214   1.600   3.018  15.880  0.9675 -0.6000 -0.7022
  830MPD2    H712215   1.605   2.961  15.964 -1.8246  0.2739  0.0437
  831MPD2     C12216   1.221   0.458  16.750 -0.9347 -0.3369  0.9687
  831MPD2    C112217   1.298   0.353  16.686  0.1712 -1.0806 -0.0889
  831MPD2    C212218   1.253   0.220  16.705 -0.3756  0.1445  0.8811
  831MPD2    C312219   1.144   0.184  16.784  0.4292 -0.5119  0.1249
  831MPD2    C412220   1.081   0.282  16.853  0.2815  0.4073  0.1393
  831MPD2    C512221   1.122   0.415  16.830 -0.7568 -0.0077 -0.7485
  831MPD2     H12222   1.311   0.145  16.653  0.1967  1.1151  0.1053
  831MPD2    H112223   1.002   0.261  16.924 -0.9123  2.0512 -0.7157
  831MPD2    H212224   1.242   0.564  16.740  1.1250 -1.0447 -2.3148
  831MPD2    H312225   1.074   0.497  16.882 -0.8236 -0.3967 -0.1968
  831MPD2     N12226   1.084   0.054  16.781  0.1670  0.6371  0.3222
  831MPD2    H512227   1.001   0.033  16.836  0.7840 -0.3471  0.8810
  831MPD2    N112228   1.412   0.378  16.606 -0.0940 -0.4411  0.9288
  831MPD2    H712229   1.433   0.474  16.580  0.4986 -0.7154  0.3867
  832MPD2     C12230   4.303   1.275   0.058  0.2149  0.5931  0.0987
  832MPD2    C112231   4.299   1.412   0.018  0.4063  0.6051 -0.7264
  832MPD2    C212232   4.218   1.442  17.619  0.1443 -0.3588  0.2899
  832MPD2    C312233   4.134   1.342  17.562  0.2855  0.5222  0.0943
  832MPD2    C412234   4.132   1.213  17.611 -0.5488  0.0959  0.0989
  832MPD2    C512235   4.222   1.178   0.007  0.1689  0.1926 -0.5596
  832MPD2     H12236   4.215   1.548  17.597  0.0896 -0.5733 -0.7474
  832MPD2    H112237   4.066   1.135  17.576 -0.2469  0.2317 -0.7853
  832MPD2    H212238   4.380   1.238   0.124 -0.6100 -1.7056 -0.1978
  832MPD2    H312239   4.240   1.079   0.046 -0.6703  0.2480 -0.0276
  832MPD2     N12240   4.030   1.386  17.471  0.6629  0.3322  0.4997
  832MPD2    H512241   3.954   1.321  17.453  0.4526  0.6735  0.1359
  832MPD2    N112242   4.393   1.508   0.085  0.3003 -0.2074  0.1994
  832MPD2    H712243   4.435   1.484   0.174 -1.2198 -1.8608  0.4618
  833MPD2     C12244   1.835   3.083  12.579  0.3901  0.7867 -0.0296
  833MPD2    C112245   1.838   3.206  12.523  0.3672 -0.3561 -0.5315
  833MPD2    C212246   1.925   3.242  12.426 -0.6394 -0.0876  0.3682
  833MPD2    C312247   2.019   3.155  12.376  0.5009 -0.5342 -0.0846
  833MPD2    C412248   2.024   3.031  12.432  0.3022  0.4287  0.1735
  833MPD2    C512249   1.932   2.995  12.529  0.0503 -0.3007  0.4279
  833MPD2     H12250   1.932   3.342  12.385  0.1950 -0.2375  0.1530
  833MPD2    H112251   2.097   2.960  12.397  0.0114  1.2629 -2.1160
  833MPD2    H212252   1.756   3.043  12.643 -0.0111  1.4099 -0.1334
  833MPD2    H312253   1.925   2.897  12.575  1.0730 -0.5164  0.1288
  833MPD2     N12254   2.113   3.184  12.273  0.0609 -0.0849  0.6072
  833MPD2    H512255   2.171   3.111  12.234  0.3490 -0.0036  0.8834
  833MPD2    N112256   1.726   3.282  12.554  0.0925 -0.5869  1.1653
  833MPD2    H712257   1.667   3.253  12.631  1.4822  0.3123  2.5687
  834MPD2     C12258   1.906   2.563  11.792 -0.0379  0.1550  0.1925
  834MPD2    C112259   1.936   2.640  11.684 -0.1384  0.2271  0.6765
  834MPD2    C212260   1.997   2.760  11.705  0.2536 -0.0075  0.6602
  834MPD2    C312261   2.024   2.806  11.837  0.1205 -0.1101  0.3862
  834MPD2    C412262   1.989   2.725  11.944 -0.4207  1.2090 -0.4346
  834MPD2    C512263   1.930   2.602  11.918 -0.0026 -0.0247 -0.1366
  834MPD2     H12264   2.007   2.816  11.613 -0.7220  1.2887  1.3306
  834MPD2    H112265   2.000   2.750  12.049  1.6537  0.1498 -0.4082
  834MPD2    H212266   1.867   2.463  11.778 -0.0272  0.2727 -0.6749
  834MPD2    H312267   1.905   2.532  11.997  1.2651 -0.1491  0.1540
  834MPD2     N12268   2.085   2.934  11.848 -0.3701 -1.2649  0.2696
  834MPD2    H512269   2.104   2.992  11.768 -0.0715 -0.4319  0.9404
  834MPD2    N112270   1.906   2.581  11.559 -0.2736 -0.3430 -0.2914
  834MPD2    H712271   1.863   2.490  11.562 -1.0713  0.0316 -0.3051
  835MPD2     C12272   1.946   0.716  11.659 -0.5461  0.8339  0.0786
  835MPD2    C112273   1.917   0.821  11.742  0.4394 -0.0354 -0.4203
  835MPD2    C212274   2.002   0.879  11.832  0.0122  0.4276 -0.8191
  835MPD2    C312275   2.131   0.824  11.849 -0.2062 -0.5485  0.1082
  835MPD2    C412276   2.153   0.706  11.772  0.1225 -0.3941 -0.2957
  835MPD2    C512277   2.068   0.658  11.677  0.7701  0.2177  0.1411
  835MPD2     H12278   1.957   0.962  11.886 -1.4617 -0.3904 -0.7866
  835MPD2    H112279   2.250   0.660  11.790  0.2482 -0.6491 -1.6183
  835MPD2    H212280   1.877   0.673  11.587  1.9153  0.0408 -1.8265
  835MPD2    H312281   2.099   0.563  11.634 -0.8432  1.1436 -2.9943
  835MPD2     N12282   2.238   0.872  11.926  0.1078 -0.3782  0.3880
  835MPD2    H512283   2.330   0.828  11.929 -0.5514 -1.8993 -1.9475
  835MPD2    N112284   1.793   0.880  11.741 -0.1208  0.1039  0.0236
  835MPD2    H712285   1.779   0.958  11.804 -0.2872 -0.4484  0.6626
  836MPD2     C12286   2.088   0.941  12.638  0.1039  0.1326  0.6610
  836MPD2    C112287   2.209   1.012  12.623 -0.4388 -0.0666  0.3316
  836MPD2    C212288   2.262   1.087  12.732  0.2540  0.0087 -0.7542
  836MPD2    C312289   2.192   1.080  12.843  0.4281 -0.2954 -0.4919
  836MPD2    C412290   2.078   1.002  12.865  0.3193  0.2560  0.4781
  836MPD2    C512291   2.023   0.937  12.755 -0.0326  0.3428 -0.1205
  836MPD2     H12292   2.348   1.151  12.720 -0.2908  1.0298  0.7215
  836MPD2    H112293   2.017   0.997  12.955  0.5116  1.6517  0.6834
  836MPD2    H212294   2.060   0.879  12.554  2.3415  2.7023 -1.9775
  836MPD2    H312295   1.936   0.871  12.758  2.1681 -2.5659 -0.6006
  836MPD2     N12296   2.251   1.139  12.958  0.1779 -0.1258 -0.5375
  836MPD2    H512297   2.203   1.115  13.044 -1.4504 -0.5418 -1.5633
  836MPD2    N112298   2.257   0.998  12.491  0.0659  0.3465  0.2552
  836MPD2    H712299   2.193   0.971  12.417  1.4658 -0.3688 -0.7064
  837MPD2     C12300   0.317   0.222  10.366 -0.7313 -0.4039  0.6388
  837MPD2    C112301   0.241   0.131  10.293  0.6665 -0.0770 -0.9122
  837MPD2    C212302   0.190   0.170  10.170  0.7992  0.4949  0.4606
  837MPD2    C312303   0.202   0.301  10.126  0.4666  0.2004 -0.4426
  837MPD2    C412304   0.260   0.392  10.213 -0.1343 -0.4253 -0.0293
  837MPD2    C512305   0.325   0.354  10.325  0.1223  0.0202  0.2270
  837MPD2     H12306   0.132   0.094  10.120 -2.1875  2.8900  0.2522
  837MPD2    H112307   0.265   0.497  10.186 -1.6466 -0.1642  0.7184
  837MPD2    H212308   0.358   0.195  10.463  0.0869 -0.0952  0.3831
  837MPD2    H312309   0.370   0.432  10.386 -0.0931  2.2008 -2.3939
  837MPD2     N12310   0.145   0.342  10.004  0.8857 -0.5035 -0.2406
  837MPD2    H512311   0.112   0.265   9.946  1.4066 -2.4990  2.0928
  837MPD2    N112312   0.204   0.001  10.335  0.2125 -0.5320  0.0259
  837MPD2    H712313   0.156   4.670  10.265  0.4053 -2.4924  1.4747
  838MPD2     C12314   3.277   3.598  12.545  0.0613  0.3487 -0.4683
  838MPD2    C112315   3.210   3.477  12.511 -0.3455  0.6883  0.0749
  838MPD2    C212316   3.092   3.451  12.576 -0.2675 -0.3974 -0.3580
  838MPD2    C312317   3.040   3.545  12.670  0.4649  0.0980  0.0652
  838MPD2    C412318   3.106   3.659  12.699  0.7951  0.4638 -0.2867
  838MPD2    C512319   3.222   3.688  12.627  0.6400  0.0068 -0.2723
  838MPD2     H12320   3.031   3.365  12.552  0.9231 -1.5948  0.8626
  838MPD2    H112321   3.072   3.732  12.772  0.8739 -0.7935  1.0029
  838MPD2    H212322   3.366   3.634  12.496  1.7960 -1.5288  1.2812
  838MPD2    H312323   3.290   3.764  12.663 -1.3001  1.9561 -0.7560
  838MPD2     N12324   2.921   3.503  12.738  0.3121 -0.3816 -0.0899
  838MPD2    H512325   2.879   3.415  12.708 -0.5094 -0.0750  0.1565
  838MPD2    N112326   3.260   3.384  12.416 -0.3714  1.0331  0.5745
  838MPD2    H712327   3.197   3.306  12.399  0.9835 -0.1000  0.7602
  839MPD2     C12328   2.591   3.199  11.923 -0.3464  0.1840 -0.2099
  839MPD2    C112329   2.685   3.116  11.868  0.7941  0.4122 -1.4337
  839MPD2    C212330   2.826   3.144  11.892 -0.0659 -1.0777  0.1238
  839MPD2    C312331   2.866   3.255  11.968 -0.6721 -0.5343 -0.4334
  839MPD2    C412332   2.765   3.337  12.013  0.5476 -0.2258  0.4516
  839MPD2    C512333   2.628   3.308  12.000 -0.8306  0.0337 -0.6810
  839MPD2     H12334   2.905   3.074  11.868  1.5277  0.3831  1.0778
  839MPD2    H112335   2.781   3.427  12.072 -1.2519 -1.0483  2.1708
  839MPD2    H212336   2.483   3.191  11.916 -0.2971 -0.2316 -0.5316
  839MPD2    H312337   2.557   3.381  12.037 -1.6540 -0.3088 -1.5858
  839MPD2     N12338   2.998   3.280  12.009 -0.1707  0.0471  0.3151
  839MPD2    H512339   3.022   3.362  12.065  0.2170  0.0045  0.2068
  839MPD2    N112340   2.650   3.001  11.794 -0.2544  0.1706  0.3296
  839MPD2    H712341   2.721   2.955  11.738  0.1516  0.2451  0.7866
  840MPD2     C12342   3.359   0.597  10.810 -0.1345 -0.4899  0.0625
  840MPD2    C112343   3.316   0.689  10.902  0.0511  0.2500  0.4034
  840MPD2    C212344   3.405   0.785  10.954  0.4936 -0.2739  0.1946
  840MPD2    C312345   3.539   0.774  10.919  0.2073  0.8829 -0.6126
  840MPD2    C412346   3.584   0.684  10.824  0.2130 -0.1005  0.2778
  840MPD2    C512347   3.493   0.600  10.764  0.2181 -0.7502  0.2253
  840MPD2     H12348   3.372   0.867  11.016 -0.3168 -2.2314  2.3185
  840MPD2    H112349   3.686   0.690  10.789 -0.6481  0.6665 -2.0538
  840MPD2    H212350   3.295   0.529  10.755 -2.1640  0.0232  1.7767
  840MPD2    H312351   3.527   0.541  10.680  2.9732 -0.1946  0.9662
  840MPD2     N12352   3.638   0.858  10.977 -0.4098 -0.8289  0.5161
  840MPD2    H512353   3.730   0.858  10.933 -0.8638 -1.4369 -0.4381
  840MPD2    N112354   3.182   0.680  10.936 -0.0476  0.2942  0.1631
  840MPD2    H712355   3.129   0.604  10.893  2.5018 -1.0547 -0.5717
  841MPD2     C12356   2.805   0.344  15.076 -0.8389 -0.1722  0.1738
  841MPD2    C112357   2.947   0.348  15.065 -0.6440  0.1837  0.0501
  841MPD2    C212358   3.021   0.430  15.148  0.4719  0.1680  0.2098
  841MPD2    C312359   2.954   0.488  15.254 -0.1650 -0.4657  0.2541
  841MPD2    C412360   2.819   0.474  15.274 -0.3719  0.2534  0.7632
  841MPD2    C512361   2.750   0.402  15.186  0.3684  0.6950 -0.1812
  841MPD2     H12362   3.126   0.451  15.131  0.3022 -0.3833 -1.4983
  841MPD2    H112363   2.765   0.518  15.358 -0.6509  0.4405  0.4850
  841MPD2    H212364   2.731   0.287  15.021  1.1149 -0.6287 -1.9682
  841MPD2    H312365   2.642   0.398  15.200  0.6634 -0.5141  1.8390
  841MPD2     N12366   3.025   0.563  15.350 -0.3494  0.0405 -0.4362
  841MPD2    H512367   2.967   0.594  15.428  1.2712  0.1975  0.6946
  841MPD2    N112368   3.014   0.271  14.963  1.0191  0.7475 -0.0076
  841MPD2    H712369   3.115   0.269  14.961  1.0272 -0.1364  1.0459
  842MPD2     C12370   3.182   1.580  17.286  0.0826 -0.3585  0.2278
  842MPD2    C112371   3.242   1.704  17.305  0.0078  0.1825  0.1808
  842MPD2    C212372   3.321   1.724  17.415  0.0208 -0.5524 -0.3674
  842MPD2    C312373   3.342   1.621  17.509 -0.2065 -0.4859  0.5625
  842MPD2    C412374   3.285   1.500  17.486 -0.2351 -0.3565 -0.6197
  842MPD2    C512375   3.201   1.486  17.374 -0.1915 -0.4638 -0.2035
  842MPD2     H12376   3.371   1.819  17.429 -0.7643 -0.2620  0.4461
  842MPD2    H112377   3.308   1.413  17.547 -0.8700 -1.2228 -1.6279
  842MPD2    H212378   3.117   1.556  17.202  0.2865  0.0519 -0.0466
  842MPD2    H312379   3.165   1.385  17.353  0.7243 -0.5967 -1.0983
  842MPD2     N12380   3.416   1.622  17.623 -0.0797  0.0348 -0.3832
  842MPD2    H512381   3.409   1.542  17.685 -0.2796  2.0990  2.2799
  842MPD2    N112382   3.207   1.813  17.219  0.3253  0.2631 -0.5749
  842MPD2    H712383   3.240   1.905  17.249  1.3133  0.7841 -3.2160
  843MPD2     C12384   1.202   1.849   0.734 -0.1271  0.6264 -0.0090
  843MPD2    C112385   1.080   1.826   0.797  0.4570  0.0371 -0.5545
  843MPD2    C212386   0.997   1.942   0.822 -1.0897  0.4039 -0.0692
  843MPD2    C312387   1.033   2.064   0.769 -0.5458 -0.1702 -0.5212
  843MPD2    C412388   1.159   2.080   0.713 -0.2329  0.2063 -0.1127
  843MPD2    C512389   1.238   1.974   0.690 -0.3913  0.2014 -0.7093
  843MPD2     H12390   0.894   1.929   0.855 -0.5986 -2.3590  0.3655
  843MPD2    H112391   1.197   2.172   0.669  0.0874  0.3037  0.3692
  843MPD2    H212392   1.278   1.772   0.742 -0.2642  0.0566 -4.0063
  843MPD2    H312393   1.326   1.986   0.628 -0.4796 -0.7679 -1.0182
  843MPD2     N12394   0.956   2.185   0.800 -0.2672  0.2951  0.0182
  843MPD2    H512395   0.990   2.275   0.770  0.4291  0.2468  0.6667
  843MPD2    N112396   1.054   1.697   0.852 -0.3060  0.3804  0.8289
  843MPD2    H712397   1.118   1.620   0.837  0.5037  1.0933  0.6558
  844MPD2     C12398   3.693   0.769  16.894  0.3809  0.0991  0.3039
  844MPD2    C112399   3.818   0.748  16.842  0.4930 -0.1208 -0.6391
  844MPD2    C212400   3.919   0.842  16.883  0.5997  1.0795  0.1166
  844MPD2    C312401   3.884   0.957  16.948  0.7846 -0.1065  0.2216
  844MPD2    C412402   3.757   0.970  16.998 -0.9287  0.4436  0.4884
  844MPD2    C512403   3.665   0.867  16.987 -0.8478  0.7408  0.5770
  844MPD2     H12404   4.015   0.830  16.834 -0.1800 -0.1064 -1.1176
  844MPD2    H112405   3.728   1.056  17.059  0.3346  0.5151  0.9988
  844MPD2    H212406   3.611   0.697  16.894 -0.6807  1.2915 -0.5347
  844MPD2    H312407   3.569   0.871  17.037 -1.0690  1.6288  0.0728
  844MPD2     N12408   3.985   1.059  16.970 -0.4251 -0.1379 -0.2667
  844MPD2    H512409   4.078   1.038  16.933 -1.0435 -1.6683 -0.9681
  844MPD2    N112410   3.846   0.651  16.743 -0.3773 -0.4108  0.4168
  844MPD2    H712411   3.938   0.659  16.701  0.2036 -0.9191  1.5647
  845MPD2     C12412   4.338   2.094  17.110  0.0814  0.9496 -0.2562
  845MPD2    C112413   4.385   2.016  17.211 -0.1412 -0.4152 -0.4468
  845MPD2    C212414   4.362   1.880  17.207  0.0665 -0.5592  0.0025
  845MPD2    C312415   4.283   1.815  17.111 -0.2895  0.4897 -0.4900
  845MPD2    C412416   4.242   1.895  17.006 -0.6403 -0.6672  0.2359
  845MPD2    C512417   4.259   2.035  17.013  0.2445  0.0217 -0.0738
  845MPD2     H12418   4.403   1.813  17.282  2.2005  1.9160  1.0584
  845MPD2    H112419   4.185   1.852  16.925 -3.0260 -0.1644  1.6353
  845MPD2    H212420   4.349   2.202  17.104  1.0499  0.7440 -2.0653
  845MPD2    H312421   4.243   2.108  16.934  0.7844 -0.8324 -0.9696
  845MPD2     N12422   4.261   1.674  17.122  0.0103 -0.0645 -0.2832
  845MPD2    H512423   4.305   1.640  17.207 -0.3577 -0.6760 -0.3444
  845MPD2    N112424   4.460   2.079  17.314  0.0395 -0.0502 -0.5421
  845MPD2    H712425   4.453   2.180  17.319  0.9903  0.0241 -0.8194
  846MPD2     C12426   1.043   2.593  13.714  0.5937  0.0147 -0.0574
  846MPD2    C112427   1.032   2.721  13.769  0.1984 -0.4147  0.9052
  846MPD2    C212428   1.035   2.740  13.905  0.4915  0.2558  1.4166
  846MPD2    C312429   1.035   2.631  13.985  0.0375 -0.5261  0.3698
  846MPD2    C412430   1.060   2.505  13.936  0.2070 -0.0623  0.9003
  846MPD2    C512431   1.064   2.485  13.802  0.7575  0.5239  0.8180
  846MPD2     H12432   1.019   2.834  13.957  0.5106  0.4207  1.1268
  846MPD2    H112433   1.075   2.419  13.999  1.1292 -0.3382  0.3034
  846MPD2    H212434   1.063   2.569  13.610 -0.0432 -1.7448  0.2295
  846MPD2    H312435   1.078   2.386  13.762  0.0270  0.0246  1.8074
  846MPD2     N12436   1.016   2.646  14.119 -0.3950  0.1994  0.0217
  846MPD2    H512437   0.966   2.727  14.156 -0.1443 -0.0080  0.8203
  846MPD2    N112438   1.053   2.840  13.700  0.3735 -0.0660 -0.1404
  846MPD2    H712439   1.056   2.929  13.748 -0.4188  0.5825 -1.3009
  847MPD2     C12440   1.301   3.538  14.170  0.6637  0.5157 -0.3323
  847MPD2    C112441   1.323   3.596  14.290  0.9850  0.1339  0.6811
  847MPD2    C212442   1.406   3.518  14.370 -0.4183 -0.3178  0.8136
  847MPD2    C312443   1.452   3.390  14.335 -0.3418  0.2728 -0.1716
  847MPD2    C412444   1.420   3.335  14.217  1.0309  0.1664 -0.5666
  847MPD2    C512445   1.347   3.414  14.135 -0.6351 -0.6034  0.2204
  847MPD2     H12446   1.425   3.560  14.468 -1.9099 -0.7937  1.3111
  847MPD2    H112447   1.454   3.236  14.187 -0.6423 -0.1871 -1.2785
  847MPD2    H212448   1.239   3.586  14.095 -1.0976  1.3648  1.6807
  847MPD2    H312449   1.333   3.389  14.030  2.0519 -1.4613  0.0842
  847MPD2     N12450   1.534   3.329  14.428 -0.2447 -0.3899 -0.2756
  847MPD2    H512451   1.546   3.380  14.515  0.8626 -0.7347 -0.2244
  847MPD2    N112452   1.265   3.715  14.345 -0.2495  0.4730 -0.2115
  847MPD2    H712453   1.289   3.734  14.442  1.2088 -1.2013 -0.2538
  848MPD2     C12454   3.786   1.782  16.766 -0.6351 -0.4197  0.9577
  848MPD2    C112455   3.824   1.844  16.884 -0.8264 -0.6322  0.3993
  848MPD2    C212456   3.870   1.973  16.890 -0.5336  0.2089  0.4141
  848MPD2    C312457   3.871   2.050  16.772  0.6902  0.1521 -0.4913
  848MPD2    C412458   3.828   1.991  16.659 -0.5154  0.0629  0.5588
  848MPD2    C512459   3.795   1.857  16.657 -0.0234 -0.1215 -0.4672
  848MPD2     H12460   3.913   2.003  16.985  2.1081 -2.7796  0.1756
  848MPD2    H112461   3.844   2.039  16.564  2.0022 -0.9496  0.4478
  848MPD2    H212462   3.756   1.680  16.746 -1.7376 -0.0778  0.8596
  848MPD2    H312463   3.777   1.819  16.557 -1.6040  0.0042 -0.2326
  848MPD2     N12464   3.896   2.195  16.765 -0.0697  0.5859 -0.3719
  848MPD2    H512465   3.886   2.234  16.672  0.6460 -1.4808 -1.2928
  848MPD2    N112466   3.826   1.772  17.007 -0.2143  0.1641 -0.4819
  848MPD2    H712467   3.851   1.821  17.092 -2.7233  0.1379  0.2771
  849MPD2     C12468   2.782   1.063  14.006 -0.1721  0.4102  0.1489
  849MPD2    C112469   2.914   1.098  13.998 -0.2531 -0.5681  0.3653
  849MPD2    C212470   2.999   1.063  14.092 -0.6008  0.2541  0.6513
  849MPD2    C312471   2.964   0.995  14.206 -0.2793 -0.4009 -0.2635
  849MPD2    C412472   2.832   0.958  14.218 -0.8996 -0.3982  0.0581
  849MPD2    C512473   2.743   0.994  14.117 -0.2129 -0.3396 -0.0221
  849MPD2     H12474   3.106   1.082  14.085 -0.9612  2.1881  0.4115
  849MPD2    H112475   2.799   0.907  14.308 -0.2528  0.2543  0.6612
  849MPD2    H212476   2.710   1.082  13.926  1.3903  1.6325 -0.9559
  849MPD2    H312477   2.644   0.954  14.131 -0.9687  1.6549  0.3228
  849MPD2     N12478   3.066   0.965  14.299  0.1281 -0.0192  0.1711
  849MPD2    H512479   3.159   0.994  14.271  0.0266  1.5056  1.4428
  849MPD2    N112480   2.984   1.141  13.887 -0.2405  0.5438 -0.4997
  849MPD2    H712481   3.083   1.161  13.897 -0.2965 -0.5428  2.2529
  850MPD2     C12482   1.195   4.325  15.199  0.0810  0.1693 -0.0830
  850MPD2    C112483   1.235   4.400  15.312 -0.2546 -0.4824 -0.0204
  850MPD2    C212484   1.361   4.390  15.351  0.2047  0.0859 -0.1398
  850MPD2    C312485   1.452   4.299  15.300 -0.1213  1.1896  0.8937
  850MPD2    C412486   1.413   4.224  15.188  0.7610 -0.1515 -0.2688
  850MPD2    C512487   1.285   4.240  15.139 -0.1472  0.2065 -1.4451
  850MPD2     H12488   1.390   4.447  15.438  1.4558  0.7197 -0.9575
  850MPD2    H112489   1.481   4.152  15.143  0.3371 -1.2231  0.7986
  850MPD2    H212490   1.094   4.336  15.163 -0.1188  0.4917  0.5617
  850MPD2    H312491   1.255   4.178  15.056 -1.5379 -1.0199 -0.0372
  850MPD2     N12492   1.585   4.283  15.340 -0.3004 -0.4811  0.5932
  850MPD2    H512493   1.652   4.237  15.280 -1.9688 -0.9895 -0.8811
  850MPD2    N112494   1.152   4.483  15.381 -0.7407 -0.1422  0.1772
  850MPD2    H712495   1.202   4.532  15.454 -0.2812 -1.0381  0.4725
  851MPD2     C12496   1.467   4.337  15.951 -0.5642  0.3365  0.5792
  851MPD2    C112497   1.403   4.292  15.835 -1.0694  0.3888 -0.6880
  851MPD2    C212498   1.458   4.198  15.745  0.1419 -0.3113  0.4418
  851MPD2    C312499   1.569   4.137  15.782  0.6721 -0.4727 -0.4743
  851MPD2    C412500   1.636   4.170  15.902 -0.4221  1.5044  0.0965
  851MPD2    C512501   1.577   4.262  15.986  0.0828 -0.4627 -0.4406
  851MPD2     H12502   1.401   4.165  15.658 -1.4030  0.0458  1.3219
  851MPD2    H112503   1.734   4.130  15.926 -0.4842 -0.4233 -2.8607
  851MPD2    H212504   1.426   4.413  16.016  0.7289  1.9816 -0.5440
  851MPD2    H312505   1.645   4.284  16.067  0.3895  1.6086 -1.2573
  851MPD2     N12506   1.619   4.030  15.708 -0.2122 -0.0229 -0.7568
  851MPD2    H512507   1.555   3.995  15.637  1.3813  0.1007 -2.2631
  851MPD2    N112508   1.288   4.366  15.796 -0.2551  0.4416  0.3360
  851MPD2    H712509   1.271   4.457  15.838 -1.8582 -0.4162  1.5693
  852MPD2     C12510   0.429   2.303  10.870  0.3205 -0.1173 -0.2947
  852MPD2    C112511   0.530   2.218  10.891  0.1564 -0.3871  0.1435
  852MPD2    C212512   0.639   2.202  10.808 -0.1419 -0.0240  0.2257
  852MPD2    C312513   0.633   2.270  10.688  0.1737  0.5990 -0.1098
  852MPD2    C412514   0.524   2.344  10.654  0.2004 -0.3457  0.3254
  852MPD2    C512515   0.431   2.365  10.747 -0.7249  0.4335  0.0753
  852MPD2     H12516   0.724   2.140  10.836  0.9168  0.0434 -2.9001
  852MPD2    H112517   0.514   2.394  10.558 -3.4702 -0.6014  0.5713
  852MPD2    H212518   0.351   2.331  10.941  1.1380  0.2938  0.4400
  852MPD2    H312519   0.347   2.427  10.720 -0.0612  0.6676 -1.4709
  852MPD2     N12520   0.742   2.272  10.597  0.6284  0.2663 -0.2429
  852MPD2    H512521   0.825   2.228  10.635 -1.3939 -1.1748  2.4930
  852MPD2    N112522   0.530   2.145  11.011  0.3866 -0.9666 -0.0415
  852MPD2    H712523   0.613   2.087  11.023  1.2226  0.1559 -0.4411
  853MPD2     C12524   3.109   2.426  12.426  0.0424 -0.6953 -0.0086
  853MPD2    C112525   2.977   2.448  12.373  0.0561 -0.2493 -0.3836
  853MPD2    C212526   2.960   2.432  12.234 -0.4067  0.1071 -0.2236
  853MPD2    C312527   3.061   2.391  12.151  0.2533 -0.6545  0.1090
  853MPD2    C412528   3.188   2.379  12.205 -0.2270 -0.3216 -0.9395
  853MPD2    C512529   3.210   2.387  12.344 -0.1011 -0.1129  0.4330
  853MPD2     H12530   2.859   2.436  12.194 -0.2107  0.5000 -0.6823
  853MPD2    H112531   3.262   2.352  12.131  0.3931 -0.7715 -0.1546
  853MPD2    H212532   3.127   2.432  12.532 -0.8678  2.4614 -0.0396
  853MPD2    H312533   3.310   2.356  12.371  0.5067  0.9620 -0.5681
  853MPD2     N12534   3.051   2.377  12.013 -0.2635  0.3353  0.2088
  853MPD2    H512535   3.137   2.390  11.959  0.9828  0.8939  2.3289
  853MPD2    N112536   2.870   2.490  12.460  0.2393  0.0663  0.0101
  853MPD2    H712537   2.893   2.497  12.559 -1.9364 -3.2400  0.7614
  854MPD2     C12538   4.376   1.727  13.458 -0.6990  0.3372  0.9245
  854MPD2    C112539   4.480   1.788  13.387 -0.4348  0.0438  0.7009
  854MPD2    C212540   4.613   1.755  13.403 -0.1200  1.0747 -0.5178
  854MPD2    C312541   4.650   1.645  13.482 -0.1709  0.2445 -0.4323
  854MPD2    C412542   4.548   1.583  13.550  0.2820  0.0142 -0.0153
  854MPD2    C512543   4.418   1.630  13.544 -0.3125  0.1099 -0.0464
  854MPD2     H12544   4.686   1.815  13.349  1.3257 -1.3807 -1.3495
  854MPD2    H112545   4.572   1.503  13.619  0.7659 -1.3904 -1.7977
  854MPD2    H212546   4.273   1.757  13.453 -0.6151  0.4306 -0.2155
  854MPD2    H312547   4.345   1.584  13.609 -0.0324  2.4581  1.9340
  854MPD2     N12548   0.061   1.600  13.482 -0.1225 -0.6319 -0.7035
  854MPD2    H512549   0.082   1.527  13.550  0.7274 -0.1595 -0.4539
  854MPD2    N112550   4.424   1.885  13.297 -0.0383 -0.3662  0.3096
  854MPD2    H712551   4.327   1.917  13.295  0.9845  2.6804 -1.0899
  855MPD2     C12552   0.740   1.650  14.112 -0.5162  0.3907  0.0261
  855MPD2    C112553   0.672   1.533  14.083  1.4000  0.2701  0.3631
  855MPD2    C212554   0.609   1.517  13.960  0.5306  0.5817 -0.4424
  855MPD2    C312555   0.617   1.622  13.867  0.8069 -0.5691  0.2242
  855MPD2    C412556   0.680   1.740  13.899 -0.2464 -0.2228  0.2224
  855MPD2    C512557   0.738   1.753  14.022 -0.3107 -0.6017  0.3628
  855MPD2     H12558   0.544   1.433  13.941 -0.1511  1.3505 -1.5478
  855MPD2    H112559   0.698   1.815  13.824  0.0420 -0.6158 -0.0982
  855MPD2    H212560   0.785   1.657  14.211 -2.2599 -0.6970  0.9060
  855MPD2    H312561   0.786   1.848  14.043  0.8052 -1.9047  3.8364
  855MPD2     N12562   0.553   1.618  13.737  0.6179 -0.4874  0.1444
  855MPD2    H512563   0.556   1.693  13.669  2.7432 -1.2276 -0.5699
  855MPD2    N112564   0.656   1.426  14.179 -0.2455  0.5359 -0.3832
  855MPD2    H712565   0.611   1.343  14.142 -0.6160  0.5119  0.1334
  856MPD2     C12566   1.996   2.931  14.169  0.0540  0.3370 -0.4319
  856MPD2    C112567   2.059   3.038  14.231 -0.2637  0.6144  0.9162
  856MPD2    C212568   1.999   3.158  14.236  0.3355 -0.5085  0.3912
  856MPD2    C312569   1.873   3.172  14.182 -0.8632  0.1383 -1.0046
  856MPD2    C412570   1.812   3.066  14.127  1.2315 -0.9187 -0.5107
  856MPD2    C512571   1.874   2.945  14.109 -0.3740  0.7201 -0.3749
  856MPD2     H12572   2.054   3.243  14.275 -0.0206  0.8997 -2.1850
  856MPD2    H112573   1.711   3.063  14.087  0.8080  2.9703  0.2503
  856MPD2    H212574   2.044   2.835  14.159 -1.5927 -0.6904  1.5720
  856MPD2    H312575   1.822   2.859  14.069 -1.1607  0.5467  1.0131
  856MPD2     N12576   1.805   3.302  14.175  0.9404  0.2268 -0.6217
  856MPD2    H512577   1.718   3.303  14.123  0.5901 -1.8811 -0.1090
  856MPD2    N112578   2.184   3.027  14.283 -0.8053  0.1992  0.5091
  856MPD2    H712579   2.235   3.114  14.297  0.3131 -0.8354  2.9187
  857MPD2     C12580   3.564   0.352  13.596 -0.3181  0.8691 -0.0360
  857MPD2    C112581   3.673   0.357  13.520 -0.0656  0.4903 -0.0819
  857MPD2    C212582   3.772   0.451  13.553  0.3339 -0.3076 -0.4931
  857MPD2    C312583   3.757   0.533  13.663  0.5204 -0.1789 -0.0852
  857MPD2    C412584   3.641   0.524  13.747  0.1928 -0.1992  0.4071
  857MPD2    C512585   3.546   0.435  13.706  0.3955  0.5100  0.3863
  857MPD2     H12586   3.864   0.463  13.498  0.2387  0.7548 -0.4227
  857MPD2    H112587   3.635   0.588  13.834  0.1076 -1.3175  1.2225
  857MPD2    H212588   3.476   0.294  13.571  0.2071 -0.0746  0.2927
  857MPD2    H312589   3.451   0.436  13.759 -0.7886 -2.0286 -1.6766
  857MPD2     N12590   3.859   0.629  13.694  0.0576  0.0422 -0.7775
  857MPD2    H512591   3.922   0.658  13.620 -0.0708  1.5862 -0.2714
  857MPD2    N112592   3.690   0.269  13.408  0.1006  0.5621  0.7731
  857MPD2    H712593   3.624   0.193  13.390  1.1500 -0.4517  1.1915
  858MPD2     C12594   4.274   3.996  17.242 -0.5339 -0.0316  0.7050
  858MPD2    C112595   4.408   3.983  17.241  0.5627 -0.0500 -0.0190
  858MPD2    C212596   4.476   4.025  17.356  0.4095 -0.4073  0.2342
  858MPD2    C312597   4.410   4.077  17.466 -0.1575 -0.6995 -0.8212
  858MPD2    C412598   4.270   4.092  17.456 -0.1335  0.2876  0.5738
  858MPD2    C512599   4.205   4.049  17.345 -0.4534  0.9900 -0.4599
  858MPD2     H12600   4.584   4.024  17.350  0.3860 -1.4049 -0.0590
  858MPD2    H112601   4.205   4.131  17.533  1.0861 -1.6340  2.5668
  858MPD2    H212602   4.214   3.963  17.159  0.4154 -0.5849  0.2492
  858MPD2    H312603   4.101   4.077  17.339 -1.5551 -2.6980  1.4127
  858MPD2     N12604   4.477   4.138  17.570 -0.4636  0.4008 -0.3198
  858MPD2    H512605   4.419   4.200  17.625 -1.1948 -0.9294  0.4095
  858MPD2    N112606   4.463   3.923  17.121 -0.3145  0.3725  0.3782
  858MPD2    H712607   4.403   3.910  17.039 -1.3729  1.7616  0.9218
  859MPD2     C12608   3.039   1.922  16.117 -0.4786 -0.3404 -0.0145
  859MPD2    C112609   3.067   1.791  16.068 -0.0102  0.7487 -0.0825
  859MPD2    C212610   3.030   1.680  16.140  0.9475 -0.5415  0.5090
  859MPD2    C312611   2.959   1.704  16.262  0.1796  0.2716 -0.6923
  859MPD2    C412612   2.910   1.827  16.293  0.3453 -0.7080 -0.2887
  859MPD2    C512613   2.960   1.934  16.227 -0.3344  0.3325 -0.0753
  859MPD2     H12614   3.040   1.578  16.103 -0.7379 -0.7570  0.6363
  859MPD2    H112615   2.841   1.849  16.374 -0.8689 -2.0440 -0.9522
  859MPD2    H212616   3.076   2.007  16.061 -1.1342  0.4768  0.8044
  859MPD2    H312617   2.926   2.032  16.259  0.5088  0.9692 -1.1340
  859MPD2     N12618   2.906   1.605  16.345  0.0068  0.3027 -0.9583
  859MPD2    H512619   2.846   1.632  16.422  2.0535  1.3253  0.2727
  859MPD2    N112620   3.131   1.786  15.940 -0.6137  0.2307 -0.7798
  859MPD2    H712621   3.149   1.875  15.894  0.7660 -0.8407 -2.3761
  860MPD2     C12622   0.906   1.433  11.714 -0.6899 -0.0736 -0.7182
  860MPD2    C112623   0.971   1.527  11.790 -0.3748 -0.1897 -0.2983
  860MPD2    C212624   0.899   1.596  11.893  0.1768  0.0918 -0.1633
  860MPD2    C312625   0.764   1.566  11.906  0.7274  0.1827  0.3008
  860MPD2    C412626   0.701   1.482  11.812 -0.1063  0.3723  1.0743
  860MPD2    C512627   0.773   1.412  11.718  0.5898  0.0722  0.1496
  860MPD2     H12628   0.941   1.663  11.967  0.9909 -0.5393 -0.0486
  860MPD2    H112629   0.595   1.458  11.808 -0.4407  1.3468  4.2724
  860MPD2    H212630   0.952   1.366  11.643  1.0972  0.3024  0.0763
  860MPD2    H312631   0.719   1.346  11.651 -2.7779 -0.2444  3.1624
  860MPD2     N12632   0.692   1.619  12.016  0.8340 -0.1368  0.0782
  860MPD2    H512633   0.740   1.656  12.097 -0.0670  0.1002  0.5120
  860MPD2    N112634   1.111   1.542  11.779 -0.3356 -0.1793 -0.7951
  860MPD2    H712635   1.147   1.624  11.827 -0.2466 -0.1050 -0.9864
  861MPD2     C12636   3.998   4.547  11.571  0.5687  0.5402  0.0562
  861MPD2    C112637   3.897   4.604  11.653  0.0032  0.2665 -0.7551
  861MPD2    C212638   3.801   4.672  11.575 -0.6451 -0.2815 -0.2509
  861MPD2    C312639   3.804   4.686  11.436  0.3803 -0.0890  0.1136
  861MPD2    C412640   3.905   4.626  11.369 -0.3777 -0.3358 -0.3857
  861MPD2    C512641   3.996   4.554  11.437 -0.1597 -0.1138  0.6283
  861MPD2     H12642   3.731   0.002  11.637  1.3969  2.1126 -0.0715
  861MPD2    H112643   3.911   4.635  11.262  0.5315  1.8373 -0.1390
  861MPD2    H212644   4.084   4.495  11.611 -0.2980  0.3768  1.6824
  861MPD2    H312645   4.066   4.495  11.378 -0.0632 -1.1069  1.7313
  861MPD2     N12646   3.719   0.041  11.363 -0.0632  0.4533 -0.4815
  861MPD2    H512647   3.748   0.062  11.267 -0.5232 -0.9610 -0.9296
  861MPD2    N112648   3.888   4.608  11.801 -0.3995  0.4095  0.0826
  861MPD2    H712649   3.799   4.642  11.836  0.5319  1.3566  1.5237
  862MPD2     C12650   3.563   0.141  10.674 -0.9462  0.0201  0.0604
  862MPD2    C112651   3.544   0.070  10.790 -0.0863 -1.3283 -0.3311
  862MPD2    C212652   3.496   4.664  10.774 -0.0414 -0.1665  0.9208
  862MPD2    C312653   3.443   4.624  10.655  0.7458 -0.5075 -0.5123
  862MPD2    C412654   3.471   4.692  10.541 -0.2903  0.3629  0.3030
  862MPD2    C512655   3.538   0.085  10.552 -0.3898  0.0249  0.3066
  862MPD2     H12656   3.477   4.606  10.865 -1.1706  1.4197  1.6935
  862MPD2    H112657   3.449   4.653  10.442 -0.2178  1.7006 -0.2401
  862MPD2    H212658   3.599   0.244  10.671  0.1298 -0.3574  0.0711
  862MPD2    H312659   3.566   0.139  10.463 -1.8486 -0.2842 -0.3358
  862MPD2     N12660   3.382   4.494  10.652  0.7237 -0.3154 -0.4648
  862MPD2    H512661   3.365   4.450  10.742  0.2544 -0.1159 -0.4529
  862MPD2    N112662   3.569   0.116  10.915  0.6071 -0.7409 -0.2834
  862MPD2    H712663   3.556   0.046  10.987 -0.9519  0.4307  0.5687
  863MPD2     C12664   2.337   2.916  17.547  0.2464 -0.5528 -0.6075
  863MPD2    C112665   2.424   2.975  17.461 -0.4625  0.6463  0.5415
  863MPD2    C212666   2.561   2.959  17.476  0.2500 -0.3800 -0.2384
  863MPD2    C312667   2.608   2.868  17.568 -0.4828 -0.1039 -0.4863
  863MPD2    C412668   2.515   2.812  17.656 -0.6229 -0.1082 -0.2891
  863MPD2    C512669   2.384   2.841  17.655  0.5546  0.7629  0.7838
  863MPD2     H12670   2.628   3.011  17.408  1.7879 -0.6621  1.0694
  863MPD2    H112671   2.542   2.738   0.029 -1.5752 -0.8413 -0.6562
  863MPD2    H212672   2.230   2.934  17.535  0.2285  0.6444  1.2573
  863MPD2    H312673   2.317   2.799   0.028  0.4489  1.0902  0.8703
  863MPD2     N12674   2.744   2.846  17.586  0.4556  0.1688 -0.3872
  863MPD2    H512675   2.765   2.792  17.670 -1.9889  0.4520  0.3917
  863MPD2    N112676   2.364   3.052  17.356  0.7208  0.0982 -0.0936
  863MPD2    H712677   2.263   3.046  17.348  0.5635  1.3401  0.9716
  864MPD2     C12678   3.260   4.000  17.669 -0.3019 -0.1265 -0.4689
  864MPD2    C112679   3.341   3.925  17.588 -0.2059  0.2348 -0.9752
  864MPD2    C212680   3.433   3.999  17.513  0.3955  0.4441  0.3334
  864MPD2    C312681   3.443   4.137  17.524  0.0122 -0.5850 -0.3551
  864MPD2    C412682   3.355   4.205  17.608 -0.5494  0.8925 -0.6052
  864MPD2    C512683   3.276   4.134  17.687  0.3476 -0.2104  0.1207
  864MPD2     H12684   3.472   3.946  17.427  2.0035 -1.1516  2.0324
  864MPD2    H112685   3.373   4.311  17.620  1.0412  0.6576 -0.8300
  864MPD2    H212686   3.189   3.942   0.025 -0.2530 -1.3592 -1.6191
  864MPD2    H312687   3.231   4.183   0.071 -0.0303 -2.6149  1.3027
  864MPD2     N12688   3.528   4.220  17.448  0.1740 -0.0020  0.2242
  864MPD2    H512689   3.512   4.319  17.464  1.5295  0.0723  1.1140
  864MPD2    N112690   3.314   3.791  17.575  0.1348  1.0313  0.2615
  864MPD2    H712691   3.225   3.754  17.607  1.5061 -2.3453  0.1319
  865MPD2     C12692   3.509   4.568  16.678  0.3921  0.0934  1.5551
  865MPD2    C112693   3.499   4.443  16.732  0.4738 -0.3252  0.0737
  865MPD2    C212694   3.528   4.435  16.866 -0.2145 -0.6209 -0.5373
  865MPD2    C312695   3.580   4.539  16.938  0.1005 -1.0939 -0.3242
  865MPD2    C412696   3.606   4.656  16.870  0.4978 -0.6364 -0.8505
  865MPD2    C512697   3.572   4.672  16.745  0.2245 -0.0489 -0.0086
  865MPD2     H12698   3.518   4.343  16.923 -0.7229 -0.6122 -0.6068
  865MPD2    H112699   3.649   0.013  16.927 -3.5265 -0.0257  1.2643
  865MPD2    H212700   3.484   4.581  16.573  0.9413 -2.8499  1.0582
  865MPD2    H312701   3.580   0.042  16.695 -0.8949  0.8298  1.4981
  865MPD2     N12702   3.616   4.515  17.075  0.2968 -0.6647  0.0000
  865MPD2    H512703   3.611   4.416  17.099  0.0293 -1.2506 -2.4766
  865MPD2    N112704   3.478   4.330  16.643 -0.2625 -0.6355  0.2622
  865MPD2    H712705   3.489   4.342  16.543 -0.1391  2.0954  0.5953
  866MPD2     C12706   0.214   0.230  12.022  0.0466  0.0010  0.3512
  866MPD2    C112707   0.202   0.117  11.940  0.0048 -0.0005 -0.8531
  866MPD2    C212708   0.073   0.089  11.884  0.2785 -0.3694  0.1006
  866MPD2    C312709   4.685   0.157  11.922  0.6494  0.0149  0.2725
  866MPD2    C412710   4.704   0.269  12.006  0.2446 -0.1909  0.4278
  866MPD2    C512711   0.102   0.303  12.056 -1.1307 -0.0248 -0.0041
  866MPD2     H12712   0.066   0.020  11.800  0.0950 -0.6389  0.3374
  866MPD2    H112713   4.622   0.336  12.026 -0.8430 -1.2698 -0.3740
  866MPD2    H212714   0.312   0.251  12.062  0.0320  3.0660 -1.1710
  866MPD2    H312715   0.123   0.386  12.122  1.8005 -0.4846 -0.3729
  866MPD2     N12716   4.554   0.146  11.865  0.1745  0.5532  0.3235
  866MPD2    H512717   4.482   0.204  11.907 -0.6278 -2.4348  3.1494
  866MPD2    N112718   0.321   0.048  11.913  0.2527  0.5582  0.5124
  866MPD2    H712719   0.410   0.080  11.951  0.8308  0.5966 -0.8457
  867MPD2     C12720   2.082   3.964  16.949  0.6009 -0.8669  0.1323
  867MPD2    C112721   2.210   3.947  16.990 -0.9274 -0.5633  0.0943
  867MPD2    C212722   2.289   4.051  17.042  0.0889  0.5016 -0.0206
  867MPD2    C312723   2.235   4.175  17.049 -0.3689  0.4066 -0.1534
  867MPD2    C412724   2.102   4.188  17.017  0.0479 -0.2463 -0.5203
  867MPD2    C512725   2.026   4.089  16.968 -0.4335  0.5087  0.1782
  867MPD2     H12726   2.391   4.030  17.071  0.1778  0.0461 -0.6528
  867MPD2    H112727   2.057   4.286  17.032  0.8109 -0.1352  1.0496
  867MPD2    H212728   2.022   3.880  16.917  0.4138 -1.1852  1.3203
  867MPD2    H312729   1.924   4.105  16.937  0.0549  0.1899 -1.6130
  867MPD2     N12730   2.299   4.288  17.097  0.3973 -0.6754  0.4917
  867MPD2    H512731   2.251   4.377  17.088  1.4179 -0.1435  0.3288
  867MPD2    N112732   2.273   3.819  16.965 -0.1399  0.2416 -0.2608
  867MPD2    H712733   2.220   3.742  16.927  0.2373 -0.5283  0.7854
  868MPD2     C12734   3.763   2.881  13.311 -0.3353  0.1042  0.2961
  868MPD2    C112735   3.810   2.996  13.368  0.3619 -0.2127  0.2374
  868MPD2    C212736   3.718   3.086  13.419 -0.1607  0.2186 -0.6439
  868MPD2    C312737   3.579   3.071  13.396  0.3895 -0.8369 -0.9009
  868MPD2    C412738   3.533   2.965  13.321  0.0864 -0.4831 -0.0271
  868MPD2    C512739   3.627   2.867  13.279 -0.1229  0.1474 -0.2548
  868MPD2     H12740   3.749   3.170  13.480 -1.5964 -1.0353  1.8151
  868MPD2    H112741   3.435   2.959  13.275 -0.6204 -2.0399  1.6698
  868MPD2    H212742   3.824   2.801  13.270  2.3115  2.0540  0.4562
  868MPD2    H312743   3.599   2.775  13.230  1.7354  1.3340 -3.5103
  868MPD2     N12744   3.493   3.164  13.452 -0.2358 -0.3995  0.0472
  868MPD2    H512745   3.532   3.243  13.504 -2.2112 -1.4142  3.0884
  868MPD2    N112746   3.951   3.009  13.387 -0.1662 -0.1944 -0.4514
  868MPD2    H712747   4.016   2.946  13.343 -0.7820 -0.3409 -1.1445
  869MPD2     C12748   0.713   1.224   2.678 -0.0578 -0.2249  0.3048
  869MPD2    C112749   0.825   1.256   2.606 -0.4079  0.4198 -0.5598
  869MPD2    C212750   0.814   1.325   2.485  0.4718  0.5164  0.3644
  869MPD2    C312751   0.694   1.377   2.441 -0.4757  0.0211 -0.5772
  869MPD2    C412752   0.585   1.356   2.529 -0.2470 -0.0031  0.8069
  869MPD2    C512753   0.598   1.271   2.636 -0.1787 -0.4474  0.6355
  869MPD2     H12754   0.895   1.333   2.415  1.8255 -1.6188  1.6889
  869MPD2    H112755   0.484   1.388   2.506 -0.0624 -0.3373 -0.4802
  869MPD2    H212756   0.710   1.183   2.778 -0.2845 -1.8981 -0.3852
  869MPD2    H312757   0.503   1.252   2.686 -0.6571 -0.9658 -0.4654
  869MPD2     N12758   0.668   1.432   2.314 -0.4873 -0.4680 -0.4557
  869MPD2    H512759   0.583   1.483   2.296  0.6221  1.7975  0.7192
  869MPD2    N112760   0.948   1.202   2.637 -0.5190  0.1841  0.1662
  869MPD2    H712761   0.944   1.129   2.707  0.9192 -1.3129 -1.2995
  870MPD2     C12762   0.013   0.041   2.340 -0.3071 -0.4525 -0.2954
  870MPD2    C112763   4.716   4.711   2.216 -0.5796 -0.0811 -0.2018
  870MPD2    C212764   4.664   0.062   2.116  0.1326 -0.5178 -0.5178
  870MPD2    C312765   4.647   0.196   2.132 -0.1087 -1.4039 -0.3031
  870MPD2    C412766   4.674   0.254   2.255 -0.6213  0.3112  0.5214
  870MPD2    C512767   4.725   0.178   2.357  0.2733  0.1869  0.3761
  870MPD2     H12768   4.655   0.025   2.015 -1.7051 -0.2131 -0.4643
  870MPD2    H112769   4.673   0.361   2.272 -2.1959 -0.0454  2.6786
  870MPD2    H212770   0.037   4.713   2.431 -0.6757  0.5652  0.3974
  870MPD2    H312771   0.030   0.222   2.451 -0.7526 -0.3077  0.9338
  870MPD2     N12772   4.609   0.276   2.025 -0.1673  0.0565  0.0228
  870MPD2    H512773   4.603   0.223   1.938 -1.9107  2.8811 -1.5643
  870MPD2    N112774   0.027   4.578   2.201 -0.5929 -0.6848 -0.0344
  870MPD2    H712775   0.048   4.527   2.286  0.0693  0.8148  0.7130
  871MPD2     C12776   1.353   4.337  16.837 -0.2143  0.6155  0.8662
  871MPD2    C112777   1.341   4.292  16.967  0.0727  0.2524  0.8514
  871MPD2    C212778   1.382   4.165  16.998 -0.3759  0.3230 -0.7314
  871MPD2    C312779   1.432   4.079  16.901  0.6949 -0.2771  0.0072
  871MPD2    C412780   1.434   4.121  16.770  0.6160 -0.0924 -0.6959
  871MPD2    C512781   1.391   4.247  16.741  0.0128  0.6221 -0.0322
  871MPD2     H12782   1.380   4.130  17.100  1.5219  0.6163 -0.6021
  871MPD2    H112783   1.466   4.056  16.689 -0.5260 -0.4337 -0.8742
  871MPD2    H212784   1.342   4.442  16.811 -0.4420 -0.1239 -1.9676
  871MPD2    H312785   1.398   4.276  16.637 -1.0640  2.8222  0.5219
  871MPD2     N12786   1.456   3.942  16.931 -0.6282 -0.3389 -0.4398
  871MPD2    H512787   1.417   3.903  17.016 -2.5874  0.2640 -1.0801
  871MPD2    N112788   1.286   4.383  17.062 -0.7833 -0.1837 -0.0473
  871MPD2    H712789   1.271   4.477  17.026 -0.6344  0.7258  2.3113
  872MPD2     C12790   1.957   2.250  14.610 -0.0309 -0.3901 -0.7041
  872MPD2    C112791   1.894   2.286  14.493  0.0170 -0.2664 -0.2911
  872MPD2    C212792   1.760   2.243  14.475  0.2665 -0.0679 -0.5314
  872MPD2    C312793   1.710   2.152  14.567 -0.1738  0.4761 -0.0943
  872MPD2    C412794   1.772   2.120  14.684 -0.8887  0.1013 -0.1418
  872MPD2    C512795   1.891   2.170  14.699  0.1531  0.0351 -0.6654
  872MPD2     H12796   1.706   2.254  14.382 -0.0276  0.5414 -0.2870
  872MPD2    H112797   1.735   2.054  14.762 -2.3497 -2.4258 -2.9864
  872MPD2    H212798   2.060   2.275  14.633 -0.3507 -0.4548  0.7628
  872MPD2    H312799   1.938   2.143  14.793 -1.7861 -0.3025  0.2020
  872MPD2     N12800   1.584   2.075  14.539 -1.0162  0.2332  0.3648
  872MPD2    H512801   1.566   2.001  14.606  1.6467  0.0142  0.8172
  872MPD2    N112802   1.960   2.354  14.381 -0.4697  0.3159  0.8100
  872MPD2    H712803   1.905   2.382  14.300 -1.1892  1.3395  1.6496
  873MPD2     C12804   3.503   2.244   1.250 -0.2354 -0.3858  0.1933
  873MPD2    C112805   3.610   2.211   1.325 -0.1163  1.2620  1.1593
  873MPD2    C212806   3.687   2.103   1.296  0.3151  0.4523  0.3252
  873MPD2    C312807   3.666   2.034   1.173 -0.6348 -1.2113 -0.5263
  873MPD2    C412808   3.551   2.057   1.103  0.1126 -0.0296 -0.0505
  873MPD2    C512809   3.471   2.164   1.138 -0.1864 -0.0946 -0.9348
  873MPD2     H12810   3.772   2.079   1.359 -0.1185  0.0150  0.7453
  873MPD2    H112811   3.543   2.011   1.005  1.8941  0.3144 -0.3537
  873MPD2    H212812   3.437   2.329   1.269 -1.0768 -0.8642 -0.5696
  873MPD2    H312813   3.390   2.194   1.073 -0.4258 -0.5293 -0.8348
  873MPD2     N12814   3.742   1.916   1.137  0.4651 -0.5218 -0.5759
  873MPD2    H512815   3.708   1.856   1.063  1.0070 -1.2464 -0.2406
  873MPD2    N112816   3.621   2.301   1.429 -0.0303  0.7783 -0.5323
  873MPD2    H712817   3.557   2.379   1.434  1.6057  2.2607 -2.8014
  874MPD2     C12818   3.227   2.585  16.890 -0.1905 -0.2502  0.2940
  874MPD2    C112819   3.278   2.464  16.879  0.2812  0.3708 -0.3161
  874MPD2    C212820   3.402   2.459  16.835 -0.1120  0.0650  0.1386
  874MPD2    C312821   3.483   2.575  16.804 -0.5930 -0.3507  0.2803
  874MPD2    C412822   3.422   2.697  16.822  0.9740 -0.3072 -0.4146
  874MPD2    C512823   3.297   2.702  16.877  0.6570  0.7469 -0.8207
  874MPD2     H12824   3.444   2.359  16.825  1.4399  0.9012 -1.7272
  874MPD2    H112825   3.468   2.794  16.806  2.0458 -0.8067 -0.3647
  874MPD2    H212826   3.125   2.597  16.925 -0.3667  2.4040 -1.1587
  874MPD2    H312827   3.245   2.793  16.905 -0.7079 -0.0655 -0.7285
  874MPD2     N12828   3.620   2.554  16.771 -0.5404  0.0087 -0.4096
  874MPD2    H512829   3.662   2.463  16.789  0.5820  0.7388  0.6781
  874MPD2    N112830   3.200   2.347  16.897  0.4176 -1.0979  0.1104
  874MPD2    H712831   3.099   2.358  16.894  0.3178 -2.2425 -0.6405
  875MPD2     C12832   4.583   0.852  15.208  0.2299  0.0414 -0.3003
  875MPD2    C112833   4.465   0.844  15.279 -0.2575 -0.3521  0.0203
  875MPD2    C212834   4.464   0.849  15.420  0.9623 -0.0911  0.2284
  875MPD2    C312835   4.585   0.872  15.491  0.2030 -0.0579  0.2164
  875MPD2    C412836   4.704   0.879  15.414 -0.6392 -0.7765 -0.0651
  875MPD2    C512837   4.702   0.862  15.279  0.8865 -0.0688 -0.0768
  875MPD2     H12838   4.370   0.846  15.474  0.1940 -1.4228 -1.1803
  875MPD2    H112839   0.068   0.908  15.468 -0.0931 -1.5776 -0.5370
  875MPD2    H212840   4.577   0.848  15.099 -0.1393 -3.6067 -0.1362
  875MPD2    H312841   0.066   0.888  15.222  0.1205 -0.0682 -1.2743
  875MPD2     N12842   4.593   0.869  15.631  0.5778  0.3158  0.0498
  875MPD2    H512843   4.685   0.882  15.672  0.1889 -0.5338  1.2055
  875MPD2    N112844   4.335   0.822  15.223  0.0198 -0.0310  0.4374
  875MPD2    H712845   4.259   0.830  15.290  1.0484 -1.6519  1.7986
  876MPD2     C12846   3.789   2.608  16.276  0.3493  0.4295  0.2340
  876MPD2    C112847   3.782   2.475  16.248 -0.0650 -0.5346 -0.8890
  876MPD2    C212848   3.672   2.401  16.298 -0.6374 -0.4641  0.1607
  876MPD2    C312849   3.583   2.468  16.379 -0.0585  0.0188 -0.2474
  876MPD2    C412850   3.610   2.591  16.427  0.3660 -0.1762  0.4812
  876MPD2    C512851   3.712   2.662  16.373 -0.4580 -0.7503  0.2244
  876MPD2     H12852   3.633   2.307  16.259 -0.6030  0.1171 -1.2653
  876MPD2    H112853   3.548   2.634  16.506  0.0567  0.8717 -0.3396
  876MPD2    H212854   3.859   2.672  16.222 -2.1792  2.3858 -0.7334
  876MPD2    H312855   3.731   2.763  16.406  2.0522 -1.1519  0.0351
  876MPD2     N12856   3.474   2.382  16.430 -0.4558  0.6211  0.1111
  876MPD2    H512857   3.480   2.282  16.410 -0.2142  0.6262  0.1535
  876MPD2    N112858   3.877   2.423  16.159  1.1652 -0.0279 -0.0161
  876MPD2    H712859   3.950   2.487  16.131  0.8751  0.1690 -0.3204
  877MPD2     C12860   3.995   2.485  15.405  0.1033 -0.5041 -0.6319
  877MPD2    C112861   3.947   2.374  15.466 -0.1000  0.1064  0.0866
  877MPD2    C212862   3.869   2.284  15.396  0.1838  0.2209 -0.0533
  877MPD2    C312863   3.826   2.322  15.269 -0.0590 -0.0194  0.1820
  877MPD2    C412864   3.861   2.443  15.217 -0.7213 -0.1621 -0.0407
  877MPD2    C512865   3.955   2.522  15.279  0.5249 -0.0606  0.9611
  877MPD2     H12866   3.841   2.191  15.445  3.4447 -0.7219  0.0094
  877MPD2    H112867   3.817   2.482  15.125  1.1392 -1.5366 -1.5029
  877MPD2    H212868   4.068   2.551  15.450 -0.5825 -0.2230  0.0722
  877MPD2    H312869   3.973   2.619  15.234  1.6149 -0.8186 -0.2693
  877MPD2     N12870   3.735   2.249  15.194  0.5578  0.4322 -0.2164
  877MPD2    H512871   3.713   2.278  15.099 -0.6885  0.3947  0.0625
  877MPD2    N112872   3.979   2.331  15.594 -0.4265  0.7421  0.5731
  877MPD2    H712873   3.940   2.248  15.638  4.0415 -1.7947 -0.3222
  878MPD2     C12874   3.251   2.075  13.472 -0.1178 -0.0312 -0.1101
  878MPD2    C112875   3.356   1.988  13.439  0.4131  0.3684  0.8987
  878MPD2    C212876   3.331   1.862  13.472  0.2463  0.0149  0.2564
  878MPD2    C312877   3.214   1.814  13.535 -0.3542 -0.3897  0.0470
  878MPD2    C412878   3.122   1.902  13.581 -0.5956  0.4339 -0.3779
  878MPD2    C512879   3.140   2.032  13.543  0.4366 -0.4681 -0.1127
  878MPD2     H12880   3.406   1.789  13.446  0.8830 -0.2157  2.7111
  878MPD2    H112881   3.026   1.869  13.618  0.1781 -0.8399  0.5396
  878MPD2    H212882   3.254   2.180  13.445 -1.0586  0.6214  2.3638
  878MPD2    H312883   3.053   2.093  13.561 -0.2854 -2.2735  2.5811
  878MPD2     N12884   3.202   1.675  13.557  0.2943  0.1534 -0.5395
  878MPD2    H512885   3.272   1.614  13.518  0.4163 -1.0652  1.5857
  878MPD2    N112886   3.468   2.036  13.365  0.4746  0.1096 -0.0128
  878MPD2    H712887   3.460   2.129  13.325 -1.0002  0.8421  1.9586
  879MPD2     C12888   4.160   2.416  17.512 -0.5293  0.7983 -0.1452
  879MPD2    C112889   4.084   2.525  17.471 -0.6702 -0.2243 -0.1863
  879MPD2    C212890   4.029   2.533  17.344 -0.5171  0.0546 -0.3100
  879MPD2    C312891   4.017   2.415  17.272  0.4037 -0.5236  0.0944
  879MPD2    C412892   4.101   2.309  17.306 -1.2548  0.1760  0.3690
  879MPD2    C512893   4.166   2.313  17.422 -0.1637  0.0837  0.6811
  879MPD2     H12894   3.981   2.620  17.301  0.1276  0.9066  0.6933
  879MPD2    H112895   4.101   2.213  17.255  0.4005 -0.7371  2.0550
  879MPD2    H212896   4.204   2.409  17.611 -0.2980  0.3957 -0.2782
  879MPD2    H312897   4.236   2.233  17.441 -2.3124 -1.2340  2.8663
  879MPD2     N12898   3.924   2.393  17.163 -0.7135 -0.1038 -0.1356
  879MPD2    H512899   3.953   2.315  17.105 -0.0888 -0.0936  0.1669
  879MPD2    N112900   4.063   2.622  17.571 -0.0242  0.2460 -0.6431
  879MPD2    H712901   4.095   2.591  17.662  1.8246  0.3609 -1.2551
  880MPD2     C12902   0.731   4.327   0.872 -0.5090 -0.0241 -0.5457
  880MPD2    C112903   0.634   4.363   0.962 -0.3428 -0.3877  0.1895
  880MPD2    C212904   0.594   4.271   1.058  1.2052  0.3285  0.3008
  880MPD2    C312905   0.648   4.146   1.054 -0.0449  0.2084  0.2302
  880MPD2    C412906   0.744   4.113   0.963 -0.3903 -0.3980  0.1196
  880MPD2    C512907   0.785   4.202   0.871  0.1881 -0.0543  0.0241
  880MPD2     H12908   0.516   4.296   1.129  0.1274 -2.0262 -0.0438
  880MPD2    H112909   0.786   4.013   0.953 -0.6320 -0.4242 -0.6224
  880MPD2    H212910   0.766   4.394   0.794  0.1289  0.2432 -0.0217
  880MPD2    H312911   0.872   4.182   0.809  0.7160 -0.4045  0.8669
  880MPD2     N12912   0.599   4.050   1.149 -0.2163 -0.5845 -0.0577
  880MPD2    H512913   0.517   4.083   1.199  1.8685 -0.6884  3.4495
  880MPD2    N112914   0.587   4.498   0.938  0.5512  0.2773  0.4264
  880MPD2    H712915   0.612   4.543   0.851 -0.5499  0.3046  0.1320
  881MPD2     C12916   0.029   0.273   0.307 -0.0494  0.6885  0.9714
  881MPD2    C112917   0.133   0.189   0.306  0.6349  0.4350  0.5930
  881MPD2    C212918   0.192   0.172   0.429  0.0791 -0.2176 -0.1373
  881MPD2    C312919   0.129   0.204   0.548  0.0669 -0.1509 -0.4493
  881MPD2    C412920   0.020   0.278   0.552 -0.7751 -0.2859 -0.3342
  881MPD2    C512921   4.695   0.308   0.430 -0.1470 -0.1500 -0.4867
  881MPD2     H12922   0.289   0.125   0.435  0.0976  0.2269  3.3091
  881MPD2    H112923   4.706   0.316   0.646 -2.5553 -3.1963  0.1010
  881MPD2    H212924   4.694   0.283   0.217  1.1305 -0.2742  0.0912
  881MPD2    H312925   4.604   0.368   0.426 -1.2249 -1.8216 -0.9976
  881MPD2     N12926   0.183   0.167   0.676 -0.0510 -0.4312 -1.1938
  881MPD2    H512927   0.135   0.218   0.750  3.4799  1.7216 -0.3793
  881MPD2    N112928   0.197   0.174   0.181 -0.0561  1.0167 -0.5922
  881MPD2    H712929   0.146   0.206   0.100  0.5514  2.5679 -0.3599
  882MPD2     C12930   3.477   1.950  14.467  0.1360 -0.1615  0.1777
  882MPD2    C112931   3.432   2.035  14.564  0.1076 -0.0124  0.2271
  882MPD2    C212932   3.333   2.130  14.539  0.7800 -0.1107  0.5195
  882MPD2    C312933   3.295   2.157  14.409 -0.3571 -0.0514 -0.2667
  882MPD2    C412934   3.343   2.074  14.310  0.1149 -0.0739 -0.3556
  882MPD2    C512935   3.425   1.971  14.340  0.0378 -0.5782 -0.4936
  882MPD2     H12936   3.295   2.188  14.623  1.9959 -0.9571  1.6556
  882MPD2    H112937   3.293   2.078  14.214 -0.6205  1.6527  0.0956
  882MPD2    H212938   3.549   1.870  14.482  1.1982  0.1738 -3.0942
  882MPD2    H312939   3.453   1.907  14.258  0.3026  0.2697 -1.0703
  882MPD2     N12940   3.189   2.247  14.379 -0.3638 -0.5433  0.0609
  882MPD2    H512941   3.149   2.239  14.285 -1.5581 -1.0942  0.6130
  882MPD2    N112942   3.467   2.006  14.693 -0.6710  0.1061 -0.5748
  882MPD2    H712943   3.515   1.918  14.710 -2.9488 -0.5758  2.2144
  883MPD2     C12944   0.765   2.267  16.870  0.0060  0.4458 -0.1505
  883MPD2    C112945   0.820   2.253  16.742  0.0003  0.4129  0.0518
  883MPD2    C212946   0.956   2.259  16.733 -0.0016  0.6406  0.1695
  883MPD2    C312947   1.030   2.266  16.852  0.0601 -0.1471 -0.0638
  883MPD2    C412948   0.972   2.268  16.982  0.1868 -0.4794 -0.2007
  883MPD2    C512949   0.836   2.280  16.982 -0.1862 -0.1080 -0.9467
  883MPD2     H12950   1.013   2.253  16.642 -1.7158  2.7950 -1.0445
  883MPD2    H112951   1.019   2.281  17.079  0.0452 -1.1073 -0.0453
  883MPD2    H212952   0.658   2.278  16.888  0.0063 -3.1033  2.0285
  883MPD2    H312953   0.781   2.295  17.075  3.2730  0.3976  1.0461
  883MPD2     N12954   1.169   2.263  16.849 -0.8385  0.3230  0.1020
  883MPD2    H512955   1.215   2.284  16.761 -0.1360  0.9699  0.6337
  883MPD2    N112956   0.740   2.245  16.625 -0.1127  0.2127  0.4526
  883MPD2    H712957   0.791   2.234  16.539  0.4754 -2.3380  1.1355
  884MPD2     C12958   2.610   2.725  15.614  0.1763 -0.3363  0.3256
  884MPD2    C112959   2.635   2.844  15.558 -0.5655 -0.2580  0.0864
  884MPD2    C212960   2.534   2.933  15.553 -0.4754 -0.2429 -1.0472
  884MPD2    C312961   2.407   2.914  15.605 -0.1134 -0.8920  0.0036
  884MPD2    C412962   2.383   2.790  15.649  0.4231 -0.6075  0.1710
  884MPD2    C512963   2.487   2.693  15.658 -0.4400  0.5832 -0.0164
  884MPD2     H12964   2.546   3.028  15.503  4.5619 -0.4984 -0.3770
  884MPD2    H112965   2.287   2.762  15.693 -2.0717  3.1885 -2.8795
  884MPD2    H212966   2.677   2.640  15.621 -0.7018 -0.6761  4.6337
  884MPD2    H312967   2.479   2.593  15.699 -0.6004  0.7235  0.2963
  884MPD2     N12968   2.320   3.027  15.610 -0.0385 -0.2144 -0.6261
  884MPD2    H512969   2.345   3.100  15.543  2.2222 -2.4807 -2.2427
  884MPD2    N112970   2.758   2.881  15.505  0.1377 -0.1398 -0.0131
  884MPD2    H712971   2.770   2.977  15.474 -3.3400 -0.2586 -1.7025
  885MPD2     C12972   0.471   2.779   0.406  0.0413 -0.5443  0.1244
  885MPD2    C112973   0.506   2.914   0.395 -0.1534 -0.1634 -0.2281
  885MPD2    C212974   0.531   2.972   0.269  0.3745 -0.2251 -0.0559
  885MPD2    C312975   0.532   2.885   0.161 -0.6138  0.0061  0.5775
  885MPD2    C412976   0.483   2.755   0.176  0.4747 -0.0681 -0.2038
  885MPD2    C512977   0.456   2.703   0.298  0.3512 -0.2980  0.5993
  885MPD2     H12978   0.559   3.075   0.254  3.0313 -0.8111  0.7296
  885MPD2    H112979   0.479   2.688   0.091  0.3042 -1.9387  1.2860
  885MPD2    H212980   0.448   2.741   0.505 -0.4333  4.0390  1.7477
  885MPD2    H312981   0.430   2.598   0.306  2.5876 -0.9846 -1.0038
  885MPD2     N12982   0.590   2.930   0.037  0.1909  0.0475 -0.0948
  885MPD2    H512983   0.615   3.029   0.039 -0.2507  0.1784 -1.0316
  885MPD2    N112984   0.521   2.987   0.517  0.3472 -0.2944 -0.1217
  885MPD2    H712985   0.515   2.931   0.602  2.2410  1.0034  0.8524
  886MPD2     C12986   1.967   1.437  15.431  0.3273  0.2868  0.9055
  886MPD2    C112987   2.098   1.459  15.465  0.1578 -0.4813  0.0705
  886MPD2    C212988   2.148   1.594  15.466  0.4269  0.3178  0.1534
  886MPD2    C312989   2.068   1.707  15.444  0.1423  0.7250  0.4700
  886MPD2    C412990   1.935   1.673  15.418  0.1541  0.2472  0.7099
  886MPD2    C512991   1.888   1.548  15.415  0.0630 -0.7193 -0.2992
  886MPD2     H12992   2.249   1.615  15.499 -0.0293  2.7041  0.0911
  886MPD2    H112993   1.863   1.753  15.401  1.5688  1.4513  0.3690
  886MPD2    H212994   1.936   1.339  15.398 -0.1224  0.2501  1.4473
  886MPD2    H312995   1.783   1.539  15.392 -0.0312 -0.0207 -0.1375
  886MPD2     N12996   2.112   1.839  15.453  0.3605 -0.0267  0.6275
  886MPD2    H512997   2.040   1.908  15.430  1.1413  0.3911 -0.5640
  886MPD2    N112998   2.197   1.356  15.497 -0.2120 -0.3981  0.2600
  886MPD2    H712999   2.288   1.392  15.524  0.9240 -1.7828 -1.7413
  887MPD2     C13000   2.744   1.524  15.437 -0.1849 -0.8180 -0.0341
  887MPD2    C113001   2.669   1.491  15.552  0.3852  0.0328 -0.3268
  887MPD2    C213002   2.651   1.592  15.648  0.1000 -0.2606 -0.0521
  887MPD2    C313003   2.732   1.703  15.649 -0.1714 -0.7074 -0.0433
  887MPD2    C413004   2.826   1.720  15.555 -0.7898 -0.1696 -0.4227
  887MPD2    C513005   2.830   1.631  15.451  0.0921 -0.5590 -0.3425
  887MPD2     H13006   2.573   1.573  15.721 -0.4775  1.0923 -0.3142
  887MPD2    H113007   2.879   1.814  15.552  1.3447 -1.4215 -1.5153
  887MPD2    H213008   2.752   1.454  15.354  2.0574 -0.1933 -0.3238
  887MPD2    H313009   2.906   1.661  15.380 -0.4463 -1.6538 -1.3802
  887MPD2     N13010   2.710   1.800  15.744 -0.2096  0.0866  0.1247
  887MPD2    H513011   2.631   1.791  15.807 -1.3358  1.6326 -1.0820
  887MPD2    N113012   2.592   1.368  15.560  0.1082  0.4858 -0.0394
  887MPD2    H713013   2.596   1.303  15.483  1.1279  1.3819 -0.7374
  888MPD2     C13014   0.211   1.759  15.372 -0.5253 -0.1965 -0.2405
  888MPD2    C113015   0.133   1.825  15.467 -0.9277  0.0772 -0.0416
  888MPD2    C213016   0.128   1.960  15.465  0.3969  0.1896  1.3813
  888MPD2    C313017   0.196   2.030  15.368  0.0036  0.6004 -0.2939
  888MPD2    C413018   0.256   1.960  15.264  0.5801  0.3570 -0.4216
  888MPD2    C513019   0.266   1.826  15.268  0.1750 -0.4130  0.1804
  888MPD2     H13020   0.074   2.004  15.548  1.2166  2.4405  0.7349
  888MPD2    H113021   0.288   2.013  15.175  0.5249  0.7059 -0.2314
  888MPD2    H213022   0.205   1.653  15.351 -1.8281 -0.0517 -0.6069
  888MPD2    H313023   0.312   1.769  15.188  1.3738 -0.4908  0.9105
  888MPD2     N13024   0.196   2.169  15.372 -0.2808  0.2279 -0.5786
  888MPD2    H513025   0.143   2.219  15.442 -2.5128  0.4244 -2.4073
  888MPD2    N113026   0.062   1.760  15.570  0.3067  0.0991 -0.3086
  888MPD2    H713027   0.012   1.820  15.635  0.4920  0.5462 -0.5798
  889MPD2     C13028   4.080   1.330  13.411  0.2441 -0.4359  0.0020
  889MPD2    C113029   4.048   1.341  13.542 -0.0565 -0.5592  0.5635
  889MPD2    C213030   4.057   1.467  13.607  0.2244 -0.0459 -0.7167
  889MPD2    C313031   4.048   1.583  13.532 -0.8342  0.4561  0.4938
  889MPD2    C413032   4.070   1.575  13.396  0.4445 -0.0983  0.0681
  889MPD2    C513033   4.081   1.449  13.341 -0.1676 -0.6656 -0.3298
  889MPD2     H13034   4.040   1.470  13.714 -0.9769  0.1502 -0.9157
  889MPD2    H113035   4.073   1.664  13.335  0.6415 -0.3513 -0.2892
  889MPD2    H213036   4.124   1.245  13.361 -1.2058 -0.8346 -0.5746
  889MPD2    H313037   4.100   1.434  13.236  1.3162  4.0716 -0.7059
  889MPD2     N13038   4.030   1.701  13.604 -0.5345  0.0683  0.1077
  889MPD2    H513039   4.035   1.698  13.705 -0.6702 -1.5433  0.0569
  889MPD2    N113040   4.043   1.226  13.627 -0.2087 -0.4652 -0.2983
  889MPD2    H713041   4.040   1.253  13.725 -0.0331 -0.6215 -0.2495
  890MPD2     C13042   3.197   2.997  15.168  0.1409  0.4711  0.6911
  890MPD2    C113043   3.293   3.046  15.255  0.0173  0.8434 -0.3519
  890MPD2    C213044   3.372   2.954  15.324  0.2501 -0.0578  0.4713
  890MPD2    C313045   3.343   2.818  15.317  0.7166  0.9096 -0.2805
  890MPD2    C413046   3.242   2.770  15.240  0.2714 -0.2727  0.7520
  890MPD2    C513047   3.180   2.857  15.160  0.0408 -0.5084  0.4002
  890MPD2     H13048   3.449   2.985  15.394 -2.2847  0.4459  3.0500
  890MPD2    H113049   3.221   2.665  15.222  0.5860  0.0776 -1.7758
  890MPD2    H213050   3.130   3.063  15.114  1.9732 -0.7142 -3.0736
  890MPD2    H313051   3.102   2.819  15.096 -0.0454  0.6986 -0.2215
  890MPD2     N13052   3.436   2.737  15.384 -0.2861  0.0812  0.1120
  890MPD2    H513053   3.519   2.781  15.421 -0.2862  0.7139 -0.6338
  890MPD2    N113054   3.331   3.182  15.258 -0.2932  0.3118  0.0396
  890MPD2    H713055   3.301   3.236  15.178 -0.2527 -0.7460 -0.6907
  891MPD2     C13056   1.209   0.766  17.030  0.1826 -0.1804  1.0148
  891MPD2    C113057   1.153   0.890  17.049 -0.5976  0.4988 -0.3615
  891MPD2    C213058   1.224   0.980  17.129  0.2372  0.2150  0.2593
  891MPD2    C313059   1.349   0.940  17.182 -0.8839 -0.1668  0.6137
  891MPD2    C413060   1.395   0.813  17.169  0.4051  0.6141  0.0116
  891MPD2    C513061   1.322   0.727  17.097 -0.0934  0.0088 -0.9345
  891MPD2     H13062   1.192   1.082  17.142  2.1811  0.7326  0.9605
  891MPD2    H113063   1.496   0.778  17.188  0.2530 -0.0359 -0.3852
  891MPD2    H213064   1.157   0.690  16.973 -0.9999  1.2462  0.1664
  891MPD2    H313065   1.362   0.627  17.087  3.0476  1.3164 -1.3094
  891MPD2     N13066   1.422   1.032  17.262 -0.0969 -0.0303  0.1483
  891MPD2    H513067   1.369   1.110  17.299 -0.8515  0.6659 -2.4089
  891MPD2    N113068   1.026   0.915  16.985  0.6341  0.1759  0.1505
  891MPD2    H713069   0.991   0.842  16.924 -2.4302  0.7252  1.2278
  892MPD2     C13070   2.699   2.630  15.125 -0.7908  0.1344  0.8877
  892MPD2    C113071   2.609   2.645  15.030 -0.1053  0.9384 -0.5633
  892MPD2    C213072   2.644   2.628  14.901  0.7000  0.2638 -1.0618
  892MPD2    C313073   2.770   2.610  14.867 -0.1276 -0.5012  0.0083
  892MPD2    C413074   2.866   2.624  14.966  0.0731 -0.0240  0.0564
  892MPD2    C513075   2.834   2.624  15.097  0.8781 -0.3887  0.1453
  892MPD2     H13076   2.569   2.633  14.823  0.0701  0.5454 -0.4307
  892MPD2    H113077   2.973   2.624  14.947 -0.3104  2.2381 -2.1025
  892MPD2    H213078   2.674   2.623  15.230  0.5911  0.4906  1.2461
  892MPD2    H313079   2.912   2.616  15.171  1.1275  2.7290  0.2175
  892MPD2     N13080   2.818   2.578  14.739  0.3538 -0.1408  0.0477
  892MPD2    H513081   2.915   2.604  14.724  0.4387 -1.4023 -1.5665
  892MPD2    N113082   2.474   2.656  15.054  0.2117 -0.1196 -1.0580
  892MPD2    H713083   2.410   2.670  14.976 -0.0886  4.0747 -0.0702
  893MPD2     C13084   0.735   4.548   2.852 -0.2678 -0.2350 -0.6574
  893MPD2    C113085   0.624   4.582   2.778 -0.0387  0.7940 -0.5831
  893MPD2    C213086   0.530   4.481   2.738 -0.2841  0.0922  0.4452
  893MPD2    C313087   0.561   4.348   2.762 -0.1908  0.7370  0.6841
  893MPD2    C413088   0.683   4.311   2.815  0.8207 -0.5506 -0.5464
  893MPD2    C513089   0.761   4.411   2.870 -0.0438 -0.5428 -0.2472
  893MPD2     H13090   0.439   4.514   2.691  1.3474  1.3020 -1.8584
  893MPD2    H113091   0.699   4.204   2.822  0.2718 -0.7633 -2.6322
  893MPD2    H213092   0.801   4.619   2.900 -1.9517 -0.4415  1.9580
  893MPD2    H313093   0.846   4.382   2.930  0.0889 -0.5664 -0.4441
  893MPD2     N13094   0.464   4.247   2.733  0.0675 -0.6269  0.2614
  893MPD2    H513095   0.495   4.151   2.737  0.9028 -0.3742 -0.0576
  893MPD2    N113096   0.612   4.715   2.749  0.3395  0.0921 -0.2354
  893MPD2    H713097   0.693   0.049   2.763  0.5065 -0.1972  0.0018
  894MPD2     C13098   2.157   3.701   1.450  0.3162 -0.1500  0.1495
  894MPD2    C113099   2.274   3.668   1.519  0.5388  0.4112  0.3757
  894MPD2    C213100   2.388   3.749   1.513 -0.3387  0.3646  0.4357
  894MPD2    C313101   2.391   3.862   1.437 -0.3729  0.6497 -0.1762
  894MPD2    C413102   2.274   3.892   1.366 -0.0507 -0.3453  0.1200
  894MPD2    C513103   2.166   3.804   1.360 -0.3286 -0.1235  0.1042
  894MPD2     H13104   2.476   3.721   1.571 -0.3863  1.1825  0.9100
  894MPD2    H113105   2.259   3.979   1.303 -1.7809 -0.8477 -0.1484
  894MPD2    H213106   2.067   3.640   1.448  0.0924  0.1900 -0.2307
  894MPD2    H313107   2.086   3.832   1.293 -0.0445 -0.4346 -0.3644
  894MPD2     N13108   2.512   3.932   1.429 -0.4448  0.1871 -0.0660
  894MPD2    H513109   2.589   3.909   1.490 -0.2347 -1.3641 -0.9328
  894MPD2    N113110   2.279   3.566   1.615 -0.0350  1.0384 -0.3190
  894MPD2    H713111   2.369   3.557   1.662 -1.1498  2.7445  2.1480
  895MPD2     C13112   1.439   2.200  13.560 -0.7013  0.0379  0.1873
  895MPD2    C113113   1.402   2.139  13.445  0.3410  0.5353  0.0462
  895MPD2    C213114   1.477   2.031  13.411 -0.3383  0.9459 -0.6052
  895MPD2    C313115   1.598   2.003  13.471  0.4715  0.8871 -0.0818
  895MPD2    C413116   1.635   2.060  13.589  0.3603 -0.0685  0.1297
  895MPD2    C513117   1.551   2.159  13.635 -0.3612 -0.7550 -0.2270
  895MPD2     H13118   1.468   2.004  13.306 -0.6062 -4.3515  0.8045
  895MPD2    H113119   1.724   2.026  13.642  0.7135  1.1988  0.3720
  895MPD2    H213120   1.387   2.284  13.603  0.3562  0.9322 -0.2785
  895MPD2    H313121   1.573   2.211  13.727  0.1941 -0.9134 -0.2718
  895MPD2     N13122   1.663   1.892  13.417  0.2088  0.6661 -0.3306
  895MPD2    H513123   1.624   1.865  13.327  1.3936 -1.0156 -0.3477
  895MPD2    N113124   1.284   2.174  13.377 -0.6380  0.0151  0.5985
  895MPD2    H713125   1.245   2.109  13.310  1.5227 -0.1942 -0.4370
  896MPD2     C13126   3.785   4.396   2.120 -0.1852 -0.2919  0.4500
  896MPD2    C113127   3.736   4.385   1.990  0.2181  0.4729 -0.3105
  896MPD2    C213128   3.606   4.414   1.968 -0.3149 -0.5613 -0.2909
  896MPD2    C313129   3.521   4.439   2.071  0.5627 -0.2522  0.4143
  896MPD2    C413130   3.571   4.460   2.202 -0.0881  0.1670  0.0721
  896MPD2    C513131   3.705   4.450   2.223 -0.3740 -0.6479  0.5389
  896MPD2     H13132   3.574   4.425   1.865 -0.5919 -0.4612 -0.1924
  896MPD2    H113133   3.506   4.467   2.289 -0.4729  0.4302 -0.2377
  896MPD2    H213134   3.886   4.366   2.143 -0.7899 -2.8713 -0.2425
  896MPD2    H313135   3.748   4.468   2.320  0.5255 -0.3230  0.0797
  896MPD2     N13136   3.391   4.468   2.030 -0.7366  0.5480  0.0554
  896MPD2    H513137   3.367   4.466   1.932  0.5321 -0.0862 -0.2357
  896MPD2    N113138   3.827   4.353   1.882  0.5682  0.2203  0.7627
  896MPD2    H713139   3.917   4.334   1.925  1.3713  0.3558 -0.8607
  897MPD2     C13140   0.605   0.820  11.207 -0.7658 -0.5843 -0.1444
  897MPD2    C113141   0.543   0.833  11.079  0.5819 -0.4219 -0.0986
  897MPD2    C213142   0.415   0.778  11.063  1.1269  0.7791  0.3725
  897MPD2    C313143   0.341   0.729  11.169  0.3302  0.3364  0.5685
  897MPD2    C413144   0.409   0.700  11.283  0.7153  0.5352  0.0466
  897MPD2    C513145   0.534   0.747  11.298  0.4353  0.1090 -0.3442
  897MPD2     H13146   0.361   0.797  10.971  2.1323 -1.2630 -0.6592
  897MPD2    H113147   0.357   0.653  11.366 -0.6348  0.6352 -0.7437
  897MPD2    H213148   0.702   0.862  11.231 -1.2952  1.0157 -0.8071
  897MPD2    H313149   0.589   0.735  11.390 -1.5816 -0.4604  0.7683
  897MPD2     N13150   0.202   0.700  11.160 -0.2596 -0.3098  0.0029
  897MPD2    H513151   0.153   0.717  11.072 -0.6643 -0.4113  0.2069
  897MPD2    N113152   0.613   0.902  10.984 -0.0241 -0.3885 -0.4963
  897MPD2    H713153   0.699   0.946  11.014 -1.3179  0.9366  1.2781
  898MPD2     C13154   2.372   1.559   0.618 -0.3588  0.2942 -0.1784
  898MPD2    C113155   2.495   1.605   0.563  0.6628 -0.3995 -0.6514
  898MPD2    C213156   2.502   1.655   0.439 -0.1353  0.3865  0.0596
  898MPD2    C313157   2.394   1.689   0.366 -0.0325  0.0632 -0.3523
  898MPD2    C413158   2.273   1.642   0.410  0.1098 -0.1490 -0.3893
  898MPD2    C513159   2.261   1.573   0.532  0.5090  0.7847 -0.0590
  898MPD2     H13160   2.597   1.688   0.401  1.3014  0.4466  3.7313
  898MPD2    H113161   2.184   1.675   0.358 -0.2240 -0.6574 -0.1401
  898MPD2    H213162   2.352   1.536   0.722 -0.8735 -0.0260 -0.3465
  898MPD2    H313163   2.168   1.533   0.571  0.4215  0.9867 -0.0580
  898MPD2     N13164   2.413   1.753   0.246 -0.4452 -0.2021 -0.5867
  898MPD2    H513165   2.510   1.769   0.220 -0.5045  0.2041 -0.5546
  898MPD2    N113166   2.615   1.592   0.638  0.0310  0.1402  0.2507
  898MPD2    H713167   2.694   1.616   0.579 -2.9258  0.2233 -3.6708
  899MPD2     C13168   2.955   2.327   0.185  1.1593  0.1817  0.6554
  899MPD2    C113169   3.007   2.452   0.220 -0.3395  0.1848 -0.5648
  899MPD2    C213170   2.994   2.494   0.351 -0.3148  0.5787 -0.7413
  899MPD2    C313171   2.901   2.431   0.436  0.3151 -0.3552  0.5825
  899MPD2    C413172   2.865   2.303   0.407 -0.2454  0.2009 -0.4008
  899MPD2    C513173   2.896   2.250   0.282 -0.2145 -0.1186  0.2094
  899MPD2     H13174   3.034   2.592   0.378 -1.4855  1.3393 -1.7681
  899MPD2    H113175   2.812   2.248   0.484  0.0273  1.9950  1.0515
  899MPD2    H213176   2.979   2.277   0.092  0.2502  0.6286  0.1782
  899MPD2    H313177   2.886   2.147   0.251  2.0998 -0.2971  0.0682
  899MPD2     N13178   2.870   2.476   0.565  0.0784 -0.3349 -0.0853
  899MPD2    H513179   2.804   2.424   0.622 -0.4764  1.8074  1.2282
  899MPD2    N113180   3.065   2.532   0.115 -0.1223  0.1230 -0.1141
  899MPD2    H713181   3.032   2.504   0.023  0.6137  1.3728 -0.7606
  900MPD2     C13182   2.931   4.390  12.999  0.1191  0.5374  0.3579
  900MPD2    C113183   2.834   4.287  12.997  0.1878  0.1731 -0.0315
  900MPD2    C213184   2.708   4.313  12.939  0.6153  0.4894  0.2894
  900MPD2    C313185   2.683   4.430  12.869 -0.8586 -0.1794  0.0737
  900MPD2    C413186   2.784   4.526  12.864 -0.6511  0.1679 -0.0460
  900MPD2    C513187   2.900   4.508  12.934 -1.0272  0.6177  0.3510
  900MPD2     H13188   2.630   4.239  12.929  0.4617  0.8825 -1.4968
  900MPD2    H113189   2.775   4.623  12.817 -1.9604 -0.5461 -1.2712
  900MPD2    H213190   3.029   4.370  13.038  0.6604 -1.7821 -2.1967
  900MPD2    H313191   2.977   4.584  12.932  0.6721 -1.0962 -0.7412
  900MPD2     N13192   2.560   4.445  12.794 -0.5819  0.3855 -0.1395
  900MPD2    H513193   2.499   4.364  12.790 -1.1915  0.8729 -0.8023
  900MPD2    N113194   2.871   4.167  13.061 -0.0878 -0.4386 -0.4125
  900MPD2    H713195   2.968   4.154  13.087 -0.4188 -1.5128  0.3040
  901MPD2     C13196   2.502   3.170  13.301 -0.2961  0.7130  0.7908
  901MPD2    C113197   2.630   3.161  13.333  0.6439 -0.0562 -0.0793
  901MPD2    C213198   2.714   3.269  13.318  0.1978 -0.5094  0.7541
  901MPD2    C313199   2.665   3.384  13.264 -0.2759  0.2349 -0.5796
  901MPD2    C413200   2.531   3.394  13.230  0.3375 -0.5491  0.4901
  901MPD2    C513201   2.450   3.287  13.260 -0.2144 -0.0361  0.4264
  901MPD2     H13202   2.813   3.270  13.362  0.1177  0.0953  0.9210
  901MPD2    H113203   2.480   3.485  13.200  2.0373 -0.1759 -1.2874
  901MPD2    H213204   2.432   3.090  13.321 -1.5124  1.7794  0.8397
  901MPD2    H313205   2.344   3.311  13.254 -0.3404 -0.7665 -0.2463
  901MPD2     N13206   2.748   3.500  13.253  0.0671 -0.0718 -0.1755
  901MPD2    H513207   2.833   3.490  13.309  0.5255 -2.9443 -1.3794
  901MPD2    N113208   2.674   3.032  13.392 -0.1843  0.2008 -0.1464
  901MPD2    H713209   2.609   2.954  13.392  1.5239 -1.2310  1.7642
  902MPD2     C13210   1.817   2.228  13.313  0.1887  0.3729 -0.4656
  902MPD2    C113211   1.733   2.198  13.211 -0.1097  0.2767 -0.4053
  902MPD2    C213212   1.758   2.086  13.132 -0.3083  0.2728  0.0248
  902MPD2    C313213   1.878   2.017  13.145 -0.8212 -0.2660  0.7245
  902MPD2    C413214   1.977   2.066  13.236  0.4800 -0.4471 -0.1242
  902MPD2    C513215   1.943   2.164  13.323  0.3215  0.4436  0.2763
  902MPD2     H13216   1.694   2.055  13.051 -1.2326  0.1287  0.8190
  902MPD2    H113217   2.082   2.037  13.232  0.1987 -1.3309 -0.9177
  902MPD2    H213218   1.799   2.301  13.391 -1.4871 -1.0569  0.4892
  902MPD2    H313219   2.010   2.186  13.405  0.5024 -0.2588  0.3195
  902MPD2     N13220   1.910   1.910  13.053 -0.0643 -0.2508 -0.0919
  902MPD2    H513221   2.010   1.894  13.047 -0.0695  0.1162 -1.0762
  902MPD2    N113222   1.618   2.272  13.203 -0.0658  0.2499 -0.4549
  902MPD2    H713223   1.618   2.355  13.262  0.7177  0.1146 -0.2710
  903MPD2     C13224   1.493   1.413  12.539  0.2344  0.4290 -0.5056
  903MPD2    C113225   1.591   1.495  12.489 -0.3640 -0.0983  0.0138
  903MPD2    C213226   1.600   1.507  12.349 -0.9234 -0.0682 -0.4503
  903MPD2    C313227   1.509   1.445  12.267  0.0402  0.0750  0.4107
  903MPD2    C413228   1.409   1.358  12.318 -0.4658  0.2038 -0.3368
  903MPD2    C513229   1.403   1.351  12.457  0.4912 -0.6684 -0.4200
  903MPD2     H13230   1.682   1.564  12.307  0.0918 -0.5763  0.8377
  903MPD2    H113231   1.325   1.317  12.263  1.2521 -0.8573 -2.1440
  903MPD2    H213232   1.491   1.387  12.644  0.6684 -1.8830 -1.0694
  903MPD2    H313233   1.327   1.288  12.502 -0.2949 -0.6768 -1.7585
  903MPD2     N13234   1.523   1.467  12.133 -0.7834 -0.0814 -0.3980
  903MPD2    H513235   1.594   1.532  12.099 -0.2556  0.3918  1.5979
  903MPD2    N113236   1.675   1.569  12.579 -0.2067 -0.5039 -0.5600
  903MPD2    H713237   1.649   1.570  12.677  0.6063 -2.7945 -0.3291
  904MPD2     C13238   1.476   1.652  13.805  0.7019 -0.5141  0.0519
  904MPD2    C113239   1.448   1.592  13.924  0.1013  0.4210 -0.0171
  904MPD2    C213240   1.551   1.580  14.014  0.4894 -0.6772 -0.1749
  904MPD2    C313241   1.682   1.615  13.979 -0.5040  0.1317  0.0938
  904MPD2    C413242   1.705   1.686  13.862 -0.2414  0.0124 -0.4028
  904MPD2    C513243   1.596   1.707  13.774  0.1894  1.1084 -0.1850
  904MPD2     H13244   1.528   1.530  14.107 -1.8897  2.6358  1.0226
  904MPD2    H113245   1.807   1.718  13.842  0.2837 -1.4124  0.0261
  904MPD2    H213246   1.391   1.669  13.740 -0.1180 -2.6285  0.5794
  904MPD2    H313247   1.612   1.768  13.686  0.9266 -0.6423 -1.2707
  904MPD2     N13248   1.789   1.589  14.073 -0.2216  0.1505  0.4232
  904MPD2    H513249   1.762   1.538  14.157 -0.7761 -0.1174  0.0796
  904MPD2    N113250   1.324   1.539  13.961  0.2590  0.4596  0.8297
  904MPD2    H713251   1.310   1.503  14.055  1.7160 -0.2977  0.7579
  905MPD2     C13252   1.062   1.544  13.316  0.3612 -0.2470 -0.6422
  905MPD2    C113253   1.125   1.510  13.435  0.5871 -0.5424  0.0170
  905MPD2    C213254   1.259   1.475  13.434 -0.7477 -0.3868  0.4333
  905MPD2    C313255   1.335   1.496  13.329  0.0310  0.5146 -0.2511
  905MPD2    C413256   1.268   1.530  13.207 -0.2143 -0.1431  0.3885
  905MPD2    C513257   1.131   1.544  13.201 -0.0969  1.0014 -0.0641
  905MPD2     H13258   1.310   1.470  13.530  0.6097  2.2421 -0.1393
  905MPD2    H113259   1.321   1.545  13.113 -2.5380 -0.1870 -0.9229
  905MPD2    H213260   0.957   1.567  13.325  1.2999  2.8426  2.3976
  905MPD2    H313261   1.071   1.565  13.113 -1.4758 -2.0680  0.1441
  905MPD2     N13262   1.468   1.498  13.352 -0.1679  0.2758  0.6754
  905MPD2    H513263   1.492   1.462  13.444  2.4771 -1.3316 -0.6457
  905MPD2    N113264   1.061   1.520  13.564  0.3953 -0.1163  0.2434
  905MPD2    H713265   1.119   1.492  13.643  1.4569 -2.1577 -1.2679
  906MPD2     C13266   3.863   1.216  11.726  0.0243  0.7220  0.3504
  906MPD2    C113267   3.777   1.127  11.656  0.4221 -0.0714  0.8474
  906MPD2    C213268   3.681   1.057  11.726  0.1415  0.1314 -0.9364
  906MPD2    C313269   3.650   1.092  11.858  0.1473  0.1687  0.0513
  906MPD2    C413270   3.724   1.187  11.924  0.6651 -0.2800  0.1794
  906MPD2    C513271   3.834   1.245  11.857 -0.8308  0.5747 -0.0161
  906MPD2     H13272   3.614   0.989  11.675 -0.2274  0.0982 -0.4075
  906MPD2    H113273   3.707   1.204  12.030  0.9490 -0.4618  0.2533
  906MPD2    H213274   3.941   1.266  11.670  1.3216 -2.5813 -0.8058
  906MPD2    H313275   3.898   1.307  11.919 -1.8049 -0.0586  1.6477
  906MPD2     N13276   3.538   1.041  11.918  0.0002 -0.0493 -0.0818
  906MPD2    H513277   3.490   0.967  11.868 -1.1787 -0.0900  1.0977
  906MPD2    N113278   3.790   1.107  11.519  0.2759 -0.6207 -0.1428
  906MPD2    H713279   3.731   1.032  11.485 -1.9205  0.7466  0.6508
  907MPD2     C13280   2.623   0.228  15.821 -1.0084 -0.0168 -0.1371
  907MPD2    C113281   2.602   0.093  15.810 -0.0662  0.1080  0.3080
  907MPD2    C213282   2.642   0.010  15.909  0.8214  0.5445 -0.1116
  907MPD2    C313283   2.735   0.057  16.001 -0.7646  0.7877 -0.7808
  907MPD2    C413284   2.775   0.187  16.004 -0.4073 -0.0358 -0.7011
  907MPD2    C513285   2.711   0.275  15.916  0.7372 -0.4253  0.4020
  907MPD2     H13286   2.610   4.631  15.905 -1.4463  1.2467 -0.4982
  907MPD2    H113287   2.844   0.221  16.080  0.8121 -1.7747 -1.0291
  907MPD2    H213288   2.589   0.298  15.746 -1.2835  0.9228  0.8671
  907MPD2    H313289   2.752   0.375  15.903  0.9629 -0.2026  2.6936
  907MPD2     N13290   2.783   4.691  16.101 -0.1250  0.4104  0.6915
  907MPD2    H513291   2.755   4.595  16.082 -1.6879  1.3083 -1.6936
  907MPD2    N113292   2.540   0.029  15.698 -0.1557  0.3926 -0.1476
  907MPD2    H713293   2.552   4.654  15.686  0.8717  0.3236  1.4521
  908MPD2     C13294   0.790   0.664  10.038 -0.1157 -0.1413 -1.0735
  908MPD2    C113295   0.733   0.598  10.147 -0.5475 -0.1449  0.1325
  908MPD2    C213296   0.712   0.663  10.268 -0.7428 -0.8728 -1.2714
  908MPD2    C313297   0.750   0.800  10.286 -0.6725  0.0484  0.3113
  908MPD2    C413298   0.801   0.864  10.172  0.2786 -0.6374  0.1891
  908MPD2    C513299   0.824   0.791  10.058 -0.0739  0.1345  0.1334
  908MPD2     H13300   0.655   0.613  10.346  2.5722 -1.4704  0.7585
  908MPD2    H113301   0.826   0.968  10.160 -1.1659 -0.2164  0.8572
  908MPD2    H213302   0.802   0.624   9.938 -1.7511  1.5042 -1.9275
  908MPD2    H313303   0.857   0.848   9.971  1.5754 -0.1877  0.5428
  908MPD2     N13304   0.723   0.874  10.400 -0.6046  0.5684 -0.3732
  908MPD2    H513305   0.671   0.820  10.468 -2.2483  0.1580 -1.9398
  908MPD2    N113306   0.692   0.462  10.110  0.2379  0.0030  0.0519
  908MPD2    H713307   0.697   0.433  10.013  1.5811 -0.1891  0.1819
  909MPD2     C13308   0.723   3.753  11.980  0.2300 -0.0555 -0.5616
  909MPD2    C113309   0.728   3.894  11.965  0.4331 -0.4606  0.8010
  909MPD2    C213310   0.640   3.968  12.038  0.0204  0.3073 -0.3035
  909MPD2    C313311   0.573   3.915  12.146 -0.4543 -0.7155  0.3921
  909MPD2    C413312   0.583   3.779  12.172 -0.0909  0.6083  0.8148
  909MPD2    C513313   0.660   3.693  12.095 -0.2407 -0.5594 -1.0169
  909MPD2     H13314   0.625   4.074  12.021  0.6866  0.7128  1.5754
  909MPD2    H113315   0.526   3.724  12.247  0.5738 -0.0188  0.8565
  909MPD2    H213316   0.771   3.686  11.909 -0.2916 -0.7503 -0.2576
  909MPD2    H313317   0.659   3.587  12.117 -2.6818 -0.4396 -0.5640
  909MPD2     N13318   0.483   3.998  12.213  0.1364  0.1219 -0.1735
  909MPD2    H513319   0.495   4.097  12.195  1.8508  0.1226  1.0253
  909MPD2    N113320   0.795   3.956  11.853 -0.6918  0.7942 -0.0062
  909MPD2    H713321   0.780   4.056  11.849 -1.3322  0.7587  1.8284
  910MPD2     C13322   1.395   0.887  15.754  0.6543 -0.0757 -0.5326
  910MPD2    C113323   1.527   0.896  15.722  0.3644 -0.0512 -0.1164
  910MPD2    C213324   1.558   0.970  15.607  0.0051  1.5141  0.6556
  910MPD2    C313325   1.463   1.011  15.512  0.2131  0.1271  0.3319
  910MPD2    C413326   1.335   0.993  15.553 -0.7093  0.5700 -0.4207
  910MPD2    C513327   1.299   0.934  15.670  0.1874 -0.3197  0.0844
  910MPD2     H13328   1.660   1.000  15.591 -0.2408  1.2880 -1.2435
  910MPD2    H113329   1.249   1.012  15.490 -0.7629  0.5827 -0.3441
  910MPD2    H213330   1.358   0.835  15.842 -0.3651  1.6451  0.0482
  910MPD2    H313331   1.194   0.937  15.696  0.1121  2.5807 -0.5190
  910MPD2     N13332   1.494   1.061  15.385 -0.3058  0.9154 -0.0052
  910MPD2    H513333   1.423   1.063  15.312 -2.0821  4.6430  1.8877
  910MPD2    N113334   1.637   0.848  15.804  0.2788  0.0269 -0.1343
  910MPD2    H713335   1.730   0.851  15.765  0.3269  1.0832  0.0578
  911MPD2     C13336   4.174   0.934  16.469  0.3030  0.8357  0.0572
  911MPD2    C113337   4.195   1.012  16.580  0.1182 -0.1384 -0.6235
  911MPD2    C213338   4.087   1.076  16.637  0.6151  0.0305 -0.4752
  911MPD2    C313339   3.957   1.054  16.589 -0.4363  0.0525  0.5894
  911MPD2    C413340   3.942   0.956  16.493 -0.2497  0.0429  0.3605
  911MPD2    C513341   4.045   0.911  16.423  0.4912 -0.7629  0.7013
  911MPD2     H13342   4.104   1.144  16.719 -2.1782  0.9725 -0.6666
  911MPD2    H113343   3.842   0.942  16.453  0.1640 -1.0934 -0.2926
  911MPD2    H213344   4.257   0.890  16.415  0.1479 -0.1785  0.6434
  911MPD2    H313345   4.036   0.853  16.332  1.9587 -0.2778  0.2517
  911MPD2     N13346   3.843   1.121  16.638 -0.0267  0.0215  0.1873
  911MPD2    H513347   3.759   1.087  16.593 -0.2766 -0.2948  0.9067
  911MPD2    N113348   4.328   1.021  16.635  0.3492 -0.1916 -0.3860
  911MPD2    H713349   4.404   0.998  16.571  1.0145 -0.0733  0.3605
  912MPD2     C13350   3.753   1.041  16.126 -0.1511 -0.0368 -0.3895
  912MPD2    C113351   3.687   0.999  16.238  0.3773 -0.3168  0.4997
  912MPD2    C213352   3.679   0.863  16.268 -0.2006 -0.7283  0.0963
  912MPD2    C313353   3.762   0.777  16.208  0.4155 -0.3331 -0.1539
  912MPD2    C413354   3.838   0.823  16.107 -0.1590 -0.1377 -0.5861
  912MPD2    C513355   3.827   0.949  16.062  0.0583  0.6567  0.4503
  912MPD2     H13356   3.623   0.820  16.351 -1.7075  0.6247 -0.2048
  912MPD2    H113357   3.896   0.754  16.047  0.7716 -0.3208  0.5424
  912MPD2    H213358   3.764   1.145  16.097  0.5306 -0.3956 -1.4335
  912MPD2    H313359   3.888   0.975  15.975  0.3136 -3.0309 -0.4559
  912MPD2     N13360   3.782   0.652  16.268  0.2033 -0.6211  0.0565
  912MPD2    H513361   3.725   0.627  16.349  2.4091  0.7574  2.0408
  912MPD2    N113362   3.613   1.101  16.309  0.0614  0.2622  0.0312
  912MPD2    H713363   3.621   1.196  16.274  1.7090  0.9509  2.3071
  913MPD2     C13364   4.627   2.840  10.617 -0.2562  0.1415 -0.8380
  913MPD2    C113365   4.715   2.934  10.668  0.6749  0.2509  0.6911
  913MPD2    C213366   0.083   2.980  10.577 -0.9645  0.6114 -0.3914
  913MPD2    C313367   0.067   2.952  10.441 -0.1233 -0.0229  0.4045
  913MPD2    C413368   4.691   2.870  10.389 -0.4266  0.3571 -0.0898
  913MPD2    C513369   4.620   2.808  10.484 -0.0293 -0.2335  0.3116
  913MPD2     H13370   0.165   3.042  10.612 -2.0631  1.9737 -0.2669
  913MPD2    H113371   4.678   2.851  10.283  0.7143 -1.1490  0.0397
  913MPD2    H213372   4.556   2.784  10.677  1.2301 -1.3450 -0.4310
  913MPD2    H313373   4.544   2.736  10.454  1.8900 -1.2175 -2.2106
  913MPD2     N13374   0.160   3.001  10.343  0.9307 -0.4144  0.6497
  913MPD2    H513375   0.136   2.958  10.254  1.1799 -0.6392  0.6936
  913MPD2    N113376   4.708   2.965  10.806 -0.1852  0.9530 -0.6616
  913MPD2    H713377   4.633   2.921  10.859  1.9369 -1.8917 -0.0051
  914MPD2     C13378   2.783   2.925  12.761  1.2737 -0.0973 -0.2067
  914MPD2    C113379   2.702   2.980  12.854 -0.6083  0.6550  0.5668
  914MPD2    C213380   2.677   2.916  12.969  0.2498 -0.2792 -0.3798
  914MPD2    C313381   2.747   2.797  13.003  0.0382 -0.3617  0.6809
  914MPD2    C413382   2.813   2.738  12.906 -0.0709 -0.4139 -0.6171
  914MPD2    C513383   2.838   2.806  12.791 -0.3590 -0.2021  0.4408
  914MPD2     H13384   2.624   2.970  13.047 -0.1952 -2.7827  1.0568
  914MPD2    H113385   2.858   2.639  12.915  0.9098  0.0937 -0.0059
  914MPD2    H213386   2.786   2.968  12.661  1.3267  0.3091 -0.0302
  914MPD2    H313387   2.902   2.757  12.719  0.6243  1.1003  0.4210
  914MPD2     N13388   2.758   2.760  13.141  0.2566  0.8904 -0.1188
  914MPD2    H513389   2.720   2.829  13.205 -2.1239 -2.5465  2.2077
  914MPD2    N113390   2.665   3.113  12.835 -0.5139  0.4684  0.4854
  914MPD2    H713391   2.713   3.160  12.758 -1.4971 -0.0687 -0.4557
  915MPD2     C13392   1.003   2.771  15.776  0.4491  0.4029  0.3638
  915MPD2    C113393   0.906   2.865  15.745 -0.2944 -0.0251  0.5477
  915MPD2    C213394   0.847   2.940  15.846  0.4165  0.2427  0.2326
  915MPD2    C313395   0.867   2.911  15.984  0.5356 -0.2758 -0.2579
  915MPD2    C413396   0.958   2.815  16.009  0.6258 -0.0607  0.1598
  915MPD2    C513397   1.024   2.749  15.912 -0.3646  1.0927 -1.3287
  915MPD2     H13398   0.765   3.005  15.819  0.0563  0.2402  1.3371
  915MPD2    H113399   0.998   2.792  16.107 -0.9246 -2.1809  0.2835
  915MPD2    H213400   1.054   2.710  15.703  2.7378  0.5098  1.8840
  915MPD2    H313401   1.090   2.668  15.941 -1.9446 -0.1884 -1.2969
  915MPD2     N13402   0.783   2.955  16.084  0.6662 -0.1319 -0.7823
  915MPD2    H513403   0.722   3.031  16.053 -1.5367 -0.1828  3.4347
  915MPD2    N113404   0.886   2.879  15.604  0.5137 -0.1119 -0.2751
  915MPD2    H713405   0.953   2.840  15.539  1.3482 -0.3145  0.6892
  916MPD2     C13406   3.358   1.693  16.708 -0.0749  0.6744 -0.1041
  916MPD2    C113407   3.322   1.707  16.577 -0.2989  0.0945 -0.9280
  916MPD2    C213408   3.277   1.597  16.494 -0.0964 -0.4674 -0.1570
  916MPD2    C313409   3.296   1.472  16.549 -0.6316 -0.1408 -1.4204
  916MPD2    C413410   3.345   1.458  16.678  0.1166 -0.6728 -0.1356
  916MPD2    C513411   3.371   1.567  16.756  0.3939  0.4137 -0.3054
  916MPD2     H13412   3.236   1.607  16.394  0.4840  3.4184  0.0136
  916MPD2    H113413   3.362   1.365  16.731 -0.0729 -2.9663 -4.1578
  916MPD2    H213414   3.397   1.777  16.765 -1.5590  1.2715  0.0276
  916MPD2    H313415   3.391   1.556  16.862  1.1940 -2.0489 -0.7094
  916MPD2     N13416   3.261   1.358  16.468  0.6605  0.5372 -0.5829
  916MPD2    H513417   3.237   1.375  16.371  0.6495  3.2738 -0.0922
  916MPD2    N113418   3.305   1.845  16.530  0.3499 -0.7593  0.0311
  916MPD2    H713419   3.261   1.859  16.439  2.5173  0.0010 -0.9121
  917MPD2     C13420   3.869   3.529  11.387  0.4759 -0.2198 -0.3611
  917MPD2    C113421   3.924   3.583  11.505 -0.0524 -0.4863 -0.0963
  917MPD2    C213422   3.942   3.723  11.518 -0.8408 -0.3856 -0.1244
  917MPD2    C313423   3.909   3.802  11.407 -0.2642 -0.0930  0.1683
  917MPD2    C413424   3.851   3.745  11.297 -0.4490 -0.4432  0.1779
  917MPD2    C513425   3.831   3.613  11.286  0.5232 -0.3375  0.2976
  917MPD2     H13426   3.962   3.775  11.610  0.5598 -0.8394 -0.1771
  917MPD2    H113427   3.800   3.795  11.215  1.4938  0.7398 -0.3099
  917MPD2    H213428   3.846   3.424  11.374  0.7330 -0.0802 -1.9300
  917MPD2    H313429   3.776   3.572  11.202 -1.5573  1.1275  0.9342
  917MPD2     N13430   3.934   3.946  11.404  0.6385 -0.0062 -0.9732
  917MPD2    H513431   3.909   3.992  11.317  2.5588  2.8592 -0.0175
  917MPD2    N113432   3.951   3.498  11.613 -0.3215 -0.2187  0.0387
  917MPD2    H713433   3.911   3.405  11.609 -1.8107  0.5357 -2.6229
  918MPD2     C13434   4.031   3.838  12.584 -0.0586  0.8338  0.7891
  918MPD2    C113435   4.138   3.810  12.510 -0.0263 -0.4859  0.5237
  918MPD2    C213436   4.117   3.732  12.398 -0.2381 -0.4127 -0.0287
  918MPD2    C313437   3.996   3.685  12.356  1.2598  0.6190 -0.1428
  918MPD2    C413438   3.888   3.709  12.438  0.6544  0.4618 -0.4686
  918MPD2    C513439   3.909   3.785  12.550  0.0955 -0.5214  0.1656
  918MPD2     H13440   4.202   3.719  12.331 -0.3892 -0.8912 -0.1244
  918MPD2    H113441   3.787   3.671  12.426  0.4095  1.3899 -1.3737
  918MPD2    H213442   4.035   3.896  12.675  0.8718 -0.7266  1.7304
  918MPD2    H313443   3.817   3.798  12.606 -1.0455 -0.4825 -1.6954
  918MPD2     N13444   3.997   3.599  12.242 -0.0863 -0.2412 -0.0652
  918MPD2    H513445   4.085   3.564  12.204  0.6950 -0.1843  1.6676
  918MPD2    N113446   4.276   3.844  12.548  0.4508  0.4030  0.2649
  918MPD2    H713447   4.343   3.818  12.476 -0.9989 -1.5522 -0.3905
  919MPD2     C13448   4.717   2.622  11.998  0.1424  0.2251  0.0190
  919MPD2    C113449   4.585   2.565  12.009  0.1126 -0.1437 -0.2230
  919MPD2    C213450   4.489   2.607  11.919  0.5793 -0.3845 -0.1040
  919MPD2    C313451   4.523   2.695  11.813  0.0017  0.2810 -0.0508
  919MPD2    C413452   4.650   2.738  11.800 -0.0628  0.4730  0.4356
  919MPD2    C513453   0.019   2.714  11.902  0.2043  0.0397 -0.0235
  919MPD2     H13454   4.391   2.561  11.928 -1.2892  3.1391 -2.3844
  919MPD2    H113455   4.687   2.788  11.711 -1.2123 -0.2329 -0.4287
  919MPD2    H213456   0.073   2.596  12.065 -0.5627  0.2912  0.8948
  919MPD2    H313457   0.119   2.748  11.882  0.5352 -1.0351 -0.1922
  919MPD2     N13458   4.435   2.741  11.714 -0.5422  0.6381 -0.0175
  919MPD2    H513459   4.488   2.782  11.637  0.8472  2.7471  2.0717
  919MPD2    N113460   4.549   2.464  12.103  1.0703 -0.3279 -0.0312
  919MPD2    H713461   4.456   2.424  12.096  0.8383  0.1872  0.1152
  920MPD2     C13462   4.384   3.196  10.842 -0.4629  0.0202 -0.8695
  920MPD2    C113463   4.321   3.076  10.816 -0.4985 -0.0632  0.2524
  920MPD2    C213464   4.294   2.990  10.921  0.9810  0.2273 -0.7556
  920MPD2    C313465   4.314   3.030  11.050 -0.5691 -0.0630  0.8751
  920MPD2    C413466   4.376   3.161  11.072 -0.3682 -0.0536 -0.2361
  920MPD2    C513467   4.415   3.234  10.962 -0.3524  0.1667 -0.5607
  920MPD2     H13468   4.261   2.888  10.908  1.4126 -0.1663  1.2413
  920MPD2    H113469   4.390   3.200  11.172 -3.4915  0.4600 -0.0198
  920MPD2    H213470   4.383   3.274  10.767 -0.0290  1.2698  0.4277
  920MPD2    H313471   4.450   3.336  10.967 -2.9941  0.9990  0.6874
  920MPD2     N13472   4.270   2.950  11.160  0.0849  0.1223  0.2270
  920MPD2    H513473   4.215   2.868  11.141 -1.8886  1.4700  0.1646
  920MPD2    N113474   4.276   3.044  10.689 -0.1850  0.0083 -0.1928
  920MPD2    H713475   4.208   2.970  10.693 -0.7488  0.5212 -0.2817
  921MPD2     C13476   0.281   1.405  17.158 -0.2877 -0.2123 -0.4203
  921MPD2    C113477   0.320   1.273  17.134 -0.0916 -0.1940  0.1446
  921MPD2    C213478   0.223   1.178  17.114 -0.1745 -0.9806 -0.3332
  921MPD2    C313479   0.085   1.208  17.118  0.5560 -0.0731 -0.3715
  921MPD2    C413480   0.054   1.338  17.153 -0.6831  0.0724 -0.0547
  921MPD2    C513481   0.146   1.435  17.166  0.2320 -0.0766 -0.1936
  921MPD2     H13482   0.258   1.082  17.077 -0.0256 -1.4772  1.1220
  921MPD2    H113483   4.676   1.371  17.166 -1.0017 -0.8309 -0.2454
  921MPD2    H213484   0.354   1.485  17.152  2.2733 -2.5056 -0.2150
  921MPD2    H313485   0.114   1.538  17.175 -2.0198 -1.0099  2.3447
  921MPD2     N13486   4.704   1.120  17.081 -0.1952 -0.0778  0.1359
  921MPD2    H513487   4.605   1.144  17.078  0.2375  1.8602  0.7839
  921MPD2    N113488   0.456   1.244  17.105  0.0207  0.2174  0.5630
  921MPD2    H713489   0.519   1.323  17.092  0.2362 -0.0489  0.0109
  922MPD2     C13490   1.766   3.293   0.350 -0.5242 -0.1464 -1.0725
  922MPD2    C113491   1.761   3.419   0.296 -1.2877 -0.2440 -0.9365
  922MPD2    C213492   1.630   3.463   0.275 -0.0109 -0.0634  0.2902
  922MPD2    C313493   1.514   3.401   0.324  0.2491  0.0529  0.4377
  922MPD2    C413494   1.524   3.277   0.373 -0.4134  0.1293  0.2569
  922MPD2    C513495   1.647   3.226   0.390  0.2087  0.3040  0.5210
  922MPD2     H13496   1.615   3.553   0.215 -0.0603 -0.1353  0.1944
  922MPD2    H113497   1.442   3.213   0.403  0.0269 -1.9058 -2.8435
  922MPD2    H213498   1.863   3.247   0.366 -0.4359  0.3339 -0.2212
  922MPD2    H313499   1.660   3.130   0.440  2.9028  1.7529  2.6431
  922MPD2     N13500   1.386   3.446   0.296  0.1766  0.6954 -0.1454
  922MPD2    H513501   1.311   3.378   0.305  0.9899 -0.2641 -0.4759
  922MPD2    N113502   1.873   3.487   0.249  0.7170 -0.6627 -0.7589
  922MPD2    H713503   1.867   3.579   0.206 -0.6037 -0.2815  0.2607
  923MPD2     C13504   2.384   0.513   9.113 -0.0142 -0.3139  0.1198
  923MPD2    C113505   2.393   0.635   9.180  0.3438  0.4632  0.0534
  923MPD2    C213506   2.513   0.650   9.247  0.0224  0.6392 -0.3589
  923MPD2    C313507   2.617   0.558   9.248  0.3338  1.1490 -0.3800
  923MPD2    C413508   2.601   0.437   9.193 -0.7714 -0.2168  0.0300
  923MPD2    C513509   2.482   0.417   9.127  0.3457 -0.4291  0.4011
  923MPD2     H13510   2.525   0.736   9.311  3.0243 -0.2503  0.2919
  923MPD2    H113511   2.668   0.352   9.202 -0.8548 -0.3276 -0.4310
  923MPD2    H213512   2.292   0.477   9.069 -1.4675 -0.5988  3.3541
  923MPD2    H313513   2.459   0.321   9.082 -1.1083  1.0647 -2.0292
  923MPD2     N13514   2.734   0.585   9.320 -0.1732  0.2686  0.6100
  923MPD2    H513515   2.786   0.511   9.366 -0.6123 -0.1790  0.3848
  923MPD2    N113516   2.283   0.725   9.186 -0.4375 -1.1990  0.4656
  923MPD2    H713517   2.196   0.689   9.148 -1.1014  0.9891 -0.0821
  924MPD2     C13518   2.553   4.050  15.865 -0.7308  0.0667 -0.0755
  924MPD2    C113519   2.500   4.085  15.987  0.3810 -0.2308 -0.2019
  924MPD2    C213520   2.576   4.128  16.096  0.3311 -0.3410  0.1482
  924MPD2    C313521   2.706   4.157  16.057  0.7208  0.0102  0.2170
  924MPD2    C413522   2.763   4.112  15.940 -0.4809 -0.2691 -0.2956
  924MPD2    C513523   2.687   4.056  15.846 -0.7285 -0.0489 -0.5623
  924MPD2     H13524   2.539   4.148  16.196 -0.2012  1.8265 -0.4803
  924MPD2    H113525   2.869   4.128  15.924 -0.7210 -0.3505 -1.9590
  924MPD2    H213526   2.493   4.014  15.782 -0.5135  0.5835 -0.4590
  924MPD2    H313527   2.731   4.021  15.753  1.7527 -0.2991  0.6914
  924MPD2     N13528   2.794   4.222  16.142  0.4074  0.2274 -0.4687
  924MPD2    H513529   2.870   4.270  16.096 -0.2555  2.0713  0.3148
  924MPD2    N113530   2.356   4.070  15.997 -0.1216  0.0399 -0.4390
  924MPD2    H713531   2.308   4.024  15.921 -1.8972  1.6174 -0.2771
  925MPD2     C13532   1.236   1.538  14.882 -0.1702 -1.0162 -0.0358
  925MPD2    C113533   1.227   1.668  14.925 -0.2043 -0.0619  0.0418
  925MPD2    C213534   1.193   1.699  15.051  0.2355  0.4423 -0.0077
  925MPD2    C313535   1.151   1.595  15.135 -0.6609  0.0982  0.6615
  925MPD2    C413536   1.166   1.463  15.089 -0.3110  0.0037 -0.5629
  925MPD2    C513537   1.222   1.437  14.969 -0.0420  0.9219  0.0179
  925MPD2     H13538   1.209   1.800  15.088 -0.5568  0.5481  0.0551
  925MPD2    H113539   1.124   1.376  15.139 -0.3381 -0.2487 -1.0226
  925MPD2    H213540   1.249   1.502  14.780 -0.8223 -0.0896 -0.4482
  925MPD2    H313541   1.220   1.337  14.928 -0.9947  1.2815 -0.8121
  925MPD2     N13542   1.113   1.613  15.267  0.0996 -0.3887 -0.3428
  925MPD2    H513543   1.098   1.530  15.324 -2.2720 -1.1967 -2.1595
  925MPD2    N113544   1.243   1.773  14.829  0.3151 -0.5528 -0.1057
  925MPD2    H713545   1.208   1.864  14.858 -4.2216 -1.6109 -2.2149
  926MPD2     C13546   0.423   0.236  13.435 -0.1156  0.3467 -0.3962
  926MPD2    C113547   0.483   0.314  13.535  0.0693 -0.2691 -0.3521
  926MPD2    C213548   0.574   0.407  13.506  1.3831  0.4288 -0.0585
  926MPD2    C313549   0.615   0.431  13.380 -0.1125 -0.4019  0.7159
  926MPD2    C413550   0.564   0.354  13.277  0.5215  0.5375  0.5024
  926MPD2    C513551   0.468   0.255  13.307 -0.6967 -0.4263  0.1327
  926MPD2     H13552   0.618   0.466  13.586 -1.2304 -0.9492  2.3845
  926MPD2    H113553   0.603   0.361  13.176  1.9155 -2.4609  0.8078
  926MPD2    H213554   0.339   0.169  13.449  1.1145 -0.4166  3.2435
  926MPD2    H313555   0.424   0.195  13.228  0.3210  0.9141 -1.4822
  926MPD2     N13556   0.713   0.527  13.345 -0.0286  0.5682  0.9327
  926MPD2    H513557   0.719   0.532  13.244  1.3711 -0.4011  0.9647
  926MPD2    N113558   0.435   0.311  13.669  0.9895 -0.6513  0.4276
  926MPD2    H713559   0.478   0.378  13.732  0.4940 -0.3889  0.4892
  927MPD2     C13560   4.285   2.713   0.257  0.9796 -0.2639  0.0744
  927MPD2    C113561   4.391   2.682   0.347 -0.1424  0.4640 -0.0255
  927MPD2    C213562   4.516   2.670   0.293  0.1865  0.9806 -0.3062
  927MPD2    C313563   4.542   2.683   0.160 -0.4268  0.6111  0.2191
  927MPD2    C413564   4.434   2.707   0.074  0.2691  0.7871  0.1288
  927MPD2    C513565   4.314   2.738   0.128 -0.1720  0.5684  0.5574
  927MPD2     H13566   4.601   2.639   0.353  1.3740  0.3787 -2.2870
  927MPD2    H113567   4.443   2.722  17.669  1.0407  0.8297  0.1955
  927MPD2    H213568   4.181   2.720   0.287  0.5578  2.6378 -2.0483
  927MPD2    H313569   4.241   2.760   0.051  0.0933 -1.5806 -0.3155
  927MPD2     N13570   4.682   2.674   0.120 -0.4471  0.1682  0.2216
  927MPD2    H513571   0.025   2.664   0.195  0.7705  2.1443 -0.6130
  927MPD2    N113572   4.357   2.665   0.485 -0.1198  0.2384 -0.3913
  927MPD2    H713573   4.264   2.699   0.509 -0.1932 -1.8223  2.2591
  928MPD2     C13574   3.055   0.628   1.574 -0.2553 -0.6003 -0.0664
  928MPD2    C113575   3.187   0.646   1.581 -0.3302 -0.5256  0.1148
  928MPD2    C213576   3.247   0.731   1.492  0.0000  0.0322  0.0846
  928MPD2    C313577   3.173   0.810   1.407  0.6884 -0.7861 -0.5266
  928MPD2    C413578   3.033   0.791   1.400  0.6995  0.0456  0.1823
  928MPD2    C513579   2.981   0.704   1.490 -0.1323  0.3259  0.0826
  928MPD2     H13580   3.355   0.740   1.484 -0.0018  0.1523  0.1929
  928MPD2    H113581   2.971   0.848   1.332  0.3983  0.6875  1.0059
  928MPD2    H213582   3.015   0.554   1.641  0.2333  0.1819  1.0810
  928MPD2    H313583   2.875   0.683   1.477 -0.7765  2.5849  1.4938
  928MPD2     N13584   3.223   0.925   1.338  0.1246 -0.8442 -0.5911
  928MPD2    H513585   3.157   0.969   1.275 -1.7605  0.5021  2.2956
  928MPD2    N113586   3.257   0.573   1.676  0.3710  0.3365 -0.3673
  928MPD2    H713587   3.207   0.537   1.757  2.2355  0.1229  0.6930
  929MPD2     C13588   3.418   1.348  10.382 -0.5058  0.4436  0.4415
  929MPD2    C113589   3.277   1.323  10.387 -0.5279 -0.7908 -0.2175
  929MPD2    C213590   3.194   1.377  10.288  0.5569 -0.4835 -0.6595
  929MPD2    C313591   3.246   1.463  10.195 -0.1026  0.7606 -0.3453
  929MPD2    C413592   3.375   1.491  10.199  0.1614  0.0191 -0.7111
  929MPD2    C513593   3.465   1.434  10.286  0.2906 -0.7839 -0.5683
  929MPD2     H13594   3.086   1.372  10.297  0.5651  0.6416  0.1499
  929MPD2    H113595   3.419   1.563  10.130  2.5659 -0.5342  0.2216
  929MPD2    H213596   3.492   1.308  10.451  0.1803  1.9398  0.5527
  929MPD2    H313597   3.566   1.470  10.294  0.5138 -1.5287 -0.0760
  929MPD2     N13598   3.164   1.533  10.104 -0.1092 -0.4156  0.2293
  929MPD2    H513599   3.211   1.606  10.051  0.7980 -1.4012 -0.3564
  929MPD2    N113600   3.233   1.244  10.494 -0.6119 -0.4828  0.7282
  929MPD2    H713601   3.299   1.207  10.561 -0.5785  0.0527  0.9915
  930MPD2     C13602   4.403   3.436  14.338  0.6266  0.4730  1.2821
  930MPD2    C113603   4.517   3.504  14.307 -0.3988  0.2123 -0.1467
  930MPD2    C213604   4.588   3.466  14.196  0.5989 -0.1803  0.0821
  930MPD2    C313605   4.534   3.380  14.104 -0.2951 -0.0930 -0.6273
  930MPD2    C413606   4.409   3.327  14.124 -0.1201 -0.2461 -0.6528
  930MPD2    C513607   4.355   3.351  14.250  0.2337  0.8368 -0.1921
  930MPD2     H13608   4.668   3.533  14.170  1.8783 -1.2076  1.3722
  930MPD2    H113609   4.346   3.266  14.059  0.9368 -1.1382 -0.8311
  930MPD2    H213610   4.353   3.458  14.432 -1.1930  3.0844 -0.2770
  930MPD2    H313611   4.255   3.317  14.273  0.1353  0.6481 -0.9021
  930MPD2     N13612   4.586   3.372  13.977 -0.2507 -0.3445 -0.1786
  930MPD2    H513613   4.520   3.346  13.904 -0.1544  2.5552 -1.3082
  930MPD2    N113614   4.564   3.595  14.402  0.3269 -0.3426 -0.1236
  930MPD2    H713615   4.501   3.628  14.474 -0.1606  1.1184 -1.2010
  931MPD2     C13616   0.179   2.415   1.028  0.1358  1.0296  0.2932
  931MPD2    C113617   0.062   2.465   1.084  0.1762 -0.1478  0.2686
  931MPD2    C213618   0.052   2.463   1.225  0.0521  0.1690 -0.7942
  931MPD2    C313619   0.155   2.418   1.301 -0.4511  0.2691  0.2259
  931MPD2    C413620   0.266   2.366   1.232 -1.4932  0.5291 -0.0988
  931MPD2    C513621   0.279   2.368   1.096 -0.5324 -0.1379 -0.5562
  931MPD2     H13622   4.709   2.520   1.287  0.6406 -1.3459  1.2114
  931MPD2    H113623   0.346   2.315   1.285 -1.6599 -0.3015 -0.6376
  931MPD2    H213624   0.196   2.414   0.921  0.6664  0.2348  0.3923
  931MPD2    H313625   0.363   2.330   1.039 -1.1948 -0.4778 -1.3128
  931MPD2     N13626   0.154   2.406   1.440 -0.5357  0.1995 -0.3053
  931MPD2    H513627   0.246   2.382   1.474 -1.0688 -2.5037 -0.7468
  931MPD2    N113628   4.682   2.505   0.997 -0.1453 -0.1996  0.3480
  931MPD2    H713629   4.710   2.531   0.903 -1.6023  0.2560  0.0309
  932MPD2     C13630   2.045   1.929  11.307 -0.6254 -0.0735 -0.2298
  932MPD2    C113631   2.070   2.049  11.372  0.5658 -0.0420  0.0890
  932MPD2    C213632   2.166   2.042  11.472 -0.3031 -0.2734  0.4197
  932MPD2    C313633   2.235   1.932  11.515  0.0026  0.3926 -0.5466
  932MPD2    C413634   2.203   1.816  11.453  0.1812  0.2314  0.0048
  932MPD2    C513635   2.111   1.821  11.352  0.2521  0.1809  1.1465
  932MPD2     H13636   2.181   2.132  11.531 -1.3293 -0.0428  0.3288
  932MPD2    H113637   2.258   1.724  11.469  0.7268  0.8416  1.6382
  932MPD2    H213638   1.985   1.916  11.218 -1.2667  0.2309  0.1602
  932MPD2    H313639   2.094   1.726  11.302  1.2197  0.1411  0.8968
  932MPD2     N13640   2.325   1.947  11.627  0.0939 -0.2487 -0.0314
  932MPD2    H513641   2.334   2.033  11.679  0.5273  1.0752 -2.2704
  932MPD2    N113642   2.016   2.173  11.333 -0.4476  0.0944 -0.1671
  932MPD2    H713643   2.045   2.256  11.383  0.0841 -1.0779  1.4742
  933MPD2     C13644   3.313   0.142   2.397  0.1729 -0.1271  0.0123
  933MPD2    C113645   3.267   0.229   2.305 -0.4955 -0.1055  0.1338
  933MPD2    C213646   3.130   0.254   2.303 -0.1752  0.0296 -0.2137
  933MPD2    C313647   3.042   0.186   2.385  0.0141  0.3680  0.1386
  933MPD2    C413648   3.093   0.103   2.477 -0.2857  1.1160  0.7803
  933MPD2    C513649   3.229   0.081   2.479  0.5294 -0.0846  0.2667
  933MPD2     H13650   3.077   0.315   2.231  0.2226 -0.2304 -0.7244
  933MPD2    H113651   3.034   0.055   2.554 -0.7107  2.3921  1.2490
  933MPD2    H213652   3.414   0.104   2.404  1.0152  1.5974 -2.9663
  933MPD2    H313653   3.263   0.008   2.551  1.4219  0.0141 -0.0529
  933MPD2     N13654   2.902   0.195   2.366  0.4284 -0.1847  0.3405
  933MPD2    H513655   2.873   0.265   2.298 -0.4611 -1.7280 -0.8917
  933MPD2    N113656   3.361   0.292   2.218  0.2481  0.1968 -0.4187
  933MPD2    H713657   3.449   0.241   2.217  0.6113  0.8660 -1.6166
  934MPD2     C13658   3.903   4.193   2.403  0.1439 -0.8104  0.0448
  934MPD2    C113659   3.998   4.161   2.302  0.2850  0.2510  0.5600
  934MPD2    C213660   3.949   4.094   2.191 -0.9167 -0.4358  0.5541
  934MPD2    C313661   3.807   4.084   2.173  0.0820  0.3372 -0.3747
  934MPD2    C413662   3.723   4.117   2.273  0.5915 -0.1079  0.5757
  934MPD2    C513663   3.769   4.168   2.387  0.1423 -0.1359  0.1848
  934MPD2     H13664   4.019   4.065   2.114  0.0446 -2.4071  2.1785
  934MPD2    H113665   3.615   4.114   2.267  0.5877  2.0953 -0.3912
  934MPD2    H213666   3.922   4.233   2.502 -0.0475 -1.9419  0.5441
  934MPD2    H313667   3.695   4.208   2.455 -0.4122 -0.3125 -0.3224
  934MPD2     N13668   3.750   4.019   2.065  0.0454  0.0477  0.1132
  934MPD2    H513669   3.649   4.009   2.068  0.0729  0.1090  1.2367
  934MPD2    N113670   4.132   4.170   2.327  0.3899 -0.0148 -0.0633
  934MPD2    H713671   4.193   4.134   2.254 -0.5216 -1.9936  0.1418
  935MPD2     C13672   3.970   3.167   1.721 -0.3422 -0.6326  0.8203
  935MPD2    C113673   3.855   3.191   1.646 -0.1415 -0.0083  0.0497
  935MPD2    C213674   3.797   3.323   1.651 -0.2456  0.5543 -0.4318
  935MPD2    C313675   3.851   3.421   1.735 -0.1138 -1.0033 -0.1664
  935MPD2    C413676   3.956   3.384   1.810  0.1358 -0.1951  0.5267
  935MPD2    C513677   4.021   3.261   1.800 -0.3923 -1.0181 -0.5587
  935MPD2     H13678   3.706   3.339   1.595 -1.6286 -0.9958  1.3624
  935MPD2    H113679   4.001   3.458   1.876  1.4727 -0.1910 -0.3985
  935MPD2    H213680   4.008   3.066   1.732 -1.6601 -1.2783 -0.4466
  935MPD2    H313681   4.110   3.243   1.858 -0.6653  0.9752  0.4910
  935MPD2     N13682   3.800   3.550   1.744 -0.0616  0.0412  0.7959
  935MPD2    H513683   3.846   3.607   1.814  0.3602 -2.3078  2.4115
  935MPD2    N113684   3.799   3.093   1.559 -0.0219  0.1353  0.0902
  935MPD2    H713685   3.721   3.125   1.502 -0.4468 -1.4190 -0.1839
  936MPD2     C13686   2.825   0.194  13.015 -0.1566  1.1858 -0.2181
  936MPD2    C113687   2.769   0.313  13.053 -0.5950 -0.9593  0.1322
  936MPD2    C213688   2.764   0.417  12.960 -0.3957 -0.0633 -0.6948
  936MPD2    C313689   2.807   0.393  12.825 -0.3166 -0.3143 -0.6788
  936MPD2    C413690   2.862   0.271  12.792 -0.2740  0.1741 -0.1167
  936MPD2    C513691   2.871   0.172  12.889 -0.2396  0.1368 -0.3732
  936MPD2     H13692   2.732   0.519  12.981  0.0903  0.4652 -2.5190
  936MPD2    H113693   2.884   0.233  12.693  0.6615  0.7212 -0.1121
  936MPD2    H213694   2.840   0.113  13.086  0.2700  1.1697 -0.3273
  936MPD2    H313695   2.892   0.073  12.850 -0.2401  0.1135 -0.3157
  936MPD2     N13696   2.775   0.497  12.739 -0.5000  0.0585  0.1072
  936MPD2    H513697   2.722   0.574  12.780 -1.1620 -0.7969  0.8368
  936MPD2    N113698   2.709   0.333  13.176 -0.0776 -0.1156  0.2089
  936MPD2    H713699   2.682   0.425  13.208  2.9674  0.8508 -0.0149
  937MPD2     C13700   0.030   1.694  12.275  0.2683  0.0169 -1.0405
  937MPD2    C113701   0.048   1.822  12.217  0.1068 -0.6067  0.1518
  937MPD2    C213702   0.102   1.826  12.090 -0.0809  0.6905 -0.2191
  937MPD2    C313703   0.129   1.705  12.025 -1.1017  0.5618  0.2846
  937MPD2    C413704   0.108   1.582  12.090 -0.2389 -0.0898 -0.0278
  937MPD2    C513705   0.058   1.576  12.211 -0.5375  0.5625 -0.2205
  937MPD2     H13706   0.108   1.921  12.040  3.1534  0.3474 -0.5168
  937MPD2    H113707   0.138   1.488  12.044  0.8426  0.0701  0.3557
  937MPD2    H213708   4.715   1.684  12.375 -2.6938 -1.4775 -2.3813
  937MPD2    H313709   0.041   1.479  12.257 -3.2802  1.1191 -0.0452
  937MPD2     N13710   0.190   1.720  11.898 -0.0877 -0.1962  0.0473
  937MPD2    H513711   0.235   1.809  11.876 -0.0716 -1.4082 -4.7240
  937MPD2    N113712   4.704   1.941  12.261 -1.0225 -0.0757 -0.4163
  937MPD2    H713713   0.001   2.019  12.200 -0.5894  0.7489  0.7975
  938MPD2     C13714   2.657   3.555   1.381 -0.5503  0.2452  0.4498
  938MPD2    C113715   2.793   3.522   1.399 -1.5063 -0.6272  0.0766
  938MPD2    C213716   2.821   3.396   1.438 -0.2226 -0.6856 -0.6990
  938MPD2    C313717   2.716   3.304   1.468  0.0989  0.1797  0.6279
  938MPD2    C413718   2.581   3.341   1.454  0.5812  0.9572  0.5084
  938MPD2    C513719   2.552   3.464   1.413  0.0613 -0.4979 -0.1148
  938MPD2     H13720   2.924   3.361   1.446  0.1962  0.5711 -0.6413
  938MPD2    H113721   2.500   3.274   1.478  1.8141 -0.9306 -0.6055
  938MPD2    H213722   2.644   3.660   1.357 -1.5756  0.5821  2.4653
  938MPD2    H313723   2.448   3.493   1.403  0.7202  1.5269 -1.1408
  938MPD2     N13724   2.744   3.183   1.538 -0.4289  0.0318  0.1870
  938MPD2    H513725   2.669   3.115   1.550  0.0079 -0.2548  1.2443
  938MPD2    N113726   2.891   3.614   1.355  0.2779  0.2482  0.4478
  938MPD2    H713727   2.867   3.684   1.285  0.5608 -1.6789 -1.5851
  939MPD2     C13728   4.098   0.119   1.349 -0.4420 -0.2894  0.0264
  939MPD2    C113729   4.165   0.052   1.449  0.1473 -0.3044 -0.4925
  939MPD2    C213730   4.296   0.004   1.421 -1.1399 -0.2481  0.1153
  939MPD2    C313731   4.351   0.010   1.298  0.7005 -0.2347 -0.4721
  939MPD2    C413732   4.271   0.057   1.195  0.2624  0.0110  0.7092
  939MPD2    C513733   4.149   0.117   1.223 -0.0484  0.7448 -0.0314
  939MPD2     H13734   4.351   4.679   1.499  1.5333  1.5994 -0.5892
  939MPD2    H113735   4.297   0.042   1.091  2.0351  0.1624  1.1354
  939MPD2    H213736   3.996   0.152   1.360 -0.7175 -1.9663  2.7116
  939MPD2    H313737   4.097   0.158   1.138  2.2929 -1.4995 -2.5360
  939MPD2     N13738   4.476   4.676   1.286  0.2417 -0.0857 -0.3890
  939MPD2    H513739   4.520   4.644   1.371  0.9156  1.0730 -0.3073
  939MPD2    N113740   4.098   0.044   1.573  0.6191  0.2907  0.1662
  939MPD2    H713741   4.003   0.080   1.574 -0.2688 -1.9978 -0.9531
  940MPD2     C13742   3.127   0.650  13.225  0.0412 -0.0945 -0.8780
  940MPD2    C113743   3.071   0.529  13.260 -1.0642  0.7998  0.4269
  940MPD2    C213744   3.109   0.412  13.191  0.6205 -0.1779 -0.4221
  940MPD2    C313745   3.202   0.420  13.089  0.5792  0.8835  0.4285
  940MPD2    C413746   3.265   0.544  13.062 -0.2577 -0.1972  0.2640
  940MPD2    C513747   3.225   0.656  13.128  0.3688  0.7203 -0.0335
  940MPD2     H13748   3.059   0.316  13.204  0.6909  0.2616  2.8738
  940MPD2    H113749   3.343   0.564  12.990  0.7966 -4.2605  0.2969
  940MPD2    H213750   3.104   0.748  13.267 -1.7707 -0.7872 -0.2507
  940MPD2    H313751   3.272   0.748  13.094  0.5621  0.3188 -0.8271
  940MPD2     N13752   3.243   0.303  13.024  0.1049 -0.2855  0.2159
  940MPD2    H513753   3.305   0.317  12.944 -0.3131 -0.3053 -0.1120
  940MPD2    N113754   2.980   0.519  13.363  0.1609  0.2881 -0.1070
  940MPD2    H713755   2.965   0.425  13.400  0.7134  1.0063  1.9086
  941MPD2     C13756   1.864   3.304   9.589  0.0897 -0.0875 -0.6618
  941MPD2    C113757   1.818   3.289   9.724  0.6423  0.7516  0.2755
  941MPD2    C213758   1.734   3.184   9.755 -0.3444  0.1526  0.3813
  941MPD2    C313759   1.711   3.087   9.664 -0.0805 -0.5052  0.0648
  941MPD2    C413760   1.774   3.096   9.540  0.4437 -0.0437  0.0019
  941MPD2    C513761   1.850   3.200   9.508  0.0840 -1.0135  0.2706
  941MPD2     H13762   1.697   3.187   9.857  0.2434  0.5011  0.5837
  941MPD2    H113763   1.759   3.022   9.462  0.2456  1.3537 -1.2833
  941MPD2    H213764   1.917   3.393   9.558 -2.7268  1.2898 -1.5707
  941MPD2    H313765   1.903   3.196   9.413  0.8243  1.0654  0.5942
  941MPD2     N13766   1.627   2.980   9.682 -0.2233  0.6511  0.3906
  941MPD2    H513767   1.614   2.917   9.604  1.1750 -3.1392  3.1972
  941MPD2    N113768   1.841   3.391   9.821 -0.0085  0.7425 -0.6062
  941MPD2    H713769   1.801   3.378   9.914  0.4146  0.1597 -0.5064
  942MPD2     C13770   2.003   0.896   9.716 -0.1180  0.4527  0.5530
  942MPD2    C113771   1.949   0.787   9.645 -0.2011  0.3195 -0.8200
  942MPD2    C213772   2.036   0.698   9.591 -0.1721  0.0836  0.7883
  942MPD2    C313773   2.175   0.710   9.613 -0.0139  0.1399 -0.3782
  942MPD2    C413774   2.218   0.805   9.700  0.2288  0.0557  0.8538
  942MPD2    C513775   2.136   0.900   9.747 -0.3384  0.4863 -0.3138
  942MPD2     H13776   2.002   0.613   9.534  0.2093  0.5819 -0.1855
  942MPD2    H113777   2.325   0.806   9.717  0.4856 -1.9025 -0.5913
  942MPD2    H213778   1.936   0.976   9.746 -3.1381 -1.3392 -1.4630
  942MPD2    H313779   2.171   0.971   9.821 -3.5049 -1.2741  2.8774
  942MPD2     N13780   2.273   0.622   9.564  0.5445  0.1696 -0.2246
  942MPD2    H513781   2.368   0.645   9.591  0.4178  0.5279 -0.0739
  942MPD2    N113782   1.813   0.771   9.635  0.0253  0.2439 -0.0043
  942MPD2    H713783   1.750   0.846   9.664  0.4408  0.5629  0.0694
  943MPD2     C13784   0.911   4.421   9.587 -0.4980 -0.6328  0.5106
  943MPD2    C113785   0.914   4.284   9.605  0.9002  0.2538  0.2846
  943MPD2    C213786   0.889   4.203   9.497  0.1348 -0.4465  0.2762
  943MPD2    C313787   0.882   4.266   9.369 -0.5863  0.1764  0.1342
  943MPD2    C413788   0.892   4.405   9.355 -0.4698  0.8616  0.4863
  943MPD2    C513789   0.893   4.481   9.469 -0.4315  0.8615 -0.3105
  943MPD2     H13790   0.886   4.095   9.505  0.2274 -0.4034  0.9180
  943MPD2    H113791   0.884   4.453   9.258 -1.2218 -0.9991 -0.3678
  943MPD2    H213792   0.926   4.477   9.679  0.8393 -0.8961  0.4485
  943MPD2    H313793   0.913   4.587   9.466  0.0280  0.7526 -0.9490
  943MPD2     N13794   0.851   4.199   9.247  0.3012 -0.5860  0.3400
  943MPD2    H513795   0.865   4.244   9.157 -0.3964 -1.5804 -0.2625
  943MPD2    N113796   0.943   4.220   9.731 -0.4129  0.6540  0.2135
  943MPD2    H713797   0.988   4.273   9.804  0.9900  1.8732 -1.5505
  944MPD2     C13798   0.266   2.742  11.494  0.2502 -0.1262  0.1872
  944MPD2    C113799   0.303   2.840  11.403  0.3195 -0.1960 -0.4215
  944MPD2    C213800   0.310   2.974  11.447  0.6476  0.1356 -0.3568
  944MPD2    C313801   0.285   3.000  11.576 -0.2838 -0.0860  0.6021
  944MPD2    C413802   0.240   2.902  11.662 -0.0297  0.1714 -0.4230
  944MPD2    C513803   0.238   2.768  11.623  0.8906  0.4564 -0.1547
  944MPD2     H13804   0.318   3.050  11.370 -0.2635  1.3887  0.7882
  944MPD2    H113805   0.204   2.923  11.762  0.7436  1.4842 -0.4361
  944MPD2    H213806   0.243   2.642  11.459  0.3677 -0.0211 -0.1978
  944MPD2    H313807   0.189   2.690  11.681  0.1694 -1.2006 -2.9655
  944MPD2     N13808   0.276   3.138  11.606  0.5661 -0.0410 -0.8669
  944MPD2    H513809   0.315   3.202  11.537  1.6159  0.7080  0.4025
  944MPD2    N113810   0.304   2.794  11.265  0.4271 -0.1841 -0.0855
  944MPD2    H713811   0.291   2.694  11.253 -0.1139  0.0590 -1.5860
    1TCq1    O113812   3.770   0.824  15.748 -0.1097 -0.2419  0.1214
    1TCq1    C113813   3.820   0.790  15.623  0.2868 -0.0178 -0.0899
    1TCq1    O213814   3.917   0.829  15.564 -0.2093  0.3190 -0.8655
    1TCq1    C213815   3.708   0.732  15.557 -0.0357  0.1173 -0.8592
    1TCq1    C313816   3.630   0.627  15.610  0.9486 -0.4111  0.0655
    1TCq1    C413817   3.553   0.555  15.517 -0.1557 -0.0259 -0.5572
    1TCq1    C513818   3.547   0.583  15.381  0.3425  0.1840  0.0587
    1TCq1    C613819   3.626   0.683  15.339  0.1262  0.3950 -0.5995
    1TCq1    C713820   3.695   0.765  15.419  0.1753 -0.1849 -0.7173
    1TCq1    C813821   3.629   0.709  15.198 -0.1139 -0.4845  0.1228
    1TCq1    O413822   3.738   0.750  15.164 -0.8033  0.3161 -0.6050
    1TCq1    C913823   3.472   0.445  15.570  0.9670 -0.3226 -0.4709
    1TCq1    O513824   3.424   0.365  15.488 -0.1665  0.3257  0.1926
    1TCq1    O613825   3.469   0.424  15.693 -0.2622 -0.3263  0.0639
    1TCq1    H113826   3.689   0.776  15.774 -0.6954  0.4580 -0.4153
    1TCq1    H213827   3.618   0.599  15.714  0.2728 -1.2745 -0.2482
    1TCq1    H313828   3.475   0.525  15.324 -0.0596  1.3263 -0.5959
    1TCq1    H413829   3.744   0.853  15.378 -0.9553  0.4047 -0.8007
    2MPD2     C13830   3.461   0.766  14.720 -0.8872 -0.0013  0.0044
    2MPD2    C113831   3.360   0.698  14.791 -0.1269  0.1814 -0.0283
    2MPD2    C213832   3.378   0.689  14.929 -0.0538 -1.0529 -0.4429
    2MPD2    C313833   3.496   0.718  14.993  0.2029 -0.8901  0.8857
    2MPD2    C413834   3.585   0.793  14.923  0.2890  0.1220  0.6232
    2MPD2    C513835   3.567   0.825  14.791 -0.0894  0.0938  0.0034
    2MPD2     H13836   3.304   0.650  14.997  1.7544 -0.7389  1.7075
    2MPD2    H113837   3.676   0.833  14.965  0.0290  0.6093  0.7249
    2MPD2    H213838   3.454   0.779  14.612 -1.0265  0.5813  0.0872
    2MPD2    H313839   3.651   0.871  14.739 -2.7495  1.1671 -3.3492
    2MPD2     N13840   3.517   0.679  15.129 -0.3426 -0.6552 -0.4684
    2MPD2    H513841   3.439   0.635  15.177  0.1351 -1.1618 -0.1437
    2MPD2    N113842   3.250   0.654  14.719 -0.6201  0.2031  0.2051
    2MPD2    H713843   3.259   0.662  14.618  1.2831 -1.2401  0.2606
    3TMC2    C113844   3.039   0.554  14.679 -0.6733 -0.3160 -0.1007
    3TMC2    C213845   2.926   0.490  14.730 -0.2724  0.4171 -0.0197
    3TMC2    C313846   2.826   0.455  14.643  0.0792 -0.1089  0.3103
    3TMC2    C413847   3.062   0.555  14.547 -0.0798 -0.8493 -0.1007
    3TMC2    C513848   2.966   0.508  14.460  0.3095 -0.1444  0.2568
    3TMC2    C613849   2.848   0.454  14.509 -0.4807 -0.0903  0.0234
    3TMC2     C13850   3.136   0.601  14.773  0.6098 -0.2838 -0.5577
    3TMC2     O13851   3.109   0.595  14.892 -0.1169 -0.4217 -0.3496
    3TMC2     H13852   2.904   0.476  14.835  0.6181 -0.2268  0.0807
    3TMC2    H113853   3.150   0.595  14.498  0.0424 -2.2939 -1.0526
    3TMC2    H213854   2.779   0.412  14.437  1.2047 -0.0224 -1.6381
    3TMC2    C713855   2.978   0.540  14.313  0.1624 -0.3204  1.1084
    3TMC2    C813856   2.710   0.390  14.692  0.4636 -0.7677  0.0555
    3TMC2    O113857   2.877   0.527  14.247  0.0330  0.3658  0.0605
    3TMC2    O213858   2.657   0.297  14.638  0.5751 -0.8084 -0.9076
    3TMC2    O513859   2.653   0.474  14.785  0.4638  0.3920 -0.6092
    3TMC2    H513860   2.714   0.546  14.811 -0.9653  1.9443 -1.5324
    4MPD2     C13861   3.614   1.283  13.363 -0.1092  0.4438  0.1193
    4MPD2    C113862   3.523   1.201  13.412 -0.0008  0.9570  0.7134
    4MPD2    C213863   3.534   1.146  13.536 -0.1135  0.1262 -0.2052
    4MPD2    C313864   3.639   1.188  13.614  0.0113 -0.1637  0.7631
    4MPD2    C413865   3.727   1.279  13.563  0.8259 -0.0271 -1.1256
    4MPD2    C513866   3.716   1.330  13.435 -0.3726 -0.0898 -0.0778
    4MPD2     H13867   3.460   1.076  13.572  2.1293 -3.1043 -1.9177
    4MPD2    H113868   3.797   1.322  13.634  1.4872 -3.0219  0.0248
    4MPD2    H213869   3.602   1.325  13.264  0.5166 -1.4070 -0.7177
    4MPD2    H313870   3.766   1.420  13.401 -1.9900  0.4321 -1.0700
    4MPD2     N13871   3.653   1.128  13.740 -0.6359 -0.2845 -0.2092
    4MPD2    H513872   3.582   1.057  13.755  0.7122 -1.4537  0.6888
    4MPD2    N113873   3.422   1.167  13.325  0.1466  0.4938  0.1718
    4MPD2    H713874   3.425   1.224  13.242 -0.7018 -1.5774 -1.2980
    5TCq2    C113875   3.759   1.145  13.825 -0.2484 -0.1662 -0.1512
    5TCq2    O213876   3.855   1.219  13.828  0.3717 -1.0975 -0.1940
    5TCq2    C213877   3.745   1.051  13.942  0.6874 -0.2438  0.0294
    5TCq2    C313878   3.848   1.050  14.024  0.7456 -0.2244 -0.5350
    5TCq2    C413879   3.832   0.972  14.136 -0.3999 -0.2742 -0.7025
    5TCq2    C513880   3.728   0.888  14.160 -0.4988  0.1274  0.0214
    5TCq2    C613881   3.630   0.896  14.064 -0.5768 -0.5806 -0.5204
    5TCq2    C713882   3.626   0.982  13.965 -0.1617  0.3278  0.2762
    5TCq2    C813883   3.503   0.825  14.103 -0.3909  0.2228 -0.5355
    5TCq2    O413884   3.506   0.792  14.221  0.5975 -0.2332 -0.2648
    5TCq2    C913885   3.942   0.978  14.224  0.3980 -0.7629 -0.7667
    5TCq2    O513886   4.022   1.076  14.211 -0.3695 -0.9474 -0.7541
    5TCq2    O613887   3.960   0.894  14.314  0.2656 -0.2953 -0.0765
    5TCq2    H213888   3.941   1.101  14.001 -0.7869  1.8040 -2.2561
    5TCq2    H313889   3.724   0.827  14.249 -2.5097 -1.4533 -1.1462
    5TCq2    H413890   3.535   1.010  13.913  0.6318 -1.6471 -2.1861
    6MPD1     C13891   2.331   2.405  12.485  0.2355  0.0162 -0.1469
    6MPD1    C113892   2.276   2.365  12.604 -0.7524 -0.2449 -0.5577
    6MPD1    C213893   2.358   2.282  12.684 -0.0336 -0.6066 -0.1742
    6MPD1    C313894   2.468   2.219  12.630  0.2801 -0.1508  0.1105
    6MPD1    C413895   2.517   2.249  12.507  0.1097  0.1174 -0.2462
    6MPD1    C513896   2.444   2.340  12.436  0.1939 -0.4184 -0.1132
    6MPD1     H13897   2.327   2.267  12.787 -2.0161  0.2291 -0.6568
    6MPD1    H113898   2.610   2.210  12.468 -0.1041 -0.5768 -0.0457
    6MPD1    H213899   2.285   2.474  12.416 -0.8932  0.1585  0.7562
    6MPD1    H313900   2.485   2.363  12.338 -1.1763 -2.7406 -1.2338
    6MPD1     N13901   2.535   2.117  12.699  0.2888  0.1487 -0.0251
    6MPD1    H513902   2.627   2.092  12.665  1.5402  3.0132  1.2156
    6MPD1    N113903   2.161   2.432  12.658 -0.2203  0.0506  0.2948
    6MPD1    H613904   2.108   2.379  12.727 -0.9819  1.8015  1.0293
    6MPD1    H713905   2.104   2.463  12.580  0.9768  2.4420  0.3788
    7MPD2     C13906   2.603   1.521  13.350  0.4723  0.9089  0.5861
    7MPD2    C113907   2.657   1.503  13.224 -0.0560 -0.2174 -0.2551
    7MPD2    C213908   2.720   1.385  13.195  0.2136  0.4513 -0.2737
    7MPD2    C313909   2.750   1.293  13.292 -0.0617 -0.1635 -0.3513
    7MPD2    C413910   2.683   1.303  13.415  0.4859 -0.1207  0.6355
    7MPD2    C513911   2.614   1.418  13.443 -0.2166  0.1197 -0.7634
    7MPD2     H13912   2.752   1.377  13.092 -1.1478  2.6346 -0.8692
    7MPD2    H113913   2.688   1.226  13.491  0.4938 -0.2346  0.5180
    7MPD2    H213914   2.540   1.604  13.382 -1.6070  0.3588 -2.1171
    7MPD2    H313915   2.567   1.420  13.541 -0.6001  0.9276 -0.9623
    7MPD2     N13916   2.840   1.189  13.269 -0.9367  0.0482  0.2104
    7MPD2    H513917   2.869   1.124  13.341 -3.1052  0.3769  1.3880
    7MPD2    N113918   2.640   1.597  13.120 -0.2831  0.4549  0.5449
    7MPD2    H713919   2.682   1.572  13.031  0.9368  1.1827  0.9239
    8TMC3    C113920   3.000   1.062  13.148 -0.5422  0.6411 -0.2086
    8TMC3    C213921   3.080   1.089  13.253  0.2409  0.3274  0.3498
    8TMC3    C313922   3.214   1.090  13.234 -0.4601  0.5859  0.3230
    8TMC3    C413923   3.054   1.044  13.024 -0.7801 -0.0793  0.0918
    8TMC3    C513924   3.182   1.072  13.005  0.0916  0.5014  0.6363
    8TMC3    C613925   3.276   1.081  13.111 -0.8173 -0.5528  0.0051
    8TMC3     C13926   2.882   1.149  13.144 -0.1100  0.1485 -0.5192
    8TMC3     O13927   2.854   1.187  13.030  0.1055  0.0641  0.0141
    8TMC3     H13928   3.042   1.097  13.354 -2.0536  1.5952 -0.6210
    8TMC3    H113929   2.988   1.019  12.941 -0.1094 -1.6162  0.0200
    8TMC3    H213930   3.382   1.097  13.091 -1.5212  0.7159 -2.6108
    8TMC3    C713931   3.218   1.160  12.901  0.9047  0.1413 -0.0169
    8TMC3    C813932   3.303   1.102  13.348 -0.3806  0.2839  1.1220
    8TMC3    O113933   3.334   1.184  12.878  0.6356 -0.0987  0.5982
    8TMC3    O213934   3.254   1.076  13.455 -0.2518 -0.1453 -0.1406
    9TMC3    C113935   2.564   1.941  12.851 -0.0364  0.3326  0.3667
    9TMC3    C213936   2.688   1.920  12.793 -0.5203  0.0641  0.0325
    9TMC3    C313937   2.772   1.828  12.842  0.2322 -0.3477 -0.2619
    9TMC3    C413938   2.523   1.876  12.962  0.2031 -0.0398 -1.3273
    9TMC3    C513939   2.615   1.797  13.018 -0.4446  0.3574  0.3825
    9TMC3    C613940   2.735   1.772  12.963 -0.2062 -0.0719 -0.2733
    9TMC3     C13941   2.476   2.042  12.795 -0.0169  0.5703 -0.5859
    9TMC3     O13942   2.364   2.045  12.839 -0.1127 -0.0943 -0.2869
    9TMC3     H13943   2.724   1.966  12.702 -2.1931  0.5865 -0.3614
    9TMC3    H113944   2.427   1.900  13.007  0.4167 -1.5210 -0.0705
    9TMC3    H213945   2.811   1.704  13.000  1.4527  1.2522 -1.2949
    9TMC3    C713946   2.577   1.718  13.134 -0.3718 -0.3532  0.6349
    9TMC3    C813947   2.868   1.766  12.759  0.2987 -0.2351  0.1575
    9TMC3    O113948   2.520   1.768  13.226  0.5583  0.1151 -0.3262
    9TMC3    O213949   2.917   1.841  12.672 -0.4260 -0.3317  0.1838
   10MPD2     C13950   3.199   1.387  12.707  0.4664  0.8141  0.2832
   10MPD2    C113951   3.099   1.347  12.784  0.0858  0.0786  0.7418
   10MPD2    C213952   2.991   1.430  12.790 -0.1057 -0.1828 -0.5044
   10MPD2    C313953   2.987   1.552  12.742 -0.1349 -0.1784  0.5893
   10MPD2    C413954   3.090   1.596  12.674  0.5577  0.4177 -0.8506
   10MPD2    C513955   3.200   1.517  12.653  0.2156  0.1910 -0.0385
   10MPD2     H13956   2.898   1.395  12.834 -0.2010  1.4605  0.5982
   10MPD2    H113957   3.101   1.694  12.629  0.4495  0.5452 -0.6015
   10MPD2    H213958   3.290   1.330  12.690  1.1072  1.4973  1.3848
   10MPD2    H313959   3.289   1.558  12.607  0.3933 -0.5673 -0.3653
   10MPD2     N13960   2.881   1.632  12.782 -0.2211  0.3937  0.3110
   10MPD2    H513961   2.814   1.588  12.843  0.0932 -0.5811 -0.0540
   10MPD2    N113962   3.104   1.230  12.861  0.6460  0.1440  0.6761
   10MPD2    H713963   3.020   1.222  12.917 -1.3379 -1.9641 -2.6392
   11MPD2     C13964   3.012   0.717  14.084 -0.3956 -0.8091  0.4146
   11MPD2    C113965   3.115   0.672  14.160 -0.4212 -0.0316 -0.2656
   11MPD2    C213966   3.245   0.706  14.143  0.4606 -0.6861 -0.9510
   11MPD2    C313967   3.275   0.785  14.034  0.1823 -0.4066  0.6000
   11MPD2    C413968   3.176   0.820  13.942  0.0328 -0.1262 -0.4034
   11MPD2    C513969   3.049   0.796  13.973 -0.6787  0.4211 -0.1316
   11MPD2     H13970   3.323   0.652  14.196 -0.0127 -0.7002 -0.2713
   11MPD2    H113971   3.201   0.890  13.863 -1.4425 -0.0168 -0.7775
   11MPD2    H213972   2.906   0.704  14.102 -0.3108 -0.6151  1.0534
   11MPD2    H313973   2.961   0.823  13.916 -0.6589 -0.4883 -0.5973
   11MPD2     N13974   3.403   0.832  14.011 -0.0876  0.5125 -0.2514
   11MPD2    H513975   3.419   0.881  13.924 -1.6043  0.0529 -0.7920
   11MPD2    N113976   3.098   0.583  14.274 -0.6397 -0.8164  0.4199
   11MPD2    H713977   3.180   0.564  14.332  0.3742  0.4311 -0.6130
    1MPD1     C13978   0.497   1.980   0.002 -0.0258 -0.4706 -0.2100
    1MPD1    C113979   0.508   1.848  17.661  0.1343  0.5299  0.4710
    1MPD1    C213980   0.635   1.802  17.631 -0.5513 -0.2630 -0.0940
    1MPD1    C313981   0.742   1.891  17.637 -0.1831 -0.4365 -0.3055
    1MPD1    C413982   0.725   2.021  17.665  0.1120  0.0964  0.1472
    1MPD1    C513983   0.603   2.066   0.006 -0.0333 -0.2233  0.3742
    1MPD1     H13984   0.643   1.695  17.614 -0.9321 -1.0710  4.9420
    1MPD1    H113985   0.813   2.082  17.651  0.2534 -0.0125  0.5640
    1MPD1    H213986   0.399   2.022   0.023  0.1799  0.0962 -0.3678
    1MPD1    H313987   0.582   2.167   0.038  0.8837  0.2879 -0.6404
    1MPD1     N13988   0.876   1.850  17.602  0.6837  0.4334 -0.1971
    1MPD1    H513989   0.951   1.919  17.613 -0.8497  1.8171  1.5970
    1MPD1    N113990   0.406   1.757  17.665  0.1811  0.4730 -0.7163
    1MPD1    H613991   0.422   1.691  17.589 -1.0233 -0.4005 -0.2292
    1MPD1    H713992   0.316   1.806  17.663  0.5732  1.2293  0.0884
    2MPD1     C13993   1.835   1.911   0.120  0.5778  0.4656  0.2470
    2MPD1    C113994   1.817   1.773   0.120  0.4452  0.3991 -0.2444
    2MPD1    C213995   1.686   1.731   0.080  0.4174  0.1553  0.4248
    2MPD1    C313996   1.596   1.813   0.012 -0.8960  0.5640  0.4475
    2MPD1    C413997   1.619   1.950   0.021  0.3216 -0.5825 -0.2604
    2MPD1    C513998   1.738   1.993   0.072  0.4675  0.0310 -0.6994
    2MPD1     H13999   1.677   1.624   0.089  0.0754  0.1456 -0.0157
    2MPD1    H114000   1.548   2.023  17.687  0.7133 -0.7226 -1.3272
    2MPD1    H214001   1.927   1.954   0.158  1.4199 -0.2391 -0.9786
    2MPD1    H314002   1.759   2.100   0.068 -1.6122  0.4664 -0.4511
    2MPD1     N14003   1.470   1.760  17.663  0.3402  0.4749  0.7267
    2MPD1    H514004   1.462   1.660  17.656  1.7698  0.3344  1.0353
    2MPD1    N114005   1.903   1.681   0.190 -0.0758  0.0591  0.1270
    2MPD1    H614006   2.001   1.709   0.197 -0.2767  1.0481 -1.0020
    2MPD1    H714007   1.894   1.585   0.158  0.0781 -0.4298  1.5584
    3TMC3    C114008   1.270   1.748  17.565  0.0229  0.4646 -0.1569
    3TMC3    C214009   1.313   1.688  17.454 -0.3272  0.2853 -0.4238
    3TMC3    C314010   1.212   1.634  17.376  1.0092 -0.2470  0.1812
    3TMC3    C414011   1.137   1.778  17.588  0.5891  0.1371 -1.0824
    3TMC3    C514012   1.041   1.743  17.491 -0.2106 -0.9956 -0.9830
    3TMC3    C614013   1.082   1.665  17.389  0.1676 -0.2889 -0.4674
    3TMC3     C14014   1.361   1.834  17.625  0.1022 -0.1621 -0.0469
    3TMC3     O14015   1.314   1.945  17.656 -0.6800 -0.3432 -0.1589
    3TMC3     H14016   1.419   1.681  17.433 -0.1040  1.6803  0.2153
    3TMC3    H114017   1.107   1.828  17.680  1.2622 -1.7812  0.1893
    3TMC3    H214018   1.011   1.621  17.320  0.6737 -1.3854 -0.2890
    3TMC3    C714019   0.905   1.734  17.533  0.2164 -0.4695  0.2821
    3TMC3    C814020   1.242   1.518  17.287  0.0577 -0.1297 -0.3689
    3TMC3    O114021   0.834   1.644  17.489  0.3602  0.2727  0.4528
    3TMC3    O214022   1.152   1.436  17.270 -0.1316 -0.7000  0.1336
    4MPD1     C14023   1.573   1.266  16.979  0.2275  0.6099  0.6873
    4MPD1    C114024   1.629   1.384  17.018 -0.5090 -0.4175  0.6183
    4MPD1    C214025   1.560   1.461  17.112  0.5070 -0.9582 -0.4040
    4MPD1    C314026   1.434   1.433  17.155  0.6897  0.7963  0.2722
    4MPD1    C414027   1.374   1.316  17.105 -0.0479  0.5372  0.0538
    4MPD1    C514028   1.443   1.238  17.014 -0.3432  0.3290 -0.8875
    4MPD1     H14029   1.615   1.543  17.157  0.9333 -1.4901  0.0331
    4MPD1    H114030   1.268   1.300  17.124  0.5827 -1.0424  2.1210
    4MPD1    H214031   1.618   1.205  16.902  0.5299 -0.0100  1.3453
    4MPD1    H314032   1.392   1.159  16.960 -0.7666 -0.6798  0.9976
    4MPD1     N14033   1.372   1.524  17.241 -0.5936  0.2142 -0.3089
    4MPD1    H514034   1.423   1.610  17.258 -2.5304  1.3721 -0.3909
    4MPD1    N114035   1.768   1.403  16.991  0.2228  0.0341 -0.9567
    4MPD1    H614036   1.785   1.369  16.897  3.0838  0.2657 -0.5071
    4MPD1    H714037   1.797   1.501  16.985 -1.6511  0.7436  1.2988
    1TCq1    O114038   1.111   1.443  11.405 -0.4102  0.0631  0.4310
    1TCq1    C114039   1.011   1.361  11.401 -0.2008  0.9162 -0.1622
    1TCq1    O214040   0.897   1.394  11.409  0.0304 -0.1849  0.0271
    1TCq1    C214041   1.053   1.227  11.364 -0.7229  0.1806 -0.0960
    1TCq1    C314042   0.973   1.168  11.277 -0.1079  0.2919 -0.4449
    1TCq1    C414043   1.010   1.060  11.205  0.5635 -0.3497  0.5541
    1TCq1    C514044   1.149   1.041  11.202 -0.1107 -0.4815  0.6101
    1TCq1    C614045   1.233   1.098  11.287 -0.5073 -0.1974 -0.2304
    1TCq1    C714046   1.182   1.193  11.376 -0.5604  0.4702  0.0098
    1TCq1    C814047   1.379   1.063  11.288 -0.3836 -0.3112 -0.7471
    1TCq1    O414048   1.402   0.948  11.253 -0.0434 -0.0505 -0.6192
    1TCq1    C914049   0.943   1.021  11.088  0.3568  1.0969 -1.0556
    1TCq1    O514050   1.004   0.948  11.005 -0.0087 -0.2667 -0.2149
    1TCq1    O614051   0.826   1.062  11.078  0.2053  0.2529  0.5210
    1TCq1    H114052   1.206   1.424  11.389 -0.7198  0.6687 -2.1609
    1TCq1    H214053   0.869   1.199  11.278 -0.1918 -0.1018  1.8473
    1TCq1    H314054   1.181   0.969  11.128 -0.7601  0.2581 -0.3945
    1TCq1    H414055   1.247   1.230  11.455  1.5829 -0.7761 -1.1649
    2MPD1     C14056   1.876   1.144  11.414 -0.3116 -0.0342 -1.1015
    2MPD1    C114057   1.811   1.266  11.389 -0.6630 -0.3883 -0.4776
    2MPD1    C214058   1.677   1.262  11.377 -0.0354 -0.3876  0.0249
    2MPD1    C314059   1.605   1.150  11.343  0.1080  0.5762 -0.4359
    2MPD1    C414060   1.673   1.031  11.355 -0.1445  0.3342 -0.1458
    2MPD1    C514061   1.809   1.026  11.380  0.4337  0.1200  0.1573
    2MPD1     H14062   1.619   1.354  11.373  2.8784  1.4376 -0.0719
    2MPD1    H114063   1.623   0.938  11.331 -0.2527 -0.4696  3.0913
    2MPD1    H214064   1.983   1.143  11.433 -0.7926  0.1757  1.6676
    2MPD1    H314065   1.867   0.935  11.373  3.5317  2.0662  0.5784
    2MPD1     N14066   1.465   1.164  11.321 -0.5310 -0.0808 -0.2094
    2MPD1    H514067   1.418   1.253  11.331 -0.9053 -0.2663 -0.3346
    2MPD1    N114068   1.874   1.385  11.420  0.4091  0.6012 -0.5624
    2MPD1    H614069   1.859   1.466  11.360 -1.0248 -0.2216 -1.3275
    2MPD1    H714070   1.972   1.361  11.427  1.0909  2.8759 -2.2811
    1TCq1    O114071   1.965   2.472   0.282 -0.4022 -0.4045  0.0948
    1TCq1    C114072   2.019   2.391   0.188  0.1332 -0.0042  0.0059
    1TCq1    O214073   2.083   2.424   0.091 -0.1547  0.4014 -0.6425
    1TCq1    C214074   2.042   2.269   0.251  0.0825  0.2885 -0.6103
    1TCq1    C314075   1.940   2.221   0.327 -0.6262 -0.1678  0.2799
    1TCq1    C414076   1.965   2.108   0.397  0.4288  0.3186  0.0058
    1TCq1    C514077   2.084   2.049   0.409  0.2069 -0.3119  1.4996
    1TCq1    C614078   2.186   2.095   0.332  0.0313 -1.2209  0.2735
    1TCq1    C714079   2.169   2.211   0.254  0.6484  0.1709  0.5308
    1TCq1    C814080   2.325   2.076   0.355 -0.4695  0.1105 -0.5629
    1TCq1    O414081   2.401   2.106   0.265  0.3641  0.2464  0.4140
    1TCq1    C914082   1.869   2.079   0.505  0.6676  0.8073 -0.7906
    1TCq1    O514083   1.904   2.010   0.607  0.5186 -0.7731  0.4238
    1TCq1    O614084   1.746   2.100   0.476  0.1527 -0.0889  0.0233
    1TCq1    H114085   2.000   2.444   0.369 -0.5174  1.8057  0.8592
    1TCq1    H214086   1.837   2.251   0.310  0.0520  1.0708 -1.6275
    1TCq1    H314087   2.098   1.958   0.466  2.1745  0.3141  2.0087
    1TCq1    H414088   2.241   2.252   0.185 -0.2501 -0.8661 -1.0310
    2MPD1     C14089   2.722   1.992   0.649  0.1768  0.4658  0.4595
    2MPD1    C114090   2.613   1.975   0.729  0.2623 -0.3577 -0.1344
    2MPD1    C214091   2.491   1.983   0.665  0.1917 -0.3630  0.2852
    2MPD1    C314092   2.482   1.998   0.526 -0.4896  0.4495 -0.3972
    2MPD1    C414093   2.597   1.993   0.447 -0.2879  0.0739 -0.0978
    2MPD1    C514094   2.715   1.985   0.510 -0.0071  1.4562 -0.2834
    2MPD1     H14095   2.405   1.984   0.731 -1.1919  4.0614 -1.5972
    2MPD1    H114096   2.594   1.975   0.340 -0.3976  1.0227 -0.2476
    2MPD1    H214097   2.819   1.990   0.698  0.5279 -1.8966 -0.3362
    2MPD1    H314098   2.807   1.984   0.453  0.0997 -1.7452 -0.0739
    2MPD1     N14099   2.352   2.020   0.478 -0.1686  0.2691 -0.9098
    2MPD1    H514100   2.278   2.017   0.547 -1.0335 -0.4481 -1.8511
    2MPD1    N114101   2.627   1.993   0.868  0.0075 -0.5027 -0.2782
    2MPD1    H614102   2.715   1.953   0.899 -1.1289 -2.1081  0.8843
    2MPD1    H714103   2.549   1.947   0.914  1.3459 -1.2654  1.2124
    1MPD1     C14104   4.564   1.464  13.216  0.7739  0.4643 -0.1125
    1MPD1    C114105   4.501   1.344  13.218  0.1458  0.5557  0.0695
    1MPD1    C214106   4.397   1.325  13.135 -0.5859  0.2050  0.0350
    1MPD1    C314107   4.339   1.431  13.073  0.0319  0.0336 -0.6476
    1MPD1    C414108   4.385   1.556  13.092  0.0279 -0.1123  0.0134
    1MPD1    C514109   4.510   1.569  13.146  0.3863 -0.5424  0.5620
    1MPD1     H14110   4.368   1.225  13.106 -2.5942  1.0616 -0.9445
    1MPD1    H114111   4.345   1.647  13.048 -0.3930 -1.1177 -1.6798
    1MPD1    H214112   4.655   1.484  13.272 -0.0048 -0.0125  1.3139
    1MPD1    H314113   4.552   1.669  13.137 -0.9367  0.1110  1.5173
    1MPD1     N14114   4.222   1.411  12.996  0.5221 -0.6728  0.6463
    1MPD1    H514115   4.202   1.316  12.967  0.4891 -0.8438  1.2382
    1MPD1    N114116   4.560   1.233  13.280 -0.0810  0.1424  0.5608
    1MPD1    H614117   4.641   1.245  13.341 -0.0400 -0.7878  0.6964
    1MPD1    H714118   4.488   1.171  13.314 -0.5276  0.2808 -0.1242
    2MPD1     C14119   3.404   2.523  11.703  0.0795  0.9820  0.3286
    2MPD1    C114120   3.319   2.469  11.607  0.5351  0.3144 -1.0363
    2MPD1    C214121   3.369   2.370  11.518 -0.4826 -0.1785  0.5167
    2MPD1    C314122   3.504   2.336  11.514 -0.6749  0.4215 -0.2110
    2MPD1    C414123   3.581   2.390  11.608  0.5874 -0.3022 -0.1513
    2MPD1    C514124   3.536   2.484  11.699 -0.2545  0.0311  0.6284
    2MPD1     H14125   3.301   2.320  11.450  0.6600 -0.1305 -0.6734
    2MPD1    H114126   3.682   2.353  11.621  0.0668 -1.3647  0.8160
    2MPD1    H214127   3.367   2.594  11.776 -1.2524  1.2114 -0.5682
    2MPD1    H314128   3.608   2.515  11.774  0.3281 -1.9123  0.8935
    2MPD1     N14129   3.560   2.249  11.420 -0.0019  0.3319 -0.3049
    2MPD1    H514130   3.659   2.233  11.432  0.3117  1.8560 -0.8441
    2MPD1    N114131   3.179   2.492  11.615 -0.1786  0.1753  0.1173
    2MPD1    H614132   3.129   2.474  11.529  0.3242  0.7132 -0.2907
    2MPD1    H714133   3.167   2.588  11.649  1.5013  0.3686  0.1510
    3MPD1     C14134   3.483   1.984  10.439 -0.0266  0.0863  0.3431
    3MPD1    C114135   3.450   2.103  10.507  0.1867 -0.8575 -0.6817
    3MPD1    C214136   3.496   2.107  10.636  0.6798  0.4574 -0.0117
    3MPD1    C314137   3.547   1.999  10.708  0.1376  0.3105  0.1645
    3MPD1    C414138   3.564   1.879  10.642  0.6038 -0.8813 -1.0388
    3MPD1    C514139   3.548   1.879  10.507 -0.0156  0.7303 -0.0030
    3MPD1     H14140   3.483   2.202  10.686 -2.9110 -0.8561  1.6154
    3MPD1    H114141   3.600   1.792  10.695  0.3808  0.7429  1.7460
    3MPD1    H214142   3.452   1.982  10.336  0.7504 -0.1995  0.1173
    3MPD1    H314143   3.570   1.787  10.456 -4.3676 -0.2568 -0.1643
    3MPD1     N14144   3.569   2.025  10.844  0.3348 -0.1217 -0.1511
    3MPD1    H514145   3.537   2.116  10.874 -1.8419 -1.0180  0.2947
    3MPD1    N114146   3.426   2.222  10.436 -0.5316 -0.2471  0.2321
    3MPD1    H614147   3.392   2.292  10.502 -0.9568 -0.8397  0.6463
    3MPD1    H714148   3.359   2.208  10.361 -0.7661 -0.6958  0.5187
    4MPD2     C14149   3.932   1.928  12.442  0.8836 -0.8981  0.1452
    4MPD2    C114150   4.013   1.816  12.448  0.5018  0.0671  0.5963
    4MPD2    C214151   4.113   1.815  12.358  0.6784 -0.0365 -0.1701
    4MPD2    C314152   4.129   1.909  12.258  0.1862  0.7311 -1.2168
    4MPD2    C414153   4.054   2.026  12.258  0.1362 -0.0773  0.3852
    4MPD2    C514154   3.951   2.021  12.342 -0.0148 -0.2013  0.7683
    4MPD2     H14155   4.182   1.731  12.358 -0.0617 -0.6400 -0.9144
    4MPD2    H114156   4.061   2.104  12.184  0.8978 -1.4863 -1.0212
    4MPD2    H214157   3.855   1.945  12.516  3.0369  1.6499  1.8042
    4MPD2    H314158   3.886   2.107  12.340  3.1773  2.1283 -3.3512
    4MPD2     N14159   4.218   1.903  12.145 -0.5227 -0.1969  0.5417
    4MPD2    H514160   4.206   1.971  12.071  0.9288 -0.2392  0.2724
    4MPD2    N114161   4.000   1.703  12.525 -0.0666 -0.2097  0.3330
    4MPD2    H714162   4.070   1.632  12.509 -0.8026 -0.4962 -1.6514
    5TMC3    C114163   3.924   1.549  12.664  0.5674  0.3187 -0.2407
    5TMC3    C214164   3.965   1.554  12.789  0.0616  0.8494  0.1711
    5TMC3    C314165   4.062   1.471  12.832  0.4186  0.3399 -0.0110
    5TMC3    C414166   3.971   1.458  12.573  0.2200 -0.9110 -0.0790
    5TMC3    C514167   4.086   1.389  12.609  0.7048  0.2817 -0.1310
    5TMC3    C614168   4.123   1.389  12.740 -0.1543  1.0265 -0.2351
    5TMC3     C14169   3.905   1.681  12.614 -0.2275 -1.0819  0.3959
    5TMC3     O14170   3.835   1.762  12.669 -0.6387  0.6228 -0.2136
    5TMC3     H14171   3.932   1.637  12.851  0.1298  0.4410  0.7576
    5TMC3    H114172   3.964   1.472  12.466  1.4514 -0.4993 -0.1101
    5TMC3    H214173   4.208   1.325  12.760  0.3723  1.0595 -2.3984
    5TMC3    C714174   4.195   1.414  12.510  0.3422  0.8831 -0.1784
    5TMC3    C814175   4.140   1.510  12.944 -0.7100  0.2404 -1.0361
    5TMC3    O114176   4.209   1.528  12.462 -0.4729  0.0713  0.5036
    5TMC3    O214177   4.119   1.621  12.988 -0.3392 -0.5820  0.2244
    6TMC3    C114178   3.590   2.099  11.249 -0.1087  0.1657 -0.8343
    6TMC3    C214179   3.568   2.064  11.120 -0.4772  0.1731  0.7823
    6TMC3    C314180   3.646   1.967  11.067 -0.2973 -0.0058 -0.2025
    6TMC3    C414181   3.696   2.046  11.325 -0.2415  0.1250 -0.1677
    6TMC3    C514182   3.779   1.954  11.260 -0.1930  0.5992 -0.0699
    6TMC3    C614183   3.751   1.911  11.132  0.4196  0.3590 -0.3353
    6TMC3     C14184   3.493   2.183  11.321  0.0240  0.6687  0.6416
    6TMC3     O14185   3.380   2.194  11.284 -0.2454 -0.0359  0.5243
    6TMC3     H14186   3.484   2.110  11.069 -0.0368 -0.3719 -0.4251
    6TMC3    H114187   3.700   2.063  11.432  0.2668 -1.6561  0.1090
    6TMC3    H214188   3.805   1.834  11.078 -1.0269 -0.9087  0.0056
    6TMC3    C714189   3.900   1.903  11.327 -0.2190  0.6703 -0.7212
    6TMC3    C814190   3.629   1.930  10.925  0.4025  0.8309  0.7686
    6TMC3    O114191   3.918   1.935  11.444  0.2327 -0.5997  0.1186
    6TMC3    O214192   3.684   1.826  10.896  0.3203 -0.1192  0.0785
    7MPD2     C14193   4.465   1.233  12.116  0.5294 -0.2723  0.0104
    7MPD2    C114194   4.448   1.359  12.159  0.4249 -0.6660 -0.3345
    7MPD2    C214195   4.374   1.384  12.278 -0.1890 -0.1170 -0.4083
    7MPD2    C314196   4.331   1.277  12.354 -0.3222  0.0793  0.9461
    7MPD2    C414197   4.363   1.148  12.321 -0.2462  1.2174  0.0247
    7MPD2    C514198   4.418   1.130  12.194 -0.0848 -0.6728  0.1417
    7MPD2     H14199   4.354   1.486  12.308 -0.2397 -0.2367 -0.0282
    7MPD2    H114200   4.312   1.064  12.368  0.0779  1.6686  1.1954
    7MPD2    H214201   4.485   1.213  12.011 -1.6784  1.0465 -0.6643
    7MPD2    H314202   4.419   1.031  12.150  0.4880 -1.2543  1.4593
    7MPD2     N14203   4.256   1.296  12.473 -0.1950 -0.0800 -0.3451
    7MPD2    H514204   4.237   1.217  12.534 -1.4644 -1.7368 -2.8682
    7MPD2    N114205   4.474   1.476  12.080 -0.6836  0.2948  0.0869
    7MPD2    H714206   4.439   1.561  12.123 -0.8128 -0.4233  1.4303
    8TMC3    C114207   4.524   1.630  11.909  0.4445  0.1195  0.2719
    8TMC3    C214208   4.453   1.650  11.789  0.3228  0.2395  0.5646
    8TMC3    C314209   4.364   1.751  11.792  0.7563  0.3400 -1.1362
    8TMC3    C414210   4.496   1.714  12.014  0.0249  0.0041 -0.3670
    8TMC3    C514211   4.400   1.813  12.010  0.4204  0.3460 -0.2561
    8TMC3    C614212   4.332   1.827  11.897  0.3325  0.4573  0.1645
    8TMC3     C14213   4.526   1.492  11.954 -0.6937  0.1838  0.3174
    8TMC3     O14214   4.540   1.405  11.866  0.1799 -0.1869  0.4163
    8TMC3     H14215   4.480   1.577  11.713 -1.0270  0.8049 -0.4495
    8TMC3    H114216   4.555   1.708  12.105 -1.1839  1.2372  0.4974
    8TMC3    H214217   4.246   1.892  11.890 -0.1579 -0.1804  0.3039
    8TMC3    C714218   4.317   1.809  12.129 -0.0230  0.0059  0.5506
    8TMC3    C814219   4.287   1.757  11.678 -0.6132 -0.1158 -0.2320
    8TMC3    O114220   4.354   1.721  12.202  0.3371 -0.0283  0.2699
    8TMC3    O214221   4.173   1.800  11.697 -0.2470 -0.0674  0.0548
    9MPD2     C14222   4.383   1.720  11.325 -0.3046  0.0697 -0.0695
    9MPD2    C114223   4.308   1.763  11.431 -0.1343 -0.9497 -0.1063
    9MPD2    C214224   4.182   1.819  11.405 -0.5599 -0.8159  0.3198
    9MPD2    C314225   4.129   1.822  11.272  0.0332 -0.5298  0.0219
    9MPD2    C414226   4.211   1.780  11.176 -0.5274  0.3863  0.4634
    9MPD2    C514227   4.341   1.737  11.197 -0.5005 -0.0573  1.0984
    9MPD2     H14228   4.113   1.854  11.481  0.3641  0.7514  0.4461
    9MPD2    H114229   4.170   1.779  11.076  1.4016 -1.1287 -0.3195
    9MPD2    H214230   4.480   1.678  11.350 -0.5948 -0.2008  0.6055
    9MPD2    H314231   4.405   1.705  11.116 -0.0929 -1.0394  1.8073
    9MPD2     N14232   3.998   1.865  11.240 -0.4869 -0.3102 -0.3580
    9MPD2    H514233   3.972   1.876  11.142  2.3191  2.0451 -0.8424
    9MPD2    N114234   4.356   1.745  11.561 -0.2617  0.2247  0.0156
    9MPD2    H714235   4.452   1.713  11.566 -0.4526 -0.0600  1.6837
    1MPD1     C14236   0.445   3.001   1.631  0.1672 -0.5050  1.1568
    1MPD1    C114237   0.531   2.933   1.717  0.0947 -0.3421 -0.0990
    1MPD1    C214238   0.564   2.990   1.837 -0.4248  0.5984  0.1268
    1MPD1    C314239   0.527   3.128   1.854  0.5467  0.6488 -0.8569
    1MPD1    C414240   0.443   3.191   1.773  0.4101 -0.4204  0.3360
    1MPD1    C514241   0.397   3.122   1.670  0.2502 -0.1442 -0.7475
    1MPD1     H14242   0.629   2.946   1.912 -1.3676 -0.7745  0.1302
    1MPD1    H114243   0.407   3.292   1.788  1.1086 -0.0189 -0.6986
    1MPD1    H214244   0.411   2.951   1.542  0.6829 -1.1386  1.3137
    1MPD1    H314245   0.328   3.178   1.608  0.1300  1.9665  1.2618
    1MPD1     N14246   0.570   3.211   1.962 -0.4377 -0.3690  0.2029
    1MPD1    H514247   0.535   3.306   1.957  0.7436  0.0851  0.3370
    1MPD1    N114248   0.564   2.803   1.675 -0.2221  0.8864  0.0454
    1MPD1    H614249   0.644   2.777   1.732 -0.0493  0.2108 -0.5022
    1MPD1    H714250   0.582   2.794   1.575  0.4643 -3.6423  0.5890
    2MPD1     C14251   1.392   3.513   2.597  0.2612 -0.7190  0.1222
    2MPD1    C114252   1.306   3.627   2.584  0.7386  0.3549  0.3728
    2MPD1    C214253   1.186   3.603   2.515  0.2245 -0.5298 -0.4515
    2MPD1    C314254   1.155   3.478   2.471 -0.3869  0.2241 -0.5362
    2MPD1    C414255   1.233   3.364   2.505 -0.1177 -0.2767  0.1002
    2MPD1    C514256   1.353   3.394   2.561  0.0348  0.4529  0.4578
    2MPD1     H14257   1.128   3.692   2.490 -0.1235 -0.4351  0.7086
    2MPD1    H114258   1.200   3.264   2.478  0.8682 -0.4299 -0.5680
    2MPD1    H214259   1.480   3.510   2.660  0.1083 -0.1398  0.3569
    2MPD1    H314260   1.425   3.313   2.563  0.1246  0.5353  0.5620
    2MPD1     N14261   1.028   3.469   2.412  0.3226  0.4102 -0.1879
    2MPD1    H514262   0.970   3.552   2.404 -1.3393 -0.6121  1.3439
    2MPD1    N114263   1.358   3.752   2.611  0.5801 -0.2401 -0.2559
    2MPD1    H614264   1.409   3.745   2.699 -0.3813  0.6373  0.3661
    2MPD1    H714265   1.292   3.828   2.623 -0.1865 -1.0371  0.6440
    3TCq2    C114266   0.972   3.345   2.377  0.4475  0.1017  0.1353
    3TCq2    O214267   1.013   3.228   2.385  0.4541  0.0780 -0.3817
    3TCq2    C214268   0.846   3.362   2.307 -0.7244  0.0883  0.6052
    3TCq2    C314269   0.782   3.483   2.297  0.5277  0.4231 -0.1679
    3TCq2    C414270   0.688   3.511   2.199  0.1642 -0.2013  0.5480
    3TCq2    C514271   0.648   3.410   2.120  0.3731  0.0826 -0.1225
    3TCq2    C614272   0.702   3.289   2.132  0.6398  0.2320  0.5471
    3TCq2    C714273   0.807   3.262   2.221 -0.2557 -0.3202 -0.3007
    3TCq2    C814274   0.647   3.176   2.064 -0.3887 -0.0823  0.3534
    3TCq2    O414275   0.699   3.071   2.087  0.0516 -0.0665 -0.2412
    3TCq2    C914276   0.622   3.638   2.200 -0.4865  0.0445 -0.3003
    3TCq2    O514277   0.679   3.739   2.256 -0.3492  0.0401 -0.5755
    3TCq2    O614278   0.509   3.649   2.154 -0.1287  0.1042 -0.2902
    3TCq2    H214279   0.796   3.561   2.371  3.1055  0.6677 -0.9238
    3TCq2    H314280   0.559   3.428   2.061 -0.5846 -1.4532  0.8719
    3TCq2    H414281   0.856   3.165   2.219 -1.5644 -1.0388  2.0826
    1TCq1    O114282   1.935   3.972  13.261  0.4652  0.0401 -0.1067
    1TCq1    C114283   2.014   4.077  13.248  0.0652 -0.3772 -0.3724
    1TCq1    O214284   2.108   4.085  13.175 -0.4769  0.4859  0.1933
    1TCq1    C214285   1.982   4.179  13.355 -0.9990  0.2140 -1.2021
    1TCq1    C314286   1.850   4.206  13.378  0.2839 -0.4362 -0.0306
    1TCq1    C414287   1.825   4.308  13.469  0.0627  0.4884 -0.0602
    1TCq1    C514288   1.930   4.370  13.527 -0.2471  0.9200  0.3776
    1TCq1    C614289   2.057   4.340  13.504 -0.4665 -0.0424 -0.3910
    1TCq1    C714290   2.085   4.236  13.421  0.4018 -0.0525  0.4495
    1TCq1    C814291   2.154   4.426  13.557  0.5747 -0.1778 -0.5704
    1TCq1    O414292   2.132   4.543  13.547  0.2478 -0.5426 -0.4032
    1TCq1    C914293   1.696   4.340  13.521  0.0274  0.2861  0.4909
    1TCq1    O514294   1.593   4.288  13.463 -0.1988 -0.0238 -0.4091
    1TCq1    O614295   1.688   4.418  13.619  0.5015  0.3761 -0.5467
    1TCq1    H114296   1.878   3.978  13.341  0.6510  2.1626 -0.1237
    1TCq1    H214297   1.768   4.154  13.331  1.2092  0.0660 -2.2319
    1TCq1    H314298   1.903   4.458  13.585 -0.5527  0.7939  0.4262
    1TCq1    H414299   2.189   4.213  13.398  0.4153 -1.0078  1.4171
    2MPD2     C14300   2.384   4.547  13.714  0.1716  0.6560  0.1630
    2MPD2    C114301   2.357   4.411  13.698  0.2211  0.2197 -0.1464
    2MPD2    C214302   2.447   4.322  13.756  0.3935  0.4715  0.3245
    2MPD2    C314303   2.543   4.362  13.846  0.1407  0.4312 -0.4151
    2MPD2    C414304   2.556   4.494  13.872 -0.7421  0.4767 -0.3009
    2MPD2    C514305   2.481   4.584  13.808  0.3713  0.1130  0.3114
    2MPD2     H14306   2.426   4.216  13.742  2.3409  0.1526 -0.2988
    2MPD2    H114307   2.634   4.533  13.938 -1.0389  1.3032 -0.4329
    2MPD2    H214308   2.317   4.616  13.664 -0.3194  0.7149  0.9111
    2MPD2    H314309   2.502   4.688  13.831 -0.0019  0.2443  0.0627
    2MPD2     N14310   2.622   4.262  13.903 -0.2165 -0.0559  0.0962
    2MPD2    H514311   2.612   4.164  13.878  1.2503  0.0322 -0.8055
    2MPD2    N114312   2.260   4.358  13.615  0.0823  0.6993  0.5838
    2MPD2    H714313   2.249   4.258  13.621 -1.0487  0.7801 -0.0576
    3TCq1    O114314   2.962   3.907  14.384  0.4465 -0.4406  0.0544
    3TCq1    C114315   2.932   4.029  14.338 -0.4935  0.1559 -0.5711
    3TCq1    O214316   2.989   4.136  14.370  0.1015 -0.8458  0.1281
    3TCq1    C214317   2.864   4.023  14.213 -0.2354  0.2118 -0.3441
    3TCq1    C314318   2.888   3.920  14.122  0.0312  0.1195 -0.3157
    3TCq1    C414319   2.848   3.940  13.997 -0.3263  0.2119  0.5574
    3TCq1    C514320   2.789   4.053  13.958  0.3562  0.3401 -0.1891
    3TCq1    C614321   2.775   4.154  14.049 -0.0388 -0.2659 -0.0258
    3TCq1    C714322   2.808   4.138  14.179  0.6119  0.0758  0.7223
    3TCq1    C814323   2.707   4.283  14.008 -0.2254  0.0393  0.1290
    3TCq1    O414324   2.723   4.376  14.084  0.6540  0.5725 -0.0632
    3TCq1    C914325   2.873   3.833  13.898 -0.1078 -0.4418 -0.2803
    3TCq1    O514326   2.802   3.834  13.793 -0.2352 -0.2571 -0.3429
    3TCq1    O614327   2.958   3.742  13.932 -0.2021 -0.3262 -0.0496
    3TCq1    H114328   2.890   3.844  14.360  0.7785 -0.1499 -1.7107
    3TCq1    H214329   2.939   3.829  14.151  0.8234  0.0129 -2.0461
    3TCq1    H314330   2.764   4.073  13.855  1.5302  2.0294 -0.1511
    3TCq1    H414331   2.811   4.222  14.247  1.4514 -1.1368  2.1727
    1MPD2     C14332   1.214   0.186  15.522  0.0583 -0.0560 -0.1486
    1MPD2    C114333   1.094   0.205  15.461  0.6568 -0.6949  1.0999
    1MPD2    C214334   1.082   0.151  15.342  0.4334  0.5324 -0.3289
    1MPD2    C314335   1.188   0.098  15.263  0.9371 -0.0966 -0.1303
    1MPD2    C414336   1.310   0.086  15.322  0.6163  0.2670 -0.0441
    1MPD2    C514337   1.323   0.130  15.455 -0.2519  0.3818  0.0173
    1MPD2     H14338   0.987   0.150  15.290 -0.3317 -0.0753  1.0733
    1MPD2    H114339   1.394   0.050  15.265 -0.4592 -0.0826 -1.4058
    1MPD2    H214340   1.226   0.231  15.620  0.2729  0.4776 -0.4175
    1MPD2    H314341   1.423   0.130  15.497 -1.0522  0.9050  1.9779
    1MPD2     N14342   1.157   0.060  15.127 -0.0227  0.7419  0.0510
    1MPD2    H514343   1.059   0.066  15.102 -0.0820 -0.6791 -0.0881
    1MPD2    N114344   0.982   0.257  15.533  0.8854  0.3932  0.2132
    1MPD2    H714345   1.000   0.270  15.632  1.7674  1.8514 -0.1393
    2TMC3    C114346   0.756   0.330  15.555  0.0640 -0.2073 -0.8995
    2TMC3    C214347   0.640   0.274  15.508  0.3070 -0.0533 -0.1190
    2TMC3    C314348   0.529   0.352  15.481 -0.4025  0.4456 -0.1804
    2TMC3    C414349   0.763   0.466  15.569 -0.5271  0.0493 -0.1616
    2TMC3    C514350   0.653   0.540  15.525 -0.6689  0.1189 -0.5734
    2TMC3    C614351   0.535   0.482  15.493  0.3248 -0.2500 -0.4384
    2TMC3     C14352   0.868   0.296  15.469  0.2153 -0.3279 -0.9200
    2TMC3     O14353   0.830   0.289  15.354 -0.9243 -0.5361  0.7001
    2TMC3     H14354   0.637   0.168  15.487 -1.4214 -0.5488  2.5631
    2TMC3    H114355   0.860   0.514  15.576 -0.2685 -0.4925  0.0460
    2TMC3    H214356   0.453   0.540  15.454 -1.3577 -0.3564  2.9218
    2TMC3    C714357   0.665   0.681  15.506  0.6532  0.0363 -0.3913
    2TMC3    C814358   0.448   0.296  15.371 -0.3314  0.3693  0.2547
    2TMC3    O114359   0.591   0.732  15.427  0.2061  0.2191 -0.1980
    2TMC3    O214360   0.326   0.295  15.372  0.2955  0.5486 -0.2277
    3TCq1    O114361   0.741   1.573  14.918 -0.3433 -0.3440 -0.2389
    3TCq1    C114362   0.837   1.497  14.852 -0.3455 -0.7320  0.1849
    3TCq1    O214363   0.884   1.518  14.743 -0.7770 -0.3683  0.0061
    3TCq1    C214364   0.868   1.375  14.922  0.5111 -0.4615 -0.7395
    3TCq1    C314365   0.897   1.264  14.847 -0.0785 -0.1334 -0.3571
    3TCq1    C414366   0.932   1.149  14.911  0.1680 -0.1600 -0.2966
    3TCq1    C514367   0.914   1.134  15.047  0.9669 -0.0540 -0.2972
    3TCq1    C614368   0.885   1.245  15.120 -0.4750 -0.8996 -0.2161
    3TCq1    C714369   0.863   1.365  15.059 -0.7180  0.2432  0.2854
    3TCq1    C814370   0.912   1.242  15.262  0.6381 -0.0947  0.0347
    3TCq1    O414371   0.951   1.344  15.314  0.3281 -0.0770 -0.3816
    3TCq1    C914372   0.999   1.047  14.837  0.3697  0.9873 -0.8517
    3TCq1    O514373   1.042   1.067  14.719  0.0861  0.1246 -0.8676
    3TCq1    O614374   1.029   0.941  14.896  0.9208  0.1688 -0.1205
    3TCq1    H114375   0.700   1.522  14.991 -1.7766  0.2778 -0.5968
    3TCq1    H214376   0.915   1.276  14.740 -1.4777  0.8621 -0.4804
    3TCq1    H314377   0.956   1.053  15.105  0.9515 -0.0747 -0.3154
    3TCq1    H414378   0.837   1.455  15.113  0.8791  1.7363 -1.3979
    4MPD2     C14379   0.950   1.115  15.521 -0.5365 -0.3981  0.0097
    4MPD2    C114380   0.856   1.069  15.434 -0.2214  0.2137 -0.7346
    4MPD2    C214381   0.792   0.943  15.453 -0.7145 -0.3804 -0.1477
    4MPD2    C314382   0.804   0.873  15.573  0.0612 -0.9156  0.1854
    4MPD2    C414383   0.885   0.930  15.671 -0.2733 -0.3680 -0.5577
    4MPD2    C514384   0.951   1.047  15.642 -0.4836 -0.0389 -0.6927
    4MPD2     H14385   0.735   0.903  15.371 -1.9686  1.1043 -0.0030
    4MPD2    H114386   0.910   0.877  15.762  2.1703  0.4079 -0.7573
    4MPD2    H214387   1.021   1.194  15.501  0.3507 -1.2496 -0.1403
    4MPD2    H314388   1.016   1.084  15.720  1.1653 -0.5201 -1.8481
    4MPD2     N14389   0.752   0.745  15.592  0.1257  0.5814  0.4351
    4MPD2    H514390   0.779   0.696  15.677 -0.8383 -0.8037 -0.0611
    4MPD2    N114391   0.844   1.129  15.314 -0.1332 -0.3314 -0.5108
    4MPD2    H714392   0.779   1.074  15.258 -0.8331  0.4900 -0.5051
    5TMC2    C114393   0.960   4.691  14.866 -0.7908 -0.1931 -0.1853
    5TMC2    C214394   0.955   4.561  14.835  0.1042  0.0320  0.4078
    5TMC2    C314395   1.069   4.488  14.858 -0.0810 -0.1332  0.3435
    5TMC2    C414396   1.070   0.032  14.903 -0.1895 -0.5027 -0.3185
    5TMC2    C514397   1.176   4.688  14.923 -0.3159  0.3129  0.1944
    5TMC2    C614398   1.179   4.551  14.910 -0.6549  0.5473  0.7296
    5TMC2     C14399   0.859   4.721  14.970 -0.1183 -0.4345  0.0481
    5TMC2     O14400   0.898   0.022  15.084  0.0247  0.1002 -0.4342
    5TMC2     H14401   0.863   4.514  14.803  0.3572 -1.0804  1.3404
    5TMC2    H114402   1.063   0.138  14.924 -0.6751 -0.3902 -1.0342
    5TMC2    H214403   1.261   4.485  14.935 -0.7195 -0.1066 -0.7448
    5TMC2    C714404   1.244   0.003  15.035  0.2834  0.5418 -0.0136
    5TMC2    C814405   1.112   4.399  14.754 -0.5407 -0.3432  0.4444
    5TMC2    O114406   1.361   4.707  15.044 -0.2182  0.3977 -0.3120
    5TMC2    O214407   1.226   4.404  14.701  0.1080 -0.0386 -0.0105
    5TMC2    O514408   1.003   4.326  14.714 -0.5637  0.1588 -0.6003
    5TMC2    H514409   0.927   4.329  14.777  0.4579 -1.2891  0.6970
    6MPD2     C14410   0.388   0.164  15.107 -0.8049  0.1632  0.0196
    6MPD2    C114411   0.517   0.178  15.162  0.6975  0.9608  0.4711
    6MPD2    C214412   0.631   0.128  15.095 -0.0164 -1.0513  0.8397
    6MPD2    C314413   0.615   0.049  14.983  0.1978  0.0712 -0.3232
    6MPD2    C414414   0.484   0.034  14.930 -0.1779 -0.1574 -0.8522
    6MPD2    C514415   0.376   0.090  14.996  0.2605  0.2300  0.0410
    6MPD2     H14416   0.725   0.154  15.143 -0.2815  0.2223  0.6468
    6MPD2    H114417   0.463   4.705  14.839  2.2033  0.4007 -1.7294
    6MPD2    H214418   0.300   0.202  15.157  0.4912  2.4513  0.5472
    6MPD2    H314419   0.278   0.067  14.955 -0.3464  3.0600 -0.1571
    6MPD2     N14420   0.729   4.717  14.918  0.0816 -0.2081 -0.0019
    6MPD2    H514421   0.712   4.678  14.826 -3.1833  1.6089 -0.1915
    6MPD2    N114422   0.539   0.248  15.281 -0.0300  0.0160 -0.0422
    6MPD2    H714423   0.636   0.269  15.300  0.1785  0.0505 -1.1587
  945NH4     N114424   3.974   3.588  13.011 -0.1356  0.2328  0.7216
  945NH4     H214425   3.921   3.584  13.100 -0.3960 -0.8150  0.5104
  945NH4     H314426   4.024   3.497  13.005  0.4061  0.6976 -1.8330
  945NH4     H414427   4.047   3.661  13.026  0.0231  1.2145 -4.5939
  945NH4     H514428   3.909   3.609  12.933  0.9083 -0.1079 -0.2456
  946SOD     NA14429   0.972   4.404  10.491  0.2655  0.0310 -0.6701
  947SOD     NA14430   3.523   1.374   3.012 -0.3065  0.2347 -0.5296
  948SOD     NA14431   2.211   0.622  15.412  0.1030  0.0249  0.3046
  949SOD     NA14432   3.107   4.492   6.691 -0.4261  0.1624  0.1200
  950SOD     NA14433   1.290   1.339   0.690 -0.6195  0.3254 -0.1967
  951SOD     NA14434   2.070   4.316  11.790  0.4073  0.3179 -0.1566
  952SOD     NA14435   0.563   3.875  14.330  0.1670 -0.1012  0.1813
  953SOD     NA14436   0.829   4.548   3.770 -0.5497 -0.1407 -0.4043
  954SOD     NA14437   2.398   3.820   2.541  0.0999  0.0044 -0.9429
  955SOD     NA14438   3.313   1.149  15.852  0.0455  0.2989  0.4396
  956SOD     NA14439   0.911   1.587  14.544  0.1506  0.4890 -0.7222
  957SOD     NA14440   2.657   4.684  11.670 -0.1689 -0.0207  0.2443
  958SOD     NA14441   0.725   1.814  16.264 -0.2237  0.2164 -0.0951
  959SOD     NA14442   2.174   0.335  12.413  0.0739  0.1862  0.0700
  960SOD     NA14443   1.940   0.075  12.262  0.0684 -0.5692 -0.1966
  961SOD     NA14444   3.455   3.206   4.827  0.5416  0.3116 -0.0215
  962SOD     NA14445   0.548   4.559   1.396  0.0756  0.4055  0.0290
  963SOD     NA14446   1.505   1.652   1.335  0.0392  0.1111 -0.0561
  964SOD     NA14447   2.371   2.891   3.654  0.4647 -0.3193  0.0578
  965SOD     NA14448   0.938   4.629  11.043  0.0954 -0.4631  0.2528
  966SOD     NA14449   0.326   3.614   1.995 -0.0657 -0.2517 -0.2214
  967SOD     NA14450   1.242   1.424   2.370 -0.2547 -0.2543 -0.0129
  968SOD     NA14451   0.956   1.259  12.246 -0.3117  0.0185  0.3623
  969SOD     NA14452   3.931   3.953  13.954 -0.2250 -0.1195 -0.0669
  970SOD     NA14453   0.485   3.868   2.216 -0.4054 -0.2808 -0.0422
  971SOD     NA14454   1.823   0.691   1.022 -0.0293 -0.2467  0.1672
  972SOD     NA14455   1.048   4.111  10.437 -0.2138  0.0041 -0.5155
  973SOD     NA14456   1.384   3.645  10.246 -0.1511 -0.4171  0.2572
  974SOD     NA14457   3.598   2.389  14.764 -0.1855  0.3106 -0.4451
  975SOD     NA14458   1.012   4.717  10.324  0.0008 -0.4455 -0.1154
  976SOD     NA14459   3.018   2.015  12.574  0.3583  0.4254 -0.1647
  977SOD     NA14460   3.215   3.943   9.174 -0.1294  0.2873 -0.3470
  978SOD     NA14461   0.973   3.792  11.182  0.4725  0.0756  0.3222
  979SOD     NA14462   0.073   2.855   9.922 -0.2906 -0.3516 -0.2014
  980SOD     NA14463   2.850   4.427  14.863 -0.6220  0.3979 -0.2580
  981SOD     NA14464   1.470   3.390  10.119  0.5457 -0.5036 -0.6588
  982SOD     NA14465   4.041   3.754   3.467 -0.3608  0.6197 -0.2557
  983SOD     NA14466   3.889   3.529   4.122  0.4294  0.2577 -0.3365
  984SOD     NA14467   0.004   1.322  11.723 -0.3891 -0.3268 -0.4524
  985SOD     NA14468   0.061   1.823   1.699  0.1775 -0.2126 -0.5530
  986SOD     NA14469   3.509   0.227  15.009  0.0448  0.2332 -0.0426
  987SOD     NA14470   1.888   3.236  16.342  0.6053 -0.1421 -0.0331
  988SOD     NA14471   4.189   0.932  14.300 -0.1064  0.2982 -0.0905
  989SOD     NA14472   2.109   3.638  12.976 -0.0642 -0.3388 -0.4373
  990SOD     NA14473   1.987   2.465   5.466 -0.2245 -0.5973 -0.0552
  991SOD     NA14474   1.291   3.997   9.531 -0.4048 -0.1945 -0.5943
  992SOD     NA14475   1.294   4.595  12.725 -0.0071 -0.2960 -0.4456
  993SOD     NA14476   2.481   4.609  14.582 -0.2187 -0.5720  0.4617
  994SOD     NA14477   3.372   4.593  15.078 -0.3675  0.0564  0.6491
  995SOD     NA14478   3.086   0.138  17.062  0.2419  0.0446 -0.2354
  996SOD     NA14479   1.480   4.337  13.282  0.2937  0.1888 -0.0096
  997SOD     NA14480   0.062   4.573  11.140  0.1998 -0.2131 -0.0189
  998SOD     NA14481   2.275   3.971  13.038 -0.1305 -0.3590 -0.0295
  999SOD     NA14482   1.327   4.293  10.392 -0.0130 -0.1322 -0.2373
 1000SOD     NA14483   0.515   1.891   1.274  0.2188  0.1315  0.3248
 1001SOD     NA14484   1.230   0.852  14.856 -0.2328 -0.1100 -0.0029
 1002SOD     NA14485   0.400   0.137   1.472 -0.3597 -0.2464 -0.0579
 1003SOD     NA14486   0.648   1.953   8.365  0.1846 -0.3200  0.1875
 1004SOD     NA14487   4.098   1.314  15.011  0.2636 -0.2140  0.1690
 1005SOD     NA14488   2.413   4.206   0.258 -0.2898 -0.1170  0.6782
 1006SOD     NA14489   1.554   1.033  14.693  0.3277 -0.3754  0.2447
 1007SOD     NA14490   3.441   3.218   0.113 -0.1157 -0.3304 -0.1744
 1008SOD     NA14491   3.991   3.817   1.230  0.1439  0.2808 -0.3125
 1009SOD     NA14492   3.203   1.066  11.293 -0.5362  0.0747  0.3912
 1010SOD     NA14493   4.219   1.483  10.562  0.1688  0.3290 -0.5533
 1011SOL     OW14494   0.130   1.495   9.203 -0.3867 -0.6022 -0.0066
 1011SOL    HW114495   0.098   1.470   9.289  0.2101  0.3566  0.4974
 1011SOL    HW214496   0.224   1.478   9.204  0.0141  1.4656 -2.1233
 1012SOL     OW14497   3.707   4.062   4.925 -1.0571 -0.3920 -0.1649
 1012SOL    HW114498   3.693   4.012   5.005 -0.6002 -2.0083 -1.1139
 1012SOL    HW214499   3.647   4.023   4.862 -1.7822  0.0705  0.2243
 1013SOL     OW14500   2.613   2.561   9.198 -0.5990 -0.0315  0.1867
 1013SOL    HW114501   2.578   2.638   9.152  1.5443 -1.5629 -4.0460
 1013SOL    HW214502   2.537   2.521   9.239 -0.1240 -1.8640 -0.7440
 1014SOL     OW14503   2.184   3.195   9.499  0.3691 -0.4231  0.3922
 1014SOL    HW114504   2.093   3.197   9.527  0.8683  0.9534  1.9221
 1014SOL    HW214505   2.190   3.104   9.472  0.1099 -1.0556  2.5046
 1015SOL     OW14506   0.879   3.380   5.600  0.5198  0.2966  0.6833
 1015SOL    HW114507   0.893   3.323   5.675 -0.0250  1.8426  1.9411
 1015SOL    HW214508   0.948   3.349   5.541  1.1170  2.2508  0.3582
 1016SOL     OW14509   1.980   4.380   9.832 -0.0782  0.1776  0.4895
 1016SOL    HW114510   1.942   4.296   9.858  1.2556  0.0763  2.1074
 1016SOL    HW214511   2.019   4.361   9.746 -1.8481 -1.3111  0.0096
 1017SOL     OW14512   2.280   0.417  11.476  0.5026 -0.0690 -0.3071
 1017SOL    HW114513   2.335   0.489  11.446 -0.0943  0.5725  0.1340
 1017SOL    HW214514   2.326   0.388  11.555 -0.2853 -0.8841 -0.1553
 1018SOL     OW14515   4.416   0.444   3.908  0.1085 -0.0623  0.2116
 1018SOL    HW114516   4.418   0.386   3.985  2.3010 -1.2414 -0.7340
 1018SOL    HW214517   4.460   0.519   3.947  0.0527 -0.2205  0.5803
 1019SOL     OW14518   4.202   1.559   8.985  0.6927  0.3118 -0.0984
 1019SOL    HW114519   4.130   1.505   8.952  1.6921 -0.4101 -1.0973
 1019SOL    HW214520   4.276   1.502   8.963 -0.5107  0.3789 -4.2274
 1020SOL     OW14521   3.507   4.194  11.943  0.1808  0.2052 -0.5890
 1020SOL    HW114522   3.591   4.238  11.936  0.1371  0.1039 -1.7375
 1020SOL    HW214523   3.454   4.255  11.993  0.2600  0.3844 -0.7242
 1021SOL     OW14524   0.466   2.145   9.203  0.2138  0.3319  0.0491
 1021SOL    HW114525   0.561   2.160   9.211 -0.0269  1.4104  0.8578
 1021SOL    HW214526   0.462   2.105   9.116 -0.7717 -0.2368  0.3539
 1022SOL     OW14527   3.816   2.698   6.524 -0.1774  0.2272  0.6786
 1022SOL    HW114528   3.796   2.642   6.449 -0.8226  0.6424  0.5391
 1022SOL    HW214529   3.847   2.779   6.483  0.6939 -0.3127  0.2622
 1023SOL     OW14530   2.564   2.098   8.493 -0.2009 -0.0247  0.1015
 1023SOL    HW114531   2.544   2.084   8.400 -0.8389  1.1247  0.0635
 1023SOL    HW214532   2.483   2.083   8.542 -0.3335 -1.0632 -0.4283
 1024SOL     OW14533   4.178   3.491  12.747  0.1234 -0.4465  0.3276
 1024SOL    HW114534   4.239   3.417  12.748  1.0059  0.2757  0.3768
 1024SOL    HW214535   4.209   3.538  12.824 -1.0424  0.8999 -0.0339
 1025SOL     OW14536   4.332   3.516   2.250 -0.0168  0.2926  0.2140
 1025SOL    HW114537   4.394   3.564   2.196 -0.4443 -0.8740 -1.3232
 1025SOL    HW214538   4.381   3.434   2.247  1.3839  1.1125  0.9206
 1026SOL     OW14539   1.431   3.074   2.549 -0.2435 -0.2626  0.0419
 1026SOL    HW114540   1.511   3.111   2.586  0.5524  0.7375 -2.7197
 1026SOL    HW214541   1.473   2.997   2.512 -0.7820  0.7013 -2.5913
 1027SOL     OW14542   1.447   0.768   9.300  0.6382 -0.5563  0.3473
 1027SOL    HW114543   1.540   0.782   9.283  0.3561 -0.8819 -1.4269
 1027SOL    HW214544   1.424   0.680   9.272  1.6403 -0.3081 -1.2021
 1028SOL     OW14545   4.561   3.380   7.101 -0.5112 -0.2588  0.4974
 1028SOL    HW114546   4.641   3.327   7.111 -0.9941 -1.1058 -0.1271
 1028SOL    HW214547   4.492   3.314   7.096 -0.5418 -0.0424 -1.9405
 1029SOL     OW14548   2.505   1.077   9.798 -0.4129  0.2625  0.0567
 1029SOL    HW114549   2.480   1.064   9.706 -0.8840 -3.4182  0.7064
 1029SOL    HW214550   2.480   1.003   9.853  2.8501  0.0797  1.2828
 1030SOL     OW14551   2.992   2.739   1.314  0.6487  0.0487 -0.1961
 1030SOL    HW114552   2.921   2.716   1.255  1.1912  0.8192 -1.1463
 1030SOL    HW214553   2.970   2.832   1.324  0.2743  0.0046 -0.6402
 1031SOL     OW14554   0.275   3.052   4.449 -0.5430 -0.6425  0.0931
 1031SOL    HW114555   0.199   3.031   4.394  0.0569 -3.0895  0.1820
 1031SOL    HW214556   0.243   3.126   4.500  1.1906  0.8315 -0.9951
 1032SOL     OW14557   2.044   3.758   2.821 -0.5018 -0.1829 -0.1456
 1032SOL    HW114558   2.063   3.666   2.839  1.3176  0.2475  0.0628
 1032SOL    HW214559   1.992   3.794   2.893 -0.4690  1.5713 -0.9944
 1033SOL     OW14560   0.921   3.644   5.134  0.3521  0.1607 -0.7871
 1033SOL    HW114561   0.832   3.613   5.153 -0.3418  0.7855 -3.0834
 1033SOL    HW214562   0.969   3.597   5.202 -0.9039  0.3344  0.2242
 1034SOL     OW14563   1.761   2.371  16.386  0.1254  0.0699 -0.5917
 1034SOL    HW114564   1.758   2.340  16.476  0.3118  0.1742 -0.5482
 1034SOL    HW214565   1.677   2.415  16.377  0.3251  0.4758 -0.4471
 1035SOL     OW14566   4.701   4.675  15.143  0.3280 -0.2757  0.3567
 1035SOL    HW114567   0.044   0.003  15.182  1.8817 -1.7839 -0.2791
 1035SOL    HW214568   4.701   4.611  15.214  1.3367  0.1814  0.7572
 1036SOL     OW14569   3.103   2.768   7.902  0.7434  0.0309  0.4058
 1036SOL    HW114570   3.120   2.821   7.980  1.5468  0.0980  0.1844
 1036SOL    HW214571   3.194   2.768   7.873  0.9322  2.2702  0.9667
 1037SOL     OW14572   4.530   0.408   7.070 -0.0679 -0.4716  0.6658
 1037SOL    HW114573   4.528   0.323   7.027 -1.0359 -0.1798  0.1389
 1037SOL    HW214574   4.466   0.406   7.142 -1.0202  2.9402 -0.0679
 1038SOL     OW14575   4.263   0.597   0.656  0.1745  0.1806 -0.1005
 1038SOL    HW114576   4.289   0.551   0.576  0.0655  0.8497 -0.5203
 1038SOL    HW214577   4.206   0.668   0.627  1.0619  1.0122  0.1782
 1039SOL     OW14578   1.787   0.992   1.648  0.2815  0.0983  0.1811
 1039SOL    HW114579   1.724   1.059   1.676  0.2373  0.4845 -0.8274
 1039SOL    HW214580   1.753   0.921   1.703  0.9863  0.3176  0.8943
 1040SOL     OW14581   4.447   1.583  10.303 -0.1175 -0.2311  0.4002
 1040SOL    HW114582   4.537   1.610  10.323  0.1713 -0.2580 -0.8469
 1040SOL    HW214583   4.469   1.490  10.299  0.3144 -0.2390  2.9961
 1041SOL     OW14584   3.447   1.415  13.099 -0.0091  0.7130  0.1804
 1041SOL    HW114585   3.383   1.405  13.029  2.2913 -1.0620 -1.6523
 1041SOL    HW214586   3.529   1.399  13.053  1.4035 -0.4121  3.1200
 1042SOL     OW14587   3.810   1.553   3.687  0.3782  0.2013 -0.1291
 1042SOL    HW114588   3.862   1.586   3.760 -1.8903  1.7488  0.8075
 1042SOL    HW214589   3.748   1.626   3.675  0.6818  0.7753  1.7090
 1043SOL     OW14590   4.498   4.433   7.687  0.1353 -0.5523 -0.4485
 1043SOL    HW114591   4.479   4.430   7.780 -0.9770  1.1431 -0.6374
 1043SOL    HW214592   4.486   4.342   7.660  0.5535 -0.8687  0.4279
 1044SOL     OW14593   1.998   1.677  12.229  0.4566 -0.0465 -0.2566
 1044SOL    HW114594   1.934   1.646  12.293 -0.6436  3.2304  0.2644
 1044SOL    HW214595   2.059   1.603  12.227  1.7837  1.0463 -0.0144
 1045SOL     OW14596   0.795   1.923  17.185 -0.0616  0.3510 -0.6174
 1045SOL    HW114597   0.851   1.994  17.215  0.4242 -0.3470  0.1582
 1045SOL    HW214598   0.821   1.925  17.093  1.0497  0.1954 -0.3000
 1046SOL     OW14599   2.452   1.003  17.152  0.2548  0.0634 -0.3922
 1046SOL    HW114600   2.377   1.050  17.116  0.6642  0.3241 -0.9225
 1046SOL    HW214601   2.470   0.933  17.089 -0.3415 -0.9174  0.5323
 1047SOL     OW14602   2.818   3.674   4.089  0.0594 -0.5845  0.4372
 1047SOL    HW114603   2.809   3.579   4.095 -1.5090 -0.4012  1.2254
 1047SOL    HW214604   2.903   3.678   4.132 -0.8756 -0.8347  2.3166
 1048SOL     OW14605   4.145   1.894  13.209 -0.5712 -0.3194  0.3593
 1048SOL    HW114606   4.112   1.805  13.218  0.3653 -0.7597 -0.5871
 1048SOL    HW214607   4.180   1.895  13.120  2.4659  1.2867  1.5670
 1049SOL     OW14608   2.311   0.997  11.600 -0.3001  0.6331  0.2706
 1049SOL    HW114609   2.240   0.934  11.607 -1.8003  2.3022  0.0354
 1049SOL    HW214610   2.340   0.959  11.517 -2.0436 -3.9757  1.8007
 1050SOL     OW14611   2.074   2.696  12.351 -0.0005  0.1395  0.4373
 1050SOL    HW114612   2.024   2.648  12.417 -0.5996 -0.3675 -0.3938
 1050SOL    HW214613   2.005   2.694  12.285  0.6145 -1.1246 -0.1631
 1051SOL     OW14614   2.958   0.283   7.287  0.2206  0.1768 -0.3135
 1051SOL    HW114615   2.904   0.299   7.364 -0.7525  1.6616 -1.3053
 1051SOL    HW214616   2.999   0.369   7.276  3.2195 -1.0786  1.0535
 1052SOL     OW14617   0.398   3.142  13.643  0.1643  0.5535 -0.2162
 1052SOL    HW114618   0.470   3.121  13.702  0.5542 -0.4285 -1.0352
 1052SOL    HW214619   0.359   3.055  13.643 -2.3707  1.7001  1.2148
 1053SOL     OW14620   0.784   0.644   7.353 -0.1926 -0.2912 -0.1341
 1053SOL    HW114621   0.740   0.599   7.281 -0.0998 -0.5380 -0.0354
 1053SOL    HW214622   0.727   0.721   7.358  0.4084  0.2162 -1.2553
 1054SOL     OW14623   0.692   2.539   5.642 -0.1056 -0.4255 -0.4748
 1054SOL    HW114624   0.738   2.511   5.720  0.2799  0.5286 -0.3618
 1054SOL    HW214625   0.599   2.543   5.665  0.9208 -0.5614  3.6694
 1055SOL     OW14626   3.810   4.500   9.909  0.5623 -0.7896 -0.7039
 1055SOL    HW114627   3.837   4.507   9.818 -0.6356  2.4808 -0.8152
 1055SOL    HW214628   3.880   4.451   9.952  1.2796  1.3422  0.5451
 1056SOL     OW14629   2.516   0.981   6.457  0.0029 -0.0234  0.4996
 1056SOL    HW114630   2.511   1.004   6.550 -0.8803 -2.4687  1.0611
 1056SOL    HW214631   2.573   0.904   6.464 -0.1285 -0.1387  0.2701
 1057SOL     OW14632   0.674   2.979   5.522  0.0253  0.2291 -0.3634
 1057SOL    HW114633   0.607   2.930   5.475  0.8470 -0.3474 -0.9231
 1057SOL    HW214634   0.651   3.072   5.512 -0.5158  0.3484  2.0060
 1058SOL     OW14635   1.169   4.048  15.911 -0.1324 -0.0341  0.7720
 1058SOL    HW114636   1.178   4.141  15.889  1.2189 -0.4522 -0.4099
 1058SOL    HW214637   1.118   4.016  15.838  0.0885 -0.0276  0.6155
 1059SOL     OW14638   2.252   0.854   3.515 -0.0516 -0.2793  0.0963
 1059SOL    HW114639   2.198   0.909   3.458  2.8327  0.9560 -1.4654
 1059SOL    HW214640   2.333   0.904   3.511  1.3120 -2.5316 -0.7111
 1060SOL     OW14641   3.181   4.283   6.774  0.3295  0.0133 -0.0140
 1060SOL    HW114642   3.114   4.221   6.803  0.4001 -0.7128 -1.4155
 1060SOL    HW214643   3.239   4.240   6.711  2.4208  2.1494  0.4502
 1061SOL     OW14644   0.595   2.395   5.348 -0.1150  0.7207  0.2741
 1061SOL    HW114645   0.672   2.339   5.358 -2.0020 -1.5420  1.9489
 1061SOL    HW214646   0.525   2.341   5.384 -0.5555  0.6231 -0.7146
 1062SOL     OW14647   4.482   1.203   7.585  0.0216 -0.5075 -0.5487
 1062SOL    HW114648   4.460   1.222   7.494 -1.0398 -1.3236 -0.4705
 1062SOL    HW214649   4.441   1.278   7.629  1.5769  0.6437 -1.0789
 1063SOL     OW14650   3.125   1.758   0.153 -0.1644 -0.3205  0.0847
 1063SOL    HW114651   3.132   1.689   0.219 -0.3604  0.0955  0.5354
 1063SOL    HW214652   3.101   1.837   0.200 -0.0146 -2.3543  3.5652
 1064SOL     OW14653   2.196   3.122   4.535  0.1575 -0.5135  0.5500
 1064SOL    HW114654   2.244   3.149   4.613 -2.7098  0.7180  1.8917
 1064SOL    HW214655   2.142   3.054   4.575 -0.3812 -1.6837 -2.1336
 1065SOL     OW14656   3.975   2.986   7.431  0.3697  0.1682  0.0886
 1065SOL    HW114657   3.975   2.974   7.336  0.3387  3.5303 -0.3331
 1065SOL    HW214658   3.906   2.935   7.476  0.1102  0.9587  0.5977
 1066SOL     OW14659   4.391   0.990   2.352  0.0424  0.0862 -0.0578
 1066SOL    HW114660   4.338   1.005   2.430 -0.4770 -0.2548 -0.3535
 1066SOL    HW214661   4.460   0.929   2.382  0.0501 -1.3068 -2.9349
 1067SOL     OW14662   1.419   0.873   8.297  0.4582 -0.2096  0.0695
 1067SOL    HW114663   1.444   0.965   8.282  0.1417  0.0023  0.8864
 1067SOL    HW214664   1.504   0.834   8.275  0.6308  0.1219  0.1475
 1068SOL     OW14665   1.695   3.528  17.623 -0.5997 -0.4999  0.0604
 1068SOL    HW114666   1.680   3.525  17.528  2.0266  1.4345 -0.4077
 1068SOL    HW214667   1.703   3.434  17.639  0.3350 -0.5798 -0.8697
 1069SOL     OW14668   1.273   3.859  17.175 -0.4138 -0.1235 -0.0310
 1069SOL    HW114669   1.194   3.892  17.132  0.0296 -0.9555 -1.4872
 1069SOL    HW214670   1.240   3.835  17.261  0.9843  0.2311  0.5988
 1070SOL     OW14671   1.144   0.935   5.382  0.2030 -0.2763 -0.1776
 1070SOL    HW114672   1.194   0.878   5.325  2.3482  0.7908  0.6381
 1070SOL    HW214673   1.217   0.967   5.436  0.0916  0.7021 -0.6070
 1071SOL     OW14674   1.097   3.837  17.421  0.3833  0.4357 -0.0387
 1071SOL    HW114675   1.172   3.780  17.439  0.4287  0.7391  0.7392
 1071SOL    HW214676   1.065   3.843  17.510 -0.7702  0.9097 -0.4876
 1072SOL     OW14677   4.100   4.613   0.372 -0.0587  0.4280 -0.8127
 1072SOL    HW114678   4.182   4.616   0.421  0.0980 -3.0683 -0.8361
 1072SOL    HW214679   4.046   4.668   0.429  0.2983  1.6611 -1.6755
 1073SOL     OW14680   2.923   3.545   9.123  0.3240  0.7682 -0.3815
 1073SOL    HW114681   2.866   3.468   9.111  0.9067 -0.0103  1.8657
 1073SOL    HW214682   2.891   3.597   9.049  0.1969 -0.0157 -0.8823
 1074SOL     OW14683   3.092   0.444  10.524 -0.2337 -1.0843  0.2637
 1074SOL    HW114684   3.092   0.391  10.603 -1.0109 -0.2024  0.8545
 1074SOL    HW214685   3.106   0.372  10.462 -0.0247  0.0983 -1.0822
 1075SOL     OW14686   0.061   4.103   7.570 -0.7377 -0.3384  0.5515
 1075SOL    HW114687   4.713   4.091   7.631 -0.5091  0.7293  1.0427
 1075SOL    HW214688   0.083   4.011   7.586  3.2349  0.2492 -1.6408
 1076SOL     OW14689   3.816   3.172  14.833  0.5590 -0.7528 -0.0313
 1076SOL    HW114690   3.788   3.105  14.771  2.1234 -2.2173  0.8356
 1076SOL    HW214691   3.761   3.245  14.807 -0.1929 -1.3993 -0.2754
 1077SOL     OW14692   4.061   4.044   5.456  0.1291  0.0520 -0.1820
 1077SOL    HW114693   4.059   4.118   5.395 -1.8116 -0.3884 -0.6449
 1077SOL    HW214694   4.111   4.080   5.530 -1.3204  0.6525  0.5154
 1078SOL     OW14695   2.456   1.035   3.820 -0.1055  0.3186 -0.2484
 1078SOL    HW114696   2.462   0.939   3.812 -1.6610  0.2279 -0.3652
 1078SOL    HW214697   2.362   1.052   3.823  0.2289  2.2405 -0.7332
 1079SOL     OW14698   1.719   3.296  10.078 -0.5045 -0.2496 -0.6474
 1079SOL    HW114699   1.770   3.310  10.158  1.9274 -0.7854 -2.1024
 1079SOL    HW214700   1.734   3.202  10.069  0.5939 -0.2248  0.9643
 1080SOL     OW14701   0.625   2.511  16.159 -0.4692 -0.0880 -0.0527
 1080SOL    HW114702   0.560   2.507  16.229 -1.7811  1.3178 -1.1862
 1080SOL    HW214703   0.615   2.599  16.122  0.9954 -0.4642 -1.3422
 1081SOL     OW14704   1.846   2.386  17.120 -0.1340  0.8849 -0.7060
 1081SOL    HW114705   1.770   2.444  17.111  0.1546  1.2678 -0.6631
 1081SOL    HW214706   1.900   2.424  17.189 -1.6253  0.6210  0.6192
 1082SOL     OW14707   4.369   1.028  13.573 -0.4953 -0.1121  0.6043
 1082SOL    HW114708   4.461   1.006  13.556 -0.3385  2.9198 -2.5319
 1082SOL    HW214709   4.359   1.118  13.542  0.1819  1.3935  4.8699
 1083SOL     OW14710   0.792   3.043   7.440 -0.0610  0.4283  0.2410
 1083SOL    HW114711   0.744   2.979   7.493 -0.4087  2.3922  2.2930
 1083SOL    HW214712   0.739   3.030   7.362  1.1352  0.5022 -0.5811
 1084SOL     OW14713   1.372   1.071   5.479  0.1048  0.2719  0.4933
 1084SOL    HW114714   1.335   1.155   5.506  1.8121  1.7148 -1.6625
 1084SOL    HW214715   1.453   1.103   5.438  0.4284 -0.2524  0.7293
 1085SOL     OW14716   3.587   0.395  16.128 -0.2761 -0.1962  0.3392
 1085SOL    HW114717   3.507   0.405  16.180 -0.1204 -0.6227  0.6619
 1085SOL    HW214718   3.559   0.433  16.045  0.3727 -2.6724 -1.0277
 1086SOL     OW14719   2.016   1.411   1.760 -0.4393  0.1291  0.3377
 1086SOL    HW114720   2.104   1.388   1.789 -0.4502 -0.2718  0.0490
 1086SOL    HW214721   2.019   1.507   1.758 -0.8948  0.1155 -0.8044
 1087SOL     OW14722   1.504   3.300  10.337  0.2012 -0.1159  0.2255
 1087SOL    HW114723   1.453   3.224  10.309 -1.3119  0.7207  0.7237
 1087SOL    HW214724   1.586   3.257  10.360 -0.1543 -0.3303  1.1135
 1088SOL     OW14725   1.403   2.067   8.706 -0.0338  0.0843 -0.6607
 1088SOL    HW114726   1.411   2.150   8.753  1.2122 -0.5521  0.2391
 1088SOL    HW214727   1.433   2.083   8.616  0.3376 -0.3027 -0.6010
 1089SOL     OW14728   0.372   3.093   7.925 -0.2626 -0.2919  0.8460
 1089SOL    HW114729   0.453   3.143   7.929 -0.2548 -0.0591 -2.0715
 1089SOL    HW214730   0.311   3.160   7.894 -1.9419 -1.6311  1.2285
 1090SOL     OW14731   2.211   4.336   6.816 -0.4624 -0.5432  0.5568
 1090SOL    HW114732   2.237   4.421   6.852  0.0456 -0.9992  1.2700
 1090SOL    HW214733   2.121   4.336   6.851 -0.2068  2.2079  1.2349
 1091SOL     OW14734   3.177   0.825   6.359  0.2929  0.6261  0.0416
 1091SOL    HW114735   3.096   0.862   6.325  0.4066  0.2181 -0.6834
 1091SOL    HW214736   3.173   0.829   6.454 -0.2528  0.4269  0.0288
 1092SOL     OW14737   2.381   2.224   1.941 -0.4367  0.0839 -0.3170
 1092SOL    HW114738   2.342   2.303   1.905  0.3705  0.2479 -0.8325
 1092SOL    HW214739   2.300   2.178   1.961 -0.3296 -0.8634 -2.0338
 1093SOL     OW14740   4.436   1.762   5.261 -0.0814  0.4813  0.5024
 1093SOL    HW114741   4.526   1.786   5.282  0.9275 -2.0905 -0.9269
 1093SOL    HW214742   4.401   1.784   5.348 -1.1373 -2.8528  0.9392
 1094SOL     OW14743   3.560   0.198   4.638  0.4493  0.0156  0.1965
 1094SOL    HW114744   3.551   0.216   4.731  0.7163 -0.1494  0.2546
 1094SOL    HW214745   3.603   0.273   4.598 -0.2954 -1.3629 -3.1696
 1095SOL     OW14746   2.099   4.082   3.396  0.1244 -0.6693  0.1276
 1095SOL    HW114747   2.191   4.083   3.424  0.3739 -0.4541 -0.7063
 1095SOL    HW214748   2.068   3.999   3.431 -0.8508  0.7504  2.6358
 1096SOL     OW14749   0.919   3.699   1.876 -0.0861  0.0082 -0.5290
 1096SOL    HW114750   1.000   3.734   1.840  0.9656  0.8056  2.6267
 1096SOL    HW214751   0.931   3.723   1.968 -1.3173  0.1466 -0.4004
 1097SOL     OW14752   1.821   4.334   4.596  0.4061  0.5291 -0.1817
 1097SOL    HW114753   1.907   4.293   4.584 -0.5150 -2.1473  2.1565
 1097SOL    HW214754   1.772   4.259   4.629  0.1389  0.5863 -0.4474
 1098SOL     OW14755   0.963   1.350   3.685  0.1051 -0.4210 -0.2505
 1098SOL    HW114756   0.987   1.431   3.732 -0.7565  0.2454 -0.9664
 1098SOL    HW214757   0.894   1.323   3.745 -1.8649  0.6085 -2.0460
 1099SOL     OW14758   4.221   0.419   3.303 -0.5314 -0.5629  0.2588
 1099SOL    HW114759   4.163   0.495   3.313 -1.2071 -1.0785  0.2383
 1099SOL    HW214760   4.304   0.467   3.309 -1.5919  1.6111 -2.6128
 1100SOL     OW14761   3.795   4.462   1.218  0.6118 -0.0505  0.3455
 1100SOL    HW114762   3.842   4.537   1.179  1.9325 -0.6531  0.7758
 1100SOL    HW214763   3.773   4.490   1.306 -3.8266 -1.7037 -0.2658
 1101SOL     OW14764   4.655   2.436  14.209 -0.2215  0.4396  0.1502
 1101SOL    HW114765   4.594   2.463  14.277  1.2642  1.0492  1.2495
 1101SOL    HW214766   4.606   2.368  14.162  0.5400  0.9901 -1.4146
 1102SOL     OW14767   2.919   2.344  15.678 -0.7394 -0.5264  0.4205
 1102SOL    HW114768   3.004   2.331  15.636  0.8256 -0.2259  3.4741
 1102SOL    HW214769   2.861   2.363  15.604  0.0238  0.8117  0.1749
 1103SOL     OW14770   0.981   3.359   1.446 -0.0188 -0.0275  0.5244
 1103SOL    HW114771   0.944   3.277   1.478  0.8648 -0.4531  0.4499
 1103SOL    HW214772   0.907   3.417   1.463 -0.3356 -0.0724 -0.7133
 1104SOL     OW14773   0.497   2.707   0.873  0.3315  0.5634 -0.7158
 1104SOL    HW114774   0.544   2.785   0.904  1.4802  0.8884 -3.2221
 1104SOL    HW214775   0.415   2.748   0.844  0.3567  1.2562  0.1865
 1105SOL     OW14776   4.681   3.660   3.003 -0.1807  0.4202  0.1019
 1105SOL    HW114777   4.651   3.751   3.003  0.1070  0.5164 -0.0476
 1105SOL    HW214778   0.018   3.655   2.930  0.0696  0.0881  0.3358
 1106SOL     OW14779   2.614   1.673  14.611 -0.6789 -0.1729 -0.1036
 1106SOL    HW114780   2.672   1.711  14.545  0.6746  0.0744  1.2090
 1106SOL    HW214781   2.676   1.682  14.684  0.4855  0.4407 -1.1684
 1107SOL     OW14782   1.444   4.309   6.126  0.5511  0.1937 -0.0140
 1107SOL    HW114783   1.389   4.247   6.175  0.7428 -0.1553 -0.2377
 1107SOL    HW214784   1.421   4.284   6.036  0.1234 -1.4933  0.5597
 1108SOL     OW14785   4.283   0.184   2.197  0.3215 -0.4763 -0.1103
 1108SOL    HW114786   4.232   0.106   2.177 -1.9055  0.8413  0.3826
 1108SOL    HW214787   4.368   0.143   2.211 -0.2251 -1.0600  1.4634
 1109SOL     OW14788   0.782   3.180   7.759  0.5725  0.0921  0.6422
 1109SOL    HW114789   0.835   3.106   7.786 -0.9644 -0.6198  1.7449
 1109SOL    HW214790   0.744   3.198   7.846 -0.6058  2.0280 -0.2535
 1110SOL     OW14791   2.913   3.373   3.572  0.3697 -0.3896 -0.6203
 1110SOL    HW114792   2.951   3.459   3.586 -0.6487 -0.3662  1.9871
 1110SOL    HW214793   2.819   3.391   3.571  0.3372 -0.5007  1.7581
 1111SOL     OW14794   3.657   1.472   4.178 -0.2019 -0.0146  0.0040
 1111SOL    HW114795   3.596   1.412   4.135  0.0876 -0.5219  0.2894
 1111SOL    HW214796   3.600   1.539   4.216 -2.3223 -1.7027 -0.1747
 1112SOL     OW14797   3.909   4.260   9.096  0.3829  0.0275 -0.3048
 1112SOL    HW114798   3.929   4.192   9.032 -1.4683  0.8446 -1.7475
 1112SOL    HW214799   3.913   4.337   9.039 -2.5614 -1.3847 -2.4172
 1113SOL     OW14800   0.318   1.012   1.824 -0.0952 -0.3304  0.0980
 1113SOL    HW114801   0.227   1.024   1.850 -0.2148 -1.3871  0.1945
 1113SOL    HW214802   0.321   0.919   1.801  0.2280 -0.5818  1.1705
 1114SOL     OW14803   2.481   1.465   7.520  0.0150  0.7293 -0.0589
 1114SOL    HW114804   2.462   1.445   7.611  1.0898 -0.3246 -0.0678
 1114SOL    HW214805   2.552   1.527   7.536  0.6059 -0.2372  1.0367
 1115SOL     OW14806   0.447   4.111   5.964  0.0952  0.9214  0.3349
 1115SOL    HW114807   0.363   4.153   5.949  0.0679  1.0752  0.9507
 1115SOL    HW214808   0.460   4.063   5.881 -1.3248  2.6627 -0.8802
 1116SOL     OW14809   0.562   1.854  10.467 -0.1000 -0.6721 -0.0411
 1116SOL    HW114810   0.485   1.882  10.516  1.3478  1.0294  1.2723
 1116SOL    HW214811   0.588   1.776  10.517  1.1988 -0.7835 -0.8852
 1117SOL     OW14812   0.013   2.137  12.020 -0.1431  0.1361 -0.1418
 1117SOL    HW114813   4.706   2.202  11.958  2.6665 -0.8680 -2.6783
 1117SOL    HW214814   0.063   2.077  11.965 -0.6397 -1.1451  0.8206
 1118SOL     OW14815   1.221   3.457  16.343 -0.2483  0.0702 -0.3033
 1118SOL    HW114816   1.152   3.443  16.278 -1.2385 -0.7899  0.9282
 1118SOL    HW214817   1.252   3.543  16.316  0.3753 -0.1546 -0.3078
 1119SOL     OW14818   1.664   0.894   7.415 -0.0103 -0.0512  0.7755
 1119SOL    HW114819   1.732   0.885   7.348  0.6330 -0.5585  1.5000
 1119SOL    HW214820   1.650   0.802   7.437 -1.3478 -0.0981 -0.2272
 1120SOL     OW14821   4.517   0.878   7.344  0.3093 -0.2106  0.1891
 1120SOL    HW114822   4.487   0.900   7.432  0.4013 -1.1429  0.4504
 1120SOL    HW214823   4.565   0.796   7.352  1.8295  0.6991  0.3202
 1121SOL     OW14824   0.510   3.793   6.348 -0.0005 -0.7992  0.2613
 1121SOL    HW114825   0.436   3.770   6.404  0.7559  0.0245  1.5860
 1121SOL    HW214826   0.477   3.748   6.270 -1.7827 -1.5468  1.4338
 1122SOL     OW14827   4.078   1.695   3.352 -0.2266  0.1790 -0.1138
 1122SOL    HW114828   4.110   1.647   3.428 -0.8982  0.7980  0.5579
 1122SOL    HW214829   4.099   1.786   3.373  4.1999 -0.3598 -2.2286
 1123SOL     OW14830   3.925   4.350   4.778  0.4470 -0.3023 -0.3990
 1123SOL    HW114831   3.987   4.421   4.795  1.7364 -1.5295  0.0825
 1123SOL    HW214832   3.990   4.293   4.736  1.3786 -0.4739  1.2746
 1124SOL     OW14833   2.723   1.263  12.063  0.3559  0.1787 -0.4537
 1124SOL    HW114834   2.669   1.322  12.116  0.7647  0.0047  0.1564
 1124SOL    HW214835   2.675   1.251  11.981 -2.1434 -1.5264  1.2434
 1125SOL     OW14836   4.339   0.810   3.907  0.3584 -0.2490  0.0906
 1125SOL    HW114837   4.368   0.791   3.818 -0.7691 -1.3270 -0.0334
 1125SOL    HW214838   4.397   0.756   3.961  0.8507  0.0620 -0.1324
 1126SOL     OW14839   3.996   3.930   0.670 -0.5090  0.3159  0.0126
 1126SOL    HW114840   3.949   3.853   0.702 -1.5383  1.1477  0.5075
 1126SOL    HW214841   3.956   3.954   0.586 -0.5424  1.0099  0.2272
 1127SOL     OW14842   4.660   0.041   4.691  0.2659 -0.2826 -0.0674
 1127SOL    HW114843   0.014   0.018   4.642  0.2582  0.8250 -0.6000
 1127SOL    HW214844   4.602   4.692   4.675  1.3536 -1.5508  1.8403
 1128SOL     OW14845   1.727   4.468   2.371  0.2339 -0.7198  0.8716
 1128SOL    HW114846   1.678   4.442   2.293  2.7647 -0.3851 -0.8338
 1128SOL    HW214847   1.817   4.463   2.337  0.1196 -1.2402  0.6590
 1129SOL     OW14848   2.516   2.855   2.304  0.4903  0.0515  0.2743
 1129SOL    HW114849   2.430   2.866   2.263  1.5696  2.2099 -1.4258
 1129SOL    HW214850   2.504   2.894   2.391 -0.4594 -1.0246  0.6326
 1130SOL     OW14851   0.684   4.174   1.590  0.0238  0.8794  0.1143
 1130SOL    HW114852   0.691   4.097   1.646 -0.4796  0.3547 -0.5318
 1130SOL    HW214853   0.727   4.243   1.640  2.0251 -1.3116  1.3771
 1131SOL     OW14854   4.689   1.262   5.189  0.4408 -0.1684  0.2106
 1131SOL    HW114855   4.677   1.237   5.280  2.3206 -0.0848  0.4927
 1131SOL    HW214856   0.013   1.187   5.156 -0.1623 -0.2210 -0.5611
 1132SOL     OW14857   3.239   1.934   3.342 -0.2891  0.4124  0.1145
 1132SOL    HW114858   3.217   2.026   3.355  2.6672  1.3929 -1.7655
 1132SOL    HW214859   3.299   1.929   3.416 -1.0590 -1.0671  0.6379
 1133SOL     OW14860   0.170   0.757   7.513 -0.4623  0.9958  0.1317
 1133SOL    HW114861   0.202   0.667   7.513 -4.4941 -0.4215  1.1161
 1133SOL    HW214862   0.149   0.755   7.606  1.4785 -1.8754  0.5008
 1134SOL     OW14863   3.295   0.554   4.250  0.5038  0.9619 -0.2563
 1134SOL    HW114864   3.299   0.543   4.345  1.6517  0.5572 -0.3473
 1134SOL    HW214865   3.208   0.592   4.238  0.5870 -0.0437 -3.9089
 1135SOL     OW14866   3.749   2.635  14.384 -0.3166 -0.1044 -0.6996
 1135SOL    HW114867   3.669   2.593  14.414 -0.0019  1.0252  1.7574
 1135SOL    HW214868   3.745   2.725  14.418 -0.3201 -0.2111 -0.4185
 1136SOL     OW14869   4.025   4.675   7.408  0.2657 -0.5773  0.5945
 1136SOL    HW114870   4.007   0.044   7.407 -0.7668 -0.8083 -2.0943
 1136SOL    HW214871   4.038   4.664   7.502 -3.0735 -2.4509  0.8343
 1137SOL     OW14872   2.334   2.049  13.567  0.4374 -0.7162  0.1551
 1137SOL    HW114873   2.339   1.980  13.500  3.4141  1.5139 -1.9602
 1137SOL    HW214874   2.304   1.996  13.640  0.7731 -1.3718 -0.1804
 1138SOL     OW14875   0.445   4.374   3.907  0.1831  0.0415  0.2503
 1138SOL    HW114876   0.384   4.320   3.857  1.5646  1.0244 -2.5320
 1138SOL    HW214877   0.393   4.450   3.931 -0.5650 -0.7200  1.0138
 1139SOL     OW14878   0.413   4.707   9.193 -0.0735  0.0850 -0.3928
 1139SOL    HW114879   0.362   4.694   9.114  0.8503 -0.9131 -0.8311
 1139SOL    HW214880   0.355   0.038   9.244 -2.4905 -1.5543 -1.3524
 1140SOL     OW14881   2.133   2.113   5.313 -0.3936 -0.1341  0.4759
 1140SOL    HW114882   2.061   2.172   5.292  1.2069  1.7955  0.3954
 1140SOL    HW214883   2.201   2.172   5.345 -0.2454 -0.6529  1.1265
 1141SOL     OW14884   4.068   0.442   5.684  0.0934  0.1542 -0.0043
 1141SOL    HW114885   3.992   0.483   5.725 -1.0342 -0.8888 -1.0328
 1141SOL    HW214886   4.047   0.466   5.594  0.7056 -0.2497 -0.2556
 1142SOL     OW14887   0.687   0.885   9.700 -0.5779  0.6138  0.2914
 1142SOL    HW114888   0.780   0.909   9.701  0.0384 -1.6954 -1.7568
 1142SOL    HW214889   0.652   0.959   9.651 -2.2343  0.3523  1.0755
 1143SOL     OW14890   0.758   1.695  16.821  0.0855 -0.1329 -0.0549
 1143SOL    HW114891   0.745   1.700  16.915  0.2848  3.7582 -0.2380
 1143SOL    HW214892   0.756   1.599  16.813 -1.5376 -0.2244  1.4008
 1144SOL     OW14893   0.640   1.809   0.234  0.4277  0.0881 -0.9729
 1144SOL    HW114894   0.566   1.851   0.190 -0.1453 -0.9615 -1.0083
 1144SOL    HW214895   0.699   1.803   0.159  2.9476  1.2494  0.9174
 1145SOL     OW14896   0.834   2.062   2.595 -0.3986 -0.2877 -0.4174
 1145SOL    HW114897   0.882   2.078   2.514 -2.6039  1.5224 -1.3705
 1145SOL    HW214898   0.893   2.093   2.663  0.2732  0.9719 -1.5706
 1146SOL     OW14899   3.088   1.410  15.259 -0.0228 -0.5617 -0.5372
 1146SOL    HW114900   3.085   1.418  15.354  1.8912 -0.2435 -0.5048
 1146SOL    HW214901   3.137   1.490  15.237 -1.7896  0.7525  0.3425
 1147SOL     OW14902   4.176   2.146  15.429  0.4075  0.3315  0.5944
 1147SOL    HW114903   4.180   2.207  15.355  1.8517  0.3281  0.6595
 1147SOL    HW214904   4.269   2.122  15.436  0.4266  1.0491  2.7187
 1148SOL     OW14905   3.873   3.249   8.350  0.2777  0.2859  0.1800
 1148SOL    HW114906   3.935   3.176   8.358  0.1423  0.2114  0.5605
 1148SOL    HW214907   3.905   3.319   8.407 -1.0156  0.3605  0.8089
 1149SOL     OW14908   0.286   1.603   3.948  0.4625  0.1045  0.5896
 1149SOL    HW114909   0.356   1.555   3.992  1.0030  0.6547  0.3242
 1149SOL    HW214910   0.222   1.614   4.019  0.2580 -1.1677  0.6053
 1150SOL     OW14911   0.499   0.510   5.627 -0.4727  0.2198  0.1465
 1150SOL    HW114912   0.413   0.470   5.609  0.8240 -2.2578 -0.6126
 1150SOL    HW214913   0.484   0.554   5.710  1.5056  2.1514 -0.5408
 1151SOL     OW14914   2.642   4.121   9.583 -0.3966 -0.6100  0.3839
 1151SOL    HW114915   2.695   4.053   9.542 -1.1436 -0.8249 -0.2334
 1151SOL    HW214916   2.679   4.200   9.543 -0.5430 -0.9761 -0.4950
 1152SOL     OW14917   1.758   0.864   4.256  0.6929 -0.2565 -0.0423
 1152SOL    HW114918   1.812   0.895   4.329  0.1441 -1.4877  0.8851
 1152SOL    HW214919   1.707   0.806   4.312 -0.9732  0.5229 -0.7495
 1153SOL     OW14920   4.444   4.696   2.351 -0.4250  0.1503 -0.2936
 1153SOL    HW114921   4.535   4.688   2.323  0.4465  0.3399  2.4843
 1153SOL    HW214922   4.454   4.699   2.446  1.7755 -0.4810 -0.5221
 1154SOL     OW14923   0.933   2.206  16.394 -0.3065 -0.5414 -0.6352
 1154SOL    HW114924   0.910   2.297  16.376  1.8581  0.4870  1.7640
 1154SOL    HW214925   0.993   2.178  16.324 -0.3977 -0.8264 -0.6010
 1155SOL     OW14926   4.252   0.427   2.297  0.2138  0.3091 -0.4950
 1155SOL    HW114927   4.269   0.347   2.247 -0.7822 -1.7565  2.4348
 1155SOL    HW214928   4.218   0.480   2.226  1.5110  1.5001 -0.2317
 1156SOL     OW14929   4.290   0.703   7.472 -0.0979  0.6098  0.9075
 1156SOL    HW114930   4.289   0.730   7.380  1.4024 -0.1062  0.6763
 1156SOL    HW214931   4.293   0.784   7.524 -0.0560 -0.5727  2.7351
 1157SOL     OW14932   3.886   3.622   9.467  0.3038 -0.2471  0.2763
 1157SOL    HW114933   3.817   3.557   9.469  0.8745 -0.9604 -2.6285
 1157SOL    HW214934   3.866   3.677   9.391  0.4618 -1.8236 -0.9009
 1158SOL     OW14935   3.498   2.178   4.901 -0.6540  0.5150  0.3152
 1158SOL    HW114936   3.408   2.151   4.885 -0.9225  0.2396  2.3444
 1158SOL    HW214937   3.510   2.239   4.828 -0.6499 -2.2318 -1.9934
 1159SOL     OW14938   1.524   4.208   5.835  0.6899  0.9569 -0.0054
 1159SOL    HW114939   1.561   4.128   5.873 -2.8475 -1.8612 -2.4277
 1159SOL    HW214940   1.599   4.249   5.794  0.2236 -1.0394 -2.8499
 1160SOL     OW14941   1.250   0.899   9.427  0.0467 -0.4314  0.2270
 1160SOL    HW114942   1.320   0.865   9.372  1.4050  2.3519  0.2497
 1160SOL    HW214943   1.286   0.984   9.453 -1.2182 -0.3458  1.7320
 1161SOL     OW14944   0.064   3.280   1.187 -0.1291 -0.3939 -0.0257
 1161SOL    HW114945   0.144   3.234   1.212 -0.0503 -0.3785 -0.2481
 1161SOL    HW214946   0.094   3.369   1.171 -1.4647 -0.2167 -1.5600
 1162SOL     OW14947   2.614   1.577  17.267 -0.1972  0.2375 -0.0974
 1162SOL    HW114948   2.697   1.608  17.302  0.2756  0.6299 -1.5765
 1162SOL    HW214949   2.650   1.525  17.196 -1.3127 -1.2862  0.4577
 1163SOL     OW14950   4.599   3.610   8.070 -0.2302  0.0764  0.0879
 1163SOL    HW114951   4.664   3.678   8.053  0.3794 -0.2819  1.0129
 1163SOL    HW214952   4.567   3.632   8.157 -0.4524  0.6765 -0.1398
 1164SOL     OW14953   0.998   0.703   6.001  0.6697  0.3813 -0.2789
 1164SOL    HW114954   0.930   0.637   5.991  1.2528 -0.2474 -0.1389
 1164SOL    HW214955   0.959   0.775   6.049 -0.1348  0.6636 -1.3591
 1165SOL     OW14956   2.384   1.589   7.303 -0.1290  0.1666  0.5852
 1165SOL    HW114957   2.310   1.640   7.336 -1.6543 -1.8288  0.2933
 1165SOL    HW214958   2.413   1.537   7.378 -0.5402  4.1663  3.4508
 1166SOL     OW14959   0.332   4.608   5.936 -0.1453 -0.3234  0.1879
 1166SOL    HW114960   0.413   4.557   5.929  1.1630  1.7018  0.3537
 1166SOL    HW214961   0.273   4.572   5.869  1.1284 -1.4711 -0.3203
 1167SOL     OW14962   0.030   1.922   8.197 -0.0767  0.0510  0.0584
 1167SOL    HW114963   4.684   1.965   8.150  0.1004  0.0106 -0.2482
 1167SOL    HW214964   0.108   1.962   8.157 -0.4100 -0.1473 -0.7811
 1168SOL     OW14965   2.690   3.004   5.614 -0.2008  0.2155 -0.4171
 1168SOL    HW114966   2.700   2.944   5.540  1.7567  0.0908 -0.0489
 1168SOL    HW214967   2.640   3.076   5.576 -0.0997 -0.1974 -1.3415
 1169SOL     OW14968   3.652   1.849  17.362 -0.4659  0.6655 -0.0025
 1169SOL    HW114969   3.607   1.879  17.284 -2.0527  0.8713  1.0076
 1169SOL    HW214970   3.575   1.826  17.414 -0.0646  0.0086  0.3017
 1170SOL     OW14971   3.729   1.192   4.246 -0.5616  0.0811  0.6370
 1170SOL    HW114972   3.639   1.181   4.216  0.1488  0.4067 -1.5536
 1170SOL    HW214973   3.727   1.284   4.272 -1.0020  0.5329 -0.9953
 1171SOL     OW14974   3.713   3.408  13.477 -0.4836  0.1364  0.0490
 1171SOL    HW114975   3.704   3.368  13.390 -0.5456 -0.3050  0.2589
 1171SOL    HW214976   3.722   3.500  13.452 -2.1041  0.3279  0.1584
 1172SOL     OW14977   1.660   1.199  10.034 -0.0870 -0.2748  0.0847
 1172SOL    HW114978   1.569   1.191  10.007  1.0944 -1.8831 -3.3671
 1172SOL    HW214979   1.646   1.219  10.126 -0.2021  1.3233 -0.2718
 1173SOL     OW14980   1.167   4.345   6.442 -0.0635  0.1343  0.3789
 1173SOL    HW114981   1.115   4.282   6.492 -0.3195  0.5865  0.6850
 1173SOL    HW214982   1.171   4.303   6.356 -2.9035 -1.5809  1.0870
 1174SOL     OW14983   1.022   3.239   6.589 -0.3052  0.2163  0.4580
 1174SOL    HW114984   1.036   3.235   6.683  1.4614  1.4795  0.2445
 1174SOL    HW214985   0.940   3.289   6.584 -0.4784 -0.1520 -0.3659
 1175SOL     OW14986   2.666   4.648   8.786 -0.1292 -0.2680  0.0252
 1175SOL    HW114987   2.571   4.654   8.795 -0.4107 -1.0294 -2.4375
 1175SOL    HW214988   2.693   4.714   8.850  0.6975  0.4922 -1.1071
 1176SOL     OW14989   3.573   2.546   3.249  0.2413  0.1424  0.3409
 1176SOL    HW114990   3.541   2.625   3.205  0.0832 -0.8402 -1.2742
 1176SOL    HW214991   3.596   2.494   3.172  1.5686  1.3633 -0.0687
 1177SOL     OW14992   4.065   1.968  10.931 -0.0602  0.0338  0.1153
 1177SOL    HW114993   3.988   2.016  10.901  0.3763  0.5891 -0.0944
 1177SOL    HW214994   4.132   2.034  10.948  1.7388 -0.8714 -3.5187
 1178SOL     OW14995   0.637   0.510  11.122 -0.6255 -0.0460 -0.4007
 1178SOL    HW114996   0.625   0.603  11.142 -2.2598 -1.1103  3.4603
 1178SOL    HW214997   0.624   0.505  11.027  1.1402 -1.0952 -0.5834
 1179SOL     OW14998   0.770   3.379  12.206 -0.2014 -0.2690  0.4074
 1179SOL    HW114999   0.763   3.341  12.118 -0.3025 -0.7117  0.6054
 1179SOL    HW215000   0.678   3.393  12.227 -0.7848 -1.0107 -1.6486
 1180SOL     OW15001   1.016   0.894   3.931 -0.4899  0.2760  0.1754
 1180SOL    HW115002   0.970   0.833   3.988 -0.1817  0.5993  0.7731
 1180SOL    HW215003   1.104   0.857   3.943 -0.0229  1.8987  1.8271
 1181SOL     OW15004   3.624   1.229   7.184  0.5141  0.5482 -0.2578
 1181SOL    HW115005   3.619   1.134   7.177  0.2022  0.4690  1.0945
 1181SOL    HW215006   3.712   1.249   7.215  1.7245 -1.9607 -2.0588
 1182SOL     OW15007   4.563   4.261   8.765 -0.3194  0.6154  0.0058
 1182SOL    HW115008   4.498   4.276   8.833 -0.7397  1.2361 -0.5336
 1182SOL    HW215009   4.638   4.259   8.825  1.5787  0.1176 -2.3599
 1183SOL     OW15010   2.475   3.271  15.107 -0.4575  0.0702  0.0996
 1183SOL    HW115011   2.430   3.342  15.061  1.2651  0.5000 -0.9080
 1183SOL    HW215012   2.557   3.264  15.059 -1.6536 -2.9558 -1.5370
 1184SOL     OW15013   4.636   2.234  17.073 -0.7322  0.5846  0.1971
 1184SOL    HW115014   4.546   2.245  17.101  0.2576  1.6626  2.9077
 1184SOL    HW215015   4.641   2.317  17.026 -0.4753  1.4108  1.6992
 1185SOL     OW15016   0.214   1.135   3.463 -0.3374  0.1466  0.0789
 1185SOL    HW115017   0.306   1.112   3.454 -0.3608  0.0220  0.1624
 1185SOL    HW215018   0.224   1.230   3.459  0.1144  0.0949  0.0292
 1186SOL     OW15019   1.117   2.195  14.152  0.6447 -0.1868 -0.5794
 1186SOL    HW115020   1.204   2.184  14.114  1.5428 -0.9154  1.6687
 1186SOL    HW215021   1.110   2.289  14.164  2.9022 -0.0030 -0.7288
 1187SOL     OW15022   2.001   2.373  10.641  0.1979 -0.0649 -0.0088
 1187SOL    HW115023   1.923   2.408  10.597 -0.1676 -0.1715  0.5487
 1187SOL    HW215024   1.974   2.345  10.728  0.3289 -0.7516 -0.1873
 1188SOL     OW15025   2.855   3.191   7.081 -0.1439  0.1517  0.3276
 1188SOL    HW115026   2.870   3.099   7.102  2.6435  0.6575  0.6300
 1188SOL    HW215027   2.828   3.223   7.167  1.5551  0.3617  0.7894
 1189SOL     OW15028   1.164   1.864  10.016  0.6388 -0.2420  0.3934
 1189SOL    HW115029   1.151   1.952   9.980  0.1363  0.3135  1.9773
 1189SOL    HW215030   1.256   1.854   9.992  0.9144  1.5259  0.7197
 1190SOL     OW15031   0.130   0.578   7.113  0.0443  0.0231  0.5585
 1190SOL    HW115032   0.110   0.485   7.103  2.8134 -0.4143 -0.8975
 1190SOL    HW215033   0.221   0.587   7.083 -0.3967 -0.0565 -0.7997
 1191SOL     OW15034   4.585   2.342   7.328  0.7936  0.0525 -0.8230
 1191SOL    HW115035   4.562   2.291   7.406 -0.3898 -0.0495 -1.2492
 1191SOL    HW215036   4.647   2.405   7.366  0.0283 -0.0597  0.6183
 1192SOL     OW15037   2.866   2.857  14.452  0.4424  0.3814 -0.1603
 1192SOL    HW115038   2.785   2.834  14.496  1.1970  1.7630  1.9390
 1192SOL    HW215039   2.927   2.805  14.504 -1.7042 -1.4441  0.5462
 1193SOL     OW15040   0.820   1.953  10.462 -0.7856  0.0050  0.3838
 1193SOL    HW115041   0.835   1.916  10.549 -0.3423 -1.3738 -0.2834
 1193SOL    HW215042   0.727   1.933  10.453 -0.7713 -0.0100  0.2693
 1194SOL     OW15043   2.988   1.823   5.598  0.4405  0.1002  0.0213
 1194SOL    HW115044   2.988   1.865   5.512 -1.5021 -2.6049 -1.3136
 1194SOL    HW215045   2.972   1.738   5.558  2.3713 -0.3507  0.1865
 1195SOL     OW15046   4.497   0.472  12.522 -0.1535  0.2165  0.4250
 1195SOL    HW115047   4.583   0.485  12.561  1.5568  2.0036 -3.8466
 1195SOL    HW215048   4.436   0.511  12.584 -1.1744 -0.5461 -0.1008
 1196SOL     OW15049   1.663   4.185   8.184 -0.8514  0.3516 -0.4129
 1196SOL    HW115050   1.612   4.109   8.212  0.6301 -0.2539  0.6083
 1196SOL    HW215051   1.604   4.219   8.116  1.4293 -0.8198 -3.0132
 1197SOL     OW15052   2.985   2.258  14.779  0.1481  0.4273  0.2162
 1197SOL    HW115053   3.027   2.300  14.855  0.2065 -0.6297  0.7584
 1197SOL    HW215054   3.052   2.275  14.713 -0.8617 -0.5099 -1.0593
 1198SOL     OW15055   1.888   1.405  11.028 -0.4453  0.3506  0.4808
 1198SOL    HW115056   1.854   1.455  11.103 -1.0291 -2.5144  2.1247
 1198SOL    HW215057   1.959   1.347  11.056 -0.6338 -0.1415 -0.0583
 1199SOL     OW15058   1.391   2.282   1.314  0.2734 -0.7641  0.2952
 1199SOL    HW115059   1.359   2.204   1.359 -1.1534 -0.4331 -0.1336
 1199SOL    HW215060   1.462   2.308   1.372  1.2734 -2.1374 -0.3267
 1200SOL     OW15061   0.299   1.466   7.525  0.3677 -0.1941  0.1280
 1200SOL    HW115062   0.393   1.475   7.509  0.1630 -0.2499 -1.0914
 1200SOL    HW215063   0.312   1.408   7.600 -2.2348  0.6147  1.1949
 1201SOL     OW15064   0.277   3.073   1.007  0.1345  0.3901 -0.3924
 1201SOL    HW115065   0.294   3.147   1.065  0.5875  0.0198 -0.0532
 1201SOL    HW215066   0.245   3.007   1.069  1.7124 -1.2525 -1.2997
 1202SOL     OW15067   0.086   2.159  11.293 -0.0085 -0.0833 -0.4273
 1202SOL    HW115068   0.089   2.246  11.253 -1.4498  0.8472  1.4559
 1202SOL    HW215069   0.073   2.178  11.386 -1.9416 -1.4059 -0.4237
 1203SOL     OW15070   1.799   4.706   4.197 -0.1438  0.3203  0.2317
 1203SOL    HW115071   1.795   0.000   4.104  0.4151 -1.3689 -0.1379
 1203SOL    HW215072   1.716   0.022   4.220  1.4054  2.5148  1.9038
 1204SOL     OW15073   4.169   3.627   9.501 -0.0170  0.4376 -0.3468
 1204SOL    HW115074   4.211   3.543   9.487 -2.1496 -0.7994  0.6474
 1204SOL    HW215075   4.075   3.611   9.487 -0.5459  1.5922  1.7429
 1205SOL     OW15076   3.736   4.709   6.073  0.1616  0.4256  0.4008
 1205SOL    HW115077   3.798   4.641   6.045 -0.2892  0.8466 -1.5578
 1205SOL    HW215078   3.779   0.015   6.153  1.6971 -0.0092 -0.2672
 1206SOL     OW15079   2.491   4.411   5.335  0.5294  0.1298 -0.2790
 1206SOL    HW115080   2.405   4.411   5.294  0.2074 -1.3476  0.3887
 1206SOL    HW215081   2.478   4.384   5.426 -0.9233  4.3260  0.7607
 1207SOL     OW15082   2.109   4.289   9.611 -0.1494  0.0338 -0.5569
 1207SOL    HW115083   2.117   4.210   9.558  0.0910 -0.7475  0.6269
 1207SOL    HW215084   2.058   4.334   9.544 -0.9379 -2.1041 -1.4194
 1208SOL     OW15085   0.477   2.681   7.227  0.0353 -0.2522 -0.4361
 1208SOL    HW115086   0.516   2.753   7.177 -0.0022  0.5345  0.6728
 1208SOL    HW215087   0.460   2.624   7.152 -3.3743 -2.2880  1.8876
 1209SOL     OW15088   0.321   4.133   1.276  0.4715  0.0503 -0.1690
 1209SOL    HW115089   0.329   4.189   1.198 -0.7443 -0.8807 -0.9477
 1209SOL    HW215090   0.226   4.122   1.272  0.3458  0.8080  0.7373
 1210SOL     OW15091   1.105   1.594   9.160  0.6326 -0.0706 -0.6069
 1210SOL    HW115092   1.034   1.558   9.211  1.4960 -1.6423 -0.5175
 1210SOL    HW215093   1.096   1.543   9.080 -2.1365 -1.1683  0.4318
 1211SOL     OW15094   3.685   0.546  14.136  0.1380 -0.4115  0.2297
 1211SOL    HW115095   3.761   0.582  14.182  0.5008 -0.3117 -0.4579
 1211SOL    HW215096   3.706   0.579  14.049 -2.9777  2.3449  0.5404
 1212SOL     OW15097   3.051   0.660  11.410 -0.0244 -0.1175  0.1006
 1212SOL    HW115098   3.045   0.591  11.476  2.0708  0.5047  0.9364
 1212SOL    HW215099   3.124   0.632  11.355 -0.4124  0.1279 -0.5468
 1213SOL     OW15100   2.688   0.987   7.495 -0.2728 -0.0766 -0.2293
 1213SOL    HW115101   2.683   0.921   7.426 -2.5799  0.9010 -0.9937
 1213SOL    HW215102   2.602   1.029   7.494 -0.7536 -1.0851 -1.0698
 1214SOL     OW15103   3.422   3.187   5.050  0.3271  0.4658  0.6042
 1214SOL    HW115104   3.348   3.247   5.057  0.2943  0.3810  0.9573
 1214SOL    HW215105   3.397   3.111   5.102 -1.9183 -1.0099 -2.6176
 1215SOL     OW15106   3.801   2.686   2.722  0.1536  0.4334 -0.7442
 1215SOL    HW115107   3.805   2.611   2.781  1.8756  0.1872 -1.1927
 1215SOL    HW215108   3.795   2.644   2.637  0.3969  0.8100 -0.9444
 1216SOL     OW15109   2.467   2.351   4.477 -0.3556 -0.3081  0.1226
 1216SOL    HW115110   2.466   2.446   4.466  0.1906 -0.3371 -0.2023
 1216SOL    HW215111   2.539   2.328   4.418  0.2923 -2.0337  1.5842
 1217SOL     OW15112   3.053   0.750   0.970  0.1618  0.1569  0.0650
 1217SOL    HW115113   2.976   0.800   0.942 -0.5053 -0.0980  1.4351
 1217SOL    HW215114   3.015   0.688   1.031 -1.1543  0.8059 -0.0802
 1218SOL     OW15115   2.994   0.384   3.171  0.0532 -0.2827 -0.0586
 1218SOL    HW115116   2.957   0.327   3.104 -0.6758  0.9252 -0.6709
 1218SOL    HW215117   2.910   0.413   3.205  0.5265 -0.7276  1.4985
 1219SOL     OW15118   4.507   0.773   8.092 -0.1055  0.0259  0.0434
 1219SOL    HW115119   4.601   0.760   8.079  0.1291  2.7977 -1.0410
 1219SOL    HW215120   4.496   0.680   8.074  0.2341  0.5117 -2.6978
 1220SOL     OW15121   2.803   1.533   4.922  0.2383 -0.2833 -0.4326
 1220SOL    HW115122   2.812   1.529   4.826  1.5663 -1.6498 -0.2496
 1220SOL    HW215123   2.821   1.625   4.943 -1.4336 -0.0632 -0.0205
 1221SOL     OW15124   3.876   1.982  17.239  0.0305  0.2032  0.5800
 1221SOL    HW115125   3.830   2.061  17.210 -1.2760 -0.6198  0.3893
 1221SOL    HW215126   3.808   1.948  17.297 -0.4098 -0.5264 -0.3738
 1222SOL     OW15127   0.903   1.691   9.658  0.1736  0.3987  0.0995
 1222SOL    HW115128   0.998   1.677   9.666  0.4814  2.0110 -0.6750
 1222SOL    HW215129   0.881   1.750   9.730 -0.7872  1.2622 -0.8980
 1223SOL     OW15130   2.049   2.609   4.916 -0.0238 -0.0753  0.6289
 1223SOL    HW115131   2.125   2.587   4.970  0.5004 -0.8519 -0.4069
 1223SOL    HW215132   1.986   2.550   4.958 -0.0822 -0.0230  0.6135
 1224SOL     OW15133   3.128   2.009   4.000 -0.2621  0.3801  0.0557
 1224SOL    HW115134   3.155   2.064   4.073  1.5892 -0.0382 -0.3115
 1224SOL    HW215135   3.210   1.966   3.977 -1.2269  0.5265 -3.7727
 1225SOL     OW15136   4.688   1.439   7.628  0.9344  0.4489 -0.0683
 1225SOL    HW115137   4.649   1.461   7.544 -0.8794  3.2885  1.5264
 1225SOL    HW215138   0.054   1.464   7.613  1.8608 -1.3090  2.5621
 1226SOL     OW15139   2.846   2.746  10.905 -0.7059  0.1311 -0.2683
 1226SOL    HW115140   2.789   2.677  10.941  1.5267 -2.7467 -2.1992
 1226SOL    HW215141   2.776   2.784  10.852  0.9863  3.7934  0.1583
 1227SOL     OW15142   3.606   4.421  15.610 -0.1051 -0.1889 -0.6565
 1227SOL    HW115143   3.543   4.482  15.647  0.9032 -1.1709  2.6951
 1227SOL    HW215144   3.574   4.337  15.642 -0.9988  0.1586 -0.6267
 1228SOL     OW15145   0.609   3.535   7.809  0.1446  0.6136  0.1695
 1228SOL    HW115146   0.667   3.600   7.769 -1.3056  1.0668 -1.1853
 1228SOL    HW215147   0.625   3.470   7.740 -1.1424  0.3882  0.0989
 1229SOL     OW15148   1.376   3.067  10.338 -0.4588  0.6404 -0.5392
 1229SOL    HW115149   1.310   3.054  10.407  0.2142  0.0556 -0.0072
 1229SOL    HW215150   1.351   3.004  10.270  1.0752 -0.8921  0.3009
 1230SOL     OW15151   4.245   2.658  10.475  0.5197 -0.5561  0.4597
 1230SOL    HW115152   4.312   2.696  10.419  1.7191 -2.5518  0.5316
 1230SOL    HW215153   4.187   2.597  10.430 -0.6072  2.6424 -2.4528
 1231SOL     OW15154   3.886   2.332   9.710  0.7326 -0.0401  0.3342
 1231SOL    HW115155   3.812   2.298   9.761  1.7375 -3.2402 -0.2853
 1231SOL    HW215156   3.873   2.426   9.720  2.4501  0.3005 -0.6643
 1232SOL     OW15157   3.164   2.567   9.785  0.7804 -0.0339  0.2707
 1232SOL    HW115158   3.173   2.655   9.821  0.2759 -0.2775  0.9725
 1232SOL    HW215159   3.102   2.585   9.714 -0.3977 -0.5821  1.1680
 1233SOL     OW15160   1.709   2.009  12.598  0.2067 -0.6237  0.8968
 1233SOL    HW115161   1.680   2.046  12.515  2.9525  0.9263  0.6400
 1233SOL    HW215162   1.621   1.985  12.629 -0.5779 -0.7069 -1.3781
 1234SOL     OW15163   2.343   4.129   8.100  0.2328 -0.4326 -0.0692
 1234SOL    HW115164   2.337   4.184   8.178  0.8423 -0.7657  0.2132
 1234SOL    HW215165   2.289   4.051   8.112 -1.3731  0.1624 -3.4435
 1235SOL     OW15166   0.139   2.853   6.784  0.0164  0.3078 -0.2097
 1235SOL    HW115167   0.063   2.801   6.813  1.9850 -0.8291  2.8671
 1235SOL    HW215168   0.190   2.784   6.742 -0.9720  0.6479 -1.9699
 1236SOL     OW15169   2.487   1.859   2.751 -0.1742 -0.7814 -0.1056
 1236SOL    HW115170   2.463   1.838   2.660 -0.3012  1.9917 -0.7292
 1236SOL    HW215171   2.569   1.908   2.739  0.6355 -1.7224  1.5821
 1237SOL     OW15172   3.222   1.856   4.511  0.4053  0.0225 -0.2960
 1237SOL    HW115173   3.268   1.781   4.548 -1.3998 -0.1555  1.5850
 1237SOL    HW215174   3.263   1.917   4.572  0.9589  1.3715 -2.0007
 1238SOL     OW15175   0.886   0.903   8.298  0.3532  0.2068  0.5004
 1238SOL    HW115176   0.976   0.902   8.265  0.0474  1.2010 -0.3625
 1238SOL    HW215177   0.862   0.815   8.269  0.0747  0.7258 -0.8532
 1239SOL     OW15178   3.073   3.314   2.505  0.1011  0.2647  0.1135
 1239SOL    HW115179   3.052   3.384   2.444 -1.4348 -0.4956 -0.2286
 1239SOL    HW215180   3.155   3.286   2.465  1.2623  1.9482  1.3154
 1240SOL     OW15181   4.051   3.189   9.284  0.1909 -0.6861 -0.3273
 1240SOL    HW115182   4.034   3.136   9.207  1.6855  0.0725 -1.1844
 1240SOL    HW215183   3.965   3.186   9.324 -0.7430  1.8956 -2.1133
 1241SOL     OW15184   0.675   3.875   9.552 -0.6362 -0.0193  0.8601
 1241SOL    HW115185   0.715   3.906   9.471  0.3371 -1.1237  0.9313
 1241SOL    HW215186   0.741   3.915   9.608  0.6087  1.8445 -1.9628
 1242SOL     OW15187   2.571   4.303   8.941 -0.1225 -0.1568  0.1948
 1242SOL    HW115188   2.621   4.269   9.015 -0.8737 -0.4602  0.5634
 1242SOL    HW215189   2.627   4.377   8.917 -0.8751 -0.1766 -1.6393
 1243SOL     OW15190   3.513   2.486  14.440 -0.1445  0.2472  0.4370
 1243SOL    HW115191   3.450   2.506  14.371  1.6829 -0.8808 -1.5675
 1243SOL    HW215192   3.548   2.401  14.415  1.2246  1.0266 -0.2596
 1244SOL     OW15193   3.390   4.670   3.351 -0.6150 -0.5140  0.8465
 1244SOL    HW115194   3.303   4.709   3.350 -0.0994  0.6165  1.1956
 1244SOL    HW215195   3.432   0.017   3.397 -1.1170  0.7381 -0.6583
 1245SOL     OW15196   3.050   0.323   4.285 -0.1215  0.2597 -0.4668
 1245SOL    HW115197   3.135   0.280   4.292 -0.8261 -1.2303 -1.2004
 1245SOL    HW215198   3.036   0.348   4.194 -0.0317 -1.2355 -0.8868
 1246SOL     OW15199   3.453   1.295   5.827  0.6045 -0.6834 -0.4723
 1246SOL    HW115200   3.468   1.242   5.905  2.1678 -0.7605 -0.8277
 1246SOL    HW215201   3.365   1.281   5.793 -0.0645 -0.1050  0.9991
 1247SOL     OW15202   4.667   0.474  14.642 -0.5353 -0.2308 -0.1771
 1247SOL    HW115203   4.631   0.522  14.717 -2.2562 -2.0896  0.1829
 1247SOL    HW215204   4.714   0.543  14.595 -1.8152 -0.3673 -1.6631
 1248SOL     OW15205   4.270   4.065   2.061 -0.0811 -0.0069 -0.5090
 1248SOL    HW115206   4.218   4.077   1.981 -1.9539  0.4390  0.7768
 1248SOL    HW215207   4.341   4.126   2.043 -1.0406  0.9970 -0.9139
 1249SOL     OW15208   3.430   1.689  14.080  0.4879 -0.5856 -0.0450
 1249SOL    HW115209   3.459   1.778  14.102 -1.1173  0.1983 -1.0732
 1249SOL    HW215210   3.438   1.680  13.985 -1.9154  0.5843 -0.3720
 1250SOL     OW15211   2.866   1.906   3.450 -0.2076  0.0073 -0.3045
 1250SOL    HW115212   2.775   1.886   3.470  0.2978 -2.2280 -0.1924
 1250SOL    HW215213   2.842   1.974   3.388 -0.6681  1.5123  1.5441
 1251SOL     OW15214   0.643   0.573   8.692  0.5892 -0.0739 -0.3384
 1251SOL    HW115215   0.705   0.603   8.626  0.7873  0.3774  0.0531
 1251SOL    HW215216   0.583   0.517   8.643 -0.1455  1.3367 -1.0302
 1252SOL     OW15217   4.375   3.981   3.305  0.5147  0.7616 -0.1465
 1252SOL    HW115218   4.341   4.013   3.221  0.7544 -0.6950 -0.8022
 1252SOL    HW215219   4.413   3.895   3.285 -0.8340  0.5397 -1.8129
 1253SOL     OW15220   4.007   0.189   2.918 -0.0852 -0.3463  0.0925
 1253SOL    HW115221   4.066   0.263   2.927 -0.5668 -0.1064  1.2270
 1253SOL    HW215222   3.976   0.206   2.828 -0.2565  0.2823  0.2733
 1254SOL     OW15223   3.755   2.685   4.315  0.0327 -0.7351 -0.0724
 1254SOL    HW115224   3.696   2.716   4.246 -1.4620 -3.7822 -0.1815
 1254SOL    HW215225   3.831   2.662   4.262 -0.0331 -0.5666 -0.2416
 1255SOL     OW15226   0.435   4.627  16.634  0.6236 -0.5659 -0.1807
 1255SOL    HW115227   0.482   4.571  16.697  0.5731 -1.1105 -0.6229
 1255SOL    HW215228   0.505   4.627  16.570  1.0894  1.2746  0.3526
 1256SOL     OW15229   2.732   1.693   8.481 -0.2925 -0.0612  0.0345
 1256SOL    HW115230   2.639   1.700   8.502 -0.6119 -1.1561 -1.0780
 1256SOL    HW215231   2.768   1.768   8.529  0.6986 -0.0751 -0.6764
 1257SOL     OW15232   4.724   1.542  11.154  0.3870  0.2378 -0.1689
 1257SOL    HW115233   0.075   1.563  11.207  1.4153  0.8151 -1.8981
 1257SOL    HW215234   0.037   1.479  11.093 -2.1192 -0.6039 -0.8858
 1258SOL     OW15235   1.821   0.229   2.628  0.2783 -0.0426 -0.2820
 1258SOL    HW115236   1.739   0.268   2.657  1.0897  1.2353  0.3257
 1258SOL    HW215237   1.886   0.275   2.681  0.0299 -1.7849  1.5257
 1259SOL     OW15238   1.984   4.665   0.149  0.6776  0.4490 -0.1184
 1259SOL    HW115239   2.029   4.599   0.203 -1.5367 -1.1141 -0.2199
 1259SOL    HW215240   1.966   0.007   0.215  0.1058  0.2445 -0.0689
 1260SOL     OW15241   3.265   2.100  15.681  0.2110 -0.2635  0.2492
 1260SOL    HW115242   3.224   2.170  15.629  1.9634  0.0610 -0.6953
 1260SOL    HW215243   3.350   2.076  15.643  0.6720  0.4743  0.8256
 1261SOL     OW15244   0.691   3.901   6.144 -0.4045 -0.5191 -0.0652
 1261SOL    HW115245   0.615   3.845   6.161 -0.3164 -0.5651  0.1689
 1261SOL    HW215246   0.738   3.900   6.227 -0.2415 -0.5374 -0.1590
 1262SOL     OW15247   0.444   1.591   6.499 -0.3669 -0.2377 -0.2145
 1262SOL    HW115248   0.455   1.640   6.418  0.4345 -1.1824 -0.6676
 1262SOL    HW215249   0.360   1.557   6.468 -1.9930  2.8506  0.7385
 1263SOL     OW15250   4.700   3.030   2.623  0.3731 -0.1883  0.6822
 1263SOL    HW115251   4.635   3.075   2.678 -2.6530 -1.2775 -2.0101
 1263SOL    HW215252   4.650   2.959   2.582 -3.1147  1.8312  1.4140
 1264SOL     OW15253   2.138   1.900   8.370  0.3540  0.5729 -0.0590
 1264SOL    HW115254   2.198   1.920   8.298  0.4202 -0.5822 -0.3279
 1264SOL    HW215255   2.140   1.805   8.358  0.1530  0.7749 -1.7743
 1265SOL     OW15256   4.563   2.184   1.613  0.3457  0.0445  0.1022
 1265SOL    HW115257   4.603   2.257   1.566  0.7970 -1.4960 -1.9056
 1265SOL    HW215258   4.479   2.218   1.645  2.2830  2.6376  2.4256
 1266SOL     OW15259   2.018   1.990   7.600  0.0750  0.5473  0.0438
 1266SOL    HW115260   1.970   2.067   7.571 -0.6661 -0.1028 -0.4578
 1266SOL    HW215261   1.946   1.927   7.599  1.6837 -1.2564 -0.7644
 1267SOL     OW15262   4.408   1.213   5.125  0.1528 -0.2722 -0.5336
 1267SOL    HW115263   4.358   1.280   5.173  1.3410 -0.2512  0.6806
 1267SOL    HW215264   4.495   1.229   5.161 -0.1888  0.8929 -0.2142
 1268SOL     OW15265   0.280   1.018  11.808 -0.1650  0.0193  0.2410
 1268SOL    HW115266   0.329   1.099  11.821  1.1431 -0.6923 -0.3182
 1268SOL    HW215267   0.356   0.972  11.774 -0.0019 -1.5009  2.6715
 1269SOL     OW15268   4.132   2.544   2.557 -0.8225  0.1641  0.6342
 1269SOL    HW115269   4.056   2.501   2.517 -0.2101  1.3438 -1.8334
 1269SOL    HW215270   4.108   2.634   2.534  1.3186  0.5496 -0.0510
 1270SOL     OW15271   2.962   1.313  14.686  0.1435 -0.1768  0.0459
 1270SOL    HW115272   2.924   1.230  14.656  1.9363 -0.8981 -0.2180
 1270SOL    HW215273   3.032   1.269  14.735 -0.6176 -1.7027 -0.2281
 1271SOL     OW15274   1.415   0.663   3.236  0.0406  0.0893 -0.1475
 1271SOL    HW115275   1.337   0.666   3.181 -0.2340  1.6175  0.3415
 1271SOL    HW215276   1.476   0.644   3.164  0.2465  0.7771 -0.1526
 1272SOL     OW15277   1.523   3.946   5.920 -0.1609 -0.3223  0.2736
 1272SOL    HW115278   1.526   3.924   6.013 -2.5300  0.0240  0.4326
 1272SOL    HW215279   1.438   3.910   5.894 -0.2275 -1.0942  1.5877
 1273SOL     OW15280   2.567   3.156   5.413 -0.3932 -0.0973  0.2330
 1273SOL    HW115281   2.557   3.248   5.390  0.7527 -0.5536 -2.0573
 1273SOL    HW215282   2.510   3.106   5.356 -2.2002  1.5637  0.5765
 1274SOL     OW15283   4.666   3.687  10.396  0.1669 -0.0063  0.0624
 1274SOL    HW115284   4.667   3.596  10.367 -0.1585  0.6852 -2.0981
 1274SOL    HW215285   0.030   3.704  10.367  0.6539  0.1901  1.6461
 1275SOL     OW15286   0.255   3.765   4.995  0.0944 -0.4215 -0.3006
 1275SOL    HW115287   0.183   3.819   5.028 -0.0030 -1.4358  1.1698
 1275SOL    HW215288   0.283   3.817   4.920  0.7569  1.3958  1.1930
 1276SOL     OW15289   0.821   4.649  11.264 -0.6291 -0.1895  0.0452
 1276SOL    HW115290   0.832   4.671  11.356 -0.3191  0.7453 -0.2192
 1276SOL    HW215291   0.738   4.693  11.249 -0.6634  0.2017  1.4471
 1277SOL     OW15292   2.868   2.841  10.145  0.5616  0.4684  0.1746
 1277SOL    HW115293   2.799   2.897  10.180 -0.4513 -0.6220 -0.0733
 1277SOL    HW215294   2.818   2.759  10.144  3.3022 -1.1936  1.0468
 1278SOL     OW15295   2.376   1.003   7.780 -0.0886 -0.0460  0.1067
 1278SOL    HW115296   2.386   0.915   7.744 -0.1268  1.0173 -2.5355
 1278SOL    HW215297   2.392   1.064   7.708  0.5122 -2.4307 -1.7896
 1279SOL     OW15298   1.829   2.311   2.873 -0.0181  0.1625 -0.2784
 1279SOL    HW115299   1.782   2.346   2.797 -2.8799 -2.9101  0.0704
 1279SOL    HW215300   1.886   2.385   2.896  1.3429 -1.0404  0.2131
 1280SOL     OW15301   2.303   0.709  16.891  0.1858 -0.0915 -0.3769
 1280SOL    HW115302   2.264   0.696  16.978  2.0910  2.7063  0.9118
 1280SOL    HW215303   2.231   0.739  16.836  0.4108  0.8093 -0.1868
 1281SOL     OW15304   3.765   2.122   5.725  0.4749  0.1149 -0.3587
 1281SOL    HW115305   3.705   2.069   5.777 -0.6369  1.0008 -0.7494
 1281SOL    HW215306   3.851   2.090   5.752  0.7859 -0.2587 -1.7696
 1282SOL     OW15307   2.110   0.596   8.576  0.3442  0.5071 -0.3649
 1282SOL    HW115308   2.147   0.621   8.661 -3.6853 -2.1764  2.2102
 1282SOL    HW215309   2.062   0.514   8.593  0.4659  0.2992 -1.0244
 1283SOL     OW15310   0.945   3.593   0.773 -0.1055 -0.0904  0.1031
 1283SOL    HW115311   0.862   3.593   0.820 -0.0129  0.9728  0.2787
 1283SOL    HW215312   0.994   3.651   0.832  0.0449 -2.3654  2.2128
 1284SOL     OW15313   0.279   0.590   4.425  0.3428  0.3121  0.0714
 1284SOL    HW115314   0.355   0.549   4.467  0.7811  1.9797  0.8966
 1284SOL    HW215315   0.316   0.644   4.355  0.7961 -0.6096 -0.3930
 1285SOL     OW15316   1.839   2.230   5.830 -0.3394  0.0283 -0.5076
 1285SOL    HW115317   1.869   2.318   5.851 -0.5532 -0.3563  1.3555
 1285SOL    HW215318   1.774   2.215   5.899 -0.5978 -1.4998 -1.0866
 1286SOL     OW15319   0.826   4.709  13.070 -0.1738  0.1674 -0.1435
 1286SOL    HW115320   0.908   4.665  13.050  1.8212  4.1950 -0.7924
 1286SOL    HW215321   0.802   4.674  13.156  0.5792  3.0803  1.2607
 1287SOL     OW15322   2.746   1.010   3.621 -0.0671  0.4136 -0.0237
 1287SOL    HW115323   2.803   1.064   3.566  0.7946  0.5600  1.0135
 1287SOL    HW215324   2.788   1.021   3.706 -3.0253 -1.7343  1.7129
 1288SOL     OW15325   2.376   3.664   5.507 -0.2657  0.1145  0.1682
 1288SOL    HW115326   2.319   3.695   5.436 -0.8358  0.6962  0.8850
 1288SOL    HW215327   2.463   3.671   5.468 -0.9556  1.1928 -1.1745
 1289SOL     OW15328   4.675   3.430   4.455  0.0695  0.2899 -0.7274
 1289SOL    HW115329   4.611   3.470   4.395 -0.3763  1.1077  0.2844
 1289SOL    HW215330   0.033   3.456   4.415  0.7393  1.1994  1.2562
 1290SOL     OW15331   4.431   2.091   6.255 -0.6265 -0.0433  0.2275
 1290SOL    HW115332   4.485   2.171   6.257 -1.0111  0.2033  0.8680
 1290SOL    HW215333   4.359   2.120   6.200 -1.4318  1.2170  1.9600
 1291SOL     OW15334   3.780   1.460  11.207  0.5319  0.7636 -0.1080
 1291SOL    HW115335   3.719   1.396  11.170 -2.3064  2.8827  0.8992
 1291SOL    HW215336   3.750   1.478  11.297  0.3399  2.9859 -0.6083
 1292SOL     OW15337   0.672   2.382  12.027  0.0161  0.1704 -0.7509
 1292SOL    HW115338   0.749   2.439  12.033  0.3818 -0.4025 -0.0789
 1292SOL    HW215339   0.597   2.441  12.031 -0.8278 -0.9338 -0.1507
 1293SOL     OW15340   4.505   2.440   9.615  0.1021  0.5050  0.1279
 1293SOL    HW115341   4.579   2.383   9.638  0.3833  0.4761 -0.8528
 1293SOL    HW215342   4.502   2.497   9.692 -1.8633 -0.8193  1.0167
 1294SOL     OW15343   1.647   4.329   1.360  0.5036 -0.0081  0.1600
 1294SOL    HW115344   1.721   4.381   1.330  0.4638 -0.0885 -0.0800
 1294SOL    HW215345   1.666   4.320   1.453  2.0937  1.1255 -0.0678
 1295SOL     OW15346   1.703   4.021   5.211 -0.5628 -0.4411  0.0067
 1295SOL    HW115347   1.686   4.104   5.255  0.0162  0.2833 -1.1321
 1295SOL    HW215348   1.797   4.009   5.226  0.0685  1.7162 -2.2296
 1296SOL     OW15349   3.159   2.030  13.991 -0.2760 -0.3585 -0.6379
 1296SOL    HW115350   3.199   1.969  13.929  3.0198  1.8627 -0.7093
 1296SOL    HW215351   3.073   1.990  13.988 -0.8531  0.8420 -0.0030
 1297SOL     OW15352   1.608   4.625  14.823  0.1171 -0.0403 -0.2144
 1297SOL    HW115353   1.683   4.576  14.789 -0.2427 -0.2622 -0.6821
 1297SOL    HW215354   1.604   4.597  14.915 -0.1859  2.0372  0.4067
 1298SOL     OW15355   3.431   3.287   3.086  0.0976 -0.2773  0.3638
 1298SOL    HW115356   3.343   3.264   3.056  0.2586  0.9538 -1.0394
 1298SOL    HW215357   3.487   3.249   3.018  0.4596 -3.8581  2.6523
 1299SOL     OW15358   2.452   1.562  12.009  0.6120 -0.2124 -0.4547
 1299SOL    HW115359   2.490   1.572  11.921  0.6802 -2.0964 -0.6346
 1299SOL    HW215360   2.523   1.552  12.072  1.9952  2.4209 -1.5777
 1300SOL     OW15361   3.597   0.572   2.902  0.4041  0.1309  0.4633
 1300SOL    HW115362   3.626   0.484   2.927 -1.0751  0.1260  2.1594
 1300SOL    HW215363   3.645   0.583   2.820  2.2528 -2.3967  1.2130
 1301SOL     OW15364   1.391   4.187  16.377  0.4690  0.2479 -0.3425
 1301SOL    HW115365   1.304   4.216  16.405  1.2001  2.0667  0.0219
 1301SOL    HW215366   1.364   4.138  16.299 -1.9685  0.5053  0.3184
 1302SOL     OW15367   0.682   4.709   9.282  0.6694  0.4658  0.1986
 1302SOL    HW115368   0.596   4.701   9.241  0.3819 -2.0856  1.3203
 1302SOL    HW215369   0.671   0.053   9.347 -0.1961 -0.5375  1.1107
 1303SOL     OW15370   1.916   0.608  11.059  0.9084  0.0486 -0.0188
 1303SOL    HW115371   2.003   0.632  11.025  0.8158  0.3356 -0.0521
 1303SOL    HW215372   1.933   0.605  11.153 -1.4658 -0.7213  0.3713
 1304SOL     OW15373   2.828   1.677   8.004  0.1427 -0.1587 -0.2201
 1304SOL    HW115374   2.881   1.756   7.999  1.2586 -0.9802 -1.3065
 1304SOL    HW215375   2.754   1.706   8.058 -0.8312  0.7321 -2.0432
 1305SOL     OW15376   0.593   0.177   8.436  0.0328 -0.4124 -0.1664
 1305SOL    HW115377   0.530   0.152   8.369  0.2254 -0.1497 -0.4454
 1305SOL    HW215378   0.539   0.215   8.506  0.4579 -1.3180  0.6555
 1306SOL     OW15379   4.404   4.242   9.010  0.0558 -0.0288 -0.4122
 1306SOL    HW115380   4.316   4.266   9.040 -0.2692 -0.8792 -0.6861
 1306SOL    HW215381   4.463   4.279   9.075 -1.0700 -0.2012  0.7169
 1307SOL     OW15382   1.635   0.582   0.928 -0.3577 -0.0977  0.3442
 1307SOL    HW115383   1.560   0.557   0.980 -1.4936  2.2894 -0.1224
 1307SOL    HW215384   1.605   0.572   0.837 -1.5824  0.1430  0.7251
 1308SOL     OW15385   2.766   0.863   7.746 -0.3276 -0.8457  0.3262
 1308SOL    HW115386   2.764   0.925   7.673  0.4220 -1.1766  0.0269
 1308SOL    HW215387   2.816   0.909   7.814  2.0943 -2.7490 -0.1658
 1309SOL     OW15388   2.861   1.900   7.698  0.2406 -0.2390 -0.2153
 1309SOL    HW115389   2.903   1.815   7.683 -2.4231 -1.5366 -0.2932
 1309SOL    HW215390   2.886   1.919   7.789  0.4623  0.9208 -0.5200
 1310SOL     OW15391   1.891   0.053   9.277  0.5803  0.2117  0.6644
 1310SOL    HW115392   1.971   0.002   9.264 -2.3361 -4.1727  0.0774
 1310SOL    HW215393   1.924   0.110   9.346 -0.0301  0.1443  1.0135
 1311SOL     OW15394   2.877   0.067   4.300 -0.3954 -0.3551  0.1479
 1311SOL    HW115395   2.902   4.701   4.288  0.0946 -0.2454  0.3498
 1311SOL    HW215396   2.955   0.119   4.282 -1.2481  0.2423 -1.7907
 1312SOL     OW15397   3.139   1.094   4.511  0.1168  0.0592  0.5959
 1312SOL    HW115398   3.092   1.119   4.431  1.4242  0.2009 -0.1135
 1312SOL    HW215399   3.100   1.153   4.576  0.5958  0.2672  0.6926
 1313SOL     OW15400   0.381   3.903   4.818  0.0160  0.6953 -0.1000
 1313SOL    HW115401   0.469   3.940   4.829  1.5340 -2.6710 -0.7063
 1313SOL    HW215402   0.364   3.903   4.724  0.3997 -1.6192 -0.1733
 1314SOL     OW15403   1.882   0.184   1.145 -0.0361 -0.3451 -0.0012
 1314SOL    HW115404   1.888   0.188   1.049 -0.1288  1.5163  0.0831
 1314SOL    HW215405   1.802   0.230   1.169  0.5461  0.6899 -0.0463
 1315SOL     OW15406   2.631   3.681   7.178 -0.6338 -0.1313  0.0684
 1315SOL    HW115407   2.556   3.688   7.237  0.7665  2.5354  1.5231
 1315SOL    HW215408   2.605   3.740   7.107  1.3359  1.4973  0.6903
 1316SOL     OW15409   4.290   2.200   1.091 -0.5750  0.0557  0.5917
 1316SOL    HW115410   4.204   2.160   1.078 -0.3294 -0.2151 -0.2128
 1316SOL    HW215411   4.274   2.293   1.102 -1.8523 -0.3500  2.1478
 1317SOL     OW15412   3.856   0.500  10.510 -0.4335 -0.3340 -0.0270
 1317SOL    HW115413   3.947   0.528  10.513 -0.4067 -0.4724  0.3994
 1317SOL    HW215414   3.851   0.475  10.602 -2.3295 -3.2781 -0.9190
 1318SOL     OW15415   4.412   2.414   1.383  0.1554 -0.0644  0.1422
 1318SOL    HW115416   4.420   2.470   1.305  2.7731 -0.0324  0.4547
 1318SOL    HW215417   4.503   2.398   1.407 -0.1475  1.5850  2.4258
 1319SOL     OW15418   4.264   3.282   8.534 -0.3164 -0.0587  0.0498
 1319SOL    HW115419   4.359   3.271   8.541 -0.4122 -0.8621  0.0800
 1319SOL    HW215420   4.250   3.328   8.452  0.3385  0.9174  0.4872
 1320SOL     OW15421   1.248   0.481   5.763 -0.4270  0.1268  0.7473
 1320SOL    HW115422   1.176   0.421   5.747  0.7467 -1.4758  1.5253
 1320SOL    HW215423   1.243   0.487   5.858  4.4730 -0.7913  1.0367
 1321SOL     OW15424   1.588   3.886   3.942  0.0468 -0.2627 -0.0077
 1321SOL    HW115425   1.496   3.898   3.967  0.5828  0.9498  1.4088
 1321SOL    HW215426   1.587   3.810   3.884  0.7513  1.4333 -2.2748
 1322SOL     OW15427   3.614   0.631   7.003 -0.1034 -0.6868  0.1868
 1322SOL    HW115428   3.706   0.651   7.018 -0.4415  0.8609  0.1637
 1322SOL    HW215429   3.579   0.712   6.966 -4.1775 -2.6852 -0.3352
 1323SOL     OW15430   1.620   0.466   2.704  0.3332  0.1143 -0.2495
 1323SOL    HW115431   1.560   0.469   2.629 -2.0951 -0.5033  1.6412
 1323SOL    HW215432   1.634   0.559   2.721 -1.2399 -0.0113  1.6857
 1324SOL     OW15433   2.281   4.493   1.747  0.3450 -0.0338 -0.5177
 1324SOL    HW115434   2.353   4.470   1.806 -0.5118 -2.9317 -0.6080
 1324SOL    HW215435   2.319   4.493   1.659 -0.7007 -0.4717 -0.9697
 1325SOL     OW15436   0.211   2.393  11.971  0.0652 -0.2291  0.0285
 1325SOL    HW115437   0.250   2.311  12.000 -0.2736 -0.8296 -1.2041
 1325SOL    HW215438   0.138   2.398  12.032 -0.7776 -1.4913 -0.8904
 1326SOL     OW15439   0.453   4.068   8.542 -0.5238 -0.1309 -0.4275
 1326SOL    HW115440   0.534   4.085   8.590 -1.1898 -0.6360  0.8754
 1326SOL    HW215441   0.473   4.135   8.476  1.2158 -0.9305 -0.7233
 1327SOL     OW15442   0.040   0.228  16.708 -0.1274  0.5961 -0.1092
 1327SOL    HW115443   4.700   0.163  16.680  0.4864 -0.2076  0.3507
 1327SOL    HW215444   0.017   0.224  16.800 -2.0432  2.9089 -0.4843
 1328SOL     OW15445   4.370   2.432  16.893 -0.4211  0.1182  1.1631
 1328SOL    HW115446   4.463   2.434  16.913 -0.4937 -0.7922  1.5487
 1328SOL    HW215447   4.372   2.360  16.830 -0.2911 -0.7050  2.1218
 1329SOL     OW15448   1.191   3.425   3.008 -0.1477  0.2861 -0.3295
 1329SOL    HW115449   1.146   3.449   2.927  0.3097 -3.0930 -1.5694
 1329SOL    HW215450   1.271   3.378   2.984 -0.0632  0.9935 -1.4211
 1330SOL     OW15451   1.248   0.565   8.384  0.2256  0.3092  0.2011
 1330SOL    HW115452   1.293   0.575   8.300 -3.7868  1.7864 -1.8020
 1330SOL    HW215453   1.157   0.544   8.361 -0.0256  0.1084  1.3877
 1331SOL     OW15454   2.102   4.264  12.230  0.0848 -0.0978 -1.2158
 1331SOL    HW115455   2.106   4.352  12.193 -0.6961  0.9679  1.2010
 1331SOL    HW215456   2.192   4.251  12.259  0.3829  2.3059 -1.0753
 1332SOL     OW15457   1.349   4.107   4.801  0.7538  0.4508  0.3207
 1332SOL    HW115458   1.368   4.047   4.729  1.4544  1.1422 -0.0838
 1332SOL    HW215459   1.341   4.052   4.878  2.4128 -1.5657 -0.9417
 1333SOL     OW15460   0.910   1.169   4.755  0.2416  0.3599 -0.1192
 1333SOL    HW115461   0.939   1.179   4.846  1.2315 -1.5091 -0.2237
 1333SOL    HW215462   0.983   1.194   4.699  0.3803  1.2034  0.4386
 1334SOL     OW15463   1.762   1.038   4.673 -0.4423  0.0703  0.0662
 1334SOL    HW115464   1.832   1.072   4.728  0.2522  1.1669 -1.4879
 1334SOL    HW215465   1.816   0.994   4.607 -1.2743 -3.0557  1.4838
 1335SOL     OW15466   3.036   2.263   6.337  0.0885  0.3711 -0.1012
 1335SOL    HW115467   3.055   2.204   6.264 -0.1224 -0.0456  0.1837
 1335SOL    HW215468   3.045   2.200   6.408 -2.4492  1.4888  1.1983
 1336SOL     OW15469   3.868   4.563  14.572 -0.4333 -0.1439 -0.2083
 1336SOL    HW115470   3.814   4.541  14.648  0.6515 -0.5934  0.4406
 1336SOL    HW215471   3.927   4.626  14.613  1.1868 -0.5540 -1.9009
 1337SOL     OW15472   3.321   2.386   2.398  0.1183  0.4676  0.0714
 1337SOL    HW115473   3.346   2.359   2.487 -0.1187 -1.2894 -0.3953
 1337SOL    HW215474   3.402   2.364   2.353  0.7568  3.2731 -0.1843
 1338SOL     OW15475   4.536   1.007   2.121  0.1064 -0.1258 -0.4440
 1338SOL    HW115476   4.474   0.978   2.189  1.9909 -2.3971  0.3288
 1338SOL    HW215477   4.487   1.075   2.076 -0.2214  0.0191  0.1278
 1339SOL     OW15478   4.171   0.560   5.118  0.6547 -0.9023  0.0782
 1339SOL    HW115479   4.265   0.542   5.123  0.7508 -0.5297 -0.3408
 1339SOL    HW215480   4.172   0.656   5.125  1.4106 -0.9017  0.0082
 1340SOL     OW15481   2.772   3.353   8.296  0.3831  0.1835  0.2766
 1340SOL    HW115482   2.863   3.381   8.306  0.6360 -0.9784  1.2729
 1340SOL    HW215483   2.767   3.342   8.391  1.7048  0.9061  0.4201
 1341SOL     OW15484   0.397   2.242   5.432 -0.3638 -0.2617  0.0851
 1341SOL    HW115485   0.451   2.163   5.446  0.8592  0.5310 -0.1453
 1341SOL    HW215486   0.337   2.229   5.359  0.7802 -0.7690 -0.7580
 1342SOL     OW15487   4.416   1.348   5.488 -0.2551 -0.1696 -0.1614
 1342SOL    HW115488   4.416   1.434   5.529  0.2933  0.3364 -1.2312
 1342SOL    HW215489   4.509   1.327   5.476  0.0232  0.9328  0.1234
 1343SOL     OW15490   0.875   3.510  10.911  0.0514 -0.3721  0.0961
 1343SOL    HW115491   0.952   3.481  10.861  0.0567  0.6197 -0.4686
 1343SOL    HW215492   0.852   3.432  10.962 -2.5524 -0.1762 -0.7747
 1344SOL     OW15493   0.831   2.771   7.241 -0.3162 -0.3825  0.0373
 1344SOL    HW115494   0.914   2.810   7.268  0.3380 -0.9947 -1.0451
 1344SOL    HW215495   0.769   2.843   7.231  2.3342  2.0224  1.1354
 1345SOL     OW15496   0.022   3.060  13.465  0.1390  0.1946 -0.8855
 1345SOL    HW115497   0.084   3.098  13.403 -1.0218  1.2513 -1.3974
 1345SOL    HW215498   0.038   2.966  13.457  2.0870  0.1835  3.0955
 1346SOL     OW15499   4.436   4.425   7.974 -0.0845  0.1362  0.8281
 1346SOL    HW115500   4.412   4.482   8.046 -1.6728  1.7659 -0.9937
 1346SOL    HW215501   4.510   4.375   8.008  1.3203  1.6292 -0.0432
 1347SOL     OW15502   2.874   3.473  10.471  0.0591 -0.1535  0.1417
 1347SOL    HW115503   2.963   3.507  10.459  0.5378 -0.7098  2.0706
 1347SOL    HW215504   2.893   3.390  10.515  1.6223 -1.7409 -3.5559
 1348SOL     OW15505   4.656   0.728   2.743  0.3448  0.5820  0.6879
 1348SOL    HW115506   4.708   0.669   2.689 -1.5397  0.1092 -0.6033
 1348SOL    HW215507   4.719   0.789   2.781  2.6490 -0.6220 -1.1866
 1349SOL     OW15508   4.514   1.814   4.776 -0.0181  0.2608 -0.4904
 1349SOL    HW115509   4.542   1.759   4.849  1.5272  3.3476  1.2750
 1349SOL    HW215510   4.577   1.883   4.799 -1.0982  1.1524 -0.1825
 1350SOL     OW15511   1.551   0.033  12.414 -0.2222 -0.4466  0.1221
 1350SOL    HW115512   1.517   4.708  12.489  0.3958  0.6146  1.1130
 1350SOL    HW215513   1.642   0.040  12.443 -0.6262 -0.8363  1.5168
 1351SOL     OW15514   1.822   2.171   7.529  0.1112 -0.6196 -0.4867
 1351SOL    HW115515   1.776   2.245   7.489 -1.1633 -1.3346 -0.3419
 1351SOL    HW215516   1.765   2.150   7.603 -0.7391 -1.6560 -1.4367
 1352SOL     OW15517   4.094   3.156  11.410  0.2218  0.2052  0.3203
 1352SOL    HW115518   4.132   3.138  11.496  1.6847  2.9395  0.2411
 1352SOL    HW215519   4.162   3.212  11.372  2.3401 -0.2930  3.4153
 1353SOL     OW15520   0.015   4.093   8.524 -0.4106 -0.0041  0.2504
 1353SOL    HW115521   4.709   4.035   8.594 -2.2945 -0.8436 -1.2836
 1353SOL    HW215522   0.076   4.141   8.580 -1.1038  1.5663 -0.3450
 1354SOL     OW15523   1.065   1.670  14.406  0.0461  0.1417 -0.3941
 1354SOL    HW115524   1.019   1.751  14.386 -1.0578 -0.8833 -1.9492
 1354SOL    HW215525   1.143   1.691  14.355 -0.2798 -3.1400 -2.1623
 1355SOL     OW15526   3.563   4.184   7.304 -0.4266 -0.1225 -0.4727
 1355SOL    HW115527   3.659   4.190   7.299 -0.2307 -0.9629  2.3515
 1355SOL    HW215528   3.548   4.092   7.280  3.9929 -0.1178 -3.2860
 1356SOL     OW15529   1.197   4.140   8.399 -0.3776  0.6579 -0.5297
 1356SOL    HW115530   1.135   4.085   8.351  0.6965 -0.9367 -0.1020
 1356SOL    HW215531   1.161   4.159   8.485  1.2052 -1.0498  0.5020
 1357SOL     OW15532   3.403   1.555  14.307 -0.0569  0.1660  0.0258
 1357SOL    HW115533   3.337   1.486  14.303 -0.4359  0.4100  2.0950
 1357SOL    HW215534   3.422   1.571  14.214  1.6621 -0.6942  0.2322
 1358SOL     OW15535   1.952   2.349   5.271 -0.0525 -0.3008  0.3127
 1358SOL    HW115536   2.018   2.362   5.202  0.9490  0.2609  1.3724
 1358SOL    HW215537   1.866   2.346   5.229  0.4987  0.9330 -0.8970
 1359SOL     OW15538   1.953   1.122   6.093  0.0721  0.1761  0.1826
 1359SOL    HW115539   1.934   1.174   6.015 -1.8670  2.4331  2.1826
 1359SOL    HW215540   1.890   1.051   6.082 -0.0691 -0.0641  2.5168
 1360SOL     OW15541   4.208   0.416   4.253 -0.4448 -0.0511  0.1930
 1360SOL    HW115542   4.277   0.479   4.275  0.8164 -1.6384  0.7473
 1360SOL    HW215543   4.154   0.426   4.331  0.7474  0.8581  0.9074
 1361SOL     OW15544   1.350   0.098   8.279 -0.5031  0.3601  0.2156
 1361SOL    HW115545   1.272   0.138   8.318  0.0870  0.0909  1.6835
 1361SOL    HW215546   1.391   0.078   8.364  2.6846 -1.6448 -1.7884
 1362SOL     OW15547   2.260   4.670   5.787  0.5635 -0.1455  0.2868
 1362SOL    HW115548   2.236   4.589   5.831 -0.4926  0.9543  1.7634
 1362SOL    HW215549   2.178   4.682   5.738 -1.3634  1.1029  3.8062
 1363SOL     OW15550   0.770   0.671   8.207 -0.7256 -0.1593  0.2361
 1363SOL    HW115551   0.730   0.584   8.207 -3.3812  1.0530 -0.5451
 1363SOL    HW215552   0.821   0.667   8.126  0.5537  2.6265  0.9198
 1364SOL     OW15553   1.884   2.185  13.996 -0.1748  0.0133 -0.0259
 1364SOL    HW115554   1.894   2.094  13.968  1.1456  0.0763  0.2048
 1364SOL    HW215555   1.918   2.228  13.918 -0.4532  1.2363  0.5234
 1365SOL     OW15556   4.234   0.160   5.033  0.3594  0.0438 -0.2719
 1365SOL    HW115557   4.230   0.096   4.961  1.0749 -0.6211  0.2779
 1365SOL    HW215558   4.324   0.147   5.063  1.0935 -0.5391 -2.6603
 1366SOL     OW15559   2.815   3.825   7.513 -0.0753  0.3759 -0.2953
 1366SOL    HW115560   2.727   3.799   7.540  1.5842 -3.4501  1.4894
 1366SOL    HW215561   2.816   3.919   7.529  0.4174  0.5422 -1.2966
 1367SOL     OW15562   4.524   0.767   9.998  0.0769 -0.2315 -0.2446
 1367SOL    HW115563   4.582   0.765  10.074 -2.8646  1.2917  2.0490
 1367SOL    HW215564   4.572   0.821   9.935  0.3325 -0.3250 -0.1269
 1368SOL     OW15565   3.383   2.223  12.693 -0.1884 -0.3744 -0.5373
 1368SOL    HW115566   3.470   2.254  12.719  0.1663 -1.7958 -0.0255
 1368SOL    HW215567   3.329   2.258  12.763 -1.0682 -4.5396  0.8182
 1369SOL     OW15568   3.557   0.455   6.462  0.4663 -0.0133 -0.1241
 1369SOL    HW115569   3.591   0.372   6.431 -0.8427 -0.3408 -0.7007
 1369SOL    HW215570   3.613   0.475   6.537 -0.5106 -0.0471  0.6150
 1370SOL     OW15571   1.258   1.713   4.028 -0.7111 -0.6109  0.2643
 1370SOL    HW115572   1.318   1.662   3.974  2.2403  3.6643 -0.5667
 1370SOL    HW215573   1.245   1.652   4.100  0.0635  0.5273  1.3718
 1371SOL     OW15574   3.364   1.861   7.682 -0.3370 -0.2680 -0.3594
 1371SOL    HW115575   3.370   1.950   7.648 -1.9583  0.0705  0.2454
 1371SOL    HW215576   3.366   1.881   7.776  3.3451 -2.1512 -0.0214
 1372SOL     OW15577   0.238   4.325  14.443  0.4007  0.5403  0.0663
 1372SOL    HW115578   0.173   4.373  14.391 -0.9839 -0.4277  0.9121
 1372SOL    HW215579   0.319   4.327  14.392  0.5937 -0.7033  0.3468
 1373SOL     OW15580   0.189   2.123   5.295 -0.1002 -0.1541 -0.1607
 1373SOL    HW115581   0.142   2.057   5.346 -1.2960 -1.0575 -2.3964
 1373SOL    HW215582   0.119   2.182   5.269  0.3106  0.2252 -0.4086
 1374SOL     OW15583   3.603   2.316   8.056  0.0591  0.0446  0.1979
 1374SOL    HW115584   3.535   2.333   7.990  2.0782 -0.5208 -2.0627
 1374SOL    HW215585   3.596   2.396   8.108 -0.5429  0.7905 -1.0033
 1375SOL     OW15586   1.613   1.551   5.317 -0.0404 -0.4346 -0.6569
 1375SOL    HW115587   1.694   1.502   5.304  1.6555  2.3495 -0.4788
 1375SOL    HW215588   1.642   1.613   5.384 -2.1183 -0.8735  0.6631
 1376SOL     OW15589   3.768   0.248   5.214 -0.7175 -0.3178  0.3869
 1376SOL    HW115590   3.850   0.269   5.169  0.0888 -0.8929  1.5975
 1376SOL    HW215591   3.718   0.322   5.180  2.0373  0.0717 -2.8425
 1377SOL     OW15592   0.377   1.135   8.045 -0.1641  0.3732 -0.9176
 1377SOL    HW115593   0.451   1.192   8.024  1.1208 -0.9015  0.1636
 1377SOL    HW215594   0.301   1.180   8.007 -0.9506  0.7414  1.1263
 1378SOL     OW15595   4.583   0.723  10.629 -0.1929  0.1581  0.6064
 1378SOL    HW115596   4.516   0.779  10.589  0.0083  0.7479  1.0796
 1378SOL    HW215597   4.630   0.785  10.685  1.4082 -0.3432 -0.1834
 1379SOL     OW15598   3.359   4.474  15.290  0.6049 -0.0154  0.3645
 1379SOL    HW115599   3.283   4.462  15.347  0.0261 -1.2733 -0.6761
 1379SOL    HW215600   3.388   4.384  15.279  1.2122  0.7038 -4.0508
 1380SOL     OW15601   4.088   0.302  12.801 -0.0511 -0.0473 -0.0516
 1380SOL    HW115602   4.043   0.350  12.871 -0.0385  2.4598 -1.7635
 1380SOL    HW215603   4.088   0.220  12.850  2.3210  0.3058  0.5536
 1381SOL     OW15604   3.093   3.510   5.970 -0.0433  0.0197 -1.1292
 1381SOL    HW115605   3.007   3.499   6.010 -0.1067 -1.9556 -1.8175
 1381SOL    HW215606   3.078   3.515   5.876 -2.2382 -1.2230 -0.8356
 1382SOL     OW15607   1.565   3.277  13.952  0.0084 -0.0671 -0.1892
 1382SOL    HW115608   1.612   3.235  13.880  1.6864  0.0692  0.8431
 1382SOL    HW215609   1.515   3.199  13.976  0.9464 -1.0387 -1.4089
 1383SOL     OW15610   0.141   3.238   2.493  0.1961  0.2038  0.3034
 1383SOL    HW115611   0.184   3.169   2.444 -0.1191 -1.1017  1.8639
 1383SOL    HW215612   0.066   3.181   2.509  0.0795 -0.2023 -1.7725
 1384SOL     OW15613   1.598   1.431   3.049 -0.0009 -0.5273 -0.1753
 1384SOL    HW115614   1.691   1.451   3.053 -0.5010  2.0590 -1.8165
 1384SOL    HW215615   1.595   1.353   2.994  1.6194  0.0718 -1.0936
 1385SOL     OW15616   2.947   4.509  10.998  0.0343 -0.4529 -0.5790
 1385SOL    HW115617   2.853   4.492  10.985 -0.5384  1.7782  0.6343
 1385SOL    HW215618   2.937   4.541  11.087  0.5534 -0.2929 -0.5817
 1386SOL     OW15619   2.535   2.899   3.498 -0.4477  0.1105  0.3614
 1386SOL    HW115620   2.562   2.948   3.420  0.7114 -2.3680 -0.8012
 1386SOL    HW215621   2.615   2.904   3.551 -0.4170  1.3906  0.1913
 1387SOL     OW15622   2.108   0.974  14.790 -0.4971  0.0603 -0.3253
 1387SOL    HW115623   2.040   0.918  14.753 -1.8128 -0.5315  2.9747
 1387SOL    HW215624   2.059   1.056  14.798  2.1748  1.7427 -1.2883
 1388SOL     OW15625   1.784   1.907   2.646  0.2633 -0.1894 -0.2217
 1388SOL    HW115626   1.822   1.985   2.605 -1.9465  0.7096 -0.5590
 1388SOL    HW215627   1.846   1.856   2.697 -0.4124  1.5533  2.3362
 1389SOL     OW15628   3.335   3.724   6.231 -0.0998  0.0823 -0.1278
 1389SOL    HW115629   3.355   3.630   6.227  1.7276  0.5232 -1.7454
 1389SOL    HW215630   3.282   3.735   6.152 -1.2526  1.4713  0.8628
 1390SOL     OW15631   2.166   4.351   2.373  0.1051  0.2057 -0.7002
 1390SOL    HW115632   2.212   4.337   2.290 -1.2381  1.1518 -1.6187
 1390SOL    HW215633   2.204   4.277   2.420  1.7430  1.2616 -0.3797
 1391SOL     OW15634   3.942   1.910   2.365  0.5788 -0.3462 -0.8665
 1391SOL    HW115635   3.903   1.929   2.450 -1.0313  0.7476 -1.8479
 1391SOL    HW215636   3.931   1.993   2.318  1.7174  0.9257  1.0955
 1392SOL     OW15637   0.079   1.423  13.713 -0.5318  0.3128  0.0004
 1392SOL    HW115638   4.719   1.380  13.704  0.2724 -1.3957  0.4945
 1392SOL    HW215639   0.094   1.420  13.807 -0.4145 -1.5502 -0.0655
 1393SOL     OW15640   3.895   2.951  13.732  0.6423  0.1052 -0.0737
 1393SOL    HW115641   3.936   3.035  13.753 -2.0621  1.2330  0.7562
 1393SOL    HW215642   3.966   2.887  13.737 -0.8699 -1.4960  0.7421
 1394SOL     OW15643   3.273   2.059   2.531  0.4789 -0.1249  0.1143
 1394SOL    HW115644   3.197   2.013   2.566  1.3995 -1.6897  0.0497
 1394SOL    HW215645   3.346   2.011   2.572 -0.7078 -1.1228  1.0632
 1395SOL     OW15646   1.160   0.922   8.228  0.1094 -0.3691 -0.3233
 1395SOL    HW115647   1.182   0.963   8.144 -1.7417 -0.1848 -0.7060
 1395SOL    HW215648   1.246   0.887   8.254  0.2222 -0.8363 -1.3092
 1396SOL     OW15649   2.985   4.538   4.232  0.3584  0.3927  0.3604
 1396SOL    HW115650   2.930   4.461   4.244  0.4467  0.3350  0.4002
 1396SOL    HW215651   2.995   4.526   4.137 -0.4773  0.0195  0.3272
 1397SOL     OW15652   1.408   0.110   8.991  0.0201  0.4607 -0.4075
 1397SOL    HW115653   1.463   0.160   9.052  2.2538 -0.0391 -2.0170
 1397SOL    HW215654   1.320   0.141   9.011 -0.2300  0.0409 -0.8652
 1398SOL     OW15655   1.729   1.898   4.256  0.3776  0.4083 -0.6472
 1398SOL    HW115656   1.778   1.853   4.187 -0.9788 -1.9146 -0.0822
 1398SOL    HW215657   1.639   1.883   4.227 -1.0417  2.2043  2.8080
 1399SOL     OW15658   0.380   0.882   6.719  0.0384  0.0958 -0.5019
 1399SOL    HW115659   0.315   0.926   6.773  0.6518 -1.9198  1.8859
 1399SOL    HW215660   0.359   0.797   6.757  1.9156  0.5395  1.5155
 1400SOL     OW15661   2.409   3.737   3.300  0.5081 -0.0749 -0.1355
 1400SOL    HW115662   2.499   3.771   3.305  1.2127 -2.1361  0.9722
 1400SOL    HW215663   2.390   3.712   3.390  1.1156  0.8144  0.2492
 1401SOL     OW15664   0.706   3.777   0.182  0.4773  0.0258 -0.2950
 1401SOL    HW115665   0.765   3.820   0.244  1.2041 -1.0368 -0.2498
 1401SOL    HW215666   0.636   3.842   0.178 -0.0848 -0.5451  0.0524
 1402SOL     OW15667   2.724   3.978  17.492 -0.1638 -0.8016  0.0086
 1402SOL    HW115668   2.722   3.892  17.535  1.1466 -0.8684 -0.0529
 1402SOL    HW215669   2.672   3.955  17.415  0.0048 -0.6330 -0.1540
 1403SOL     OW15670   2.325   2.045   9.788  0.3364 -0.2601  0.1769
 1403SOL    HW115671   2.236   2.081   9.794  0.0851 -1.0524  1.1731
 1403SOL    HW215672   2.382   2.118   9.810 -0.9922  0.6923  0.4827
 1404SOL     OW15673   3.120   0.322   2.773  0.2115  0.6352  0.0424
 1404SOL    HW115674   3.049   0.381   2.748  0.8148  1.3688  0.0792
 1404SOL    HW215675   3.081   0.235   2.780  1.6156  0.0557  0.7713
 1405SOL     OW15676   4.534   0.636   0.212 -0.2851 -0.1525  0.4052
 1405SOL    HW115677   4.467   0.678   0.158 -1.5614 -1.2756  1.1041
 1405SOL    HW215678   4.504   0.549   0.186 -0.8353  0.0375  0.3941
 1406SOL     OW15679   4.071   3.864   5.251 -0.6196  0.1442  0.2050
 1406SOL    HW115680   4.150   3.828   5.291  0.2153 -0.1358 -1.7275
 1406SOL    HW215681   4.064   3.937   5.313  0.6173 -0.8201  1.4929
 1407SOL     OW15682   2.027   4.708   3.596  0.2415 -0.1647  0.4427
 1407SOL    HW115683   2.053   0.036   3.671  0.3362 -1.3499  1.2508
 1407SOL    HW215684   2.105   4.660   3.569 -0.4917  0.0254 -2.0223
 1408SOL     OW15685   2.948   2.355   8.085  0.5773  0.2335  0.0672
 1408SOL    HW115686   2.980   2.355   7.995  0.9297 -1.0246  0.1801
 1408SOL    HW215687   3.020   2.407   8.121  2.5012  0.4257 -4.0608
 1409SOL     OW15688   2.209   2.082   8.932  0.1574  0.0761  1.1506
 1409SOL    HW115689   2.294   2.038   8.926  0.8363  1.3586  1.2767
 1409SOL    HW215690   2.151   2.020   8.888  0.7062  1.9093 -2.1728
 1410SOL     OW15691   1.085   2.191   3.775  0.7649  0.1987 -0.2119
 1410SOL    HW115692   1.063   2.098   3.784 -1.7636  0.8760  0.7537
 1410SOL    HW215693   1.017   2.215   3.712  0.1619 -1.9476 -0.3696
 1411SOL     OW15694   4.227   1.133  10.737  0.3154 -0.8490  0.3560
 1411SOL    HW115695   4.309   1.178  10.755 -1.1345  1.1013  1.9892
 1411SOL    HW215696   4.203   1.100  10.823 -0.7193  1.2192  0.8621
 1412SOL     OW15697   3.553   3.518   8.833  0.4056 -0.2471 -0.6231
 1412SOL    HW115698   3.500   3.486   8.907 -0.3934 -2.7942 -2.3077
 1412SOL    HW215699   3.602   3.442   8.802 -1.8041 -2.4265  1.1876
 1413SOL     OW15700   2.121   0.045  11.741  0.2795 -0.0465  0.3096
 1413SOL    HW115701   2.138   0.086  11.657 -0.0291  0.6703  0.6027
 1413SOL    HW215702   2.206   0.016  11.775  0.6276  1.1962  0.4906
 1414SOL     OW15703   0.061   0.592   3.615  0.1503 -0.0446  0.0235
 1414SOL    HW115704   0.016   0.520   3.571 -1.6399  0.2098  1.4264
 1414SOL    HW215705   0.114   0.620   3.540 -3.1815  2.7630 -1.2692
 1415SOL     OW15706   0.234   4.295   5.951  0.4727 -0.5125  0.2058
 1415SOL    HW115707   0.156   4.350   5.959  0.4864 -0.2045 -1.7621
 1415SOL    HW215708   0.262   4.295   6.042 -1.1419  1.6081  0.7003
 1416SOL     OW15709   1.580   2.964   4.173  0.2219  0.3124 -0.7591
 1416SOL    HW115710   1.529   2.985   4.252  0.7539  0.4876 -0.4602
 1416SOL    HW215711   1.571   2.869   4.177  1.9127  0.2276  0.7418
 1417SOL     OW15712   3.366   0.621   6.584  0.6937 -0.0738  0.2738
 1417SOL    HW115713   3.438   0.560   6.568  1.0165 -0.0802  1.7443
 1417SOL    HW215714   3.340   0.589   6.670 -0.9869  1.7023  0.4408
 1418SOL     OW15715   0.434   4.490  10.818 -0.4257 -0.8832  0.3770
 1418SOL    HW115716   0.434   4.586  10.818 -0.1977 -0.8841  1.3137
 1418SOL    HW215717   0.524   4.466  10.796 -0.4518  0.3393 -1.0776
 1419SOL     OW15718   4.114   1.933   6.135  0.2106 -0.5199  0.3506
 1419SOL    HW115719   4.169   1.862   6.104 -0.5249  0.1172 -2.4417
 1419SOL    HW215720   4.036   1.912   6.083 -0.1021 -2.2110  1.5215
 1420SOL     OW15721   0.685   4.464   4.870 -0.2338 -0.4585  0.5572
 1420SOL    HW115722   0.690   4.539   4.810  1.5770 -0.1113  1.1403
 1420SOL    HW215723   0.623   4.406   4.825 -0.7986  1.4718 -1.1627
 1421SOL     OW15724   0.939   2.288   3.541  0.2431 -0.6183  0.7160
 1421SOL    HW115725   0.887   2.208   3.531 -0.0933 -0.4021  0.7732
 1421SOL    HW215726   0.870   2.353   3.546  0.1990 -0.7860  2.3098
 1422SOL     OW15727   3.630   2.578   8.138 -0.2657 -0.2034 -0.0481
 1422SOL    HW115728   3.651   2.634   8.063 -2.5626  1.2766  0.4037
 1422SOL    HW215729   3.622   2.639   8.211  1.4515  0.1174 -0.1206
 1423SOL     OW15730   0.926   3.606   7.439 -0.5285 -0.1345  0.4504
 1423SOL    HW115731   0.922   3.510   7.442  1.1135 -0.2176 -0.2028
 1423SOL    HW215732   0.995   3.618   7.373 -0.0960 -2.5696  0.4574
 1424SOL     OW15733   2.268   0.684  16.470 -0.1362  0.3715 -0.0274
 1424SOL    HW115734   2.317   0.763  16.492 -1.0854  1.5197 -1.9772
 1424SOL    HW215735   2.312   0.618  16.522 -2.2440 -1.0451 -0.0173
 1425SOL     OW15736   4.127   3.158   8.757 -0.6801  0.0428  0.6362
 1425SOL    HW115737   4.156   3.210   8.682 -0.5654 -1.5402 -0.4368
 1425SOL    HW215738   4.204   3.171   8.811  0.2232  0.9429 -0.8762
 1426SOL     OW15739   1.227   2.773   8.779  0.0373  0.4155 -0.4788
 1426SOL    HW115740   1.188   2.827   8.711 -0.6123  2.0021  1.1661
 1426SOL    HW215741   1.182   2.799   8.860  0.6162 -0.8856  0.2611
 1427SOL     OW15742   0.013   0.574   4.026  0.0413 -0.4770 -0.3106
 1427SOL    HW115743   0.043   0.640   3.964 -0.2908  0.6990  0.8031
 1427SOL    HW215744   4.669   0.624   4.070  0.8147 -0.7383  1.1886
 1428SOL     OW15745   0.244   3.781   2.132 -0.2006 -0.1411  0.3142
 1428SOL    HW115746   0.160   3.812   2.097  0.4217  0.3131 -0.7850
 1428SOL    HW215747   0.228   3.797   2.225 -3.4236 -1.8664  0.0819
 1429SOL     OW15748   1.414   4.356  13.071 -0.2277 -0.2957  0.2896
 1429SOL    HW115749   1.403   4.298  12.995  1.4817 -0.7623  0.3974
 1429SOL    HW215750   1.393   4.438  13.026 -1.9484  0.2108  2.0075
 1430SOL     OW15751   3.562   4.277   9.490 -0.1558 -0.1290  0.3813
 1430SOL    HW115752   3.546   4.361   9.534 -0.1798  0.1891 -0.2201
 1430SOL    HW215753   3.474   4.242   9.503 -0.6630  1.2659  0.7103
 1431SOL     OW15754   1.548   1.908   5.972 -0.1578  0.1238  0.0858
 1431SOL    HW115755   1.529   1.975   5.905  0.2640 -0.0925 -0.2479
 1431SOL    HW215756   1.485   1.839   5.953 -0.1110 -0.0254  0.4874
 1432SOL     OW15757   3.375   2.466  14.211 -0.1851  0.3928 -0.2337
 1432SOL    HW115758   3.398   2.503  14.125 -2.3003 -2.6296 -2.1004
 1432SOL    HW215759   3.306   2.406  14.180 -0.5413  0.9806 -0.5830
 1433SOL     OW15760   0.894   1.365   8.944 -0.4318  0.7463  0.0816
 1433SOL    HW115761   0.891   1.457   8.918 -2.2775  1.0022  1.1229
 1433SOL    HW215762   0.988   1.359   8.961 -0.3521  0.3492 -0.5501
 1434SOL     OW15763   2.128   0.037   4.576  0.0356  0.9402  0.5313
 1434SOL    HW115764   2.047   0.050   4.626  1.1878  0.3053  2.5345
 1434SOL    HW215765   2.108   0.060   4.485 -1.5828  2.1355  1.1852
 1435SOL     OW15766   0.364   3.372   3.264 -0.1837  0.2085 -0.0181
 1435SOL    HW115767   0.310   3.297   3.287  0.3197 -0.7558 -1.9611
 1435SOL    HW215768   0.301   3.444   3.263 -0.9300 -0.4473 -0.1568
 1436SOL     OW15769   0.826   3.151  12.364 -0.2310 -0.1424 -0.0634
 1436SOL    HW115770   0.829   3.235  12.318 -1.3003 -1.3716 -2.3405
 1436SOL    HW215771   0.759   3.168  12.431  1.1033  0.1032  1.2188
 1437SOL     OW15772   2.503   0.770   4.071 -0.0605  0.0520 -0.1571
 1437SOL    HW115773   2.487   0.826   4.147  0.8059  2.0746 -1.4726
 1437SOL    HW215774   2.512   0.831   3.999  0.5288  0.9807  0.7012
 1438SOL     OW15775   1.078   1.644  12.481 -0.0516  0.0249 -0.4040
 1438SOL    HW115776   1.134   1.651  12.558  0.0319 -1.6347 -0.3276
 1438SOL    HW215777   0.993   1.672  12.515 -0.6601  1.9261 -3.4159
 1439SOL     OW15778   2.825   2.411   5.899 -0.4636  0.6024 -0.0008
 1439SOL    HW115779   2.815   2.316   5.898 -1.0579  0.6683 -0.1978
 1439SOL    HW215780   2.881   2.426   5.823 -1.3856  1.3364 -0.5389
 1440SOL     OW15781   0.880   1.378   5.651 -0.1735 -0.4200 -0.2066
 1440SOL    HW115782   0.939   1.345   5.584  1.0964  0.2389  0.5793
 1440SOL    HW215783   0.920   1.350   5.734  1.0120  1.5234 -0.1322
 1441SOL     OW15784   1.265   3.684   3.348  0.3792 -0.1836  0.4267
 1441SOL    HW115785   1.275   3.684   3.253  2.3003  2.4549  0.5954
 1441SOL    HW215786   1.246   3.777   3.362  0.3230 -0.2526  0.8094
 1442SOL     OW15787   1.422   0.082   7.130 -0.2081 -0.0523 -0.0747
 1442SOL    HW115788   1.387   0.168   7.152 -0.4849 -0.0189 -0.6520
 1442SOL    HW215789   1.403   0.033   7.211  1.3456 -1.4064 -0.5283
 1443SOL     OW15790   4.098   3.332  10.195 -0.1444  0.1072 -0.2224
 1443SOL    HW115791   4.074   3.356  10.284  0.3526 -0.5230  0.0828
 1443SOL    HW215792   4.193   3.344  10.196 -0.1488 -0.0765  1.9582
 1444SOL     OW15793   2.903   0.711   2.776 -0.4510 -0.4098  0.0622
 1444SOL    HW115794   2.841   0.752   2.835 -2.5166 -1.4458 -1.4005
 1444SOL    HW215795   2.991   0.719   2.813  0.4444  0.4108 -2.2139
 1445SOL     OW15796   0.817   1.364   7.353 -0.6660 -0.0674 -0.0891
 1445SOL    HW115797   0.848   1.310   7.426 -1.1815  1.1155  0.9940
 1445SOL    HW215798   0.900   1.401   7.322 -2.2317  1.6519 -2.2412
 1446SOL     OW15799   4.569   3.520   1.485  0.7120  0.0465 -0.1796
 1446SOL    HW115800   4.624   3.524   1.563 -0.1649 -2.4090  0.5694
 1446SOL    HW215801   4.567   3.428   1.458 -2.2242  0.3594 -0.9782
 1447SOL     OW15802   3.578   1.687   8.104 -0.4537  0.3252  0.1362
 1447SOL    HW115803   3.670   1.679   8.080 -0.2549  1.6925  0.4539
 1447SOL    HW215804   3.591   1.724   8.191  0.5110  0.6695 -0.1570
 1448SOL     OW15805   0.897   4.457   8.886  0.0539 -0.0413 -0.5783
 1448SOL    HW115806   0.950   4.417   8.955 -1.3713  0.4941  0.8153
 1448SOL    HW215807   0.854   4.378   8.853 -0.3383 -0.0928  0.0604
 1449SOL     OW15808   3.367   0.531  15.900 -0.4008 -0.1282 -0.5499
 1449SOL    HW115809   3.414   0.489  15.828  0.7258 -1.9731  1.2746
 1449SOL    HW215810   3.312   0.462  15.938  0.6263 -0.8081 -0.3145
 1450SOL     OW15811   3.906   2.110   6.641  0.6521 -0.0462  0.1730
 1450SOL    HW115812   3.899   2.191   6.590 -0.0266  1.6014  2.8808
 1450SOL    HW215813   3.933   2.158   6.719  0.0705 -1.5809  1.2962
 1451SOL     OW15814   0.860   3.532   3.225  0.5309 -0.1794  0.0725
 1451SOL    HW115815   0.914   3.457   3.203  0.5879 -0.7777  2.2338
 1451SOL    HW215816   0.776   3.486   3.233  1.1858 -1.3066  0.4193
 1452SOL     OW15817   4.427   3.839   3.076 -0.7572 -0.4514 -0.2190
 1452SOL    HW115818   4.352   3.782   3.057  0.8171 -2.8369  0.8516
 1452SOL    HW215819   4.392   3.913   3.026  2.0059  2.2171  1.8118
 1453SOL     OW15820   3.538   0.585  16.407 -0.6779  0.0658 -0.0513
 1453SOL    HW115821   3.531   0.616  16.317 -2.7927  0.6107  0.2934
 1453SOL    HW215822   3.473   0.636  16.455 -1.4056  0.9053 -1.9327
 1454SOL     OW15823   0.719   3.675   7.614  0.3505 -0.1420 -0.1942
 1454SOL    HW115824   0.751   3.631   7.536  0.7118  0.5804 -0.4539
 1454SOL    HW215825   0.638   3.704   7.573 -1.1616 -1.1363  2.0467
 1455SOL     OW15826   4.158   0.649  10.940  0.1176 -0.0038 -0.5184
 1455SOL    HW115827   4.212   0.602  10.876 -2.3617 -2.0616 -1.0973
 1455SOL    HW215828   4.221   0.707  10.983 -0.5792 -0.2834  0.8705
 1456SOL     OW15829   4.256   3.065   2.392 -0.4603 -0.0674 -0.8392
 1456SOL    HW115830   4.202   3.115   2.331 -1.2271  0.9619  0.6838
 1456SOL    HW215831   4.238   2.974   2.367 -0.6738 -0.5396  1.0156
 1457SOL     OW15832   4.152   2.073   6.361  0.4143 -0.2557 -0.4056
 1457SOL    HW115833   4.131   2.040   6.274  0.7611 -1.6751  0.0451
 1457SOL    HW215834   4.247   2.079   6.356  0.4119  1.7157  1.5744
 1458SOL     OW15835   2.123   0.164  15.375  0.0287 -0.0289 -0.2205
 1458SOL    HW115836   2.043   0.212  15.351 -0.3753 -0.0307  1.1289
 1458SOL    HW215837   2.099   0.075  15.351 -0.2525 -0.1114  0.3610
 1459SOL     OW15838   0.502   0.112   3.063  0.3268  0.1261 -0.0878
 1459SOL    HW115839   0.427   0.126   3.005 -0.6106 -3.3598  0.2521
 1459SOL    HW215840   0.480   0.022   3.087 -0.6296  0.5804  0.7017
 1460SOL     OW15841   0.751   2.024   9.467  0.4499 -0.0098 -0.6226
 1460SOL    HW115842   0.695   1.947   9.462  2.4209 -1.6545  2.3836
 1460SOL    HW215843   0.736   2.066   9.552  1.3650  2.9093 -1.8800
 1461SOL     OW15844   0.726   0.467   5.166  0.8065 -0.0200 -0.1804
 1461SOL    HW115845   0.697   0.386   5.207  1.9769  0.1758  1.0740
 1461SOL    HW215846   0.726   0.536   5.233  0.2800  0.8868 -1.1226
 1462SOL     OW15847   3.393   2.806   5.700 -0.1946 -0.4414  0.9846
 1462SOL    HW115848   3.327   2.870   5.729 -1.8918 -2.2958  1.2444
 1462SOL    HW215849   3.417   2.827   5.610 -1.2469  2.8347  1.4374
 1463SOL     OW15850   3.032   2.451  15.275  0.1445  0.0969  0.1607
 1463SOL    HW115851   3.048   2.426  15.184  0.1409 -1.1768  0.5208
 1463SOL    HW215852   3.104   2.511  15.293  0.1754 -0.2160  1.0939
 1464SOL     OW15853   0.008   2.256   2.256  0.7119  0.1613  0.7774
 1464SOL    HW115854   0.086   2.298   2.291  1.3256  0.6310 -1.1289
 1464SOL    HW215855   4.687   2.333   2.225 -1.1147 -0.7557  1.2412
 1465SOL     OW15856   0.309   4.250  13.296  0.1974  0.5666  0.0856
 1465SOL    HW115857   0.365   4.220  13.224  0.5655  2.1259 -0.2859
 1465SOL    HW215858   0.323   4.177  13.356  2.4776  0.8551 -0.0900
 1466SOL     OW15859   3.778   3.489   1.388 -0.4381 -0.3945  0.0471
 1466SOL    HW115860   3.712   3.502   1.456  1.4140  2.5452  1.2986
 1466SOL    HW215861   3.849   3.546   1.419 -0.6610 -0.4239  0.6083
 1467SOL     OW15862   3.928   0.901   6.506 -0.2202  0.5536  0.6656
 1467SOL    HW115863   4.016   0.919   6.474 -0.1917  1.0137  1.0101
 1467SOL    HW215864   3.939   0.879   6.598 -0.7034 -0.5529  0.4608
 1468SOL     OW15865   0.699   1.340   4.743  0.1997 -0.5086  0.0711
 1468SOL    HW115866   0.645   1.277   4.789 -1.7801  1.1084 -0.0779
 1468SOL    HW215867   0.773   1.283   4.718 -0.5715 -1.0119 -1.0469
 1469SOL     OW15868   3.343   2.816   9.691 -0.1184  0.3039  0.2958
 1469SOL    HW115869   3.374   2.728   9.667 -1.8491 -0.3093  0.3042
 1469SOL    HW215870   3.288   2.799   9.768 -1.7986 -1.1078 -1.2184
 1470SOL     OW15871   2.416   4.398   3.085 -0.2154 -0.8238  0.1900
 1470SOL    HW115872   2.396   4.474   3.030  1.0307 -0.8412 -0.2890
 1470SOL    HW215873   2.331   4.379   3.126 -0.2642  0.6041  0.7510
 1471SOL     OW15874   0.594   1.531   8.149 -0.7337  0.3005  0.3065
 1471SOL    HW115875   0.662   1.521   8.216 -1.2441 -0.4967  0.7059
 1471SOL    HW215876   0.615   1.605   8.093 -0.2576 -1.1204 -1.4082
 1472SOL     OW15877   2.095   0.183  17.096  0.2141 -0.9773  0.3661
 1472SOL    HW115878   2.054   0.155  17.014  0.5669  1.3632 -0.6021
 1472SOL    HW215879   2.018   0.173  17.153  1.8605 -1.8514  2.4692
 1473SOL     OW15880   1.428   4.315   1.194  0.8841  0.0441  0.4387
 1473SOL    HW115881   1.505   4.353   1.237  0.2177  1.2331  0.5611
 1473SOL    HW215882   1.445   4.335   1.102 -0.8574 -0.5298 -0.0099
 1474SOL     OW15883   2.745   4.085   3.735  0.5350 -0.0516  0.0784
 1474SOL    HW115884   2.787   4.129   3.809  1.5620  1.9375 -1.6954
 1474SOL    HW215885   2.694   4.017   3.778  0.8299 -0.3550 -0.0486
 1475SOL     OW15886   3.800   3.309  15.280 -0.4792  0.4209  0.5494
 1475SOL    HW115887   3.821   3.362  15.357  1.7262  0.4543 -0.0698
 1475SOL    HW215888   3.784   3.221  15.313 -1.5911  0.7211  0.8066
 1476SOL     OW15889   3.363   1.172   5.589  0.9488 -0.0471  0.6451
 1476SOL    HW115890   3.390   1.139   5.504 -0.1286  1.7059 -0.3689
 1476SOL    HW215891   3.392   1.104   5.651 -0.6913 -0.8215  0.5628
 1477SOL     OW15892   1.080   0.204   4.291 -0.2570 -0.4018  0.1795
 1477SOL    HW115893   1.062   0.181   4.382  0.8339 -0.7277  0.3142
 1477SOL    HW215894   1.161   0.252   4.305 -0.5333  0.8000 -2.3622
 1478SOL     OW15895   1.956   2.871   9.937  0.2542  0.2943  0.2063
 1478SOL    HW115896   2.012   2.807   9.981 -0.3637  2.3084  3.9582
 1478SOL    HW215897   1.993   2.881   9.850  2.6577  2.7772  1.5131
 1479SOL     OW15898   2.694   3.898   4.969  0.4411  0.2572  0.2870
 1479SOL    HW115899   2.723   3.978   5.013 -0.5770  0.3576  0.7916
 1479SOL    HW215900   2.600   3.907   4.951  0.5650 -0.7997 -0.8731
 1480SOL     OW15901   0.974   3.820   0.932  0.5109  0.1539  0.0424
 1480SOL    HW115902   0.906   3.828   0.999 -0.3123 -3.0561 -0.3808
 1480SOL    HW215903   1.045   3.871   0.971  0.2678  1.4983 -1.2525
 1481SOL     OW15904   3.275   4.618   6.327 -0.0325  0.1200 -0.7300
 1481SOL    HW115905   3.255   4.564   6.403 -3.1208  0.7600 -1.0804
 1481SOL    HW215906   3.313   4.552   6.270  0.9937 -0.9049  1.1434
 1482SOL     OW15907   2.093   2.473   0.520  0.2723  0.5088 -0.1185
 1482SOL    HW115908   2.067   2.560   0.549 -3.1880 -1.2599  2.1593
 1482SOL    HW215909   2.187   2.469   0.537 -0.0726 -2.1002  1.1591
 1483SOL     OW15910   0.805   3.034   3.004 -0.1847 -0.5053  0.1734
 1483SOL    HW115911   0.859   2.957   3.022  0.8412  0.1922  0.0492
 1483SOL    HW215912   0.869   3.098   2.973 -1.8939  0.0597 -2.1884
 1484SOL     OW15913   0.793   2.200  11.845  0.4205  0.1785  0.5240
 1484SOL    HW115914   0.752   2.257  11.911 -0.8338  1.3319 -1.2492
 1484SOL    HW215915   0.731   2.213  11.773 -1.2714 -4.9203  1.0742
 1485SOL     OW15916   1.704   4.478   7.957  0.3398 -0.3970 -0.6580
 1485SOL    HW115917   1.644   4.405   7.940 -0.8438  0.7280 -1.2995
 1485SOL    HW215918   1.777   4.417   7.971 -0.6183 -1.6355 -0.9938
 1486SOL     OW15919   4.039   1.157   3.757  0.1497 -0.0289 -0.1295
 1486SOL    HW115920   4.071   1.101   3.828 -1.2628 -2.0144 -1.0461
 1486SOL    HW215921   3.993   1.221   3.812  0.9766  1.0835 -0.7300
 1487SOL     OW15922   4.574   4.633   6.604  0.1203  0.3579 -0.2854
 1487SOL    HW115923   4.647   4.626   6.543  1.0358 -0.4513  0.9014
 1487SOL    HW215924   4.599   4.708   6.657  0.6643 -0.0442  0.0245
 1488SOL     OW15925   2.697   0.088  11.872  0.1510 -0.2393  0.3051
 1488SOL    HW115926   2.768   0.090  11.936 -0.2850  1.7828  0.7286
 1488SOL    HW215927   2.677   0.181  11.878  1.2988 -0.1154  2.2148
 1489SOL     OW15928   2.402   1.748   5.670 -0.5186 -0.4586  0.0062
 1489SOL    HW115929   2.324   1.747   5.614  0.9901 -0.1444 -2.0869
 1489SOL    HW215930   2.477   1.723   5.617  0.8326  1.1284  1.2053
 1490SOL     OW15931   2.262   2.350   9.460 -1.2984  0.7526  0.0300
 1490SOL    HW115932   2.332   2.313   9.405  0.2168  2.5148  0.7586
 1490SOL    HW215933   2.199   2.278   9.454 -0.5704  0.3430 -2.8528
 1491SOL     OW15934   1.925   0.507  12.954 -0.0613 -0.0794  0.0252
 1491SOL    HW115935   2.015   0.531  12.977 -0.9218  3.1823 -0.0068
 1491SOL    HW215936   1.941   0.428  12.903 -2.0685  1.1659 -2.4901
 1492SOL     OW15937   2.565   4.338   7.490 -0.4127 -0.0051 -0.3777
 1492SOL    HW115938   2.581   4.432   7.477 -0.8864  0.4462  2.3823
 1492SOL    HW215939   2.474   4.323   7.516  0.3450 -4.0294 -0.0814
 1493SOL     OW15940   0.551   1.211   5.443  0.5421 -0.8785  0.0461
 1493SOL    HW115941   0.627   1.209   5.385  0.4980  1.1864 -0.0822
 1493SOL    HW215942   0.494   1.276   5.401  0.0091  0.6641  3.1398
 1494SOL     OW15943   3.817   3.464   7.702 -0.1426  0.2190  0.6916
 1494SOL    HW115944   3.908   3.454   7.677 -0.8544 -0.8132 -1.4904
 1494SOL    HW215945   3.811   3.417   7.786 -0.4100 -2.3984 -0.8022
 1495SOL     OW15946   3.195   1.193   5.928  0.0266 -0.5817  0.3243
 1495SOL    HW115947   3.273   1.178   5.981  0.3359 -1.0478 -0.2645
 1495SOL    HW215948   3.130   1.224   5.992 -0.8342 -2.9224  0.5654
 1496SOL     OW15949   3.119   2.710  12.560  0.0770 -0.3946  0.2485
 1496SOL    HW115950   3.192   2.689  12.501 -2.1237 -2.3602 -1.7890
 1496SOL    HW215951   3.062   2.738  12.488 -0.0039  2.2967  1.3789
 1497SOL     OW15952   2.323   1.276   2.286  0.1025  0.1015  0.0938
 1497SOL    HW115953   2.402   1.247   2.241 -0.3234 -2.0014  0.7026
 1497SOL    HW215954   2.342   1.245   2.374  0.5029 -1.0750 -0.4136
 1498SOL     OW15955   4.005   1.985   3.400  0.0812 -0.0242 -0.2972
 1498SOL    HW115956   3.948   2.055   3.368 -1.4829  0.5184  3.7306
 1498SOL    HW215957   3.933   1.939   3.442  1.3941  0.5555  2.6171
 1499SOL     OW15958   3.464   2.140  16.296 -0.0941 -0.5485 -0.1926
 1499SOL    HW115959   3.482   2.154  16.203 -0.3676 -0.4089 -0.2252
 1499SOL    HW215960   3.425   2.054  16.284  0.2386 -0.6027 -0.8540
 1500SOL     OW15961   1.630   2.177  11.013 -0.6830  0.3751 -0.1260
 1500SOL    HW115962   1.720   2.162  11.042 -0.6528  0.2396 -0.2937
 1500SOL    HW215963   1.637   2.170  10.918 -0.9373 -2.1182  0.0561
 1501SOL     OW15964   2.822   4.273   4.264  0.2631  0.1396 -0.5682
 1501SOL    HW115965   2.817   4.182   4.291 -0.1321  0.7174  1.2831
 1501SOL    HW215966   2.738   4.308   4.294  0.2359  1.8460 -2.6147
 1502SOL     OW15967   3.957   2.872   7.897 -0.0173  0.4787 -0.5452
 1502SOL    HW115968   3.871   2.832   7.910  0.2499  0.4415  1.1124
 1502SOL    HW215969   3.998   2.804   7.843 -1.6461  0.0319 -1.2312
 1503SOL     OW15970   2.582   4.438  15.717  0.7674 -0.4186 -0.4882
 1503SOL    HW115971   2.506   4.432  15.775  1.8309  0.3445  0.9789
 1503SOL    HW215972   2.565   4.366  15.657 -2.9164 -1.7488  2.1693
 1504SOL     OW15973   3.264   0.320  13.453 -0.2442 -0.0693 -0.3891
 1504SOL    HW115974   3.317   0.396  13.477 -1.3784  0.0737  1.6550
 1504SOL    HW215975   3.241   0.336  13.361 -1.0867  0.6879 -0.0455
 1505SOL     OW15976   2.559   1.620   4.709  0.0078 -0.6063  0.1053
 1505SOL    HW115977   2.595   1.539   4.673 -1.0409 -1.8254  1.8007
 1505SOL    HW215978   2.620   1.677   4.662 -0.0526 -0.9240 -0.3633
 1506SOL     OW15979   2.510   3.908   7.066  0.2026 -0.0075 -0.1106
 1506SOL    HW115980   2.445   3.856   7.019  2.5958 -1.6204 -1.6201
 1506SOL    HW215981   2.451   3.961   7.119  1.2354  0.0112  1.0044
 1507SOL     OW15982   3.260   0.171   6.645  0.2295 -0.0949  0.0247
 1507SOL    HW115983   3.332   0.126   6.600  0.3072 -2.4640  2.5317
 1507SOL    HW215984   3.188   0.159   6.584 -0.6485  0.3595  0.9756
 1508SOL     OW15985   1.351   1.722   5.597 -0.4322  0.0678 -0.5429
 1508SOL    HW115986   1.363   1.629   5.616  1.2045  0.2828 -0.5018
 1508SOL    HW215987   1.427   1.759   5.643 -1.3154  2.0901 -0.7174
 1509SOL     OW15988   2.140   2.062   5.674  0.0835  0.8029 -0.4881
 1509SOL    HW115989   2.200   2.105   5.735 -0.1253  0.3609  0.0278
 1509SOL    HW215990   2.070   2.024   5.726 -0.3325  1.7211 -0.3844
 1510SOL     OW15991   4.602   0.289   7.998 -0.3544  0.3093 -0.3770
 1510SOL    HW115992   4.583   0.245   8.080 -1.2576  0.2751 -0.6012
 1510SOL    HW215993   4.632   0.219   7.939 -0.4903 -1.1192  1.2704
 1511SOL     OW15994   0.133   3.905  10.400  0.9399  0.4430  0.3571
 1511SOL    HW115995   0.123   3.972  10.468  1.0577  0.7001  0.1214
 1511SOL    HW215996   0.146   3.832  10.460 -1.9058  0.9275  1.5733
 1512SOL     OW15997   2.340   4.566   4.064  0.6600 -0.0089  0.4098
 1512SOL    HW115998   2.264   4.509   4.062 -1.2289  2.5285 -0.0460
 1512SOL    HW215999   2.379   4.543   4.148  1.3322 -4.4827 -1.1171
 1513SOL     OW16000   4.645   2.575  10.162 -0.2552 -0.1984  0.2666
 1513SOL    HW116001   4.636   2.499  10.105 -0.0220  0.6467 -0.8850
 1513SOL    HW216002   4.573   2.631  10.135 -1.7271 -0.3564  3.8117
 1514SOL     OW16003   3.816   1.355   9.991  0.2998  0.1518  0.3107
 1514SOL    HW116004   3.880   1.383   9.925  1.1245  1.5484  1.7040
 1514SOL    HW216005   3.831   1.261   9.979 -0.2616  0.3807 -2.2927
 1515SOL     OW16006   4.543   2.758  10.931 -0.6110 -0.4816  0.2113
 1515SOL    HW116007   4.602   2.684  10.947  0.5715  0.4994  0.3675
 1515SOL    HW216008   4.489   2.707  10.871  1.3774 -2.6318  0.2296
 1516SOL     OW16009   1.526   2.702   4.207  0.2199 -0.1736  0.4912
 1516SOL    HW116010   1.462   2.748   4.262 -0.7805 -0.5976 -0.3154
 1516SOL    HW216011   1.557   2.638   4.271 -0.4674 -0.9149  0.0731
 1517SOL     OW16012   3.135   1.433   7.700 -0.2043  0.0435  0.1923
 1517SOL    HW116013   3.101   1.422   7.611  0.8052  3.2871 -0.5842
 1517SOL    HW216014   3.050   1.434   7.745 -0.1549 -0.3390  0.2971
 1518SOL     OW16015   1.779   4.654   3.570  0.6306 -0.0086  0.1105
 1518SOL    HW116016   1.771   4.579   3.629  1.1687 -2.6887 -3.2537
 1518SOL    HW216017   1.873   4.675   3.569  0.9928 -1.6855 -1.3176
 1519SOL     OW16018   4.500   2.185   5.093 -0.2069  0.0801  0.2284
 1519SOL    HW116019   4.441   2.172   5.168 -1.1005 -0.6013 -0.5905
 1519SOL    HW216020   4.573   2.230   5.136 -0.6040  1.4361 -0.5445
 1520SOL     OW16021   2.117   1.895   4.430 -0.1344  0.2572 -0.2166
 1520SOL    HW116022   2.121   1.808   4.470  0.4625 -0.7428 -2.4472
 1520SOL    HW216023   2.105   1.873   4.338 -2.1457  0.5183  0.0014
 1521SOL     OW16024   0.413   1.030   3.824  0.0812  0.1170  0.1628
 1521SOL    HW116025   0.389   1.066   3.910 -0.2951  2.1192 -0.7968
 1521SOL    HW216026   0.413   1.111   3.773  0.9819 -0.6377 -1.0312
 1522SOL     OW16027   0.564   1.793   9.496  0.2281  0.2764  0.1537
 1522SOL    HW116028   0.494   1.833   9.548  0.8317  0.2167  0.9973
 1522SOL    HW216029   0.596   1.725   9.555  1.2383 -0.7099 -1.5166
 1523SOL     OW16030   4.070   4.447   0.151  0.2896  0.0584  0.3484
 1523SOL    HW116031   4.063   4.465   0.244  0.8991  2.3454 -0.0492
 1523SOL    HW216032   3.978   4.445   0.125 -0.3377 -1.4608  2.7445
 1524SOL     OW16033   2.626   2.656   4.199 -0.4483  0.0063  0.2599
 1524SOL    HW116034   2.710   2.645   4.244 -0.5245 -0.4549  0.2879
 1524SOL    HW216035   2.619   2.567   4.164  0.5780  0.3073 -0.6973
 1525SOL     OW16036   2.814   1.426  17.492 -0.4528  0.0900  0.0545
 1525SOL    HW116037   2.878   1.433  17.422 -0.9140 -1.6624 -0.5512
 1525SOL    HW216038   2.862   1.458  17.569 -1.3908  0.7844  0.3458
 1526SOL     OW16039   0.076   0.967   5.577  0.3356  0.0587  0.2686
 1526SOL    HW116040   0.129   0.887   5.569 -0.8677 -0.6936 -0.2212
 1526SOL    HW216041   0.034   0.945   5.494 -1.0132 -2.1864  1.5211
 1527SOL     OW16042   0.575   1.796  10.197 -0.3491 -0.1773 -0.0331
 1527SOL    HW116043   0.562   1.840  10.281 -0.5469 -0.7872  0.2602
 1527SOL    HW216044   0.645   1.732  10.211 -0.5468 -0.5998 -0.9577
 1528SOL     OW16045   3.600   2.908   9.919  0.1375 -0.2442 -0.4568
 1528SOL    HW116046   3.567   2.948   9.999  0.2728  0.3075 -0.6766
 1528SOL    HW216047   3.632   2.981   9.865  1.4820  0.2833  1.0554
 1529SOL     OW16048   0.581   0.047   4.570 -0.0094 -0.2307 -0.1671
 1529SOL    HW116049   0.573   4.681   4.545 -2.1666 -0.6987  2.2236
 1529SOL    HW216050   0.557   0.086   4.486 -1.9566 -1.5200 -0.1991
 1530SOL     OW16051   4.047   2.799   2.826 -0.4783 -0.2696  0.4670
 1530SOL    HW116052   3.965   2.774   2.784 -1.3803  0.0236  2.0490
 1530SOL    HW216053   4.018   2.845   2.905  0.0775 -0.3368  0.7079
 1531SOL     OW16054   2.499   2.912   4.863 -0.3481  0.0733  0.0173
 1531SOL    HW116055   2.416   2.936   4.904  1.3104  0.4217  3.2289
 1531SOL    HW216056   2.559   2.944   4.931  1.5771 -0.4172 -1.4642
 1532SOL     OW16057   2.607   3.131   7.901 -0.6311 -0.1814 -0.1455
 1532SOL    HW116058   2.663   3.175   7.965  1.3643 -1.0412 -1.2960
 1532SOL    HW216059   2.649   3.151   7.818 -0.5022  0.8939  0.1830
 1533SOL     OW16060   2.719   3.021   3.264 -0.1163  0.6929 -0.0476
 1533SOL    HW116061   2.751   3.110   3.252 -1.0240  0.9900 -0.2775
 1533SOL    HW216062   2.696   3.002   3.173 -0.2094  0.7118 -0.0271
 1534SOL     OW16063   0.046   2.937   5.631 -0.2849  0.0754  0.0763
 1534SOL    HW116064   4.705   3.005   5.644 -2.8309 -2.2912 -0.4872
 1534SOL    HW216065   0.011   2.883   5.560 -1.5284 -0.5065  1.1457
 1535SOL     OW16066   1.573   3.023   6.365 -0.2029  0.5754  0.6223
 1535SOL    HW116067   1.531   3.022   6.279 -2.7443  1.2268  1.8456
 1535SOL    HW216068   1.666   3.018   6.344 -0.4666 -2.9803  0.2794
 1536SOL     OW16069   4.651   1.926   6.204 -0.7347  0.6265  0.1555
 1536SOL    HW116070   4.640   1.984   6.280 -0.1222  0.7083  0.1855
 1536SOL    HW216071   4.571   1.939   6.153 -3.0056 -0.7397  3.3988
 1537SOL     OW16072   0.919   4.360   6.248 -0.3530 -0.5367  0.0584
 1537SOL    HW116073   0.987   4.388   6.186 -0.6394  0.1596  0.0579
 1537SOL    HW216074   0.903   4.270   6.219  1.5976 -0.8542  0.0219
 1538SOL     OW16075   4.426   2.224  16.705  0.2024 -0.1576  0.0420
 1538SOL    HW116076   4.405   2.131  16.709  0.4772 -0.1638  1.5594
 1538SOL    HW216077   4.462   2.228  16.617 -2.5458  0.7239 -1.0267
 1539SOL     OW16078   0.102   0.317   6.151 -0.3696  0.3995 -0.1682
 1539SOL    HW116079   0.189   0.304   6.191 -0.1794  0.2220 -0.6461
 1539SOL    HW216080   0.113   0.407   6.120  0.6125  0.3668  0.0595
 1540SOL     OW16081   0.432   3.916  16.951  0.3654 -0.6700 -0.1016
 1540SOL    HW116082   0.521   3.946  16.969 -0.3989  1.3433  0.2951
 1540SOL    HW216083   0.412   3.913  16.857 -1.4761  2.4355  0.2125
 1541SOL     OW16084   4.356   3.799   3.780 -0.0021  0.6029  0.2235
 1541SOL    HW116085   4.298   3.778   3.853 -0.3021 -2.3102 -0.8493
 1541SOL    HW216086   4.382   3.886   3.809  1.8437 -0.4891  1.8434
 1542SOL     OW16087   1.815   1.765  16.357 -0.2158 -0.4193  0.4063
 1542SOL    HW116088   1.881   1.710  16.312 -1.9482  0.2476 -2.9387
 1542SOL    HW216089   1.757   1.786  16.284 -0.1979  4.3580  1.7815
 1543SOL     OW16090   0.426   2.343   9.393 -0.5551  0.3578  0.3956
 1543SOL    HW116091   0.445   2.269   9.335  0.5998 -0.1245  1.4016
 1543SOL    HW216092   0.334   2.359   9.372 -0.9414  0.3753  2.1026
 1544SOL     OW16093   2.339   2.657   1.909 -0.0472  0.2617 -0.2912
 1544SOL    HW116094   2.287   2.579   1.894 -0.3443  0.4320 -0.1575
 1544SOL    HW216095   2.424   2.618   1.927  0.1728  0.1169 -1.6883
 1545SOL     OW16096   1.622   2.094   5.169  0.6498  0.2147  0.6045
 1545SOL    HW116097   1.623   2.187   5.144 -0.1292  0.8616  3.0544
 1545SOL    HW216098   1.627   2.051   5.083  2.2110 -0.4701  1.0352
 1546SOL     OW16099   2.676   1.604   5.824 -0.7468 -0.0334 -0.1750
 1546SOL    HW116100   2.662   1.649   5.741  1.5747 -0.1347 -0.6293
 1546SOL    HW216101   2.772   1.608   5.827 -0.7502  1.4380 -1.5695
 1547SOL     OW16102   3.642   2.546   5.032 -0.7479  0.0453 -0.4948
 1547SOL    HW116103   3.639   2.455   5.059 -0.3732  0.1223 -0.1935
 1547SOL    HW216104   3.553   2.571   5.006 -1.6162 -0.4101  2.0105
 1548SOL     OW16105   0.181   4.699   7.201 -0.2248  0.4173  0.2298
 1548SOL    HW116106   0.210   0.046   7.256  0.6637 -0.6284  1.1395
 1548SOL    HW216107   0.195   4.623   7.257  3.7774 -0.5646 -2.1460
 1549SOL     OW16108   2.223   1.743   2.259 -0.1395 -0.5629  0.8698
 1549SOL    HW116109   2.144   1.744   2.313  0.0078  0.9382  1.0592
 1549SOL    HW216110   2.230   1.649   2.244  1.5726 -0.3134  0.0185
 1550SOL     OW16111   1.100   2.093   3.132  0.8656  0.3389  0.3030
 1550SOL    HW116112   1.101   2.018   3.073 -1.7563 -0.2315  1.0118
 1550SOL    HW216113   1.164   2.070   3.199  1.4453  2.0660  0.3406
 1551SOL     OW16114   1.038   1.299  10.837  0.3178  0.1416  0.3725
 1551SOL    HW116115   1.124   1.275  10.872  0.6249 -1.6316 -1.5981
 1551SOL    HW216116   1.051   1.313  10.743 -2.8767  2.7900  0.3166
 1552SOL     OW16117   1.105   4.006   3.758  0.2474 -0.8081 -0.0883
 1552SOL    HW116118   1.156   4.034   3.682  1.1153 -0.0258  0.7824
 1552SOL    HW216119   1.041   3.946   3.720  0.2599 -0.6577 -0.3491
 1553SOL     OW16120   3.460   0.115  12.538  0.7366  0.2011  1.0777
 1553SOL    HW116121   3.486   0.032  12.498  2.1726  0.7513  0.8553
 1553SOL    HW216122   3.538   0.166  12.514  0.7083  0.4032  1.4072
 1554SOL     OW16123   0.284   4.130  16.048 -0.4615 -0.3211  0.0566
 1554SOL    HW116124   0.268   4.194  15.979  2.0200 -0.7302 -0.8930
 1554SOL    HW216125   0.377   4.114  16.029 -0.6971 -1.2110 -0.3255
 1555SOL     OW16126   2.866   2.346   5.126 -0.6174  0.1553  0.4886
 1555SOL    HW116127   2.842   2.276   5.065 -0.7146 -0.9900  1.8350
 1555SOL    HW216128   2.839   2.298   5.205 -1.2218 -0.7478 -0.2679
 1556SOL     OW16129   1.892   4.354   5.491  0.1132  0.2898  0.7618
 1556SOL    HW116130   1.865   4.425   5.550  0.0910  0.1686  0.8982
 1556SOL    HW216131   1.982   4.381   5.474  0.4698 -0.7510  1.0048
 1557SOL     OW16132   3.352   3.681  16.091 -0.1545  0.8011 -0.3847
 1557SOL    HW116133   3.442   3.667  16.064  0.1858  1.2698  0.5255
 1557SOL    HW216134   3.335   3.761  16.040  2.4995  1.6055 -0.0114
 1558SOL     OW16135   3.497   1.903   6.671  0.0230  0.1154  0.0662
 1558SOL    HW116136   3.540   1.831   6.716  2.0095  1.0851 -0.2796
 1558SOL    HW216137   3.573   1.945   6.631  0.6779 -1.2384 -0.0911
 1559SOL     OW16138   1.019   1.801   3.935 -0.0798  0.0657 -0.7343
 1559SOL    HW116139   1.105   1.784   3.974 -0.4036 -0.0203 -0.0651
 1559SOL    HW216140   0.964   1.724   3.946  1.5548 -1.0279 -0.1855
 1560SOL     OW16141   0.332   2.267   0.772 -0.5773 -0.4643 -0.4891
 1560SOL    HW116142   0.293   2.187   0.738 -1.5634 -0.9726  1.8614
 1560SOL    HW216143   0.424   2.264   0.743 -0.1513  3.7935  0.3922
 1561SOL     OW16144   0.900   3.463   4.141 -0.2130  0.3366 -0.4402
 1561SOL    HW116145   0.893   3.428   4.053  1.3222  0.6975 -0.7073
 1561SOL    HW216146   0.994   3.471   4.159 -0.1865  0.6957 -0.7531
 1562SOL     OW16147   2.015   2.061   1.292 -0.4231  0.0202  0.1319
 1562SOL    HW116148   2.088   2.102   1.338 -0.3340  0.3858 -0.3453
 1562SOL    HW216149   2.018   2.119   1.217  1.1785 -1.1231 -0.6791
 1563SOL     OW16150   4.515   2.142   7.522 -0.4659 -0.2071  0.4328
 1563SOL    HW116151   4.560   2.095   7.592 -1.0089  0.3668  1.1657
 1563SOL    HW216152   4.426   2.115   7.542 -0.6784 -0.4044 -0.7772
 1564SOL     OW16153   1.078   2.502   3.350  0.1836 -0.3587 -0.7776
 1564SOL    HW116154   1.068   2.441   3.277 -0.0307 -1.0912 -0.1263
 1564SOL    HW216155   1.035   2.458   3.423 -2.5350 -0.2430 -2.3224
 1565SOL     OW16156   3.450   0.893   6.255 -0.5604 -0.1607 -1.1832
 1565SOL    HW116157   3.373   0.904   6.310  1.5875  2.3927  1.2781
 1565SOL    HW216158   3.510   0.933   6.317 -0.2239 -2.0957 -0.2579
 1566SOL     OW16159   4.048   1.920   9.995  0.0492 -0.3204 -0.1054
 1566SOL    HW116160   3.979   1.901  10.059 -0.0106  1.4348  0.3511
 1566SOL    HW216161   3.992   1.915   9.918  0.1608  0.8689 -0.2583
 1567SOL     OW16162   1.416   4.673   4.761  0.1366  0.0851 -0.3885
 1567SOL    HW116163   1.335   4.666   4.812 -0.4863  1.3403 -1.2128
 1567SOL    HW216164   1.403   4.589   4.715  1.8631  0.2504 -1.1547
 1568SOL     OW16165   1.073   3.365   5.979 -0.1727  0.0320 -0.0672
 1568SOL    HW116166   1.013   3.390   6.049 -0.2066  1.2058 -0.5131
 1568SOL    HW216167   1.015   3.310   5.926  2.0500 -1.7895 -0.6158
 1569SOL     OW16168   2.617   2.930   1.330  0.7352  0.3820  0.2378
 1569SOL    HW116169   2.675   2.945   1.256 -1.6181  1.1798 -1.4558
 1569SOL    HW216170   2.536   2.908   1.284  0.6270  1.0816  0.0994
 1570SOL     OW16171   4.403   4.574   8.830  0.0028  0.3025  0.3343
 1570SOL    HW116172   4.438   4.654   8.869 -0.3651  1.9452 -2.6918
 1570SOL    HW216173   4.462   4.563   8.755 -0.1482 -1.8953  0.5476
 1571SOL     OW16174   1.204   3.970   4.389 -0.0883 -0.2843  0.4619
 1571SOL    HW116175   1.170   4.023   4.461  2.7942  0.0787  1.5256
 1571SOL    HW216176   1.137   3.903   4.372 -1.5089  1.0413  0.7891
 1572SOL     OW16177   4.632   4.025   4.464 -0.4249 -0.3008 -0.1282
 1572SOL    HW116178   4.665   3.985   4.384  0.3164  0.9300 -0.4419
 1572SOL    HW216179   4.676   4.110   4.463 -1.4059  0.2164  0.0580
 1573SOL     OW16180   4.458   1.266   2.583  0.5851 -0.3324 -0.4668
 1573SOL    HW116181   4.507   1.280   2.502  1.1283  0.9004  0.0767
 1573SOL    HW216182   4.499   1.188   2.619 -1.5564 -2.0997 -1.8138
 1574SOL     OW16183   1.825   0.329  17.550 -0.1196 -0.4417  0.5143
 1574SOL    HW116184   1.815   0.233  17.553 -1.2664 -0.3841 -1.6164
 1574SOL    HW216185   1.913   0.322  17.512  0.6192  1.3380  1.8993
 1575SOL     OW16186   2.598   4.313   8.354  0.9134  0.0534  0.0468
 1575SOL    HW116187   2.691   4.301   8.338  0.7960  1.7653 -1.8185
 1575SOL    HW216188   2.590   4.246   8.422 -1.6236  0.4813  0.1961
 1576SOL     OW16189   1.998   1.597   8.042 -0.1015  0.6560  0.3717
 1576SOL    HW116190   1.946   1.584   8.121 -0.5605  0.3781  0.0245
 1576SOL    HW216191   1.945   1.537   7.989  3.1700  0.0524 -2.3137
 1577SOL     OW16192   4.616   0.843   2.428  0.2759 -0.1588  0.0386
 1577SOL    HW116193   4.577   0.758   2.409  0.6757 -0.3375  0.0155
 1577SOL    HW216194   4.693   0.841   2.371  0.6296  0.7495  0.4847
 1578SOL     OW16195   3.259   4.459   3.985  0.0145  0.1192 -0.1876
 1578SOL    HW116196   3.170   4.488   3.963 -0.2385 -0.0011  0.6986
 1578SOL    HW216197   3.312   4.473   3.906  1.9096  1.1206  1.2762
 1579SOL     OW16198   0.158   2.222   3.587  0.1514  0.6430 -0.0124
 1579SOL    HW116199   0.171   2.130   3.611 -0.7164  0.6236  0.3879
 1579SOL    HW216200   0.074   2.233   3.544  0.5080  0.0832 -0.8569
 1580SOL     OW16201   4.399   1.194  15.447 -0.0528 -0.6494  0.0706
 1580SOL    HW116202   4.407   1.215  15.540  0.4377 -0.7272  0.0439
 1580SOL    HW216203   4.305   1.185  15.431 -0.2367  0.5901  0.3961
 1581SOL     OW16204   2.159   4.340   3.717  0.2931 -0.5249  0.1358
 1581SOL    HW116205   2.202   4.369   3.636 -0.4257  1.6528  0.5591
 1581SOL    HW216206   2.233   4.357   3.775  0.0652  0.3078  0.1800
 1582SOL     OW16207   1.288   3.539   6.676 -0.1639 -1.1529  0.1265
 1582SOL    HW116208   1.348   3.607   6.707 -1.1766 -0.0345 -0.3541
 1582SOL    HW216209   1.338   3.458   6.689 -0.2345 -1.0952  0.7593
 1583SOL     OW16210   1.058   3.048   8.443 -0.0012  0.0402 -0.1374
 1583SOL    HW116211   1.139   3.027   8.489 -0.1319 -1.2863 -0.4924
 1583SOL    HW216212   1.046   3.137   8.476 -2.6427 -0.3171 -0.0865
 1584SOL     OW16213   4.293   2.563   8.149 -0.6777  0.1988 -0.2496
 1584SOL    HW116214   4.333   2.648   8.131 -1.9964  0.6871 -0.8957
 1584SOL    HW216215   4.340   2.498   8.095 -1.3619 -0.3503 -0.1851
 1585SOL     OW16216   3.379   3.179   3.925 -0.6562 -0.3342  0.4245
 1585SOL    HW116217   3.297   3.210   3.964 -0.0029 -0.1160  1.6520
 1585SOL    HW216218   3.371   3.211   3.836  1.3789 -0.5243  0.1769
 1586SOL     OW16219   0.334   0.102   4.048  0.0989  0.3830  0.2843
 1586SOL    HW116220   0.298   0.182   4.085 -1.1796 -0.1389  0.1626
 1586SOL    HW216221   0.382   0.127   3.969  2.9860 -0.3787  1.7943
 1587SOL     OW16222   2.034   4.171  15.189 -0.4628 -0.3137  0.1405
 1587SOL    HW116223   2.103   4.147  15.252  0.7150 -0.4338 -1.1963
 1587SOL    HW216224   2.088   4.170  15.110 -0.2692 -0.2323  0.2710
 1588SOL     OW16225   4.317   0.266   5.571  0.0122  0.7221 -0.0537
 1588SOL    HW116226   4.274   0.266   5.485  0.0822 -1.3033 -0.0881
 1588SOL    HW216227   4.245   0.310   5.616 -1.5156  0.7177 -2.4910
 1589SOL     OW16228   1.041   3.212  13.950 -0.0152 -0.5214 -0.0034
 1589SOL    HW116229   1.015   3.300  13.924  3.2809  0.4739  0.1406
 1589SOL    HW216230   1.120   3.192  13.900  0.5414  1.6021  0.0266
 1590SOL     OW16231   3.215   0.588   6.029 -0.4014  0.0586 -0.5152
 1590SOL    HW116232   3.280   0.519   6.015  1.2688  1.8909 -1.8260
 1590SOL    HW216233   3.176   0.574   5.942  0.7075  1.0965 -1.1729
 1591SOL     OW16234   0.822   2.828   6.514 -0.1358 -0.2388  0.0862
 1591SOL    HW116235   0.876   2.894   6.470 -2.2801  2.1317  0.9596
 1591SOL    HW216236   0.777   2.885   6.577 -1.4056 -0.4208 -0.6418
 1592SOL     OW16237   1.139   2.598   5.324 -0.4802  0.3379 -0.4509
 1592SOL    HW116238   1.057   2.563   5.360  0.4359 -0.8300  0.4839
 1592SOL    HW216239   1.110   2.689   5.330 -0.6524  0.1206  2.3402
 1593SOL     OW16240   3.510   1.278   8.534  0.1126 -0.2853  0.5414
 1593SOL    HW116241   3.577   1.347   8.529 -0.5044  0.1275 -2.0573
 1593SOL    HW216242   3.473   1.293   8.620  2.6005 -0.9936  1.7480
 1594SOL     OW16243   1.700   2.968   9.200 -0.4592 -0.3269  0.4692
 1594SOL    HW116244   1.721   2.921   9.120 -0.8751 -0.1688  0.2669
 1594SOL    HW216245   1.654   2.901   9.251  0.6638 -0.4879  1.2671
 1595SOL     OW16246   0.074   1.622   6.688  0.0568 -0.0811 -0.3945
 1595SOL    HW116247   0.031   1.662   6.613  2.0285 -0.2825 -1.6469
 1595SOL    HW216248   0.005   1.644   6.750 -1.8218 -1.4559 -2.0129
 1596SOL     OW16249   1.965   0.070  16.871 -0.3035  0.0267 -0.2790
 1596SOL    HW116250   1.971   0.025  16.787  3.6678  1.5992 -0.8660
 1596SOL    HW216251   1.874   0.095  16.860 -0.5169 -0.1888  0.9398
 1597SOL     OW16252   4.284   3.895  13.207  0.0429  0.1353 -0.1828
 1597SOL    HW116253   4.228   3.880  13.131  0.8761 -3.4754 -0.0527
 1597SOL    HW216254   4.279   3.806  13.241  0.2429  0.6564  1.1915
 1598SOL     OW16255   1.951   3.408  12.819  0.3029 -0.1316 -0.0052
 1598SOL    HW116256   1.983   3.441  12.735 -0.4431 -0.6026 -0.4757
 1598SOL    HW216257   1.869   3.456  12.832  1.0334  1.0834  0.0637
 1599SOL     OW16258   1.443   0.278   6.456  0.2112  0.5475 -0.1225
 1599SOL    HW116259   1.498   0.304   6.530  0.3598  1.4116 -0.5366
 1599SOL    HW216260   1.384   0.209   6.487  1.0934 -0.7810 -1.3727
 1600SOL     OW16261   2.387   3.762   6.525 -0.1734 -0.4098  0.0107
 1600SOL    HW116262   2.458   3.780   6.464 -1.2783  2.2653 -0.5204
 1600SOL    HW216263   2.408   3.824   6.595 -1.1856  0.5289 -0.5176
 1601SOL     OW16264   2.149   0.678   5.975 -0.4703  0.5747  0.2486
 1601SOL    HW116265   2.092   0.715   5.908 -1.1103 -1.0109 -0.0951
 1601SOL    HW216266   2.086   0.638   6.035 -1.1930 -0.2065 -1.0177
 1602SOL     OW16267   3.578   0.707   7.343  0.1802 -0.0457  0.7947
 1602SOL    HW116268   3.664   0.664   7.342  0.5772  0.7470  0.0536
 1602SOL    HW216269   3.577   0.751   7.428  0.1447 -1.3120  1.4493
 1603SOL     OW16270   1.658   3.407   8.667 -0.3010  0.3752 -0.7175
 1603SOL    HW116271   1.711   3.389   8.590 -0.3455  1.3611 -0.9694
 1603SOL    HW216272   1.700   3.349   8.731 -3.2881  1.4120  2.1629
 1604SOL     OW16273   0.099   0.943  12.000  0.5408  0.5860  0.3971
 1604SOL    HW116274   0.146   0.955  11.917 -1.5736 -0.8034 -1.0021
 1604SOL    HW216275   0.011   0.967  11.971  0.7570  0.8261 -0.0669
 1605SOL     OW16276   3.770   4.194   1.258  0.1514  0.3691 -0.0430
 1605SOL    HW116277   3.777   4.290   1.261 -1.3609  0.5648 -2.1667
 1605SOL    HW216278   3.858   4.162   1.241 -0.2379 -0.6174 -0.2053
 1606SOL     OW16279   4.294   0.290   6.802 -0.1765 -0.4229 -0.8209
 1606SOL    HW116280   4.363   0.344   6.765  0.4787 -1.0864 -0.5586
 1606SOL    HW216281   4.323   0.199   6.791  0.2499 -0.3682 -0.1207
 1607SOL     OW16282   2.864   4.218   3.970  0.6674 -0.6637 -0.3323
 1607SOL    HW116283   2.948   4.263   3.974  1.7753 -2.8147  0.3934
 1607SOL    HW216284   2.814   4.252   4.044  0.0579  1.4757 -1.7390
 1608SOL     OW16285   1.754   2.559   4.056  0.5793 -0.1061  0.4347
 1608SOL    HW116286   1.741   2.600   3.970  0.8071 -1.6710 -0.3449
 1608SOL    HW216287   1.742   2.633   4.115  1.8639 -0.0337  0.6173
 1609SOL     OW16288   2.111   4.655   7.934 -0.5394  0.7538 -0.1586
 1609SOL    HW116289   2.164   4.577   7.921 -1.2155  0.2476  0.1242
 1609SOL    HW216290   2.118   4.661   8.030 -0.8126 -0.7561 -0.0493
 1610SOL     OW16291   4.086   1.139   8.847  0.1633  0.0625  0.2168
 1610SOL    HW116292   4.121   1.125   8.759 -1.1617  0.1324 -0.3252
 1610SOL    HW216293   3.993   1.118   8.837 -0.0918  1.4871 -0.4828
 1611SOL     OW16294   3.857   1.687   8.185  0.4066  0.2797  0.1088
 1611SOL    HW116295   3.879   1.773   8.221  0.9952  0.1802 -0.0297
 1611SOL    HW216296   3.925   1.631   8.222  2.0944  0.4191 -2.8171
 1612SOL     OW16297   2.220   3.605  11.765  0.4089 -0.1286  0.6239
 1612SOL    HW116298   2.165   3.639  11.695 -0.6915  1.3795  2.2076
 1612SOL    HW216299   2.304   3.587  11.723  1.6887  1.4648  2.4766
 1613SOL     OW16300   3.559   0.142   3.069 -0.3287 -0.3618 -0.1872
 1613SOL    HW116301   3.577   0.059   3.114  2.9557  0.2404 -0.3688
 1613SOL    HW216302   3.643   0.183   3.050 -0.1605 -1.1750 -1.1767
 1614SOL     OW16303   0.105   3.241   2.939 -0.0411  0.1143  0.2173
 1614SOL    HW116304   0.193   3.206   2.957 -1.6422 -3.7486  0.5215
 1614SOL    HW216305   0.055   3.250   3.020  2.2942  0.1141  1.6604
 1615SOL     OW16306   4.330   1.570   3.838 -0.6899  0.3904  0.0290
 1615SOL    HW116307   4.280   1.489   3.828 -2.3732  1.3597  0.5179
 1615SOL    HW216308   4.306   1.582   3.930  0.8312  1.4435  0.2916
 1616SOL     OW16309   2.838   0.841   8.406  0.4903 -0.7190  0.1918
 1616SOL    HW116310   2.819   0.808   8.318 -0.9555  1.0490 -0.1672
 1616SOL    HW216311   2.821   0.766   8.462  0.3499 -0.8725 -0.0548
 1617SOL     OW16312   2.384   1.047   8.054 -0.0202  0.4433 -0.0214
 1617SOL    HW116313   2.320   1.002   8.109 -0.7384  0.2264 -1.0360
 1617SOL    HW216314   2.350   1.023   7.968  0.7730  1.7488 -0.6861
 1618SOL     OW16315   4.178   3.491  14.957  0.1047  0.1630  0.5735
 1618SOL    HW116316   4.163   3.500  14.863  2.0221 -0.7363  0.1756
 1618SOL    HW216317   4.154   3.581  14.977  1.9074  0.3464  1.8615
 1619SOL     OW16318   2.295   3.872   8.413  0.3293  0.0204  0.0764
 1619SOL    HW116319   2.217   3.926   8.405 -0.0764 -0.8700 -2.1418
 1619SOL    HW216320   2.355   3.923   8.467 -0.1628  1.4281 -0.7140
 1620SOL     OW16321   4.488   4.422   3.332  0.4999  0.1906  0.4403
 1620SOL    HW116322   4.562   4.369   3.304  1.4412  1.1352  1.1384
 1620SOL    HW216323   4.509   4.440   3.423 -1.1742  0.7198  0.7299
 1621SOL     OW16324   2.276   0.104  16.692 -0.2237 -0.1057  0.5216
 1621SOL    HW116325   2.355   0.070  16.736 -0.0495 -0.1050  0.2109
 1621SOL    HW216326   2.215   0.030  16.694 -0.9754  0.4912 -0.9129
 1622SOL     OW16327   4.109   3.423  10.699  1.0083 -0.3080  0.7844
 1622SOL    HW116328   4.084   3.512  10.675  0.2856 -1.0181 -1.1149
 1622SOL    HW216329   4.043   3.412  10.767  1.2736  0.3068  1.1411
 1623SOL     OW16330   1.042   3.805   3.956 -0.3383  0.8301  0.8508
 1623SOL    HW116331   1.030   3.838   4.045 -3.1988  0.2098  0.6940
 1623SOL    HW216332   1.049   3.887   3.907  0.2598  0.2141 -0.0928
 1624SOL     OW16333   2.244   2.125   8.498 -0.1928  0.1875  0.5787
 1624SOL    HW116334   2.166   2.150   8.548  0.1891 -0.8753  1.7130
 1624SOL    HW216335   2.216   2.042   8.460  0.6137  0.5778 -0.8624
 1625SOL     OW16336   1.916   4.215  11.966  0.5539  0.1628 -0.0218
 1625SOL    HW116337   1.861   4.267  12.025  1.6205  2.8587 -1.3880
 1625SOL    HW216338   1.979   4.185  12.032 -1.4367 -1.4240  1.1558
 1626SOL     OW16339   3.748   0.248   6.946 -0.5938 -0.2051 -0.1645
 1626SOL    HW116340   3.665   0.225   6.989  1.0334 -1.5496  2.2569
 1626SOL    HW216341   3.811   0.238   7.018 -1.5525 -0.3797  0.6480
 1627SOL     OW16342   2.313   0.639   5.724  0.5505 -0.3066 -0.4163
 1627SOL    HW116343   2.257   0.666   5.796  1.8352  1.1234  0.0522
 1627SOL    HW216344   2.342   0.556   5.761 -1.1671 -0.2772  1.0014
 1628SOL     OW16345   2.723   0.573   4.636 -0.2286 -0.3048 -0.3158
 1628SOL    HW116346   2.782   0.622   4.694 -1.4051 -0.9596  1.4228
 1628SOL    HW216347   2.746   0.481   4.650 -1.3159 -0.5432 -0.1173
 1629SOL     OW16348   4.404   2.745  10.221  0.0112 -0.3065  0.3290
 1629SOL    HW116349   4.327   2.701  10.184 -0.6727 -0.1752  1.5929
 1629SOL    HW216350   4.387   2.829  10.180  0.2970  0.3373  1.5200
 1630SOL     OW16351   0.554   1.730  14.484  0.0396 -0.0659 -0.2737
 1630SOL    HW116352   0.489   1.714  14.415 -1.1944  2.2821  0.3471
 1630SOL    HW216353   0.611   1.661  14.451  1.0213 -0.1217  1.5337
 1631SOL     OW16354   3.408   3.069   0.293  0.0161  0.2292 -0.4776
 1631SOL    HW116355   3.415   2.976   0.314 -1.1386 -0.1724 -1.9232
 1631SOL    HW216356   3.437   3.100   0.378 -0.2776 -0.8374  0.0153
 1632SOL     OW16357   4.699   1.207   3.794 -0.0763  0.5540  0.1712
 1632SOL    HW116358   4.637   1.233   3.725 -0.2127 -0.0221  0.0744
 1632SOL    HW216359   4.651   1.243   3.869  0.8419  0.3755  0.8383
 1633SOL     OW16360   0.395   3.389   7.409 -0.0258  0.0288  0.1369
 1633SOL    HW116361   0.469   3.381   7.468 -0.0095  1.6508  0.3184
 1633SOL    HW216362   0.435   3.390   7.322 -0.5318 -1.8674 -0.1419
 1634SOL     OW16363   0.788   2.260   6.340 -0.3139  0.1616 -0.4736
 1634SOL    HW116364   0.798   2.351   6.368  1.1626  0.4708 -2.0141
 1634SOL    HW216365   0.848   2.224   6.406  0.7966  0.7339 -1.1716
 1635SOL     OW16366   0.720   1.314   6.799 -0.2268  0.0969 -0.0231
 1635SOL    HW116367   0.746   1.267   6.878  0.7249 -1.8387 -1.4860
 1635SOL    HW216368   0.626   1.311   6.818 -0.1714 -0.3222  0.1799
 1636SOL     OW16369   3.165   3.767   8.454  0.5044  0.8805 -0.6858
 1636SOL    HW116370   3.195   3.857   8.467  1.5029  0.3429  0.7252
 1636SOL    HW216371   3.217   3.740   8.378  0.6747 -3.4100  0.9382
 1637SOL     OW16372   1.778   2.687   0.395 -0.5827 -0.1791  0.1419
 1637SOL    HW116373   1.835   2.635   0.338  0.9932  1.3090  0.3553
 1637SOL    HW216374   1.732   2.613   0.435  2.3605 -2.3180 -0.4212
 1638SOL     OW16375   1.017   3.506  15.303 -0.1562  0.5392 -0.8121
 1638SOL    HW116376   1.020   3.570  15.232  1.3534  0.6695 -0.6448
 1638SOL    HW216377   0.940   3.536  15.350  1.8883 -2.0125  4.1983
 1639SOL     OW16378   4.054   3.302  16.393  0.2103 -0.0051 -0.2781
 1639SOL    HW116379   4.027   3.219  16.433  0.6440 -0.1778 -0.3428
 1639SOL    HW216380   4.049   3.365  16.465 -1.8857 -1.8304  1.1764
 1640SOL     OW16381   1.100   1.234  13.172  0.0009 -0.2492 -0.1805
 1640SOL    HW116382   1.136   1.321  13.192  0.5305 -0.7484  0.9865
 1640SOL    HW216383   1.010   1.242  13.202  0.2040  1.0076  0.1162
 1641SOL     OW16384   3.051   1.781   6.971  0.3902  0.5582  0.0905
 1641SOL    HW116385   3.123   1.781   7.035 -0.0684 -1.4962  0.5876
 1641SOL    HW216386   3.106   1.764   6.895  0.8541  3.4177 -0.2205
 1642SOL     OW16387   3.242   3.453   4.597  0.2067 -0.3626  0.0440
 1642SOL    HW116388   3.205   3.537   4.570  0.3899 -0.4044 -0.3502
 1642SOL    HW216389   3.166   3.432   4.651  0.6022  2.2549  1.6088
 1643SOL     OW16390   3.874   2.577  13.094 -0.1267 -0.2169  0.0927
 1643SOL    HW116391   3.936   2.510  13.065  0.1116 -1.2558  3.0800
 1643SOL    HW216392   3.823   2.534  13.161  1.6126 -3.5512 -0.7501
 1644SOL     OW16393   4.094   4.002   9.533  0.2116 -0.2631 -0.1239
 1644SOL    HW116394   4.086   4.022   9.627 -1.0025 -1.5903  0.0497
 1644SOL    HW216395   4.185   3.973   9.525  0.3185  0.1276 -0.3358
 1645SOL     OW16396   4.458   2.115  11.283  0.3225  0.6199 -0.4645
 1645SOL    HW116397   4.405   2.188  11.314  0.5830  0.2112  0.9253
 1645SOL    HW216398   4.476   2.145  11.194  0.1617 -0.0764 -0.7289
 1646SOL     OW16399   2.222   1.906   5.468 -0.4537 -0.7024 -0.3833
 1646SOL    HW116400   2.183   1.980   5.421  0.7103  0.3725  0.3224
 1646SOL    HW216401   2.218   1.935   5.559  2.6462  0.4627 -0.5965
 1647SOL     OW16402   2.717   0.123  14.408  0.0183 -0.2807  0.3839
 1647SOL    HW116403   2.806   0.156  14.405  0.5303 -1.9792 -3.0388
 1647SOL    HW216404   2.688   0.157  14.493 -0.6529 -0.0318  0.0506
 1648SOL     OW16405   4.476   1.603  14.983 -0.2973 -0.1857  0.0190
 1648SOL    HW116406   4.508   1.579  15.070 -0.6547  0.6133  0.3654
 1648SOL    HW216407   4.395   1.647  15.008  1.3678  1.5571  2.3020
 1649SOL     OW16408   4.185   3.735   5.037 -0.2645  0.0178  0.5670
 1649SOL    HW116409   4.124   3.662   5.038  0.6681 -0.7494  1.1794
 1649SOL    HW216410   4.145   3.799   5.096 -0.1730  0.9867 -0.4185
 1650SOL     OW16411   3.834   0.570  13.127 -0.1480  0.2149 -0.2635
 1650SOL    HW116412   3.739   0.579  13.131 -0.0811  1.2526 -0.9217
 1650SOL    HW216413   3.847   0.492  13.182 -2.4460 -0.3828 -0.5634
 1651SOL     OW16414   0.934   4.531   4.156 -0.3313  0.5023  0.2169
 1651SOL    HW116415   0.956   4.492   4.071  0.2995  2.0781 -0.3448
 1651SOL    HW216416   1.023   4.530   4.192 -0.7539  1.2632  1.2648
 1652SOL     OW16417   0.410   1.901   3.932 -0.1620 -0.0367 -0.2210
 1652SOL    HW116418   0.431   1.832   3.995  1.2944  0.8368  0.2572
 1652SOL    HW216419   0.369   1.852   3.861  0.2755 -2.4488  1.2151
 1653SOL     OW16420   3.010   0.091  16.842 -0.5305 -0.0269 -0.6884
 1653SOL    HW116421   3.007   0.011  16.789 -1.1305  1.2728 -2.5969
 1653SOL    HW216422   2.947   0.140  16.789  0.5265  1.9291 -0.1259
 1654SOL     OW16423   1.954   1.826   4.053  0.1863 -0.3565  0.1602
 1654SOL    HW116424   1.961   1.747   4.000 -0.0697 -0.2841  0.0142
 1654SOL    HW216425   2.031   1.822   4.110  1.0343 -0.8770 -1.0473
 1655SOL     OW16426   4.178   3.730   0.354  0.4424  0.6009 -0.2782
 1655SOL    HW116427   4.118   3.799   0.325 -1.3457 -0.6790  0.3496
 1655SOL    HW216428   4.225   3.770   0.427  0.9996  0.6438 -0.6602
 1656SOL     OW16429   2.240   2.096   4.842  0.7523 -0.1969 -0.2132
 1656SOL    HW116430   2.244   2.150   4.763  1.7966 -0.8155 -0.5679
 1656SOL    HW216431   2.214   2.014   4.802 -1.4331  0.5864 -0.4020
 1657SOL     OW16432   3.072   1.841  14.247  0.4044 -0.7175  0.4563
 1657SOL    HW116433   3.093   1.842  14.153  1.2420 -0.9801  0.6367
 1657SOL    HW216434   2.977   1.842  14.243  0.4903  2.1476 -1.5413
 1658SOL     OW16435   0.287   4.685  11.138 -0.1059 -0.4847  0.0590
 1658SOL    HW116436   0.362   4.681  11.197 -1.5342 -3.3851  1.6679
 1658SOL    HW216437   0.325   0.022  11.076  0.5338  0.3877  1.3247
 1659SOL     OW16438   0.476   0.805   9.825 -0.4455 -0.0605 -0.3811
 1659SOL    HW116439   0.553   0.850   9.792 -0.3138 -0.9781 -1.3367
 1659SOL    HW216440   0.486   0.839   9.914 -0.2600 -0.7810 -0.1324
 1660SOL     OW16441   3.710   3.544  16.863  0.1159  0.4548 -0.6189
 1660SOL    HW116442   3.623   3.510  16.840  0.9334 -2.1153  0.1404
 1660SOL    HW216443   3.706   3.640  16.858  3.3592  0.6617  0.8193
 1661SOL     OW16444   2.209   2.317   8.766 -0.5247 -0.2078  0.1344
 1661SOL    HW116445   2.280   2.351   8.821 -0.8919 -1.7846  1.5592
 1661SOL    HW216446   2.203   2.233   8.810 -0.3757  0.1524  0.8395
 1662SOL     OW16447   3.743   3.434   3.955  0.2618  0.4268 -0.2861
 1662SOL    HW116448   3.789   3.358   3.920  0.9965  0.4709  0.5766
 1662SOL    HW216449   3.674   3.389   4.004  2.2190 -0.5638  1.5226
 1663SOL     OW16450   1.407   3.299   9.684  0.2160  0.1922 -0.2012
 1663SOL    HW116451   1.343   3.256   9.742 -0.1949 -0.3120 -1.0329
 1663SOL    HW216452   1.455   3.224   9.650  0.8220 -0.0325  1.1335
 1664SOL     OW16453   1.324   0.605   5.359  0.3610  0.2232 -0.4489
 1664SOL    HW116454   1.303   0.661   5.285 -0.1216 -2.9666 -2.7600
 1664SOL    HW216455   1.265   0.644   5.423  0.0445 -1.6388  0.4130
 1665SOL     OW16456   0.876   0.634   8.527 -0.1779  0.2441 -0.7255
 1665SOL    HW116457   0.880   0.728   8.510  2.0696  0.4218  0.7950
 1665SOL    HW216458   0.898   0.599   8.440  0.6831 -0.1412 -0.3475
 1666SOL     OW16459   0.330   0.772  10.346  0.0887  0.0625 -0.0989
 1666SOL    HW116460   0.400   0.771  10.411  0.6167 -0.2933 -0.6780
 1666SOL    HW216461   0.271   0.833  10.390 -1.2814 -1.1402 -0.2840
 1667SOL     OW16462   1.566   0.735  11.216 -0.2889 -0.5990 -0.1647
 1667SOL    HW116463   1.504   0.801  11.247 -0.5985 -1.8257  1.8274
 1667SOL    HW216464   1.510   0.670  11.173 -0.5896 -0.1344 -0.4806
 1668SOL     OW16465   3.877   2.526  11.719 -0.0276  0.0805  0.4416
 1668SOL    HW116466   3.882   2.552  11.627  0.7576 -0.6985  0.2581
 1668SOL    HW216467   3.896   2.610  11.760  0.2189  0.1004  0.2916
 1669SOL     OW16468   1.215   0.745   6.192 -0.2488  0.4292 -0.2998
 1669SOL    HW116469   1.149   0.713   6.130 -0.4625 -0.2837  0.3056
 1669SOL    HW216470   1.224   0.667   6.247  1.1890  0.0212 -1.1083
 1670SOL     OW16471   2.617   2.747   6.538 -0.2427  0.2429  0.1004
 1670SOL    HW116472   2.604   2.654   6.518  1.9024 -0.0261  0.0029
 1670SOL    HW216473   2.701   2.737   6.582  0.3620  0.7378 -0.9577
 1671SOL     OW16474   0.551   1.693   5.713  0.0649 -0.1500 -0.6537
 1671SOL    HW116475   0.509   1.619   5.757 -2.1335  0.5583 -1.5738
 1671SOL    HW216476   0.480   1.743   5.673  1.6155  1.4215 -1.4143
 1672SOL     OW16477   0.599   3.105   5.193 -0.2872  0.1868 -0.3316
 1672SOL    HW116478   0.632   3.016   5.207 -1.0020 -0.3253 -1.8697
 1672SOL    HW216479   0.604   3.140   5.282  0.4188  2.3152 -1.2169
 1673SOL     OW16480   4.016   2.085  13.349  0.1493  0.1594  0.1451
 1673SOL    HW116481   4.055   2.054  13.267  0.3946  0.1667  0.2607
 1673SOL    HW216482   3.985   1.997  13.373 -2.0379  0.9277  0.1635
 1674SOL     OW16483   1.709   2.533   0.149 -0.0555  0.0862 -0.1897
 1674SOL    HW116484   1.728   2.443   0.176 -0.9588 -0.1689 -0.3754
 1674SOL    HW216485   1.616   2.525   0.170 -0.6933  2.9514 -2.0005
 1675SOL     OW16486   3.082   0.471   3.570 -0.0176 -0.2004  0.0219
 1675SOL    HW116487   3.053   0.535   3.506  0.6300  0.2768  0.2096
 1675SOL    HW216488   2.999   0.429   3.593 -0.6001  0.4835 -0.8444
 1676SOL     OW16489   4.072   2.293   3.625 -0.2678  0.1704 -0.7094
 1676SOL    HW116490   4.051   2.367   3.568 -2.1623 -0.6749 -1.1257
 1676SOL    HW216491   4.141   2.254   3.571 -0.1285 -0.2873 -0.2011
 1677SOL     OW16492   3.239   3.519   8.095 -0.2888 -0.2359  0.0888
 1677SOL    HW116493   3.323   3.476   8.080 -0.1232 -0.3924  1.4769
 1677SOL    HW216494   3.249   3.577   8.020  0.6593  1.5611  1.5999
 1678SOL     OW16495   3.655   3.277   8.762  0.2285  0.2938  0.3579
 1678SOL    HW116496   3.738   3.264   8.807  1.5547  0.4422 -2.0570
 1678SOL    HW216497   3.636   3.187   8.736 -0.6883  0.5560  0.1126
 1679SOL     OW16498   4.061   0.344  17.372  0.0890  1.4687 -0.0683
 1679SOL    HW116499   4.136   0.333  17.314  1.0913  0.1609  1.4735
 1679SOL    HW216500   4.079   0.434  17.401  3.7794  0.8630 -0.5560
 1680SOL     OW16501   1.208   4.068  15.415  0.1610  0.5183  0.3966
 1680SOL    HW116502   1.137   4.119  15.456 -0.0208  0.3626  0.2751
 1680SOL    HW216503   1.265   4.134  15.375 -2.1627  1.0840 -1.9803
 1681SOL     OW16504   4.246   3.546  13.007 -0.3845  0.6309 -0.6370
 1681SOL    HW116505   4.333   3.585  12.999 -0.0847  0.1308  0.1044
 1681SOL    HW216506   4.271   3.467  13.055 -1.4755  0.4094 -0.4459
 1682SOL     OW16507   0.546   3.054   2.949 -0.2132 -0.2492  0.0680
 1682SOL    HW116508   0.544   2.979   2.889 -1.3948 -0.3051  0.1712
 1682SOL    HW216509   0.636   3.043   2.981  0.0968  0.2450 -0.6384
 1683SOL     OW16510   3.904   0.381  11.505 -0.0721 -0.4722  0.1204
 1683SOL    HW116511   3.948   0.421  11.430 -0.4329 -0.3385 -0.0220
 1683SOL    HW216512   3.918   0.457  11.561 -0.4305 -0.8355  0.7049
 1684SOL     OW16513   2.211   2.199   3.282  0.2630  0.1392  0.7891
 1684SOL    HW116514   2.146   2.269   3.285 -0.6244 -0.7911  3.0225
 1684SOL    HW216515   2.225   2.197   3.188 -0.6071  1.8176  0.6294
 1685SOL     OW16516   3.859   3.216  11.554 -0.2698  0.1763 -0.1618
 1685SOL    HW116517   3.938   3.198  11.504 -1.2216 -3.5906 -0.3209
 1685SOL    HW216518   3.797   3.231  11.483  0.4468  0.4423 -0.7268
 1686SOL     OW16519   4.009   2.374   4.111 -0.5633 -0.4263 -0.9752
 1686SOL    HW116520   3.940   2.326   4.064 -3.4578  2.5548  0.1770
 1686SOL    HW216521   4.088   2.371   4.057 -0.7350 -1.6070 -1.1560
 1687SOL     OW16522   0.936   1.288   9.730 -0.0192 -0.4184  0.5255
 1687SOL    HW116523   0.884   1.274   9.809 -1.5884  1.1622 -0.2401
 1687SOL    HW216524   1.006   1.228   9.755  0.6552 -0.2719 -1.0214
 1688SOL     OW16525   1.998   1.973   6.919  0.9100  0.3772 -0.8141
 1688SOL    HW116526   2.044   1.903   6.964 -0.2974 -0.0983 -0.3258
 1688SOL    HW216527   1.958   2.023   6.990  2.9763  1.1676 -0.2076
 1689SOL     OW16528   2.053   2.162   6.399  1.6257 -0.8766 -0.0919
 1689SOL    HW116529   1.958   2.163   6.411  1.6701 -3.3053  0.4523
 1689SOL    HW216530   2.058   2.092   6.333 -1.2448 -0.5979 -0.6049
 1690SOL     OW16531   0.740   3.872  14.194  0.0352  0.1385 -0.0180
 1690SOL    HW116532   0.794   3.820  14.135  0.6056 -1.5564  1.9826
 1690SOL    HW216533   0.780   3.959  14.195 -0.6800  0.4574  1.2590
 1691SOL     OW16534   1.152   3.922  13.000  0.1550  0.1678  0.4273
 1691SOL    HW116535   1.219   3.897  13.064 -0.9236  1.0155  1.8816
 1691SOL    HW216536   1.200   3.901  12.919 -0.7693 -2.8092  0.6541
 1692SOL     OW16537   2.588   0.221   7.870 -0.4893 -0.4848 -0.1917
 1692SOL    HW116538   2.589   0.128   7.895  1.7830  0.0034  1.5473
 1692SOL    HW216539   2.682   0.233   7.878 -0.6628  0.3175  0.7031
 1693SOL     OW16540   3.050   0.717   4.302  0.3739 -0.6436  0.4095
 1693SOL    HW116541   2.985   0.777   4.264 -0.8513 -0.5829  2.5964
 1693SOL    HW216542   3.112   0.772   4.350  2.1102 -3.2142  1.0870
 1694SOL     OW16543   1.395   4.066   5.586 -0.0833 -0.4646 -0.6843
 1694SOL    HW116544   1.354   4.069   5.672 -0.3859  0.3580 -0.8673
 1694SOL    HW216545   1.460   3.997   5.601  0.1580  0.1717  1.1692
 1695SOL     OW16546   2.276   1.709   5.902  0.0091  0.1665  0.2810
 1695SOL    HW116547   2.299   1.712   5.809  0.4124 -2.1137  0.2967
 1695SOL    HW216548   2.364   1.705   5.940 -0.0224  0.0807  0.3446
 1696SOL     OW16549   0.857   4.321   5.000 -0.8609  0.1154  0.8102
 1696SOL    HW116550   0.817   4.283   5.078 -1.8058  0.3288  0.4216
 1696SOL    HW216551   0.788   4.365   4.951 -0.1846 -2.7436 -2.7357
 1697SOL     OW16552   0.814   1.696  10.898  0.3443  0.1407  0.0139
 1697SOL    HW116553   0.841   1.638  10.969 -1.0184  1.1444  1.3382
 1697SOL    HW216554   0.788   1.775  10.945  0.8525  1.8595 -2.6190
 1698SOL     OW16555   1.648   4.540   1.961  0.4159  0.1286  0.6060
 1698SOL    HW116556   1.605   4.590   1.892  1.1931 -0.4563 -0.3090
 1698SOL    HW216557   1.730   4.590   1.964 -1.0037  2.3182  2.0177
 1699SOL     OW16558   0.066   2.969   7.022 -0.1823 -0.0748 -0.3656
 1699SOL    HW116559   0.090   2.937   6.935 -0.6459  2.3957 -1.3914
 1699SOL    HW216560   0.065   2.884   7.066 -1.6551  0.1621  0.0374
 1700SOL     OW16561   3.209   1.317   8.365 -0.0596  0.5884 -0.1036
 1700SOL    HW116562   3.221   1.353   8.278 -0.1140 -0.0650 -0.3810
 1700SOL    HW216563   3.294   1.273   8.377 -0.2619  0.2412  0.0758
 1701SOL     OW16564   3.405   4.283   8.820  0.6001  0.1971  0.1338
 1701SOL    HW116565   3.459   4.217   8.864  0.3801 -0.2049 -0.1992
 1701SOL    HW216566   3.388   4.237   8.738 -0.4037 -0.2960  0.6105
 1702SOL     OW16567   4.596   2.632   7.187 -0.1225  0.0503 -0.1626
 1702SOL    HW116568   4.673   2.684   7.209  0.0752 -0.9268  1.4698
 1702SOL    HW216569   4.624   2.542   7.202  0.7763  0.2156 -0.9018
 1703SOL     OW16570   3.188   3.325  15.060  0.3021 -0.4119  0.1574
 1703SOL    HW116571   3.243   3.274  15.000 -1.2572 -0.4135 -1.2823
 1703SOL    HW216572   3.114   3.351  15.004  2.2503  1.3805 -1.5921
 1704SOL     OW16573   3.367   4.550   9.341  0.4583 -0.2847 -0.4110
 1704SOL    HW116574   3.306   4.495   9.292  2.4037 -1.0798 -1.9917
 1704SOL    HW216575   3.434   4.555   9.272  0.5294 -1.5529 -0.4327
 1705SOL     OW16576   4.230   1.163  14.833 -0.2635 -0.1357 -0.5837
 1705SOL    HW116577   4.267   1.075  14.822 -2.2517 -0.9880 -0.5252
 1705SOL    HW216578   4.204   1.194  14.747 -0.0679 -0.0929 -0.6267
 1706SOL     OW16579   2.102   1.845  11.825  0.4802  0.6774 -0.1239
 1706SOL    HW116580   2.024   1.799  11.795  0.9288 -0.3680  0.3222
 1706SOL    HW216581   2.165   1.804  11.766 -0.1342 -3.2185  1.9644
 1707SOL     OW16582   2.596   1.557   2.289  0.9668 -0.4101 -0.8232
 1707SOL    HW116583   2.661   1.625   2.271  2.3389 -1.4235  0.3702
 1707SOL    HW216584   2.619   1.538   2.380  0.4652 -2.3810 -1.0962
 1708SOL     OW16585   0.152   3.983   5.913 -0.4865  0.4604 -0.4140
 1708SOL    HW116586   0.196   3.904   5.946 -0.2999  1.8416  2.6282
 1708SOL    HW216587   0.155   4.047   5.985 -2.5579  2.9291 -2.5538
 1709SOL     OW16588   1.747   0.583   8.004  0.1144  0.2089 -0.0076
 1709SOL    HW116589   1.781   0.593   7.915  2.4274 -0.5817  0.8072
 1709SOL    HW216590   1.720   0.491   8.002 -1.7651  0.8147 -2.5863
 1710SOL     OW16591   0.541   4.035   7.462  0.7068  0.1373 -0.6059
 1710SOL    HW116592   0.530   4.127   7.483 -1.7066 -0.4240  0.6258
 1710SOL    HW216593   0.631   4.023   7.432  0.6044  0.6810 -1.1152
 1711SOL     OW16594   3.945   0.951   7.033 -0.1047 -0.2922 -0.0663
 1711SOL    HW116595   3.927   0.880   7.094  0.4590 -1.2053 -0.9702
 1711SOL    HW216596   3.877   0.929   6.970 -0.8741  0.0756  0.6313
 1712SOL     OW16597   1.488   0.280   0.460 -0.0686 -1.0172 -0.5098
 1712SOL    HW116598   1.518   0.262   0.371 -2.6768  3.3415 -2.2829
 1712SOL    HW216599   1.536   0.360   0.484  1.1687 -1.9209 -0.0009
 1713SOL     OW16600   3.599   1.199   6.838 -0.0660 -0.0901 -0.2750
 1713SOL    HW116601   3.613   1.289   6.868 -1.3791 -0.0069  0.0584
 1713SOL    HW216602   3.618   1.205   6.744  0.9582 -2.3841 -0.2049
 1714SOL     OW16603   3.974   0.195   4.341  0.3100  0.2359  0.1310
 1714SOL    HW116604   4.039   0.257   4.307  0.3644  0.9172  1.4919
 1714SOL    HW216605   4.035   0.128   4.373 -1.0224 -0.1405  1.9339
 1715SOL     OW16606   1.819   2.273  15.474 -0.7167 -0.1264 -0.1917
 1715SOL    HW116607   1.804   2.336  15.404 -6.2822  0.1063  1.1525
 1715SOL    HW216608   1.910   2.292  15.495 -1.7919  1.4681  3.0232
 1716SOL     OW16609   4.020   0.541   4.458  0.3475 -0.5123 -0.1274
 1716SOL    HW116610   4.026   0.635   4.472 -1.1085 -0.3403 -0.6234
 1716SOL    HW216611   3.967   0.526   4.379  1.8978 -0.7954 -1.1173
 1717SOL     OW16612   2.539   1.064   6.203 -0.0464 -0.2825  0.2373
 1717SOL    HW116613   2.559   1.030   6.290  0.2419 -0.3860  0.1314
 1717SOL    HW216614   2.490   0.991   6.165  1.5452 -2.1964  1.8905
 1718SOL     OW16615   4.205   0.072   9.709  0.5210  0.6861 -0.1823
 1718SOL    HW116616   4.214   0.158   9.750  1.0264  0.1167  0.9047
 1718SOL    HW216617   4.284   0.037   9.750 -1.2062 -0.6458  1.9647
 1719SOL     OW16618   1.448   2.546   0.533  1.0003  0.1596 -0.1736
 1719SOL    HW116619   1.456   2.526   0.627 -4.7729  1.5648  0.5896
 1719SOL    HW216620   1.411   2.634   0.544 -1.6376 -1.0843  0.8786
 1720SOL     OW16621   2.881   1.055   2.784  0.0796 -0.4457  0.1115
 1720SOL    HW116622   2.975   1.038   2.786  0.4559  1.3372 -2.3444
 1720SOL    HW216623   2.857   1.008   2.704 -3.1176  0.1363  0.7298
 1721SOL     OW16624   4.222   2.182  10.993  0.3222  0.2179 -0.1271
 1721SOL    HW116625   4.302   2.214  11.035  1.4461 -2.5715 -0.1100
 1721SOL    HW216626   4.172   2.263  10.998 -0.5087 -0.4292  2.0159
 1722SOL     OW16627   1.583   4.546   7.609 -0.0244  0.1535 -0.5262
 1722SOL    HW116628   1.499   4.557   7.653  0.2097 -3.4274  0.7839
 1722SOL    HW216629   1.601   4.453   7.624  0.4720  0.6521  2.0120
 1723SOL     OW16630   1.069   4.632   6.227 -0.2397  0.1226 -0.1093
 1723SOL    HW116631   1.127   4.582   6.169  0.7143  0.4248  0.5699
 1723SOL    HW216632   1.108   4.717   6.208 -0.0333  0.7452  3.0450
 1724SOL     OW16633   1.713   2.744   9.992 -0.3364  0.0582  0.5537
 1724SOL    HW116634   1.809   2.744   9.982 -0.4080 -1.0432 -0.1306
 1724SOL    HW216635   1.691   2.837   9.985 -0.5594 -0.0708 -0.4661
 1725SOL     OW16636   3.984   0.799  13.154 -0.0912  0.3447 -0.0922
 1725SOL    HW116637   3.987   0.825  13.246 -1.6572  2.3749 -0.6129
 1725SOL    HW216638   3.914   0.733  13.150 -0.9239  1.1332  1.3847
 1726SOL     OW16639   3.374   1.777  11.848  0.8326  0.2060 -0.5924
 1726SOL    HW116640   3.312   1.730  11.792  1.1749 -1.2061  0.2115
 1726SOL    HW216641   3.412   1.845  11.793 -0.8295  0.4578 -1.4196
 1727SOL     OW16642   2.362   1.239   9.432  0.6667  0.7298 -0.2963
 1727SOL    HW116643   2.435   1.252   9.372  2.5402 -2.1803  1.3781
 1727SOL    HW216644   2.319   1.325   9.429 -0.9370 -0.0752 -0.4523
 1728SOL     OW16645   4.374   3.747   0.620 -0.4395 -0.5044  0.0897
 1728SOL    HW116646   4.405   3.668   0.576 -1.4314 -0.8550  0.0324
 1728SOL    HW216647   4.458   3.791   0.636 -0.8169 -0.2540  1.3641
 1729SOL     OW16648   1.560   2.146   9.156  0.8083 -0.1428  0.0943
 1729SOL    HW116649   1.491   2.087   9.187  1.9796  0.0314  3.0223
 1729SOL    HW216650   1.544   2.225   9.208 -1.2955  1.0457 -2.3687
 1730SOL     OW16651   1.307   3.725   5.334  0.2627 -0.3876  0.3143
 1730SOL    HW116652   1.287   3.815   5.359  0.0157 -0.7741  1.5180
 1730SOL    HW216653   1.256   3.672   5.395 -1.1066  0.0671 -0.4402
 1731SOL     OW16654   2.719   0.113   3.971  0.0544  0.6070 -0.0882
 1731SOL    HW116655   2.814   0.113   3.955  0.0869  1.6379  0.0516
 1731SOL    HW216656   2.685   0.129   3.883 -0.1513 -0.4836 -0.1972
 1732SOL     OW16657   2.676   2.078  10.953  0.1377  0.3256  0.0485
 1732SOL    HW116658   2.613   2.039  11.013  0.8255  1.8247  1.7639
 1732SOL    HW216659   2.667   2.023  10.875 -0.6011 -1.2318  1.2412
 1733SOL     OW16660   2.898   1.697  17.310 -0.3147  0.0740 -0.4001
 1733SOL    HW116661   2.955   1.721  17.238 -0.2381  0.1880 -0.3011
 1733SOL    HW216662   2.901   1.784  17.350  0.2601 -0.7991  1.4497
 1734SOL     OW16663   3.388   0.593  14.428 -0.1392 -0.1156  0.0928
 1734SOL    HW116664   3.448   0.642  14.371 -1.0667 -2.2522 -2.7303
 1734SOL    HW216665   3.444   0.524  14.462  0.4156  0.4010  0.2184
 1735SOL     OW16666   0.579   1.121   5.928 -0.0183 -0.8012 -0.4965
 1735SOL    HW116667   0.674   1.120   5.935  0.0447 -0.2630 -1.3015
 1735SOL    HW216668   0.579   1.158   5.840  0.3042 -0.4446 -0.3450
 1736SOL     OW16669   2.508   1.888   5.398  0.1380 -0.4137 -0.0338
 1736SOL    HW116670   2.483   1.963   5.452  1.5674 -1.7048  2.4204
 1736SOL    HW216671   2.418   1.861   5.376  0.2344 -0.0173 -0.9367
 1737SOL     OW16672   3.522   0.870  13.707  0.2211 -0.8000 -0.2424
 1737SOL    HW116673   3.583   0.848  13.637  1.1584 -1.3117  0.7328
 1737SOL    HW216674   3.473   0.788  13.708 -0.1007 -0.5758  1.8572
 1738SOL     OW16675   3.359   0.355  14.872  0.0837  0.4488 -0.8730
 1738SOL    HW116676   3.422   0.386  14.807  1.0815  0.6636  0.1831
 1738SOL    HW216677   3.331   0.436  14.914 -0.8823 -1.8802  3.0054
 1739SOL     OW16678   0.798   3.821   7.313  0.1807 -0.3081  0.3611
 1739SOL    HW116679   0.805   3.728   7.332  1.6051 -0.3512 -0.3369
 1739SOL    HW216680   0.778   3.814   7.220  0.9784  2.9087 -0.0729
 1740SOL     OW16681   2.032   0.953   2.155  0.0882  0.0174  0.2838
 1740SOL    HW116682   1.960   0.893   2.172  1.5348 -1.3575  1.6093
 1740SOL    HW216683   1.994   1.013   2.091 -0.3194  0.8815  1.3473
 1741SOL     OW16684   0.355   0.503   0.528 -0.3838 -0.3470  0.3223
 1741SOL    HW116685   0.267   0.496   0.565 -0.6923  0.4925 -0.2514
 1741SOL    HW216686   0.343   0.544   0.443  0.8862 -0.6799 -0.0149
 1742SOL     OW16687   4.696   3.357   6.560  0.2526 -0.4748 -0.5119
 1742SOL    HW116688   4.642   3.386   6.634 -0.8241  1.5773 -2.1214
 1742SOL    HW216689   0.005   3.275   6.596  3.0688  1.4109  1.1121
 1743SOL     OW16690   1.741   1.433   3.551 -0.2994 -0.2245  0.3271
 1743SOL    HW116691   1.709   1.409   3.638  0.8892 -1.6606  0.3541
 1743SOL    HW216692   1.824   1.473   3.576  1.3536 -2.5542 -1.4199
 1744SOL     OW16693   2.065   0.590   0.499  0.2416  0.3709 -0.5300
 1744SOL    HW116694   2.106   0.677   0.492  2.1271 -0.3049  2.3409
 1744SOL    HW216695   1.994   0.612   0.439  0.7962  1.7485 -0.6989
 1745SOL     OW16696   2.793   3.906  12.429  0.3326 -0.1959 -0.0677
 1745SOL    HW116697   2.816   3.929  12.519 -2.2634  2.1663  0.0021
 1745SOL    HW216698   2.881   3.882  12.401  0.7148 -0.9615  1.7409
 1746SOL     OW16699   4.383   0.847   3.352  0.2525  0.1232 -0.2924
 1746SOL    HW116700   4.425   0.901   3.419  0.9190 -1.7409  0.8016
 1746SOL    HW216701   4.440   0.873   3.280 -1.1989  0.6940 -1.2209
 1747SOL     OW16702   0.589   0.248  11.064  0.0713 -0.2329 -0.1696
 1747SOL    HW116703   0.622   0.301  11.137 -1.8624  0.2656  0.3338
 1747SOL    HW216704   0.570   0.328  11.015  2.8657  1.5170  1.5582
 1748SOL     OW16705   1.089   2.493   1.097  0.3981  0.1432  0.0884
 1748SOL    HW116706   1.035   2.426   1.140  1.4192  0.6827  2.2157
 1748SOL    HW216707   1.153   2.435   1.056  1.6237  3.3350 -2.5191
 1749SOL     OW16708   3.326   3.941  15.692  0.5719 -0.0978 -0.6963
 1749SOL    HW116709   3.235   3.914  15.707  0.1230  1.1999 -1.0711
 1749SOL    HW216710   3.307   4.017  15.636 -1.9700  0.8937  1.5151
 1750SOL     OW16711   1.433   3.173  10.070 -0.2738 -0.6140 -0.8476
 1750SOL    HW116712   1.351   3.163  10.021 -0.1185 -3.8875 -0.3983
 1750SOL    HW216713   1.476   3.090  10.051 -1.8811 -1.7894  0.6986
 1751SOL     OW16714   4.429   3.841   4.495 -0.6756  0.0534  0.1690
 1751SOL    HW116715   4.398   3.854   4.585 -1.9520  0.6500 -0.3531
 1751SOL    HW216716   4.512   3.885   4.516 -0.2727  1.3305 -4.1680
 1752SOL     OW16717   0.022   3.175   0.934  0.2553 -0.1607  0.5749
 1752SOL    HW116718   0.030   3.218   1.019 -0.1481  1.9048 -0.4369
 1752SOL    HW216719   0.085   3.103   0.936 -0.2510 -0.5792  1.5427
 1753SOL     OW16720   4.114   4.576   5.146  0.2092 -0.1284 -0.2645
 1753SOL    HW116721   4.051   4.520   5.191  0.0867  0.6047  0.4771
 1753SOL    HW216722   4.176   4.584   5.219 -0.1220  1.9605 -0.2063
 1754SOL     OW16723   0.476   1.198   4.898 -0.6037 -0.0567  0.2785
 1754SOL    HW116724   0.422   1.262   4.851  2.7416  3.3153  1.0092
 1754SOL    HW216725   0.507   1.259   4.965 -2.5700  1.0706  0.1872
 1755SOL     OW16726   4.037   1.435   9.831 -0.1996  0.4940  0.4937
 1755SOL    HW116727   4.056   1.525   9.807 -0.0062  0.9312  2.3416
 1755SOL    HW216728   4.034   1.400   9.742 -0.1721  1.4616  0.1169
 1756SOL     OW16729   1.544   2.781   5.541 -0.2239 -0.7778 -0.8371
 1756SOL    HW116730   1.448   2.787   5.547 -0.0396  1.2290  0.1940
 1756SOL    HW216731   1.563   2.755   5.631 -1.3589  0.8991 -0.1005
 1757SOL     OW16732   2.811   4.048  10.658  0.2837  0.0440  0.3292
 1757SOL    HW116733   2.797   4.063  10.564  2.3625  0.9962  0.1597
 1757SOL    HW216734   2.861   3.968  10.644 -1.6526 -1.2205  0.7633
 1758SOL     OW16735   0.696   1.774   6.837 -0.0022  0.5214  0.0131
 1758SOL    HW116736   0.600   1.784   6.838 -0.0149  0.1983  1.6287
 1758SOL    HW216737   0.711   1.720   6.759 -0.8446  2.6993 -1.6811
 1759SOL     OW16738   2.620   2.519   7.181 -0.2694  0.1274 -0.8973
 1759SOL    HW116739   2.646   2.536   7.271  1.7832 -1.3566 -1.2203
 1759SOL    HW216740   2.652   2.429   7.174  0.7266  0.4008  0.1610
 1760SOL     OW16741   1.969   1.883  15.144  0.4174 -0.2831 -0.3592
 1760SOL    HW116742   2.014   1.835  15.075  1.5666 -0.8906  0.7999
 1760SOL    HW216743   1.975   1.822  15.218  0.3085  0.8629  0.5863
 1761SOL     OW16744   2.281   1.315   1.838 -0.2202 -0.3582  0.1068
 1761SOL    HW116745   2.323   1.378   1.780  0.0029 -0.4953  0.1182
 1761SOL    HW216746   2.320   1.346   1.920 -1.9186  0.8267  0.4600
 1762SOL     OW16747   0.939   2.124   7.847  0.5057 -0.1912 -0.1853
 1762SOL    HW116748   0.944   2.092   7.937 -2.5510 -1.5454 -0.4895
 1762SOL    HW216749   0.884   2.050   7.823 -2.9987  1.9628  1.0808
 1763SOL     OW16750   2.862   3.463   1.780  0.8935  0.2299  1.1185
 1763SOL    HW116751   2.913   3.425   1.708  0.6637  0.1320  1.0041
 1763SOL    HW216752   2.796   3.395   1.799 -0.0480  0.5127 -1.0858
 1764SOL     OW16753   1.114   3.390   8.940 -0.0739 -0.1379 -0.2365
 1764SOL    HW116754   1.111   3.475   8.895  0.0474 -0.7838 -1.4552
 1764SOL    HW216755   1.163   3.417   9.019  1.2894  0.2527 -1.2163
 1765SOL     OW16756   1.330   0.786  16.206 -0.4412  0.5534 -0.1781
 1765SOL    HW116757   1.392   0.829  16.264  1.3098 -0.6123 -1.2025
 1765SOL    HW216758   1.380   0.782  16.125 -0.9319  0.3143 -0.4744
 1766SOL     OW16759   3.675   1.316   5.363  0.1329 -0.2787  0.2861
 1766SOL    HW116760   3.622   1.388   5.329 -1.4246 -0.7656  1.7179
 1766SOL    HW216761   3.655   1.339   5.454 -0.2632  2.1403 -0.4305
 1767SOL     OW16762   1.900   2.692   0.056 -0.0104 -0.1170  0.1144
 1767SOL    HW116763   1.823   2.670   0.109 -1.1419 -0.2701 -1.6267
 1767SOL    HW216764   1.979   2.679   0.110  0.8626  2.6463 -0.4767
 1768SOL     OW16765   2.891   1.284  11.046 -0.7319 -0.3158  0.4544
 1768SOL    HW116766   2.961   1.348  11.052 -1.5641  0.7297 -1.0553
 1768SOL    HW216767   2.845   1.332  10.978 -0.4829  0.0145  0.5220
 1769SOL     OW16768   3.243   2.546  17.406 -0.6203 -0.2988  0.4032
 1769SOL    HW116769   3.283   2.463  17.381  2.2870  0.8619  1.2776
 1769SOL    HW216770   3.308   2.588  17.463  0.5313  0.8510 -1.7373
 1770SOL     OW16771   2.365   2.538   7.107 -0.2934  0.4344  0.0204
 1770SOL    HW116772   2.455   2.531   7.138 -0.4710 -0.8896  0.2710
 1770SOL    HW216773   2.373   2.475   7.035  1.2737 -0.3448  0.8837
 1771SOL     OW16774   3.646   3.468   9.472  0.5227 -0.4745 -0.3408
 1771SOL    HW116775   3.573   3.407   9.462  1.0258 -0.9155 -1.2705
 1771SOL    HW216776   3.613   3.541   9.421 -2.1558  0.1759  2.3525
 1772SOL     OW16777   2.651   3.403   3.544 -0.4647 -0.4506 -0.3371
 1772SOL    HW116778   2.641   3.447   3.460  0.7440 -1.6654 -1.1307
 1772SOL    HW216779   2.623   3.316   3.515  2.2574 -1.7958  0.9779
 1773SOL     OW16780   1.012   2.122  17.530  0.4419  0.2251  0.2359
 1773SOL    HW116781   1.093   2.097  17.485 -2.1182 -3.7836 -2.1814
 1773SOL    HW216782   0.955   2.139  17.455  0.4411  0.4543  0.2877
 1774SOL     OW16783   2.081   0.452   0.043 -0.1587 -0.2110 -0.3621
 1774SOL    HW116784   2.176   0.465   0.053 -0.2719  0.9120 -0.7681
 1774SOL    HW216785   2.064   0.391   0.115 -0.2590 -1.1116 -1.1566
 1775SOL     OW16786   3.797   0.128   8.076  0.2648  0.4570 -0.3917
 1775SOL    HW116787   3.756   0.214   8.088 -2.5883 -0.9168 -0.1828
 1775SOL    HW216788   3.807   0.098   8.166  0.9741 -0.2008 -0.6952
 1776SOL     OW16789   0.842   2.912   8.745 -0.7000  0.3093 -0.2119
 1776SOL    HW116790   0.864   3.001   8.775 -1.9330  0.8066 -0.7963
 1776SOL    HW216791   0.808   2.927   8.657  1.0565  1.7242 -0.6499
 1777SOL     OW16792   1.919   2.443   4.427  0.2767 -0.0109 -0.7529
 1777SOL    HW116793   2.012   2.469   4.426  0.4102 -0.4707 -0.0291
 1777SOL    HW216794   1.921   2.370   4.365  1.9105 -0.4160 -0.2338
 1778SOL     OW16795   0.753   3.003   9.824  0.8639  0.2267 -0.3493
 1778SOL    HW116796   0.768   3.014   9.918 -0.1643 -1.6593  0.0222
 1778SOL    HW216797   0.757   3.093   9.792  2.8847  0.2960  0.0904
 1779SOL     OW16798   2.720   1.004   3.900 -0.7683  0.0647 -0.5856
 1779SOL    HW116799   2.747   1.083   3.945  0.0482  0.0141 -0.9876
 1779SOL    HW216800   2.631   1.029   3.875 -0.5097  0.9451 -0.5950
 1780SOL     OW16801   4.151   1.952   5.367  0.1626 -0.2161  0.2436
 1780SOL    HW116802   4.069   2.000   5.378  0.4401  0.0592  1.1453
 1780SOL    HW216803   4.175   1.973   5.276  0.3474 -0.5745  0.2102
 1781SOL     OW16804   3.993   0.982   8.104  0.1927  0.8634 -0.6384
 1781SOL    HW116805   3.986   0.902   8.155 -0.8201  1.3160 -0.0579
 1781SOL    HW216806   3.931   0.968   8.032  1.6443 -1.0533 -1.5289
 1782SOL     OW16807   4.395   2.207   9.216  0.2100 -0.4799 -0.4281
 1782SOL    HW116808   4.321   2.219   9.156  0.4434 -4.3356 -1.4579
 1782SOL    HW216809   4.378   2.270   9.286  1.3381 -1.8952  1.0971
 1783SOL     OW16810   3.272   0.482  11.587 -0.2572  0.4101 -1.5597
 1783SOL    HW116811   3.285   0.478  11.493 -0.0439 -3.2085 -1.3806
 1783SOL    HW216812   3.178   0.492  11.604  0.0289  1.1115 -0.3901
 1784SOL     OW16813   2.486   0.947   4.300  0.1075 -0.2166 -0.3290
 1784SOL    HW116814   2.489   0.863   4.345  0.1804  0.5543  1.1238
 1784SOL    HW216815   2.422   0.996   4.352 -1.1508 -1.2212 -0.9521
 1785SOL     OW16816   2.844   3.292   3.928  0.0071 -0.0595  0.3868
 1785SOL    HW116817   2.820   3.349   4.001  1.1350 -0.3859  1.0061
 1785SOL    HW216818   2.769   3.310   3.870  1.2940  2.3891 -0.5219
 1786SOL     OW16819   3.136   2.717  16.315  0.1257 -0.8700  0.6494
 1786SOL    HW116820   3.203   2.772  16.275 -2.2545  0.2414 -1.7803
 1786SOL    HW216821   3.180   2.696  16.397  0.5658  0.2970  0.7111
 1787SOL     OW16822   1.171   4.639   4.925 -0.6667  0.2327  0.0867
 1787SOL    HW116823   1.184   0.000   4.965  0.9029  0.5627 -1.1633
 1787SOL    HW216824   1.182   4.583   5.002 -0.8729 -2.3636 -1.7770
 1788SOL     OW16825   4.158   1.257  14.066 -0.5371 -0.1306  0.2283
 1788SOL    HW116826   4.178   1.307  14.145 -1.2551  0.7475 -0.1419
 1788SOL    HW216827   4.104   1.193  14.111  0.4743 -1.6282 -0.7059
 1789SOL     OW16828   4.115   2.087   8.935  0.2617 -0.2590 -0.6242
 1789SOL    HW116829   4.032   2.040   8.942 -1.1050  1.8108 -2.6435
 1789SOL    HW216830   4.130   2.136   9.016 -0.9154  1.1423 -1.2555
 1790SOL     OW16831   3.163   3.401   7.745 -0.1493  0.3523 -0.0660
 1790SOL    HW116832   3.132   3.341   7.677  0.1544  0.9395 -0.7256
 1790SOL    HW216833   3.207   3.471   7.696  1.9995 -1.2919 -0.4644
 1791SOL     OW16834   3.030   3.465   9.483 -0.6757 -0.3185 -0.4137
 1791SOL    HW116835   2.959   3.508   9.531 -0.4072  0.5565 -0.8019
 1791SOL    HW216836   3.018   3.374   9.510 -1.4256  0.0509  0.5250
 1792SOL     OW16837   1.556   3.091   8.921  0.6099  0.0297  0.0383
 1792SOL    HW116838   1.543   3.020   8.858  0.1424  1.8634 -1.9094
 1792SOL    HW216839   1.472   3.136   8.923  0.7435  0.1780  2.7206
 1793SOL     OW16840   2.416   0.317  11.718  0.4696  0.0476 -0.0331
 1793SOL    HW116841   2.497   0.309  11.767  0.6586  2.2483 -0.0025
 1793SOL    HW216842   2.355   0.351  11.784 -1.2649 -1.0243 -1.0680
 1794SOL     OW16843   0.916   1.645   5.181  0.1102  0.0310 -0.3935
 1794SOL    HW116844   0.969   1.703   5.236 -0.8575  1.2576 -0.7407
 1794SOL    HW216845   0.925   1.677   5.091 -0.3542  0.7341 -0.1969
 1795SOL     OW16846   2.767   1.204   5.848 -0.2561 -0.1284  0.3626
 1795SOL    HW116847   2.846   1.167   5.807 -0.2649  1.1259 -0.7838
 1795SOL    HW216848   2.764   1.154   5.930  0.1392 -0.8274 -0.0494
 1796SOL     OW16849   0.836   2.184  17.335 -0.3346 -0.3640 -0.3441
 1796SOL    HW116850   0.804   2.269  17.306 -0.2973  0.1219  1.0372
 1796SOL    HW216851   0.752   2.148  17.361 -0.6069  1.2209  0.9495
 1797SOL     OW16852   0.089   1.161   7.052  0.0346 -0.5816  0.5004
 1797SOL    HW116853   0.096   1.086   7.112  3.1466  0.0135  0.8797
 1797SOL    HW216854   0.101   1.234   7.113 -1.0473 -0.6355  0.7739
 1798SOL     OW16855   1.971   1.628   4.618  0.2264 -0.0560 -0.4932
 1798SOL    HW116856   1.940   1.717   4.637  1.0163  0.5602 -2.1148
 1798SOL    HW216857   1.973   1.590   4.706 -0.0798  0.0776 -0.4304
 1799SOL     OW16858   1.053   2.678   4.314 -0.3067  0.1420 -0.0189
 1799SOL    HW116859   1.046   2.704   4.406  0.1732 -2.4923  0.7728
 1799SOL    HW216860   1.148   2.690   4.308 -0.4783  0.2380 -2.1800
 1800SOL     OW16861   4.038   4.095   6.724 -0.6417 -0.4571 -0.3383
 1800SOL    HW116862   4.077   4.149   6.793 -0.9623  0.1748 -0.6570
 1800SOL    HW216863   3.949   4.130   6.726 -0.6613 -0.6564  1.5942
 1801SOL     OW16864   0.669   3.889  13.169 -0.1316  0.7519 -0.3019
 1801SOL    HW116865   0.692   3.796  13.163 -1.2668  0.4141  0.3526
 1801SOL    HW216866   0.721   3.923  13.097  1.4528 -0.2295  0.3862
 1802SOL     OW16867   1.417   2.043   9.900 -0.1418  0.0592 -0.1727
 1802SOL    HW116868   1.409   1.947   9.895  0.1367 -0.0501  1.3609
 1802SOL    HW216869   1.476   2.048   9.825 -0.1988 -1.3293 -0.3140
 1803SOL     OW16870   1.246   0.832  13.860 -0.9109  0.0004 -0.6069
 1803SOL    HW116871   1.207   0.744  13.857 -0.3990 -0.2099 -1.1513
 1803SOL    HW216872   1.340   0.823  13.871 -0.8986  0.5456 -0.2683
 1804SOL     OW16873   0.124   2.320   4.375 -0.3491  0.4381  0.5576
 1804SOL    HW116874   0.194   2.346   4.315 -0.1966 -2.5333 -0.5159
 1804SOL    HW216875   0.046   2.328   4.320  0.2390  0.4348 -0.2628
 1805SOL     OW16876   4.132   4.607   2.609 -0.3978  0.1674  0.8644
 1805SOL    HW116877   4.082   4.655   2.543 -2.5184 -0.7736  1.7769
 1805SOL    HW216878   4.150   4.529   2.556 -1.9895 -2.5652  4.2753
 1806SOL     OW16879   1.258   4.151   6.267 -0.8643 -0.3262 -0.3732
 1806SOL    HW116880   1.194   4.092   6.227 -1.9283  0.3171  0.4011
 1806SOL    HW216881   1.290   4.104   6.344 -2.5571  0.9002  1.0773
 1807SOL     OW16882   4.187   3.625   3.655  0.3343 -0.0708 -0.2873
 1807SOL    HW116883   4.255   3.589   3.599  0.6552  0.1267 -0.0268
 1807SOL    HW216884   4.223   3.713   3.671  0.1634 -0.1029  0.2838
 1808SOL     OW16885   1.726   4.159  16.752  0.1798 -0.4590 -0.0849
 1808SOL    HW116886   1.809   4.112  16.749 -0.0223 -0.8258  0.0903
 1808SOL    HW216887   1.665   4.087  16.763  1.8598 -1.6056  1.7564
 1809SOL     OW16888   1.254   1.864  13.615  0.3654 -0.2258  0.1885
 1809SOL    HW116889   1.230   1.927  13.683  2.4850  1.3099 -0.5211
 1809SOL    HW216890   1.311   1.911  13.555  2.7830 -1.6190  1.3931
 1810SOL     OW16891   0.243   0.586  16.308  0.0287 -0.3281  0.5302
 1810SOL    HW116892   0.234   0.507  16.362 -0.3516 -1.4768 -1.1982
 1810SOL    HW216893   0.151   0.595  16.282  0.3000 -0.6284 -0.5585
 1811SOL     OW16894   0.425   1.324   1.254  0.4897  0.2550 -0.2897
 1811SOL    HW116895   0.509   1.309   1.297 -0.5104 -2.1577  0.8583
 1811SOL    HW216896   0.431   1.271   1.174  1.3274 -1.4011  0.8704
 1812SOL     OW16897   1.909   0.893  15.718 -0.1340  0.0577 -0.4826
 1812SOL    HW116898   1.910   0.890  15.622  0.3385 -0.6131 -0.4539
 1812SOL    HW216899   1.997   0.911  15.751 -0.0990 -0.3535 -0.3591
 1813SOL     OW16900   0.488   1.462  16.297  0.0607 -0.3980  0.1244
 1813SOL    HW116901   0.428   1.393  16.270 -0.2238  0.0130 -0.2968
 1813SOL    HW216902   0.491   1.449  16.392 -0.7157 -4.1359 -0.3603
 1814SOL     OW16903   2.840   0.754  15.511 -0.0330  0.0021  0.0107
 1814SOL    HW116904   2.865   0.836  15.467 -0.8803  0.3219  0.1237
 1814SOL    HW216905   2.756   0.785  15.546 -0.0948  0.3992 -0.4751
 1815SOL     OW16906   4.134   1.418  11.406 -0.1558  0.3941 -0.6656
 1815SOL    HW116907   4.117   1.501  11.360 -2.6237  0.4544  0.3529
 1815SOL    HW216908   4.048   1.381  11.426 -0.0463 -0.4630 -1.8259
 1816SOL     OW16909   0.985   0.746   9.775  0.4656  0.4990  0.5365
 1816SOL    HW116910   0.978   0.826   9.723  0.3785  0.7409  0.9187
 1816SOL    HW216911   1.068   0.763   9.819  0.6570 -2.3852  1.3239
 1817SOL     OW16912   1.958   0.730   3.682 -0.1702 -0.5685  0.1030
 1817SOL    HW116913   2.021   0.765   3.745 -1.2276  0.2014  0.7240
 1817SOL    HW216914   1.966   0.796   3.613 -0.5884 -0.4076  0.2051
 1818SOL     OW16915   2.837   3.247  17.418  0.0149  0.3212 -0.2725
 1818SOL    HW116916   2.825   3.155  17.396 -1.3989  0.0909  1.4984
 1818SOL    HW216917   2.846   3.274  17.326 -3.1848 -0.0630 -0.6981
 1819SOL     OW16918   1.370   2.562  14.058  0.4086 -0.1738 -0.6719
 1819SOL    HW116919   1.275   2.552  14.069  0.7321  0.1291  2.3819
 1819SOL    HW216920   1.410   2.506  14.125  0.2774  1.8289  1.1077
 1820SOL     OW16921   0.318   3.231  12.376  0.5907 -0.6450  0.2653
 1820SOL    HW116922   0.257   3.168  12.339 -0.2105  1.1739 -1.5420
 1820SOL    HW216923   0.262   3.275  12.440 -1.3569 -0.7093 -1.4158
 1821SOL     OW16924   3.914   3.565   6.858  0.3246 -0.3926 -0.0601
 1821SOL    HW116925   3.951   3.571   6.946 -1.4103 -0.5947  0.6914
 1821SOL    HW216926   3.942   3.650   6.825 -0.1915 -1.4583 -3.2379
 1822SOL     OW16927   2.233   1.569   4.522  0.3715 -0.1099  0.3453
 1822SOL    HW116928   2.146   1.566   4.561 -0.8915  0.9777 -2.4388
 1822SOL    HW216929   2.282   1.634   4.572 -2.8087  1.9382  0.7611
 1823SOL     OW16930   3.674   4.701  12.287 -0.6202  0.3015 -0.6981
 1823SOL    HW116931   3.693   0.069  12.291 -0.7385  0.2886  0.2770
 1823SOL    HW216932   3.606   4.692  12.221  0.3428  2.7387 -2.0186
 1824SOL     OW16933   3.966   3.307   2.155 -0.0837 -0.6635 -0.0835
 1824SOL    HW116934   3.921   3.288   2.072 -1.5570 -0.0129  0.5574
 1824SOL    HW216935   4.004   3.223   2.181 -3.0452 -1.6311  1.1474
 1825SOL     OW16936   1.449   1.155  14.520 -0.5009  0.1291 -0.2065
 1825SOL    HW116937   1.393   1.207  14.578 -0.1469 -0.1213  0.3647
 1825SOL    HW216938   1.523   1.214  14.504 -0.3101  0.6219  2.3325
 1826SOL     OW16939   3.186   3.480   8.895 -0.0706  0.1922  0.2529
 1826SOL    HW116940   3.239   3.446   8.968  1.1358  2.6745  0.5252
 1826SOL    HW216941   3.256   3.515   8.840 -0.1486  0.3393  0.2480
 1827SOL     OW16942   1.331   0.793   8.826 -0.0940  0.7410 -0.3963
 1827SOL    HW116943   1.364   0.793   8.736  2.9594  0.0778  0.7230
 1827SOL    HW216944   1.339   0.702   8.854 -2.4376  1.2902  2.0330
 1828SOL     OW16945   3.514   3.511   8.469  0.4346 -0.2075 -0.5950
 1828SOL    HW116946   3.504   3.417   8.452 -2.1332  0.2156 -1.4262
 1828SOL    HW216947   3.599   3.525   8.511  0.0163 -0.1048  0.2103
 1829SOL     OW16948   2.391   4.700   8.823 -0.0847  0.3129 -0.1209
 1829SOL    HW116949   2.372   0.048   8.765 -1.8099  0.5344  0.7184
 1829SOL    HW216950   2.329   4.629   8.805  0.0054 -0.4347  2.4654
 1830SOL     OW16951   3.632   2.672  15.099  0.0807 -0.3212 -0.2941
 1830SOL    HW116952   3.670   2.710  15.020 -1.4327 -1.9504 -1.8070
 1830SOL    HW216953   3.700   2.701  15.159 -0.6688  1.7363 -0.4377
 1831SOL     OW16954   2.573   1.115   5.301  0.6769 -0.5819  0.7842
 1831SOL    HW116955   2.619   1.097   5.218 -0.8635 -2.9772  0.4382
 1831SOL    HW216956   2.612   1.199   5.323 -1.5403  0.4927  0.4861
 1832SOL     OW16957   4.659   3.828   3.278 -0.3212  0.1435  0.1718
 1832SOL    HW116958   0.016   3.805   3.236 -1.5866 -2.8948 -0.6401
 1832SOL    HW216959   4.593   3.834   3.210 -0.1180  0.4710  0.0059
 1833SOL     OW16960   4.223   2.547  10.945  0.1202  0.6866 -0.2537
 1833SOL    HW116961   4.185   2.534  10.858 -2.9254  0.4658  1.1194
 1833SOL    HW216962   4.304   2.497  10.933 -0.2383  0.1127 -0.2844
 1834SOL     OW16963   2.917   3.853   5.478  0.2211 -0.3298  0.0010
 1834SOL    HW116964   2.973   3.921   5.441 -2.7890  1.2729 -1.6717
 1834SOL    HW216965   2.947   3.773   5.436  0.8672 -0.1643  0.1547
 1835SOL     OW16966   0.921   2.147   6.542  0.4885 -0.1787 -0.5796
 1835SOL    HW116967   1.012   2.131   6.566 -1.1889 -1.6466  4.6885
 1835SOL    HW216968   0.879   2.147   6.628  1.8184  1.0214  0.0653
 1836SOL     OW16969   1.342   4.484  10.265 -0.6919 -0.2900  0.3434
 1836SOL    HW116970   1.423   4.523  10.232 -0.4105  0.5017  1.9773
 1836SOL    HW216971   1.335   4.419  10.195  0.3810  0.0772 -0.1059
 1837SOL     OW16972   0.854   1.677   7.326  0.3964  0.1757 -0.0022
 1837SOL    HW116973   0.924   1.732   7.291 -0.3664  0.3904 -1.1821
 1837SOL    HW216974   0.813   1.649   7.245  0.4178 -1.1431  0.4327
 1838SOL     OW16975   0.110   3.304   8.621 -1.2430  0.1213  0.1148
 1838SOL    HW116976   0.196   3.345   8.611  0.2512 -2.9508  0.3310
 1838SOL    HW216977   0.130   3.235   8.684  0.1612  0.1218 -0.3430
 1839SOL     OW16978   2.034   1.648  15.761  0.8289 -0.1506 -0.3196
 1839SOL    HW116979   2.108   1.586  15.769  1.0759  0.5034  2.3323
 1839SOL    HW216980   2.023   1.627  15.668 -0.1955  0.3360 -0.2952
 1840SOL     OW16981   0.777   3.295   9.755  0.4208  0.3655 -0.2436
 1840SOL    HW116982   0.823   3.336   9.682 -0.1423 -1.7027 -1.7429
 1840SOL    HW216983   0.766   3.356   9.828  2.4624  0.3919  0.0579
 1841SOL     OW16984   3.056   1.062   3.977  0.2440 -0.1084 -0.2985
 1841SOL    HW116985   3.023   1.144   4.013 -1.6216 -0.4404 -1.2896
 1841SOL    HW216986   2.994   1.001   4.016  1.5294 -0.1717  1.6556
 1842SOL     OW16987   0.959   0.013   9.251  0.5723  0.6347  0.1576
 1842SOL    HW116988   0.933   0.101   9.225  1.7484  1.8833  3.1409
 1842SOL    HW216989   0.876   4.691   9.250 -0.1042  1.7913  1.3242
 1843SOL     OW16990   2.973   2.139   7.589 -0.1865  0.3453 -0.1476
 1843SOL    HW116991   2.917   2.066   7.615 -0.3514  0.4943 -0.0862
 1843SOL    HW216992   3.045   2.091   7.549  0.1027 -0.1944  1.0205
 1844SOL     OW16993   0.635   0.749   4.719  0.5859  0.3120  0.1262
 1844SOL    HW116994   0.608   0.681   4.780  3.4395  0.4967  1.6068
 1844SOL    HW216995   0.583   0.823   4.750 -0.7328 -0.3405 -0.5566
 1845SOL     OW16996   3.772   2.102  12.094 -0.0367  0.2166  0.0320
 1845SOL    HW116997   3.809   2.114  12.182  0.3857 -0.7231 -0.0167
 1845SOL    HW216998   3.750   2.009  12.084 -0.7524  0.2155  1.5544
 1846SOL     OW16999   3.996   1.106   2.881 -0.1730  0.1485 -0.1194
 1846SOL    HW117000   4.092   1.100   2.890 -0.1789 -0.2690 -0.3858
 1846SOL    HW217001   3.995   1.154   2.798  0.9474 -0.8974 -0.7388
 1847SOL     OW17002   0.139   3.299  15.097  0.1121 -0.2412  0.2483
 1847SOL    HW117003   0.065   3.335  15.147 -1.7917 -1.9010 -1.3805
 1847SOL    HW217004   0.143   3.206  15.117  0.5858  0.2828  2.6770
 1848SOL     OW17005   0.838   2.935   2.487  0.0498  0.0440  0.1024
 1848SOL    HW117006   0.826   2.879   2.410 -0.4395  0.5298 -0.1835
 1848SOL    HW217007   0.752   2.976   2.497 -0.4639 -0.3722 -2.4142
 1849SOL     OW17008   3.155   0.152   8.669 -0.1484 -0.2017  0.6024
 1849SOL    HW117009   3.250   0.148   8.659 -0.1215  0.5511  0.5112
 1849SOL    HW217010   3.145   0.168   8.763  1.0772 -0.1789  0.7287
 1850SOL     OW17011   2.964   1.457   6.989 -0.0290  0.2518  0.0664
 1850SOL    HW117012   2.962   1.422   6.900  3.1065 -1.9481  0.8496
 1850SOL    HW217013   3.031   1.405   7.033 -2.2427 -1.0812  1.8947
 1851SOL     OW17014   1.892   3.025   5.262 -0.0964 -0.4194 -0.0605
 1851SOL    HW117015   1.855   2.977   5.336 -0.8617  0.2115 -0.0319
 1851SOL    HW217016   1.814   3.047   5.210 -1.6513 -0.6461  2.1661
 1852SOL     OW17017   3.847   0.126  10.013  0.5918  0.2959 -0.0885
 1852SOL    HW117018   3.869   0.134  10.106  0.0365 -1.4704  0.2032
 1852SOL    HW217019   3.894   0.205   9.987 -0.6585  0.6078 -1.4143
 1853SOL     OW17020   1.840   1.406   6.491  0.3163  0.3713 -0.0502
 1853SOL    HW117021   1.846   1.327   6.438  0.5434  1.1933 -1.2468
 1853SOL    HW217022   1.768   1.456   6.452  0.0650 -0.0952 -0.1774
 1854SOL     OW17023   0.586   1.743  15.892  0.3835  0.5387  0.2839
 1854SOL    HW117024   0.600   1.692  15.972  0.2201 -0.1384 -0.1167
 1854SOL    HW217025   0.675   1.778  15.892  1.2156 -1.5551 -0.4493
 1855SOL     OW17026   1.629   0.340  15.781  0.2384 -0.0346 -0.1580
 1855SOL    HW117027   1.621   0.418  15.726 -0.5769  0.0155  0.0423
 1855SOL    HW217028   1.689   0.366  15.851  0.4275 -1.5978  0.2769
 1856SOL     OW17029   3.872   0.581   5.791 -0.1583 -0.2609 -0.2483
 1856SOL    HW117030   3.858   0.532   5.873 -1.3595 -0.4357 -0.5737
 1856SOL    HW217031   3.867   0.673   5.817 -1.9119 -0.1708 -0.9066
 1857SOL     OW17032   4.259   2.082   3.452 -0.2045 -0.2903 -0.1485
 1857SOL    HW117033   4.288   2.093   3.361  1.9856 -0.4780  0.5244
 1857SOL    HW217034   4.167   2.060   3.439 -0.5807  0.3091  1.4482
 1858SOL     OW17035   3.050   1.049   8.505  0.2162 -0.1395 -0.0151
 1858SOL    HW117036   3.024   1.097   8.427  0.9192  0.5587  0.1767
 1858SOL    HW217037   2.982   0.982   8.500  3.7486 -3.8828  2.1250
 1859SOL     OW17038   0.369   4.631   1.974  0.6302 -0.1557 -0.1690
 1859SOL    HW117039   0.331   4.709   1.934 -0.0526 -0.6232 -0.4196
 1859SOL    HW217040   0.383   4.655   2.066  0.9504 -1.4918  0.1297
 1860SOL     OW17041   0.944   2.935   5.498 -0.1771  0.0432 -0.5678
 1860SOL    HW117042   0.985   2.976   5.574  0.6304  0.0203 -1.0034
 1860SOL    HW217043   0.850   2.948   5.513 -0.5645 -2.0497 -1.1772
 1861SOL     OW17044   4.061   0.316   9.262  0.4240 -0.3074 -0.3651
 1861SOL    HW117045   4.012   0.389   9.225 -2.0266 -2.5151 -1.4440
 1861SOL    HW217046   4.019   0.303   9.347 -0.0607 -0.7671 -0.6823
 1862SOL     OW17047   4.175   1.346   2.480 -0.0454 -0.0474 -0.1315
 1862SOL    HW117048   4.255   1.295   2.494  0.5113  0.3975 -1.7438
 1862SOL    HW217049   4.198   1.424   2.531 -0.8676  0.8461 -1.1226
 1863SOL     OW17050   2.547   4.581   6.584  0.0747  0.2131 -0.1636
 1863SOL    HW117051   2.594   4.647   6.534 -0.4746  0.4662 -0.3489
 1863SOL    HW217052   2.552   4.614   6.673  2.1327 -2.1217  0.5754
 1864SOL     OW17053   0.951   1.840   4.591  0.1415  0.4497 -0.4831
 1864SOL    HW117054   0.864   1.800   4.595  0.3641  0.0840  0.5367
 1864SOL    HW217055   0.941   1.873   4.502  1.6567 -0.0300 -0.8341
 1865SOL     OW17056   1.057   2.410   6.823 -0.1574 -0.2211 -0.2611
 1865SOL    HW117057   1.051   2.473   6.750  2.2171  1.1073  0.6989
 1865SOL    HW217058   1.122   2.452   6.879 -0.2327 -1.6448  0.8696
 1866SOL     OW17059   0.837   1.220   8.312  0.1015  0.0050 -0.1735
 1866SOL    HW117060   0.786   1.157   8.261 -0.2223 -0.5379  0.8317
 1866SOL    HW217061   0.910   1.165   8.340 -1.3468 -1.4539  0.7055
 1867SOL     OW17062   0.147   1.516   8.469  0.2369 -0.3818  0.2067
 1867SOL    HW117063   0.216   1.494   8.531 -0.6330 -1.8890  0.6339
 1867SOL    HW217064   0.122   1.429   8.437 -2.6355 -0.0172  1.4425
 1868SOL     OW17065   1.271   2.105  15.725 -0.7624  0.5845  0.1160
 1868SOL    HW117066   1.320   2.072  15.649 -2.6775  0.9094 -1.2757
 1868SOL    HW217067   1.272   2.022  15.773  2.2774 -0.1229 -1.1926
 1869SOL     OW17068   0.161   3.816   5.542  0.4326 -0.0812 -0.1868
 1869SOL    HW117069   0.098   3.836   5.612 -0.6876 -1.9353 -0.6487
 1869SOL    HW217070   0.218   3.755   5.589 -0.3630 -1.5118 -1.0837
 1870SOL     OW17071   4.306   3.071   6.084 -0.7511  0.2669  0.6522
 1870SOL    HW117072   4.282   2.979   6.080 -0.2643  0.2191 -1.4938
 1870SOL    HW217073   4.221   3.114   6.077 -0.0214  1.6311  0.0830
 1871SOL     OW17074   0.582   4.218   9.598 -0.3222  0.0725 -0.6406
 1871SOL    HW117075   0.649   4.153   9.618 -0.4292  0.2485  0.2766
 1871SOL    HW217076   0.592   4.290   9.660  0.3128  0.1241 -0.8095
 1872SOL     OW17077   4.085   4.374   5.452 -0.0292 -0.8679  0.2728
 1872SOL    HW117078   4.020   4.433   5.413 -0.5950 -1.8954 -0.3454
 1872SOL    HW217079   4.066   4.379   5.546 -1.1867  1.6439 -0.0889
 1873SOL     OW17080   1.754   2.792   4.549 -0.2684 -0.1482  0.4632
 1873SOL    HW117081   1.761   2.859   4.616  0.4017 -0.2779  0.5195
 1873SOL    HW217082   1.792   2.836   4.473 -0.4856  0.6795  0.8406
 1874SOL     OW17083   1.560   1.152   0.145  0.3457 -0.0462 -0.0409
 1874SOL    HW117084   1.634   1.152   0.205  1.5642  1.2672 -1.5417
 1874SOL    HW217085   1.520   1.065   0.150 -1.5009  0.8090  0.3859
 1875SOL     OW17086   1.211   2.913   1.978  0.1705  0.3162  0.0968
 1875SOL    HW117087   1.133   2.968   1.982  0.8783  1.1110  2.6362
 1875SOL    HW217088   1.180   2.849   1.914  0.1189  0.5969 -0.1609
 1876SOL     OW17089   1.660   4.135   2.138 -0.1339 -0.1985 -0.4236
 1876SOL    HW117090   1.635   4.225   2.158 -2.8131 -0.7479 -1.3057
 1876SOL    HW217091   1.591   4.088   2.186 -2.6695  0.6190 -3.2747
 1877SOL     OW17092   3.111   1.801   7.391  0.9122 -0.0745  0.3266
 1877SOL    HW117093   3.057   1.741   7.341 -1.1373  0.7853  1.4919
 1877SOL    HW217094   3.089   1.762   7.476  1.5295 -2.2101 -0.5117
 1878SOL     OW17095   2.794   1.445   8.627  0.4966  0.2869 -0.0992
 1878SOL    HW117096   2.797   1.522   8.570  1.5397  2.2744  2.6742
 1878SOL    HW217097   2.883   1.415   8.645  0.1299  0.0577  1.3096
 1879SOL     OW17098   0.315   2.406  11.539 -0.1712 -0.1991 -0.2943
 1879SOL    HW117099   0.295   2.397  11.446 -1.6403  2.0372 -0.2075
 1879SOL    HW217100   0.380   2.476  11.530  1.0359 -1.3633 -0.5250
 1880SOL     OW17101   2.414   3.797   9.694 -0.2179  0.5167 -0.2132
 1880SOL    HW117102   2.392   3.888   9.713  1.4412  0.6525  1.0321
 1880SOL    HW217103   2.328   3.768   9.663 -0.4887  0.2350  0.7818
 1881SOL     OW17104   3.799   0.875  14.533  0.5127 -0.2801 -0.0578
 1881SOL    HW117105   3.863   0.877  14.462 -0.1330  2.3352 -0.5822
 1881SOL    HW217106   3.848   0.824  14.597 -0.0953 -0.6629  0.1030
 1882SOL     OW17107   4.301   1.788   6.729 -0.4400 -0.0937  0.3965
 1882SOL    HW117108   4.255   1.704   6.723  1.0685 -0.9512  0.8406
 1882SOL    HW217109   4.272   1.833   6.650  0.0128 -1.6343 -0.6512
 1883SOL     OW17110   4.712   1.124   1.818 -0.5566 -0.0281  0.0153
 1883SOL    HW117111   4.632   1.094   1.860 -0.9659  1.2937  0.1744
 1883SOL    HW217112   4.697   1.216   1.797  1.4240 -0.2642 -2.4556
 1884SOL     OW17113   4.440   3.442   3.595  0.1556  0.6335 -0.1730
 1884SOL    HW117114   4.383   3.444   3.517  1.5352 -1.4583 -1.2340
 1884SOL    HW217115   4.486   3.359   3.584  1.9802  1.6160  0.0649
 1885SOL     OW17116   2.304   1.802  14.401  0.3855  0.0292  0.1192
 1885SOL    HW117117   2.267   1.889  14.389 -1.8218 -0.8648  0.3744
 1885SOL    HW217118   2.395   1.809  14.373  0.2716  0.8478 -0.0456
 1886SOL     OW17119   4.006   3.044  15.369 -0.7391 -0.1634 -0.5017
 1886SOL    HW117120   3.911   3.052  15.380 -0.3911  1.5124  1.3341
 1886SOL    HW217121   4.037   3.099  15.441  1.7410  0.2416 -1.9127
 1887SOL     OW17122   3.303   0.922  16.783  0.1066 -0.1352  0.2972
 1887SOL    HW117123   3.210   0.909  16.799 -0.0649 -0.0908 -0.6372
 1887SOL    HW217124   3.305   1.018  16.777  1.2802 -0.0769  1.6409
 1888SOL     OW17125   4.608   0.240   6.319 -0.0484  0.1904  0.3493
 1888SOL    HW117126   4.601   0.333   6.342 -0.1367  0.0833  0.7454
 1888SOL    HW217127   4.688   0.235   6.267 -1.7646 -1.4861 -2.1268
 1889SOL     OW17128   1.810   1.161   1.116 -0.5104 -0.0183  0.5775
 1889SOL    HW117129   1.901   1.185   1.135 -1.0618  1.9422  0.7164
 1889SOL    HW217130   1.777   1.129   1.200  3.2195  2.8035  3.1195
 1890SOL     OW17131   4.106   1.860   2.692  0.3592 -0.5110  0.5841
 1890SOL    HW117132   4.023   1.892   2.726  1.6211  2.2044  1.2076
 1890SOL    HW217133   4.156   1.909   2.758  1.4266  0.4506 -0.9369
 1891SOL     OW17134   0.692   0.637   6.222 -0.1724 -0.6378  0.2613
 1891SOL    HW117135   0.697   0.633   6.127 -5.1601 -0.1038 -0.0419
 1891SOL    HW217136   0.645   0.720   6.235  0.4501 -0.5293  1.7937
 1892SOL     OW17137   1.448   2.608   3.555  0.5528 -0.1746  0.1895
 1892SOL    HW117138   1.414   2.616   3.466  1.5643  0.1613 -0.1605
 1892SOL    HW217139   1.399   2.682   3.593 -0.2363 -0.3190 -0.5621
 1893SOL     OW17140   4.322   3.353   4.344  0.6383 -0.6567  0.0244
 1893SOL    HW117141   4.357   3.428   4.391  0.1804 -0.2367 -0.3009
 1893SOL    HW217142   4.228   3.366   4.356  0.2117 -0.3729 -3.4941
 1894SOL     OW17143   3.272   3.747   7.930 -0.5203  0.1200  0.1125
 1894SOL    HW117144   3.295   3.729   7.839  0.5325 -0.9474  0.5862
 1894SOL    HW217145   3.334   3.817   7.950  0.6504 -1.0793  0.6608
 1895SOL     OW17146   0.132   2.776   7.246 -0.0234 -0.5731 -0.3016
 1895SOL    HW117147   0.134   2.810   7.335  1.2527 -2.5652  0.4257
 1895SOL    HW217148   0.216   2.738   7.223  0.5193  0.5410 -0.1331
 1896SOL     OW17149   1.538   1.892  15.888 -0.3703 -0.5409  0.8209
 1896SOL    HW117150   1.554   1.961  15.953  2.2873 -0.9001  0.5602
 1896SOL    HW217151   1.444   1.887  15.904 -0.3228 -0.7283  1.0441
 1897SOL     OW17152   1.054   3.995  17.079  0.1503 -0.1939 -0.3471
 1897SOL    HW117153   1.021   4.083  17.066 -2.4217 -1.1643 -0.2446
 1897SOL    HW217154   1.033   3.950  16.997  0.6358  0.7532 -0.9871
 1898SOL     OW17155   4.485   4.026   5.881  0.4236 -0.4876 -0.1582
 1898SOL    HW117156   4.468   4.065   5.795  1.4753 -0.2261 -0.2537
 1898SOL    HW217157   4.460   4.105   5.929 -0.8511 -1.1228  0.2143
 1899SOL     OW17158   3.695   4.109   9.194 -0.4191 -0.5405 -0.1095
 1899SOL    HW117159   3.754   4.166   9.143  0.8382 -0.9998  0.8394
 1899SOL    HW217160   3.745   4.066   9.263  0.5798  2.4752  1.0295
 1900SOL     OW17161   0.556   3.023   6.299  0.6079 -0.4731 -0.0562
 1900SOL    HW117162   0.527   2.995   6.212  0.3173  0.0539 -0.1321
 1900SOL    HW217163   0.589   3.110   6.276  2.1100 -1.2124 -0.6598
 1901SOL     OW17164   3.886   1.949   8.881 -0.3432  0.9700 -0.1856
 1901SOL    HW117165   3.935   1.932   8.800  0.0644 -0.5818  0.3738
 1901SOL    HW217166   3.793   1.946   8.857 -0.6598 -1.8401  1.3956
 1902SOL     OW17167   3.742   2.462   7.167 -0.4483  0.1540  0.2039
 1902SOL    HW117168   3.713   2.371   7.165  1.8030 -0.5794  0.3018
 1902SOL    HW217169   3.778   2.466   7.078 -0.1819  2.0079  0.3980
 1903SOL     OW17170   1.296   2.385   6.611 -0.4188  0.3925 -0.6305
 1903SOL    HW117171   1.364   2.445   6.643 -0.2496 -0.0538 -0.1516
 1903SOL    HW217172   1.223   2.395   6.672  0.4238  0.5208  0.3463
 1904SOL     OW17173   2.998   1.709   2.527  0.3812 -0.3408  0.0578
 1904SOL    HW117174   2.919   1.743   2.485  0.7028 -0.9796 -1.0754
 1904SOL    HW217175   2.977   1.728   2.618 -0.2868 -0.6345 -0.0341
 1905SOL     OW17176   2.258   3.045  15.018  0.0855 -0.0772 -0.2979
 1905SOL    HW117177   2.272   3.029  15.112 -3.7196 -0.2392  0.2338
 1905SOL    HW217178   2.337   3.093  14.991  1.0386 -1.6445 -0.3434
 1906SOL     OW17179   1.029   2.686   5.618 -0.1227 -0.4054 -0.0692
 1906SOL    HW117180   0.978   2.613   5.584 -0.2489 -0.1458 -0.4444
 1906SOL    HW217181   0.993   2.765   5.578  0.0191 -0.1401  0.3210
 1907SOL     OW17182   2.504   3.985   6.688 -0.1397 -0.0723 -0.1625
 1907SOL    HW117183   2.582   4.019   6.730  1.2092 -1.8140 -1.2455
 1907SOL    HW217184   2.450   4.058   6.658 -0.3082  0.5364  1.6606
 1908SOL     OW17185   4.381   4.711   5.514  0.0145 -0.0338  0.0244
 1908SOL    HW117186   4.378   0.064   5.570  0.6014  0.2356 -0.3089
 1908SOL    HW217187   4.475   4.693   5.511 -0.4795 -2.6665  0.4113
 1909SOL     OW17188   4.455   0.542   8.380  0.2037 -0.1569 -0.3843
 1909SOL    HW117189   4.360   0.528   8.382 -0.0326  1.3611 -1.0797
 1909SOL    HW217190   4.484   0.505   8.463 -0.7941  1.2066  0.5695
 1910SOL     OW17191   0.430   3.074   7.288  0.1120 -0.4075 -0.1669
 1910SOL    HW117192   0.439   3.167   7.271  0.1210 -0.6130 -1.2827
 1910SOL    HW217193   0.365   3.074   7.358  1.3961  0.5167  1.0389
 1911SOL     OW17194   1.633   1.937  15.629 -0.1560 -0.6780 -0.3188
 1911SOL    HW117195   1.606   1.926  15.720 -1.6885  0.9875 -0.5803
 1911SOL    HW217196   1.555   1.981  15.596 -0.1777  0.7296  1.6036
 1912SOL     OW17197   2.562   3.502   3.287 -0.2593  0.0625 -0.2688
 1912SOL    HW117198   2.630   3.505   3.219  0.7130  0.4595  0.7309
 1912SOL    HW217199   2.498   3.563   3.251 -0.8532 -0.7623 -0.6248
 1913SOL     OW17200   4.563   4.166   4.118 -0.0381 -0.1989 -0.1913
 1913SOL    HW117201   4.556   4.100   4.187  0.3452 -0.2478 -0.1994
 1913SOL    HW217202   4.656   4.189   4.119  0.2024 -1.1782 -0.0157
 1914SOL     OW17203   0.556   1.644   4.113 -0.3848  0.0559  0.0974
 1914SOL    HW117204   0.651   1.647   4.107 -0.3348 -1.2213  0.2161
 1914SOL    HW217205   0.534   1.716   4.173 -0.6592 -0.3439  0.4789
 1915SOL     OW17206   1.321   4.571   5.207  0.0537 -0.0254  0.4699
 1915SOL    HW117207   1.367   4.560   5.124 -0.8798  0.9282 -0.1838
 1915SOL    HW217208   1.239   4.523   5.196  1.0777 -1.5257 -0.5497
 1916SOL     OW17209   3.683   0.287   2.821  0.3554 -0.2811  0.1967
 1916SOL    HW117210   3.747   0.230   2.778  0.0147  0.2786 -1.0475
 1916SOL    HW217211   3.601   0.239   2.814  0.1834  0.0525 -0.0538
 1917SOL     OW17212   0.716   1.638   7.072 -0.2068  0.2721  0.4318
 1917SOL    HW117213   0.628   1.607   7.091  0.9159 -2.7734  0.6853
 1917SOL    HW217214   0.705   1.680   6.986 -2.1106  0.2798  0.6828
 1918SOL     OW17215   0.298   2.837   4.584 -0.0574  0.0965 -0.1389
 1918SOL    HW117216   0.290   2.923   4.542  0.1883  0.1814 -0.0116
 1918SOL    HW217217   0.284   2.790   4.501  0.1533  0.9304 -0.6464
 1919SOL     OW17218   0.150   3.899  15.592 -0.3246 -0.1516 -0.2969
 1919SOL    HW117219   0.222   3.842  15.622  1.3346  1.3301 -1.4768
 1919SOL    HW217220   0.077   3.838  15.581  1.5764 -2.7973  1.7271
 1920SOL     OW17221   0.316   2.444  12.235 -0.1423  0.0535 -0.2349
 1920SOL    HW117222   0.252   2.374  12.220  1.3758 -1.3620 -0.0762
 1920SOL    HW217223   0.349   2.459  12.147 -0.8357  0.6382 -0.4001
 1921SOL     OW17224   1.934   0.868   7.229 -0.1827  0.6074 -0.3923
 1921SOL    HW117225   1.859   0.829   7.184  0.6130 -1.0566 -0.2834
 1921SOL    HW217226   1.977   0.799   7.279 -1.2981 -0.6448 -1.1702
 1922SOL     OW17227   3.662   3.128   6.740 -0.0088  0.4384  0.5308
 1922SOL    HW117228   3.611   3.207   6.722  0.1990 -0.0050 -1.9838
 1922SOL    HW217229   3.591   3.063   6.737 -0.0314  0.5318 -1.3009
 1923SOL     OW17230   2.784   1.200   4.550 -0.3597 -0.0115 -0.5268
 1923SOL    HW117231   2.769   1.270   4.486 -3.2354 -2.1323 -2.1343
 1923SOL    HW217232   2.792   1.130   4.485 -1.3006 -0.5012 -0.1065
 1924SOL     OW17233   3.657   0.562   3.861  0.0578 -0.0676  0.4127
 1924SOL    HW117234   3.606   0.555   3.781 -0.2409 -1.4431  0.7150
 1924SOL    HW217235   3.585   0.577   3.922  0.2607 -0.1372  0.6687
 1925SOL     OW17236   3.473   2.298   7.189  0.1722  0.2770  0.5131
 1925SOL    HW117237   3.459   2.316   7.282 -2.0726  0.4604  0.1465
 1925SOL    HW217238   3.485   2.204   7.198 -0.5841 -0.0235 -1.5161
 1926SOL     OW17239   3.859   0.362   6.247  0.0526 -0.4597  0.1274
 1926SOL    HW117240   3.902   0.387   6.329  0.7590 -0.5083 -0.2272
 1926SOL    HW217241   3.813   0.443   6.225  0.1424 -0.5992 -0.5978
 1927SOL     OW17242   4.629   0.007  11.105  0.3031 -0.3230  0.2654
 1927SOL    HW117243   4.668   0.088  11.139  1.0046 -0.8458  0.7148
 1927SOL    HW217244   4.602   0.035  11.018  1.8698  2.1641  0.5558
 1928SOL     OW17245   4.042   0.728  13.463 -0.6442 -0.7532 -0.2460
 1928SOL    HW117246   4.040   0.650  13.408  0.0300  0.1518 -1.5466
 1928SOL    HW217247   4.137   0.742  13.463 -1.0281  1.8117  1.6776
 1929SOL     OW17248   2.378   1.839   2.044  0.3457 -0.4242 -0.0523
 1929SOL    HW117249   2.323   1.915   2.027  0.6388 -0.2479 -0.2271
 1929SOL    HW217250   2.334   1.795   2.116 -1.9936  0.9034 -0.6875
 1930SOL     OW17251   1.747   2.665   4.918  0.5893  0.6557 -0.2824
 1930SOL    HW117252   1.715   2.741   4.869 -0.9342  0.3691  0.2779
 1930SOL    HW217253   1.780   2.605   4.852 -0.3295 -1.7342  1.4575
 1931SOL     OW17254   3.310   2.401   4.427 -0.8692  0.3522  0.8084
 1931SOL    HW117255   3.375   2.454   4.381  1.1408 -0.3841  2.7608
 1931SOL    HW217256   3.312   2.324   4.370  2.2602  0.1920  1.0842
 1932SOL     OW17257   3.038   3.089   3.229 -0.1531  0.1056 -0.1699
 1932SOL    HW117258   3.067   3.123   3.144 -0.4595  2.0777  0.5274
 1932SOL    HW217259   3.028   3.175   3.270  0.2476 -0.4238  1.0424
 1933SOL     OW17260   3.672   3.188  11.309  0.4065  0.2726 -0.3825
 1933SOL    HW117261   3.620   3.173  11.230 -1.9354 -0.1581  1.2397
 1933SOL    HW217262   3.616   3.193  11.386 -2.0411  1.2586 -2.2569
 1934SOL     OW17263   4.309   0.214  12.650  0.6484  0.2437  0.2710
 1934SOL    HW117264   4.356   0.291  12.618  1.1014 -1.5327 -3.3176
 1934SOL    HW217265   4.239   0.249  12.704  2.5607  3.6240  0.5278
 1935SOL     OW17266   3.114   1.762  11.422 -0.2501 -0.1107 -0.3026
 1935SOL    HW117267   3.177   1.788  11.355 -0.9255 -0.9114 -1.2634
 1935SOL    HW217268   3.123   1.837  11.480  2.0188 -0.2355 -0.5094
 1936SOL     OW17269   3.995   3.763   8.545 -0.2077  0.0329 -0.4814
 1936SOL    HW117270   3.962   3.826   8.481  1.3115  0.3983 -0.9053
 1936SOL    HW217271   4.088   3.776   8.566 -0.1831 -1.4629  0.3536
 1937SOL     OW17272   1.115   0.561  12.458  0.3825  0.0924 -0.1929
 1937SOL    HW117273   1.168   0.536  12.381  0.6244  0.1548 -0.0478
 1937SOL    HW217274   1.046   0.496  12.446  0.4380  0.1635 -0.9425
 1938SOL     OW17275   3.722   0.556  17.142  0.0078  0.0571  0.0624
 1938SOL    HW117276   3.740   0.501  17.218  0.1173 -1.1491 -0.8292
 1938SOL    HW217277   3.629   0.541  17.123 -0.1762  1.4099 -0.0961
 1939SOL     OW17278   1.556   2.403   5.930 -0.2038  0.2868  0.0454
 1939SOL    HW117279   1.468   2.436   5.951 -0.4909 -0.3329 -0.1466
 1939SOL    HW217280   1.594   2.374   6.013  2.1864 -2.8367 -2.1444
 1940SOL     OW17281   0.124   4.450   6.367 -0.0435 -0.2217  0.5843
 1940SOL    HW117282   0.136   4.442   6.462 -0.6205  0.8428  0.7401
 1940SOL    HW217283   0.107   4.543   6.356  0.6277 -0.2100 -0.4038
 1941SOL     OW17284   2.266   4.128   7.637 -0.0292  0.0899 -0.3450
 1941SOL    HW117285   2.293   4.040   7.609 -2.1259 -0.3208 -1.1247
 1941SOL    HW217286   2.173   4.126   7.659 -0.4625 -2.3460 -2.4014
 1942SOL     OW17287   4.086   1.286   4.581  0.0607 -0.3243  0.2965
 1942SOL    HW117288   4.043   1.271   4.496  0.0232  0.3356  0.1963
 1942SOL    HW217289   4.119   1.199   4.601 -0.0409 -0.9043 -2.0188
 1943SOL     OW17290   1.598   2.804   9.437  0.3737  0.7684  0.2336
 1943SOL    HW117291   1.509   2.814   9.404  0.3619  0.3072  0.1202
 1943SOL    HW217292   1.605   2.718   9.478 -0.2941 -1.4542 -4.3289
 1944SOL     OW17293   2.458   4.029  13.475  0.5090 -0.3776  0.4514
 1944SOL    HW117294   2.507   4.016  13.556 -0.1359  0.5834  0.9962
 1944SOL    HW217295   2.489   4.117  13.457 -0.1973 -0.5347 -1.5405
 1945SOL     OW17296   2.352   3.726   0.720 -0.2505 -0.4503 -0.0159
 1945SOL    HW117297   2.442   3.704   0.746  0.5712  0.3992 -2.0835
 1945SOL    HW217298   2.317   3.788   0.783  1.6828 -0.2090  0.8406
 1946SOL     OW17299   2.239   2.703   2.380  0.1596  0.0372  0.2704
 1946SOL    HW117300   2.259   2.736   2.292 -0.5687 -1.5424 -0.4935
 1946SOL    HW217301   2.312   2.643   2.396  0.2059 -0.0806 -0.3838
 1947SOL     OW17302   4.278   2.118   3.180 -0.5092  0.6222  0.5363
 1947SOL    HW117303   4.236   2.032   3.185  0.1684  0.0723 -2.6614
 1947SOL    HW217304   4.328   2.100   3.100 -2.1801 -0.6747 -0.2231
 1948SOL     OW17305   0.933   0.928   0.116  0.4931 -0.6710  0.4860
 1948SOL    HW117306   0.896   0.962   0.035 -0.7642 -1.7060  0.6195
 1948SOL    HW217307   0.955   1.008   0.163 -0.6336  0.2692 -0.5821
 1949SOL     OW17308   3.697   2.652   9.304 -0.0877  0.6938 -0.7059
 1949SOL    HW117309   3.729   2.737   9.272  3.3703 -1.0995 -1.9775
 1949SOL    HW217310   3.609   2.651   9.267 -0.4357 -0.6968  0.1948
 1950SOL     OW17311   2.527   2.235  15.777 -0.5694  0.2532  0.1891
 1950SOL    HW117312   2.547   2.183  15.699 -1.3803  0.3040 -0.0555
 1950SOL    HW217313   2.610   2.275  15.803 -0.2367 -0.3205  0.0197
 1951SOL     OW17314   1.703   4.641   6.809 -0.0883 -0.3180  0.1641
 1951SOL    HW117315   1.611   4.626   6.831 -0.2632  0.5859  0.0494
 1951SOL    HW217316   1.722   4.709   6.874 -1.3286 -0.0193  0.2090
 1952SOL     OW17317   3.217   0.846   3.628 -0.1235 -0.3618  0.0087
 1952SOL    HW117318   3.285   0.809   3.571 -1.0734 -0.0835 -1.3077
 1952SOL    HW217319   3.274   0.884   3.694  0.1705  0.1144 -0.5230
 1953SOL     OW17320   2.179   1.421   3.804 -0.1734  0.3175 -0.0888
 1953SOL    HW117321   2.253   1.364   3.820  0.6130  1.3179 -0.1842
 1953SOL    HW217322   2.228   1.501   3.786 -0.1578  0.8263  2.2066
 1954SOL     OW17323   0.788   4.449   3.545 -0.2701  0.8245 -0.5290
 1954SOL    HW117324   0.751   4.366   3.577  2.5776 -0.8054 -1.4662
 1954SOL    HW217325   0.735   4.440   3.466 -0.0410 -0.6603 -0.5083
 1955SOL     OW17326   3.912   3.299   8.849  0.0073  0.5207 -0.4789
 1955SOL    HW117327   3.980   3.365   8.859 -1.6174  2.2237 -0.7593
 1955SOL    HW217328   3.969   3.245   8.793  0.6420 -0.2793  0.9239
 1956SOL     OW17329   0.644   2.087  10.093 -0.3145  0.2341 -0.5199
 1956SOL    HW117330   0.570   2.048  10.047 -0.5080  0.4382 -0.3846
 1956SOL    HW217331   0.695   2.012  10.124 -1.1572  0.0103  0.3203
 1957SOL     OW17332   1.142   0.184  10.752 -0.0738  0.2262 -0.1930
 1957SOL    HW117333   1.115   0.245  10.820 -0.3381 -0.6454  0.4923
 1957SOL    HW217334   1.217   0.232  10.717  0.2529 -0.3357 -0.2625
 1958SOL     OW17335   4.592   4.163   7.897 -0.2196  0.1309 -0.2065
 1958SOL    HW117336   4.539   4.132   7.970  1.0831 -0.2151  0.5878
 1958SOL    HW217337   4.596   4.082   7.846 -1.4903 -1.3904  2.0654
 1959SOL     OW17338   1.789   0.325   0.109  0.2875  0.7199 -0.0857
 1959SOL    HW117339   1.768   0.232   0.112  1.3315  0.5290  1.3836
 1959SOL    HW217340   1.803   0.341   0.016 -0.1200 -1.5513 -0.5211
 1960SOL     OW17341   1.743   0.732   5.132  0.8782 -0.4580 -0.0443
 1960SOL    HW117342   1.672   0.668   5.133 -1.2892  1.9570  1.1060
 1960SOL    HW217343   1.705   0.820   5.133  1.9334 -0.0388  2.1328
 1961SOL     OW17344   0.768   0.222   8.065 -0.1404  0.2892 -0.1936
 1961SOL    HW117345   0.863   0.219   8.053 -0.1316 -0.2912  0.0707
 1961SOL    HW217346   0.751   0.132   8.092  0.6195 -0.1809 -1.2830
 1962SOL     OW17347   4.032   4.322  17.551  0.0889 -0.2610  0.2253
 1962SOL    HW117348   3.990   4.408  17.553  1.4378  0.4487 -1.4300
 1962SOL    HW217349   4.118   4.349  17.584 -0.3148 -0.6341  1.5598
 1963SOL     OW17350   1.832   0.027   8.477 -0.3078 -0.4535 -0.2967
 1963SOL    HW117351   1.818   0.028   8.572 -1.9218  0.1335 -0.5345
 1963SOL    HW217352   1.753   0.076   8.451  0.8268  1.3936 -0.2375
 1964SOL     OW17353   3.532   3.497   5.185 -0.5918  0.4737 -0.0637
 1964SOL    HW117354   3.615   3.452   5.170 -1.2487  0.0206 -2.3132
 1964SOL    HW217355   3.531   3.558   5.112 -1.0743  2.6027  1.7154
 1965SOL     OW17356   3.391   4.314   7.129  0.3475 -0.2333 -0.6353
 1965SOL    HW117357   3.486   4.307   7.134  0.4862  0.2136 -2.4721
 1965SOL    HW217358   3.378   4.392   7.182 -0.4373  0.0017 -1.1765
 1966SOL     OW17359   2.740   2.116   4.028 -0.3869  0.6278  0.3792
 1966SOL    HW117360   2.757   2.080   3.941 -2.5173  0.1998  0.1533
 1966SOL    HW217361   2.748   2.211   4.014 -0.3684  0.2526 -2.0380
 1967SOL     OW17362   4.201   1.003  13.287  0.0063  0.0871  0.2116
 1967SOL    HW117363   4.139   1.044  13.347 -1.5388 -1.0507 -0.6138
 1967SOL    HW217364   4.220   0.929  13.343  2.4286 -1.3001 -2.4717
 1968SOL     OW17365   4.343   0.824   0.788  0.2761 -0.6303  0.5072
 1968SOL    HW117366   4.334   0.732   0.762  0.5985  0.0949 -2.1866
 1968SOL    HW217367   4.426   0.852   0.751 -1.5345  1.4039 -2.0790
 1969SOL     OW17368   3.783   0.561   5.499 -0.1180 -0.7108  0.0497
 1969SOL    HW117369   3.763   0.468   5.510 -0.9527 -0.3427  1.6496
 1969SOL    HW217370   3.806   0.585   5.589  1.0378  1.2029 -0.7527
 1970SOL     OW17371   1.656   2.716   6.932 -0.3519 -0.1948 -0.2047
 1970SOL    HW117372   1.729   2.655   6.937 -0.5066 -0.4140 -0.5953
 1970SOL    HW217373   1.620   2.701   7.020 -2.2877 -0.9301 -1.1103
 1971SOL     OW17374   0.759   0.002   4.781 -0.2339 -0.3673 -0.1158
 1971SOL    HW117375   0.847   0.009   4.744 -0.2661 -0.3023 -0.1809
 1971SOL    HW217376   0.706   0.031   4.707 -1.7237 -3.3864 -0.1955
 1972SOL     OW17377   0.336   0.215   6.241  0.0648  0.0251 -0.4012
 1972SOL    HW117378   0.359   0.149   6.306 -0.1249  1.1792  0.8360
 1972SOL    HW217379   0.415   0.269   6.236 -0.0325  0.2334  0.3730
 1973SOL     OW17380   1.354   2.344   0.192  0.3277  0.2098  0.3579
 1973SOL    HW117381   1.332   2.314   0.281 -0.8225 -1.6140 -0.5305
 1973SOL    HW217382   1.385   2.433   0.209 -3.5485  1.4287  1.0884
 1974SOL     OW17383   1.579   0.214   4.899 -0.0385 -0.0286  0.4987
 1974SOL    HW117384   1.563   0.138   4.955 -2.2672 -1.5409 -2.1829
 1974SOL    HW217385   1.611   0.280   4.960  0.7640 -1.1111  1.2439
 1975SOL     OW17386   1.841   0.061  17.537  0.0501 -0.7413  0.0664
 1975SOL    HW117387   1.806   4.700  17.562  1.1567 -1.7098 -1.7133
 1975SOL    HW217388   1.935   0.047  17.549 -0.0502 -0.7766  0.8118
 1976SOL     OW17389   1.036   1.968   5.098  0.0985 -0.3385 -0.2326
 1976SOL    HW117390   0.983   1.905   5.049  0.5384 -0.9664  0.0922
 1976SOL    HW217391   1.118   1.968   5.048  0.3136  1.9895  0.1261
 1977SOL     OW17392   1.037   4.092   4.612  0.0345 -0.1771  0.4241
 1977SOL    HW117393   0.947   4.075   4.586  0.7329 -0.7719 -1.6531
 1977SOL    HW217394   1.026   4.147   4.689  2.1503  1.7553 -0.6578
 1978SOL     OW17395   1.494   0.873  16.398 -0.5395  0.1220  0.1107
 1978SOL    HW117396   1.580   0.853  16.433 -1.1968  0.6877  2.0621
 1978SOL    HW217397   1.507   0.953  16.348 -1.0270  0.1717  0.0568
 1979SOL     OW17398   3.667   3.065   4.596 -0.5546 -0.1196  0.8196
 1979SOL    HW117399   3.587   3.064   4.649 -0.1025 -1.1134  1.4816
 1979SOL    HW217400   3.735   3.016   4.642  0.1520  1.4927  1.5002
 1980SOL     OW17401   1.530   0.514   4.769  0.1523  0.1203 -0.2579
 1980SOL    HW117402   1.531   0.610   4.775  1.5813  0.1003 -0.1786
 1980SOL    HW217403   1.451   0.490   4.817 -0.5487 -0.1685 -1.5828
 1981SOL     OW17404   1.482   1.062   4.626 -0.0644 -0.3609  0.5581
 1981SOL    HW117405   1.475   0.981   4.676 -1.3827 -1.2277 -1.0581
 1981SOL    HW217406   1.577   1.076   4.630 -0.1990  0.7953 -0.0893
 1982SOL     OW17407   2.362   0.908   8.851  0.6123  0.5070 -0.5417
 1982SOL    HW117408   2.365   0.908   8.755  2.4720 -0.6352 -0.4934
 1982SOL    HW217409   2.413   0.828   8.866 -0.1246 -0.2104 -1.9019
 1983SOL     OW17410   1.076   3.222   5.416  0.4458 -0.7318 -0.3414
 1983SOL    HW117411   1.097   3.138   5.458  0.2905 -0.6859 -0.1725
 1983SOL    HW217412   1.071   3.198   5.324 -3.2701 -0.4994 -0.1890
 1984SOL     OW17413   2.515   1.418  14.532 -0.4189 -0.3130  0.1491
 1984SOL    HW117414   2.568   1.497  14.540  1.1839 -1.0798 -2.7259
 1984SOL    HW217415   2.486   1.425  14.441 -1.5582  2.9682  0.7758
 1985SOL     OW17416   0.585   2.172  15.072  0.3744 -0.5183 -0.8888
 1985SOL    HW117417   0.568   2.150  14.980  0.0616  0.3025 -1.0232
 1985SOL    HW217418   0.497   2.171  15.111  0.8224  0.8552  0.1653
 1986SOL     OW17419   3.104   3.627   2.635  0.3380 -0.7298 -0.1057
 1986SOL    HW117420   3.060   3.664   2.558 -1.1068 -0.5389  0.8068
 1986SOL    HW217421   3.193   3.603   2.608  1.5088 -0.4201  3.4895
 1987SOL     OW17422   1.849   0.132   9.907 -0.0896 -0.4316  0.3458
 1987SOL    HW117423   1.858   0.228   9.906 -2.2109 -0.2337 -0.5715
 1987SOL    HW217424   1.880   0.116   9.996 -1.8620 -0.4573  0.9473
 1988SOL     OW17425   3.430   3.936  12.560 -0.1355 -0.2146  0.3419
 1988SOL    HW117426   3.354   3.913  12.507 -0.0270 -0.4638  0.2944
 1988SOL    HW217427   3.499   3.935  12.493 -0.3340 -0.6645  0.1441
 1989SOL     OW17428   1.207   1.108   4.669  0.5352 -0.5546 -0.2780
 1989SOL    HW117429   1.302   1.108   4.678  0.4289  0.2918  0.7267
 1989SOL    HW217430   1.198   1.123   4.574  2.7733 -0.2885 -0.4431
 1990SOL     OW17431   1.341   0.013   7.640 -0.0385 -0.3611 -0.0227
 1990SOL    HW117432   1.417   0.061   7.608  0.0242  0.7756  1.8183
 1990SOL    HW217433   1.291   0.085   7.679  2.3390  0.4414  1.5322
 1991SOL     OW17434   1.202   4.380   1.614 -0.1371 -0.8540  0.1043
 1991SOL    HW117435   1.246   4.296   1.600  0.3992 -0.1935 -2.1730
 1991SOL    HW217436   1.207   4.411   1.523 -0.2843  1.7454  0.9864
 1992SOL     OW17437   2.964   1.555  17.673  0.0153 -0.3736 -0.3423
 1992SOL    HW117438   2.993   1.480   0.023  0.1515  1.3471  2.0784
 1992SOL    HW217439   3.033   1.621  17.680 -0.8535  0.6509 -1.5200
 1993SOL     OW17440   3.872   4.537   5.325 -0.1684  0.0961 -0.3588
 1993SOL    HW117441   3.911   4.623   5.341 -0.8111  0.2977  0.1363
 1993SOL    HW217442   3.804   4.564   5.264  0.4026 -1.3935 -1.6638
 1994SOL     OW17443   0.839   2.113   6.110 -0.4047  0.0985  0.4191
 1994SOL    HW117444   0.929   2.133   6.084  0.3828 -2.0468  1.5371
 1994SOL    HW217445   0.831   2.171   6.185 -1.0204  1.9053 -1.0348
 1995SOL     OW17446   3.622   4.576   6.433 -0.0252  0.7242  0.3729
 1995SOL    HW117447   3.656   4.501   6.481 -0.7601  1.2670  1.7225
 1995SOL    HW217448   3.642   4.555   6.342 -0.4681  0.2344  0.3874
 1996SOL     OW17449   2.927   3.282  15.246  0.0949 -0.4557  0.5736
 1996SOL    HW117450   3.017   3.256  15.227 -0.3994 -2.4595  1.0181
 1996SOL    HW217451   2.917   3.354  15.183  0.5340 -0.9756 -0.0748
 1997SOL     OW17452   2.160   0.429   0.704 -0.1465 -0.6510 -0.5600
 1997SOL    HW117453   2.124   0.485   0.636 -1.2057 -1.0760 -0.3514
 1997SOL    HW217454   2.241   0.473   0.727 -1.8076  1.6035  0.9294
 1998SOL     OW17455   0.628   1.195   8.688  0.4272 -0.2282  0.0310
 1998SOL    HW117456   0.640   1.201   8.783 -2.3112  1.3583  0.2650
 1998SOL    HW217457   0.700   1.248   8.653 -0.9836  1.1409 -0.7849
 1999SOL     OW17458   2.041   1.692  11.014 -0.1289 -0.2886  0.1574
 1999SOL    HW117459   2.016   1.774  10.973  0.8054 -0.3394 -0.5269
 1999SOL    HW217460   2.135   1.684  10.997  0.0922  0.7416  0.8989
 2000SOL     OW17461   2.365   4.530   6.927 -0.5691  0.5661  0.0315
 2000SOL    HW117462   2.368   4.625   6.939 -0.9637  0.2842  2.3390
 2000SOL    HW217463   2.418   4.494   6.998 -1.9627  0.9386  1.2488
 2001SOL     OW17464   1.408   0.239   3.624  0.2225  0.2505 -0.3324
 2001SOL    HW117465   1.362   0.259   3.543 -0.0325 -0.5974 -0.3953
 2001SOL    HW217466   1.483   0.189   3.590  0.7408  0.4499  0.5218
 2002SOL     OW17467   2.877   4.364   8.910 -0.2614 -0.1857 -0.3107
 2002SOL    HW117468   2.956   4.313   8.926 -0.8152 -0.9885 -0.1496
 2002SOL    HW217469   2.839   4.370   8.998  1.0653 -2.1243  0.4004
 2003SOL     OW17470   3.742   1.479   4.639 -0.0593 -0.1806 -0.1489
 2003SOL    HW117471   3.663   1.458   4.689 -0.7405  1.2245 -0.6306
 2003SOL    HW217472   3.747   1.574   4.648  0.8614 -0.1124 -1.3835
 2004SOL     OW17473   3.297   0.243  12.323  0.0341  0.0772  0.1826
 2004SOL    HW117474   3.345   0.190  12.386 -1.2655 -2.4725 -0.9622
 2004SOL    HW217475   3.208   0.248  12.356 -0.7175  0.1479 -1.8135
 2005SOL     OW17476   3.434   0.811  11.772  0.7713  0.1371 -0.5272
 2005SOL    HW117477   3.351   0.781  11.810  0.2007  0.5086 -1.4750
 2005SOL    HW217478   3.476   0.726  11.759  1.0525  0.2060 -0.0620
 2006SOL     OW17479   1.922   0.884  17.300 -0.4177 -0.2754 -0.2374
 2006SOL    HW117480   1.968   0.935  17.234 -0.3293 -0.0109  0.0316
 2006SOL    HW217481   1.830   0.899  17.279 -0.1942  1.7214  0.2174
 2007SOL     OW17482   0.028   2.496   2.988 -0.5489  0.3068 -0.1105
 2007SOL    HW117483   0.023   2.449   2.905  0.4398  0.1415 -0.0760
 2007SOL    HW217484   0.074   2.572   2.953 -1.0393 -0.7934 -3.1242
 2008SOL     OW17485   3.413   1.603   9.855  0.2530  0.2186 -0.2760
 2008SOL    HW117486   3.467   1.606   9.776  1.0952 -2.0744  0.2073
 2008SOL    HW217487   3.432   1.511   9.872  0.2858  0.4106  0.7460
 2009SOL     OW17488   3.463   3.475   3.275 -0.0664 -0.2500 -0.2435
 2009SOL    HW117489   3.454   3.394   3.224  0.2272  0.8558 -2.0253
 2009SOL    HW217490   3.410   3.528   3.215 -0.9036 -0.6281  0.1609
 2010SOL     OW17491   2.313   3.886   1.813 -0.0787  0.8475  0.4193
 2010SOL    HW117492   2.304   3.972   1.773  3.6427  0.9687 -0.1726
 2010SOL    HW217493   2.407   3.866   1.811 -0.4622 -0.8639 -0.4200
 2011SOL     OW17494   0.313   2.212   3.956 -0.2850 -0.4955  0.5634
 2011SOL    HW117495   0.233   2.228   3.907 -0.0174  2.6611  1.2120
 2011SOL    HW217496   0.306   2.116   3.962 -0.7180 -0.4152  1.2760
 2012SOL     OW17497   1.585   3.796   5.169 -0.4144 -0.4680  0.6807
 2012SOL    HW117498   1.515   3.847   5.127  1.8904  2.9465  0.9872
 2012SOL    HW217499   1.644   3.861   5.208  1.0747 -1.2005 -0.3511
 2013SOL     OW17500   1.116   2.899   8.997 -0.0610 -0.5438 -0.5244
 2013SOL    HW117501   1.078   2.840   9.063  0.5300  0.8809  1.0837
 2013SOL    HW217502   1.179   2.946   9.052  1.4415 -1.2387 -1.6311
 2014SOL     OW17503   1.289   0.184   0.604 -0.5898  0.2659  0.4935
 2014SOL    HW117504   1.216   0.200   0.544 -0.8736  0.6314  0.9317
 2014SOL    HW217505   1.360   0.225   0.556 -1.4300  0.0209 -0.9581
 2015SOL     OW17506   4.009   1.982   2.934 -0.0782 -0.3545 -0.0626
 2015SOL    HW117507   4.103   1.992   2.916  0.0178 -0.1480  0.5682
 2015SOL    HW217508   3.981   2.073   2.922  0.6058 -0.5991 -3.5733
 2016SOL     OW17509   3.857   2.247   6.363  0.7546  0.3549 -0.5369
 2016SOL    HW117510   3.847   2.189   6.287 -0.9356 -1.1506  0.8317
 2016SOL    HW217511   3.929   2.302   6.332  0.6388  1.1240  0.5667
 2017SOL     OW17512   0.532   3.019   3.874  0.4620  0.4951 -0.2147
 2017SOL    HW117513   0.485   3.102   3.868 -0.6949 -0.2463 -1.2591
 2017SOL    HW217514   0.534   3.001   3.967  0.6894  0.4200 -0.2337
 2018SOL     OW17515   2.489   3.459  11.705 -0.1154  0.1893  0.1213
 2018SOL    HW117516   2.513   3.473  11.797 -0.0339  0.4171  0.0649
 2018SOL    HW217517   2.536   3.531  11.663  1.9408  0.3036  2.5958
 2019SOL     OW17518   2.023   2.187   9.102 -0.5262  0.0804 -0.6123
 2019SOL    HW117519   2.097   2.156   9.050  1.8187  4.4347  0.1584
 2019SOL    HW217520   2.045   2.173   9.194 -1.3892 -1.3510 -0.6106
 2020SOL     OW17521   3.427   0.143  15.668  0.2274  0.3722  0.1954
 2020SOL    HW117522   3.455   0.146  15.576 -3.8986  1.1002 -1.0368
 2020SOL    HW217523   3.416   0.236  15.687  1.2609  0.6598 -0.5647
 2021SOL     OW17524   0.675   4.679   5.857 -0.3749  0.0143  0.3321
 2021SOL    HW117525   0.629   0.019   5.910  0.6604  1.6879 -0.8010
 2021SOL    HW217526   0.626   4.605   5.893  2.6000 -1.1466  1.9449
 2022SOL     OW17527   0.884   3.624   9.067 -0.9264  0.0342 -0.3456
 2022SOL    HW117528   0.892   3.549   9.008 -0.1532 -1.0591  1.1298
 2022SOL    HW217529   0.830   3.586   9.137 -1.2476  0.6992 -0.2370
 2023SOL     OW17530   3.844   0.718   3.055  0.1038 -0.1815 -0.3403
 2023SOL    HW117531   3.785   0.791   3.072 -0.1145 -0.3522 -0.3711
 2023SOL    HW217532   3.823   0.689   2.966  0.8916 -0.6428 -0.3781
 2024SOL     OW17533   3.579   3.931   4.488  0.7802 -0.0720 -0.1679
 2024SOL    HW117534   3.633   4.008   4.470 -0.4807  0.7820 -0.2748
 2024SOL    HW217535   3.639   3.875   4.538 -1.1282 -1.6756  0.3085
 2025SOL     OW17536   1.474   1.347   2.431  0.0373  0.4835 -0.4075
 2025SOL    HW117537   1.544   1.373   2.490 -1.9595 -2.3932  3.2411
 2025SOL    HW217538   1.502   1.386   2.348  2.6879 -0.9330 -0.1839
 2026SOL     OW17539   2.782   2.254   6.931 -0.4403  0.6372 -0.7067
 2026SOL    HW117540   2.752   2.209   6.852 -0.8895 -1.0521  0.4327
 2026SOL    HW217541   2.724   2.330   6.917 -1.9690  0.0888  2.7485
 2027SOL     OW17542   0.903   0.067   2.669  0.0075  0.4041 -0.0501
 2027SOL    HW117543   0.950   0.010   2.608 -1.0352  0.5933 -1.0454
 2027SOL    HW217544   0.965   0.050   2.740 -1.6097 -0.0670  1.2578
 2028SOL     OW17545   2.914   1.450   7.873  0.1903 -0.3712  0.9694
 2028SOL    HW117546   2.857   1.515   7.915  0.0917 -0.1332  0.4624
 2028SOL    HW217547   2.853   1.377   7.861 -0.9080  1.0339 -1.9548
 2029SOL     OW17548   0.949   3.693   9.342 -0.7135  0.0113 -0.0386
 2029SOL    HW117549   1.013   3.642   9.292 -1.6220 -0.9715 -0.2174
 2029SOL    HW217550   0.864   3.667   9.305 -0.2912  0.6568 -1.4796
 2030SOL     OW17551   2.149   3.825  11.272 -0.0679 -0.5311  0.5873
 2030SOL    HW117552   2.132   3.833  11.178  1.3818 -0.6292  0.3246
 2030SOL    HW217553   2.106   3.742  11.292 -0.9583 -0.2588 -0.2054
 2031SOL     OW17554   2.741   2.138   5.908  0.3337  0.3796 -0.0958
 2031SOL    HW117555   2.653   2.113   5.938 -0.1023  0.4068 -1.3544
 2031SOL    HW217556   2.771   2.053   5.874  0.7321 -0.2358  1.7496
 2032SOL     OW17557   2.644   3.411  17.540 -0.5471  0.0939  0.4388
 2032SOL    HW117558   2.554   3.389  17.562 -1.2682 -0.7730 -3.4436
 2032SOL    HW217559   2.687   3.331  17.510 -1.4921 -0.6352  1.0329
 2033SOL     OW17560   2.278   2.778   4.747 -0.4149  0.1785  0.4560
 2033SOL    HW117561   2.321   2.762   4.831 -2.2497  0.7707  1.5071
 2033SOL    HW217562   2.247   2.867   4.763 -0.5743 -0.0679  1.5560
 2034SOL     OW17563   0.114   4.300   7.176 -0.5382  0.0561 -0.2517
 2034SOL    HW117564   0.031   4.290   7.223  0.7502 -1.1881  1.7564
 2034SOL    HW217565   0.115   4.229   7.111  1.1091  0.0129 -0.1724
 2035SOL     OW17566   2.371   3.179  15.357 -0.6102  0.4254 -0.4478
 2035SOL    HW117567   2.461   3.190  15.388 -0.8606 -0.4250  0.5641
 2035SOL    HW217568   2.386   3.203  15.265 -3.6501  2.9832 -0.2727
 2036SOL     OW17569   2.610   0.854   7.248 -0.4799  0.1024 -0.1342
 2036SOL    HW117570   2.542   0.838   7.182 -0.2867  0.5421 -0.4414
 2036SOL    HW217571   2.686   0.824   7.198  0.6823  1.2275  0.9466
 2037SOL     OW17572   4.449   0.611  17.103  0.6611 -0.4684 -0.1035
 2037SOL    HW117573   4.362   0.574  17.121 -0.5292  1.8209 -1.1715
 2037SOL    HW217574   4.474   0.650  17.186 -1.2753  0.3306  0.1143
 2038SOL     OW17575   3.861   3.634   2.022  0.3447  0.1410  0.0025
 2038SOL    HW117576   3.926   3.585   2.072  1.6497 -0.0615 -1.9197
 2038SOL    HW217577   3.799   3.630   2.095 -1.5089  0.0778 -1.5606
 2039SOL     OW17578   1.622   0.145   3.503  0.2247 -0.0905  0.8229
 2039SOL    HW117579   1.680   0.072   3.523 -1.2071 -1.7798 -1.2650
 2039SOL    HW217580   1.674   0.197   3.442 -3.8103  1.7379 -1.0287
 2040SOL     OW17581   4.589   1.017   2.659  0.3004  0.1885 -0.0489
 2040SOL    HW117582   4.536   0.978   2.727  2.6495 -1.0050  1.0917
 2040SOL    HW217583   4.584   0.953   2.588 -0.9895 -0.2601  0.4471
 2041SOL     OW17584   4.078   3.677  10.643  0.1516 -0.9052  0.3338
 2041SOL    HW117585   4.121   3.744  10.591 -1.3777 -1.0594 -1.1297
 2041SOL    HW217586   3.989   3.694  10.613  0.2317 -0.8743  0.1126
 2042SOL     OW17587   0.260   0.949   4.628 -0.6211  0.6427  0.8569
 2042SOL    HW117588   0.215   0.993   4.700  1.0063  3.8727 -0.1062
 2042SOL    HW217589   0.310   1.022   4.590 -1.5753 -0.4763 -2.5590
 2043SOL     OW17590   2.379   0.604   6.120 -0.0088 -0.1907  0.3219
 2043SOL    HW117591   2.309   0.583   6.058 -0.9376 -1.5009  1.8316
 2043SOL    HW217592   2.404   0.524   6.166 -1.3275 -2.4095 -2.8069
 2044SOL     OW17593   0.378   1.128   6.117 -0.1326 -0.1399  0.7598
 2044SOL    HW117594   0.442   1.145   6.048 -0.3348 -0.7609  0.4191
 2044SOL    HW217595   0.295   1.135   6.070 -0.3480  3.6186  1.7610
 2045SOL     OW17596   2.100   0.519  11.302  0.6008 -0.2758 -0.4138
 2045SOL    HW117597   2.041   0.462  11.352 -0.0711  1.5103  0.8049
 2045SOL    HW217598   2.185   0.497  11.340  0.2261  2.1918  1.8686
 2046SOL     OW17599   3.939   0.830  10.824 -0.2355 -0.3892 -0.1619
 2046SOL    HW117600   3.998   0.769  10.867 -0.2420  1.6844  2.8281
 2046SOL    HW217601   3.983   0.910  10.855 -1.5137  0.5925 -0.8608
 2047SOL     OW17602   2.478   0.170  12.868  0.9266  0.0746  0.4172
 2047SOL    HW117603   2.467   0.077  12.848 -2.6338  0.9845 -1.7460
 2047SOL    HW217604   2.565   0.170  12.908  0.6825 -1.2825  0.9649
 2048SOL     OW17605   3.315   3.477   6.917 -0.4172 -0.3129 -0.4303
 2048SOL    HW117606   3.237   3.515   6.877 -0.7684 -2.6641 -2.0404
 2048SOL    HW217607   3.384   3.540   6.898 -0.1120 -0.6409 -0.4042
 2049SOL     OW17608   2.690   4.662   0.837 -0.0259  0.6091  0.4834
 2049SOL    HW117609   2.726   0.022   0.814 -0.9462  1.2174  1.2594
 2049SOL    HW217610   2.769   4.631   0.882  1.0883 -0.2583 -2.0875
 2050SOL     OW17611   0.063   3.105   6.668  0.0683  0.4349  0.1296
 2050SOL    HW117612   0.106   3.031   6.710 -1.7917 -0.3472  0.6907
 2050SOL    HW217613   0.001   3.061   6.609 -3.4036  1.2935  3.1025
 2051SOL     OW17614   1.817   3.847   2.464 -0.0598 -0.1630  0.2217
 2051SOL    HW117615   1.822   3.850   2.368  3.2262  0.8943  0.4266
 2051SOL    HW217616   1.751   3.913   2.484  1.1367  0.8202  0.8945
 2052SOL     OW17617   2.869   3.248   9.563 -0.3812  0.0105  0.5907
 2052SOL    HW117618   2.789   3.203   9.588 -1.1758  0.5891 -0.9429
 2052SOL    HW217619   2.846   3.303   9.488 -0.5878 -0.5648  0.2378
 2053SOL     OW17620   3.115   1.366   8.608  0.0565 -0.0897  0.2506
 2053SOL    HW117621   3.147   1.340   8.521 -0.1160  1.2438 -0.2033
 2053SOL    HW217622   3.143   1.457   8.597  2.2071 -0.6718  0.9902
 2054SOL     OW17623   1.837   3.294  14.942 -0.1325  0.1580 -0.1268
 2054SOL    HW117624   1.878   3.365  14.893 -3.6119  1.8868 -0.5666
 2054SOL    HW217625   1.912   3.246  14.975 -1.8676 -0.8427  2.3842
 2055SOL     OW17626   4.301   0.821   8.256  0.0927 -0.0023 -0.3792
 2055SOL    HW117627   4.368   0.820   8.188  0.8247 -0.9788  0.3584
 2055SOL    HW217628   4.216   0.803   8.214  0.6113  0.2560 -1.5455
 2056SOL     OW17629   2.390   3.355   5.950 -0.2108 -0.6108 -0.3677
 2056SOL    HW117630   2.337   3.431   5.927 -1.5200 -1.0002  1.4297
 2056SOL    HW217631   2.446   3.344   5.873 -1.1074  1.7879 -1.3559
 2057SOL     OW17632   0.457   2.863   5.401  0.0543  0.0714 -0.2901
 2057SOL    HW117633   0.372   2.865   5.358 -0.7665 -1.2383  1.2769
 2057SOL    HW217634   0.466   2.774   5.436 -0.3743  0.9913  2.1609
 2058SOL     OW17635   2.364   2.589   6.317  0.1847 -0.9742  0.0945
 2058SOL    HW117636   2.294   2.525   6.327 -0.6544 -0.1356 -0.4818
 2058SOL    HW217637   2.426   2.554   6.381  1.1775 -2.4145 -1.6375
 2059SOL     OW17638   1.798   4.148   9.845 -0.3495  0.2841  1.1192
 2059SOL    HW117639   1.859   4.085   9.807  0.6014  1.9204 -0.0446
 2059SOL    HW217640   1.758   4.095   9.914 -1.6379 -1.2344 -0.7948
 2060SOL     OW17641   3.659   1.836   5.568  0.0323  0.2040  0.3446
 2060SOL    HW117642   3.643   1.793   5.652  0.4761  1.5541  1.1348
 2060SOL    HW217643   3.751   1.812   5.553 -0.4234  0.7136 -3.2393
 2061SOL     OW17644   1.868   0.126   4.717 -0.0213 -0.2938 -0.2233
 2061SOL    HW117645   1.795   0.109   4.658 -0.9437 -0.9391  1.1277
 2061SOL    HW217646   1.860   0.220   4.732 -0.6036  0.0383 -2.6282
 2062SOL     OW17647   0.775   3.791   7.033 -0.6349  0.1334  0.1851
 2062SOL    HW117648   0.730   3.771   6.951  1.0934 -0.9489 -0.4894
 2062SOL    HW217649   0.739   3.878   7.052 -1.3609 -0.2433  0.5056
 2063SOL     OW17650   3.849   2.822  15.242  0.2344 -0.1135 -0.1385
 2063SOL    HW117651   3.929   2.817  15.294  1.0753  1.3086 -1.2744
 2063SOL    HW217652   3.857   2.913  15.215 -1.4934 -0.3989 -1.6073
 2064SOL     OW17653   3.359   2.811   8.117 -0.0536  0.1909  0.5639
 2064SOL    HW117654   3.332   2.893   8.157 -0.7151  0.9166 -1.4099
 2064SOL    HW217655   3.419   2.775   8.183 -1.6749  1.0823  2.5137
 2065SOL     OW17656   1.713   0.235  11.933  0.4755  0.4772  0.1822
 2065SOL    HW117657   1.729   0.329  11.929  0.2103  0.4958 -0.4574
 2065SOL    HW217658   1.623   0.246  11.963  0.5441  1.6227 -0.0411
 2066SOL     OW17659   2.729   4.006   8.220  0.3218  0.7260 -0.6860
 2066SOL    HW117660   2.693   4.038   8.137 -1.8618 -2.0267 -0.8039
 2066SOL    HW217661   2.749   4.090   8.261  1.1547  0.6100 -0.8578
 2067SOL     OW17662   2.962   1.588   7.238 -0.6578  0.0225 -0.0254
 2067SOL    HW117663   2.942   1.553   7.151 -0.3593 -2.2238  0.8228
 2067SOL    HW217664   2.880   1.567   7.280 -1.4397  2.2816 -0.4063
 2068SOL     OW17665   1.642   1.930   0.707  0.3665 -0.3123 -0.4559
 2068SOL    HW117666   1.726   1.928   0.661  1.4936  0.0333  1.5560
 2068SOL    HW217667   1.591   1.996   0.658  0.1836 -1.3462 -1.6504
 2069SOL     OW17668   4.182   1.034   3.945  0.4134 -0.2632 -0.1483
 2069SOL    HW117669   4.231   0.953   3.929 -1.1407 -1.3967  0.8963
 2069SOL    HW217670   4.151   1.020   4.034 -0.2479  1.4892 -0.1137
 2070SOL     OW17671   0.926   1.049   4.134 -0.1199 -0.0118 -0.1391
 2070SOL    HW117672   0.932   1.030   4.040  0.3993  0.4666 -0.2000
 2070SOL    HW217673   1.005   1.011   4.172  1.6063  2.0040 -1.6992
 2071SOL     OW17674   4.543   1.107  10.731 -0.2061 -0.7862  0.0761
 2071SOL    HW117675   4.531   1.130  10.639 -0.4418  0.9694  0.5483
 2071SOL    HW217676   4.590   1.181  10.770 -0.2519 -1.3722  1.2433
 2072SOL     OW17677   2.613   1.073  10.144 -0.5639 -0.0154 -0.2169
 2072SOL    HW117678   2.659   1.015  10.082  1.5243 -1.0563  2.3311
 2072SOL    HW217679   2.685   1.106  10.197  1.0128 -0.2156 -2.2212
 2073SOL     OW17680   0.725   4.198   6.419 -0.1942  0.8091  0.3077
 2073SOL    HW117681   0.778   4.260   6.369  0.9699 -0.3171  0.1490
 2073SOL    HW217682   0.664   4.262   6.457 -1.2192 -0.1839  0.3437
 2074SOL     OW17683   4.500   0.402   6.655 -0.4616 -0.2406 -0.4956
 2074SOL    HW117684   4.550   0.424   6.734  0.1088  1.1763 -1.2398
 2074SOL    HW217685   4.526   0.472   6.595 -0.0792 -0.0696 -0.1306
 2075SOL     OW17686   1.210   0.350   8.980  0.1316 -0.2887 -0.4815
 2075SOL    HW117687   1.199   0.326   9.072  1.4499  1.3626  0.0972
 2075SOL    HW217688   1.126   0.394   8.969  0.3328  0.0521 -0.6425
 2076SOL     OW17689   0.818   0.404   5.728  0.1439  0.2808 -0.8540
 2076SOL    HW117690   0.753   0.369   5.666 -1.7340  0.9015  0.7489
 2076SOL    HW217691   0.833   0.485   5.680 -0.0359  1.1536  0.5731
 2077SOL     OW17692   1.205   4.530   7.569 -0.5165  0.1009 -0.7221
 2077SOL    HW117693   1.151   4.515   7.647 -0.2232  0.9596 -0.3531
 2077SOL    HW217694   1.266   4.596   7.602  0.3694  0.0327 -2.2015
 2078SOL     OW17695   4.589   4.715   9.433  0.7419 -0.1569 -0.0303
 2078SOL    HW117696   4.668   4.664   9.454 -0.2252 -1.2134  0.9889
 2078SOL    HW217697   4.599   4.709   9.338 -1.3037  0.7171 -0.2970
 2079SOL     OW17698   1.545   0.783  13.853  0.1165 -0.0501  0.0546
 2079SOL    HW117699   1.624   0.807  13.901 -0.0755 -1.2003  0.9434
 2079SOL    HW217700   1.564   0.704  13.803 -0.1828 -0.0041 -0.1337
 2080SOL     OW17701   3.039   3.823  12.406 -0.1002 -0.0843 -0.1381
 2080SOL    HW117702   3.063   3.740  12.447  3.0776  1.9168  2.0159
 2080SOL    HW217703   3.121   3.853  12.367  0.6312  0.1985  1.5926
 2081SOL     OW17704   3.245   4.643   5.099 -0.1430  0.0416  0.2762
 2081SOL    HW117705   3.296   4.701   5.155 -2.0712 -0.4708  2.5864
 2081SOL    HW217706   3.207   4.711   5.043  1.5188  0.4576 -0.3234
 2082SOL     OW17707   2.863   2.817   7.397  0.6657  0.2341 -0.0416
 2082SOL    HW117708   2.773   2.826   7.427 -0.0978  1.3827 -2.6896
 2082SOL    HW217709   2.898   2.767   7.470  1.7353 -0.9628 -1.3540
 2083SOL     OW17710   1.664   2.315   1.408 -0.4016  0.4435  0.0779
 2083SOL    HW117711   1.667   2.341   1.316  0.9128  1.3025  0.3599
 2083SOL    HW217712   1.669   2.394   1.462 -1.2215 -1.8273  3.4726
 2084SOL     OW17713   0.588   1.796   5.034 -0.6536 -0.2139 -0.3477
 2084SOL    HW117714   0.604   1.774   4.942  1.8585  1.7527 -0.3816
 2084SOL    HW217715   0.633   1.880   5.047 -1.1188  0.0144 -0.2034
 2085SOL     OW17716   2.978   2.989   8.328  0.0141  0.4536 -0.2588
 2085SOL    HW117717   2.896   2.996   8.377 -0.5113 -1.2757 -0.8920
 2085SOL    HW217718   2.960   2.902   8.292 -0.3033  1.1749 -1.8238
 2086SOL     OW17719   1.611   3.610   9.463  0.0096 -0.1170 -0.1022
 2086SOL    HW117720   1.534   3.560   9.490 -0.5223  1.7731  1.9525
 2086SOL    HW217721   1.635   3.550   9.393  3.6913  0.6603  0.5199
 2087SOL     OW17722   4.285   0.410   5.831  0.3531  0.6147 -0.0346
 2087SOL    HW117723   4.208   0.448   5.788  1.1446  3.0085  0.6478
 2087SOL    HW217724   4.280   0.316   5.814 -1.1457  0.4898  1.0574
 2088SOL     OW17725   1.507   1.694   4.417  0.0467  0.2899 -0.3818
 2088SOL    HW117726   1.602   1.680   4.413 -0.0763 -1.1572  1.8203
 2088SOL    HW217727   1.471   1.616   4.375 -0.1758  0.6544 -0.8598
 2089SOL     OW17728   0.126   3.519  10.948 -0.8152 -0.4629  0.5246
 2089SOL    HW117729   0.212   3.556  10.927 -0.1111 -1.4790  1.6147
 2089SOL    HW217730   0.137   3.501  11.041 -2.0021 -0.2598  0.7025
 2090SOL     OW17731   3.202   4.175  14.983  0.1872  0.1291  0.4967
 2090SOL    HW117732   3.246   4.109  14.930 -0.0308  1.2844 -1.1103
 2090SOL    HW217733   3.126   4.195  14.929 -0.6015 -0.4381  1.3888
 2091SOL     OW17734   0.259   4.400  16.792  0.2865  0.2006  0.0801
 2091SOL    HW117735   0.353   4.404  16.773  0.0967 -1.1545 -1.1455
 2091SOL    HW217736   0.241   4.487  16.827  0.5621 -0.2872  1.4125
 2092SOL     OW17737   3.840   4.268  15.484 -0.2761  0.0008 -0.0505
 2092SOL    HW117738   3.834   4.189  15.430  3.3190 -0.7685  0.6415
 2092SOL    HW217739   3.773   4.260  15.551 -0.6631 -0.8138 -0.5243
 2093SOL     OW17740   0.019   2.331   4.035  0.8504 -0.7343  0.5459
 2093SOL    HW117741   4.648   2.328   4.040  0.8010 -0.6675 -0.4116
 2093SOL    HW217742   0.043   2.268   4.103 -0.2278  0.3201  1.9301
 2094SOL     OW17743   3.347   3.070   2.567 -0.2747 -0.2456 -0.2528
 2094SOL    HW117744   3.349   3.148   2.511  0.4662 -0.4901 -0.5698
 2094SOL    HW217745   3.275   3.024   2.524  1.1063 -1.5311 -1.2125
 2095SOL     OW17746   1.765   2.054  12.294  0.3523 -0.0049 -0.9382
 2095SOL    HW117747   1.752   2.143  12.325 -0.3556  0.3206 -2.1588
 2095SOL    HW217748   1.854   2.055  12.259  1.4871  1.1559  1.9883
 2096SOL     OW17749   2.417   1.130   0.068  0.2308 -0.3212 -0.3514
 2096SOL    HW117750   2.356   1.128  17.696 -1.5592 -2.2184  1.1638
 2096SOL    HW217751   2.364   1.188   0.122  0.4094 -0.1045 -0.4117
 2097SOL     OW17752   3.926   1.884   7.693  0.6836 -0.3040  0.4310
 2097SOL    HW117753   3.980   1.805   7.688 -2.2200 -2.3767  1.6697
 2097SOL    HW217754   3.905   1.894   7.786  1.5791  1.4330  0.4467
 2098SOL     OW17755   0.142   0.306   5.426 -0.2201 -0.9407 -0.1601
 2098SOL    HW117756   0.166   0.328   5.516 -0.5328 -1.5046  0.0592
 2098SOL    HW217757   0.208   0.237   5.418  0.2865 -0.5134  0.3712
 2099SOL     OW17758   1.839   3.398   7.049 -0.2066  0.2486 -0.1753
 2099SOL    HW117759   1.926   3.359   7.059 -0.5356 -1.1191 -2.8840
 2099SOL    HW217760   1.788   3.330   7.006 -0.1928  1.4290 -2.0348
 2100SOL     OW17761   1.238   1.574   3.694 -0.6665  0.1925  0.4233
 2100SOL    HW117762   1.303   1.645   3.691  2.1151 -2.2704  1.4869
 2100SOL    HW217763   1.195   1.579   3.609 -1.3789 -0.0239  0.7749
 2101SOL     OW17764   0.228   4.560   7.423 -0.5422  0.3791 -0.5339
 2101SOL    HW117765   0.133   4.566   7.425 -0.6328 -0.9673 -1.0173
 2101SOL    HW217766   0.251   4.469   7.439 -0.5601  0.5841  0.6733
 2102SOL     OW17767   0.212   4.508   5.710 -0.2181  0.0621 -0.0336
 2102SOL    HW117768   0.237   4.425   5.670  2.2373  0.2425  1.1329
 2102SOL    HW217769   0.262   4.565   5.652  0.4343 -1.2195 -0.7310
 2103SOL     OW17770   3.707   3.705   3.785  0.0563  0.2653 -0.2211
 2103SOL    HW117771   3.642   3.698   3.716 -0.3296  0.0594  0.1604
 2103SOL    HW217772   3.670   3.653   3.857 -3.1684 -1.1721 -2.9466
 2104SOL     OW17773   3.967   0.906   7.407 -0.4858  0.0248  0.4134
 2104SOL    HW117774   3.947   0.999   7.423  0.4807  0.4660 -0.8900
 2104SOL    HW217775   4.046   0.914   7.353 -1.0179  0.2093 -0.3361
 2105SOL     OW17776   0.067   3.450   5.340  0.2357  0.4992  0.1178
 2105SOL    HW117777   0.027   3.533   5.363 -1.3899 -0.0570 -0.7436
 2105SOL    HW217778   0.145   3.482   5.293  1.3385 -2.8587 -0.3401
 2106SOL     OW17779   2.286   2.641   1.057 -0.1853 -0.6269  0.5563
 2106SOL    HW117780   2.209   2.676   1.011 -0.0504 -1.5576 -0.3744
 2106SOL    HW217781   2.312   2.724   1.098 -1.7182  0.4637 -0.6775
 2107SOL     OW17782   2.568   3.139   8.807 -0.2942 -0.0581  0.8010
 2107SOL    HW117783   2.651   3.139   8.854  0.9102 -1.1737 -1.2894
 2107SOL    HW217784   2.539   3.050   8.825  0.5933 -0.7387 -1.1138
 2108SOL     OW17785   4.384   1.493   6.777 -0.1133 -0.1461  0.4320
 2108SOL    HW117786   4.375   1.433   6.851 -0.6445 -1.9028 -1.0434
 2108SOL    HW217787   4.291   1.494   6.755  0.0894  2.8177 -0.3675
 2109SOL     OW17788   3.854   2.502   7.414  0.0628 -0.2744  0.0077
 2109SOL    HW117789   3.792   2.507   7.341  0.0148  2.0352  0.1855
 2109SOL    HW217790   3.903   2.421   7.406  0.2461 -0.0979 -0.6693
 2110SOL     OW17791   2.661   2.272   0.669 -0.5553 -0.3740  0.2949
 2110SOL    HW117792   2.578   2.249   0.627 -0.3331 -0.7952  0.0884
 2110SOL    HW217793   2.679   2.193   0.720  1.0437 -0.8529 -0.9998
 2111SOL     OW17794   3.347   3.943   8.787 -0.4563 -0.0939  0.5453
 2111SOL    HW117795   3.258   3.978   8.786 -0.0461  0.9860  1.0423
 2111SOL    HW217796   3.335   3.850   8.769  1.7284 -0.4228  0.8139
 2112SOL     OW17797   3.446   0.018  15.375  0.5669 -0.3558  0.4249
 2112SOL    HW117798   3.465   0.103  15.335 -0.8175 -1.0329 -1.6905
 2112SOL    HW217799   3.524   4.691  15.354  0.8897 -0.5477  2.1487
 2113SOL     OW17800   1.826   1.523   8.241  0.2020 -0.0871 -0.3664
 2113SOL    HW117801   1.739   1.549   8.270  0.2710 -1.4981  1.1528
 2113SOL    HW217802   1.852   1.444   8.290  0.2497  0.3984  0.3858
 2114SOL     OW17803   3.017   1.448  16.939 -0.1852 -0.1623  0.3397
 2114SOL    HW117804   2.933   1.439  16.893  0.2884  1.2312 -0.7885
 2114SOL    HW217805   3.018   1.541  16.959  0.5596  1.3204 -6.8597
 2115SOL     OW17806   0.196   2.152   9.821 -0.0430 -1.0201  0.0467
 2115SOL    HW117807   0.247   2.170   9.743  0.1378  1.2340  0.6819
 2115SOL    HW217808   0.203   2.057   9.835  0.4430 -1.0312 -0.3221
 2116SOL     OW17809   2.485   3.738   7.766  0.5712 -0.0486  0.2943
 2116SOL    HW117810   2.517   3.699   7.847 -1.1805 -1.2663  0.3817
 2116SOL    HW217811   2.534   3.703   7.691 -1.0066 -0.8173 -0.3717
 2117SOL     OW17812   0.979   2.228   9.072 -0.0814  0.1378 -0.2355
 2117SOL    HW117813   0.900   2.205   9.122  0.0715 -1.3534 -0.6646
 2117SOL    HW217814   1.006   2.315   9.100 -0.7458  1.0174 -2.3428
 2118SOL     OW17815   2.759   3.866  10.357 -0.5067 -0.1079 -0.1581
 2118SOL    HW117816   2.786   3.953  10.327  2.2635 -1.0157 -0.3040
 2118SOL    HW217817   2.790   3.815  10.282  0.3369  1.3069 -0.7662
 2119SOL     OW17818   1.812   0.397   4.769 -0.1412  0.0353  0.0921
 2119SOL    HW117819   1.719   0.410   4.786 -0.3390 -1.0534 -0.2121
 2119SOL    HW217820   1.846   0.475   4.812 -0.0376  0.2959 -0.4564
 2120SOL     OW17821   2.876   4.397  11.459  0.0934 -0.3412  0.3272
 2120SOL    HW117822   2.866   4.407  11.554 -2.5640  1.3729 -0.1335
 2120SOL    HW217823   2.874   4.303  11.438  2.4626 -0.1437 -0.7014
 2121SOL     OW17824   2.221   3.799   7.855 -0.1526 -0.3209 -0.5159
 2121SOL    HW117825   2.236   3.807   7.949  1.9886  3.5672 -1.2026
 2121SOL    HW217826   2.307   3.772   7.822 -0.2605 -1.0866 -0.1649
 2122SOL     OW17827   4.013   1.848  17.678 -0.4705  0.1955  0.0327
 2122SOL    HW117828   4.104   1.877  17.674  0.2282 -1.8297  0.9339
 2122SOL    HW217829   3.975   1.870  17.594 -3.3165 -1.6863  0.8194
 2123SOL     OW17830   4.326   3.882   7.932 -1.1077 -0.0808 -0.3662
 2123SOL    HW117831   4.291   3.836   8.008 -1.5052 -0.3769 -0.7314
 2123SOL    HW217832   4.298   3.972   7.949  0.5938 -0.0269  2.0406
 2124SOL     OW17833   1.093   2.681   5.055  0.4290  0.3430  0.3437
 2124SOL    HW117834   1.121   2.684   5.146  1.5963  1.1003 -0.0433
 2124SOL    HW217835   1.083   2.587   5.040  1.6163  0.2876 -0.1198
 2125SOL     OW17836   3.254   0.400   7.478 -0.5781  0.0759 -0.2206
 2125SOL    HW117837   3.264   0.452   7.558  2.1815  0.4581 -0.8272
 2125SOL    HW217838   3.167   0.364   7.496  0.1972 -0.9417  1.5576
 2126SOL     OW17839   3.061   1.822   3.620 -0.3280  0.0996 -0.4547
 2126SOL    HW117840   3.102   1.908   3.627 -0.0447  0.0522 -1.5128
 2126SOL    HW217841   2.986   1.851   3.568  1.1862  0.0713 -2.6395
 2127SOL     OW17842   0.019   0.923  10.735  0.1502 -0.1918 -0.2455
 2127SOL    HW117843   4.672   0.985  10.746  0.5450  0.3362 -0.6107
 2127SOL    HW217844   0.070   0.961  10.806 -2.4760  0.6274  1.2269
 2128SOL     OW17845   3.857   0.703   7.104 -0.5861  0.3546 -0.4471
 2128SOL    HW117846   3.821   0.652   7.176  2.3030 -1.9106 -0.6114
 2128SOL    HW217847   3.908   0.634   7.062  0.5405 -0.7164  2.6506
 2129SOL     OW17848   1.431   2.997  11.883 -0.2121  0.1832  0.4563
 2129SOL    HW117849   1.522   3.019  11.864 -1.2825  1.5346 -3.1045
 2129SOL    HW217850   1.394   3.023  11.799 -0.6747 -1.5599  0.1245
 2130SOL     OW17851   1.933   4.441   7.471  0.3468 -0.2886 -0.4410
 2130SOL    HW117852   1.866   4.395   7.420  0.8740 -1.3834 -0.1480
 2130SOL    HW217853   1.928   4.534   7.447 -1.1099 -0.2242  0.1040
 2131SOL     OW17854   2.344   0.454   0.046  0.5212  0.3688 -0.2132
 2131SOL    HW117855   2.359   0.433   0.138 -1.8811  2.4383  0.6441
 2131SOL    HW217856   2.395   0.534   0.030  0.2833 -0.1560 -3.5344
 2132SOL     OW17857   2.053   3.890   6.200  0.7996  0.1923 -0.1558
 2132SOL    HW117858   2.006   3.956   6.149 -0.6228 -0.5914  0.1291
 2132SOL    HW217859   2.132   3.935   6.226  0.6333  2.0860 -2.9027
 2133SOL     OW17860   3.198   2.059   3.725 -0.4204 -0.3248 -0.1707
 2133SOL    HW117861   3.170   2.070   3.816  1.9383 -1.4439  0.7064
 2133SOL    HW217862   3.247   2.141   3.715  0.8372 -1.2912 -1.9398
 2134SOL     OW17863   3.768   4.347  12.372 -0.2966 -0.0295 -0.3968
 2134SOL    HW117864   3.739   4.374  12.285  1.9092 -0.8280 -1.3839
 2134SOL    HW217865   3.836   4.281  12.353 -0.2093  0.3493 -1.4032
 2135SOL     OW17866   2.963   3.377   4.945  0.4559 -0.1672 -0.1309
 2135SOL    HW117867   2.988   3.452   4.891  2.9465 -1.3614 -0.6710
 2135SOL    HW217868   2.922   3.317   4.882  2.9724 -1.0645 -0.9382
 2136SOL     OW17869   2.470   4.566   4.731 -0.0824 -0.1575  0.0255
 2136SOL    HW117870   2.410   4.552   4.659 -0.3690 -1.4336  0.5042
 2136SOL    HW217871   2.516   4.640   4.692 -1.6397  0.9789  0.3794
 2137SOL     OW17872   1.743   1.434   2.533 -0.1287 -0.2280 -0.3149
 2137SOL    HW117873   1.692   1.512   2.511 -0.6388 -1.1415 -2.4224
 2137SOL    HW217874   1.783   1.471   2.611  0.0979 -1.1255 -0.0096
 2138SOL     OW17875   2.233   1.552   5.037 -0.3593 -0.3358 -0.1671
 2138SOL    HW117876   2.218   1.629   4.983 -1.7936 -1.0088 -0.7086
 2138SOL    HW217877   2.248   1.594   5.122  0.7086 -1.2237  0.0777
 2139SOL     OW17878   1.364   3.657   4.572  0.0838  0.5468 -0.0765
 2139SOL    HW117879   1.275   3.681   4.595  0.0080 -0.3591  0.6036
 2139SOL    HW217880   1.401   3.744   4.557  0.6190 -0.0172 -2.0448
 2140SOL     OW17881   0.735   0.384   1.238 -0.7721 -0.1186 -0.1378
 2140SOL    HW117882   0.715   0.310   1.180  3.1690 -0.7604 -0.6755
 2140SOL    HW217883   0.821   0.376   1.279 -0.3363  2.5590 -0.4824
 2141SOL     OW17884   4.304   0.185   0.448 -0.4244 -0.0467 -0.0037
 2141SOL    HW117885   4.363   0.138   0.507  1.5655  0.4309 -1.6427
 2141SOL    HW217886   4.277   0.114   0.390 -3.4621  0.6881  0.5227
 2142SOL     OW17887   2.474   3.132   9.404  0.1205 -0.4524 -0.7170
 2142SOL    HW117888   2.394   3.114   9.355  0.9039 -1.3856 -1.6529
 2142SOL    HW217889   2.440   3.191   9.471  0.2233 -0.9759 -0.2082
 2143SOL     OW17890   4.025   1.628   7.751  0.0390  0.8211 -0.5643
 2143SOL    HW117891   3.956   1.577   7.793  1.9609  1.0818  2.9105
 2143SOL    HW217892   4.057   1.572   7.681 -0.0476  0.4416 -0.2967
 2144SOL     OW17893   4.040   3.578   5.487  0.3664  0.3579  0.8002
 2144SOL    HW117894   4.097   3.629   5.544 -0.8769  1.4713  1.0400
 2144SOL    HW217895   4.070   3.492   5.519 -1.8642 -0.4096  0.7981
 2145SOL     OW17896   0.434   1.617   7.112 -0.0084  0.6490 -0.1965
 2145SOL    HW117897   0.391   1.543   7.154  1.6569  0.6479  1.5086
 2145SOL    HW217898   0.365   1.645   7.053 -0.3911  1.6152  0.7165
 2146SOL     OW17899   3.698   4.615  14.810  0.2322  0.1445 -0.5746
 2146SOL    HW117900   3.631   4.672  14.774 -1.4662 -1.1975  0.4474
 2146SOL    HW217901   3.661   4.592  14.896  0.8354  0.1720 -0.3079
 2147SOL     OW17902   2.763   3.355   9.069  0.4852  0.0945  0.2693
 2147SOL    HW117903   2.748   3.274   9.019 -0.6608  0.8801 -0.6629
 2147SOL    HW217904   2.718   3.345   9.153  1.4087 -0.6744  0.6659
 2148SOL     OW17905   2.365   4.069   9.506 -0.6755 -0.3637  0.2988
 2148SOL    HW117906   2.436   4.120   9.546 -1.4306  0.0347  1.1444
 2148SOL    HW217907   2.289   4.097   9.556 -1.8785 -1.4533 -0.9284
 2149SOL     OW17908   2.449   4.117   8.789  0.0553  0.1618 -0.2347
 2149SOL    HW117909   2.416   4.190   8.736 -1.1455  1.7053  2.6281
 2149SOL    HW217910   2.499   4.159   8.860  0.5196 -2.1539  0.8010
 2150SOL     OW17911   0.900   1.487   9.292 -0.5673  0.2364  0.3402
 2150SOL    HW117912   0.816   1.532   9.287 -0.2470  0.7420 -0.4330
 2150SOL    HW217913   0.878   1.467   9.384  0.4222 -1.2849  0.2493
 2151SOL     OW17914   4.057   2.535  10.349 -0.0496 -0.5419  0.1423
 2151SOL    HW117915   4.031   2.447  10.319 -1.0564  0.4856 -1.9970
 2151SOL    HW217916   4.053   2.580  10.264 -2.3683 -0.8914  0.0627
 2152SOL     OW17917   0.251   1.337   4.747  0.4830  0.1646  0.0508
 2152SOL    HW117918   0.283   1.401   4.683  2.9292 -0.3218  0.8060
 2152SOL    HW217919   0.191   1.401   4.784 -0.9871 -1.0600 -0.2141
 2153SOL     OW17920   1.624   0.647   6.159 -0.4467 -0.1532  0.3578
 2153SOL    HW117921   1.644   0.647   6.066 -0.6902  3.0485  0.3253
 2153SOL    HW217922   1.654   0.563   6.196 -0.6701  0.5435  2.1446
 2154SOL     OW17923   2.600   2.764   8.317 -0.1383  0.2442  0.3946
 2154SOL    HW117924   2.543   2.694   8.285  1.2491 -0.1221 -1.2971
 2154SOL    HW217925   2.663   2.703   8.355 -2.6660 -1.6817  1.4601
 2155SOL     OW17926   0.785   2.849   2.242  0.4685 -0.4327  0.1282
 2155SOL    HW117927   0.752   2.926   2.195 -1.0476 -0.8692  0.4560
 2155SOL    HW217928   0.848   2.810   2.183  0.7068  4.2018 -2.6412
 2156SOL     OW17929   3.298   2.753   8.791 -0.7385 -0.0796 -0.5382
 2156SOL    HW117930   3.378   2.796   8.762 -0.1779 -1.7332 -1.4561
 2156SOL    HW217931   3.227   2.779   8.733 -0.2462  2.6580  0.0684
 2157SOL     OW17932   3.354   4.050   7.054 -0.3908 -0.3242 -0.0367
 2157SOL    HW117933   3.362   4.134   7.101  1.6351 -0.6574  0.2001
 2157SOL    HW217934   3.443   4.040   7.022 -0.0482  0.9964  0.4927
 2158SOL     OW17935   0.564   0.802   7.701  0.0245 -0.0857  0.0536
 2158SOL    HW117936   0.577   0.707   7.695 -1.7067 -0.3130 -0.0996
 2158SOL    HW217937   0.654   0.828   7.682  0.1386 -0.4772  0.0609
 2159SOL     OW17938   0.171   1.932   3.598  0.3879 -0.0484 -0.9192
 2159SOL    HW117939   0.160   1.896   3.510 -1.5482 -2.2191  0.2287
 2159SOL    HW217940   0.247   1.891   3.640 -0.1995 -0.8242 -0.6221
 2160SOL     OW17941   3.178   4.609   2.766 -0.6078 -0.2732  0.4346
 2160SOL    HW117942   3.128   4.563   2.698  0.9649 -2.6334  0.8633
 2160SOL    HW217943   3.246   4.550   2.798 -0.5220 -0.0471  0.6702
 2161SOL     OW17944   1.553   4.388   2.168  0.1794  0.3515 -0.2145
 2161SOL    HW117945   1.584   4.457   2.110 -2.6412  0.8029 -1.1653
 2161SOL    HW217946   1.461   4.415   2.164  0.3895  1.0821 -0.1185
 2162SOL     OW17947   1.265   3.273   4.366 -0.1664 -0.3141  0.6708
 2162SOL    HW117948   1.207   3.305   4.436  2.3156 -2.3280  3.6515
 2162SOL    HW217949   1.295   3.357   4.331 -0.6272 -0.8870 -1.0860
 2163SOL     OW17950   2.857   2.074  13.934  0.1997  0.3651 -0.0718
 2163SOL    HW117951   2.808   2.106  14.010  1.3298  1.0231  0.3818
 2163SOL    HW217952   2.855   1.979  13.944 -0.6379  0.2301 -1.4645
 2164SOL     OW17953   2.005   4.367   8.090 -0.3397  0.0004 -0.7934
 2164SOL    HW117954   2.086   4.409   8.060 -0.1953  0.8179  0.7305
 2164SOL    HW217955   1.974   4.427   8.158 -0.1662  0.1191 -0.8177
 2165SOL     OW17956   0.908   1.290  17.282 -0.2067 -0.6186  0.4323
 2165SOL    HW117957   0.992   1.336  17.281  0.1616 -1.3128 -0.6809
 2165SOL    HW217958   0.932   1.229  17.211  0.9173  1.2061 -0.7447
 2166SOL     OW17959   3.242   0.842   4.460 -0.4174 -0.2864  0.7049
 2166SOL    HW117960   3.336   0.861   4.459 -0.6703  1.0418  3.1130
 2166SOL    HW217961   3.203   0.924   4.490  0.2214  0.9388 -1.7590
 2167SOL     OW17962   0.296   3.661   4.576 -0.0168  0.3870 -0.3140
 2167SOL    HW117963   0.204   3.662   4.548  0.8253  0.9045 -3.0364
 2167SOL    HW217964   0.336   3.747   4.563  0.6426  0.2746  1.0429
 2168SOL     OW17965   1.099   0.792   4.782  0.4210 -0.0052  0.3987
 2168SOL    HW117966   1.065   0.871   4.740 -0.0888  0.9783  2.6299
 2168SOL    HW217967   1.170   0.777   4.720 -0.6214 -1.2815 -0.4800
 2169SOL     OW17968   1.250   4.334   3.775  0.1798 -0.0853 -0.2767
 2169SOL    HW117969   1.275   4.363   3.687  1.3806 -0.5897 -0.1150
 2169SOL    HW217970   1.327   4.285   3.807  0.4464  1.0313  0.7907
 2170SOL     OW17971   0.815   1.247  13.257 -0.0445  0.1035  0.0670
 2170SOL    HW117972   0.752   1.211  13.319 -1.0389  1.6571 -0.0248
 2170SOL    HW217973   0.793   1.340  13.269  2.5348  0.6532  0.5311
 2171SOL     OW17974   4.371   3.996   4.736  0.2430  0.4794 -0.0845
 2171SOL    HW117975   4.343   4.046   4.813 -0.6535  2.5401 -1.7670
 2171SOL    HW217976   4.447   4.051   4.718  0.7231  0.3633  1.5721
 2172SOL     OW17977   3.773   1.226   5.124  0.0750  0.8503 -0.1911
 2172SOL    HW117978   3.774   1.303   5.068  0.4596  0.9788 -0.0098
 2172SOL    HW217979   3.758   1.262   5.211  0.7802  0.9038 -0.0879
 2173SOL     OW17980   1.035   2.757   4.595 -0.6287 -0.1356  0.0680
 2173SOL    HW117981   1.110   2.710   4.631 -2.0744 -2.5969 -0.1918
 2173SOL    HW217982   0.959   2.710   4.627  1.5311 -3.1283  0.7688
 2174SOL     OW17983   4.043   4.229  13.391 -0.2036  0.1166  0.4242
 2174SOL    HW117984   4.113   4.293  13.382  0.9194 -0.6566  3.7098
 2174SOL    HW217985   4.085   4.151  13.427 -0.3902  0.1510  0.7128
 2175SOL     OW17986   0.303   0.762   2.682 -0.0800 -0.0153  0.8149
 2175SOL    HW117987   0.217   0.788   2.715 -1.3853 -1.9755 -1.0094
 2175SOL    HW217988   0.327   0.850   2.653  1.7290 -1.2474 -1.4073
 2176SOL     OW17989   4.407   3.959   7.248 -0.4554  0.1294  0.3326
 2176SOL    HW117990   4.403   3.896   7.176 -0.9469  0.0795  0.4003
 2176SOL    HW217991   4.346   3.919   7.311  0.4584  0.0795  1.1814
 2177SOL     OW17992   1.600   1.610  11.409 -0.2552  0.4112  0.5426
 2177SOL    HW117993   1.678   1.653  11.374 -0.7549 -0.0783 -1.1933
 2177SOL    HW217994   1.633   1.605  11.499 -0.2609  1.9488  0.6256
 2178SOL     OW17995   4.527   0.133   1.784  0.0367  0.0896  0.2358
 2178SOL    HW117996   4.438   0.125   1.751  0.0314  2.3061 -0.3026
 2178SOL    HW217997   4.576   0.158   1.706 -0.6442  0.1653 -0.1681
 2179SOL     OW17998   0.607   1.666  17.070  0.0417 -0.1297 -0.2476
 2179SOL    HW117999   0.594   1.578  17.105 -0.1550 -0.1789 -0.4397
 2179SOL    HW218000   0.639   1.701  17.153  0.4536 -0.4556 -0.2717
 2180SOL     OW18001   4.489   2.285  14.031  0.3969 -0.3947  0.1780
 2180SOL    HW118002   4.474   2.336  13.951 -0.4094  0.2614  0.7427
 2180SOL    HW218003   4.409   2.233  14.037 -0.8576  1.1712 -3.1266
 2181SOL     OW18004   0.356   2.269   6.984  0.1450  0.1869 -0.9082
 2181SOL    HW118005   0.392   2.265   6.896  0.1932 -1.6363 -0.8047
 2181SOL    HW218006   0.271   2.225   6.982 -0.2982  0.8544  2.2337
 2182SOL     OW18007   0.402   3.507   8.213  0.2121  0.4871  0.4198
 2182SOL    HW118008   0.384   3.429   8.161  0.5466  0.6539  0.0554
 2182SOL    HW218009   0.496   3.522   8.206  0.4029 -0.9190 -0.0152
 2183SOL     OW18010   4.484   1.130   7.122  0.0184  0.0553  0.3109
 2183SOL    HW118011   4.509   1.050   7.169 -1.3484 -2.4382 -3.2447
 2183SOL    HW218012   4.459   1.188   7.194  1.8328 -0.2838  1.2359
 2184SOL     OW18013   2.529   4.104   3.096  0.1117 -0.0538  0.3852
 2184SOL    HW118014   2.481   4.184   3.076 -3.9494 -2.8094 -0.9208
 2184SOL    HW218015   2.571   4.131   3.178 -0.9107  0.4942  0.7178
 2185SOL     OW18016   4.095   2.173   9.927  0.3814 -0.1578 -0.0956
 2185SOL    HW118017   4.079   2.087   9.965  0.4933 -0.5750 -0.9927
 2185SOL    HW218018   4.065   2.159   9.837  5.0420 -0.0472 -1.6670
 2186SOL     OW18019   4.575   4.169  12.392 -0.1062 -0.4598 -0.4006
 2186SOL    HW118020   4.484   4.164  12.421 -0.4853 -0.2961 -1.5614
 2186SOL    HW218021   4.544   4.169  12.301 -2.3530 -0.5263  0.3495
 2187SOL     OW18022   0.484   0.012   7.842 -0.2664  0.2554  0.2567
 2187SOL    HW118023   0.468   4.712   7.751 -0.9393 -2.3715  1.1036
 2187SOL    HW218024   0.555   0.073   7.822  1.4844 -1.3593  1.5443
 2188SOL     OW18025   4.473   3.590   4.328 -0.6457  0.1899  0.2596
 2188SOL    HW118026   4.449   3.667   4.378 -1.3734  0.1112  0.0264
 2188SOL    HW218027   4.479   3.638   4.246  0.6002  1.7651  1.2543
 2189SOL     OW18028   0.190   0.423   6.478 -0.5268  0.2245  0.5871
 2189SOL    HW118029   0.277   0.452   6.451 -0.5457  0.2338  0.5361
 2189SOL    HW218030   0.190   0.420   6.573 -2.5243 -0.9769  0.5427
 2190SOL     OW18031   1.429   3.329   6.662  0.2142  0.0017  0.7615
 2190SOL    HW118032   1.520   3.324   6.633 -0.2918  0.4563 -0.8904
 2190SOL    HW218033   1.372   3.299   6.592 -1.3312  0.6855  1.7132
 2191SOL     OW18034   2.107   2.577   8.920 -0.1705  0.5240 -0.0252
 2191SOL    HW118035   2.188   2.536   8.890  1.6970  2.1116  2.9431
 2191SOL    HW218036   2.062   2.506   8.966 -2.2099  0.1564 -2.5299
 2192SOL     OW18037   1.193   4.336   1.324 -0.0657  0.0373  0.1980
 2192SOL    HW118038   1.120   4.316   1.266 -0.3203  1.3284  0.0559
 2192SOL    HW218039   1.264   4.334   1.260 -0.3927 -0.1864 -0.1542
 2193SOL     OW18040   4.233   1.862  12.972 -0.1686  0.4015 -0.4232
 2193SOL    HW118041   4.263   1.877  12.882 -0.0873 -0.6829 -0.5761
 2193SOL    HW218042   4.208   1.770  12.971 -1.8131  0.8337  1.1245
 2194SOL     OW18043   3.958   4.246   6.386  0.0207 -0.1937 -0.1519
 2194SOL    HW118044   3.986   4.155   6.397 -2.8095 -1.1662 -0.9654
 2194SOL    HW218045   4.025   4.299   6.428  1.2064 -2.4864  0.8562
 2195SOL     OW18046   2.385   0.711  14.593 -0.0182  0.0359  0.1516
 2195SOL    HW118047   2.313   0.745  14.540  2.2191  0.5202 -2.5939
 2195SOL    HW218048   2.402   0.622  14.562 -0.7873  0.6614 -2.0322
 2196SOL     OW18049   2.509   0.839  15.056  0.2694 -0.2431  0.0708
 2196SOL    HW118050   2.578   0.886  15.009  0.6324 -1.0960 -0.2610
 2196SOL    HW218051   2.447   0.811  14.988  0.9894 -1.6179 -0.0162
 2197SOL     OW18052   1.165   0.493   7.606 -0.0406  0.2634  0.2656
 2197SOL    HW118053   1.197   0.408   7.577  1.6217  0.2802  2.0084
 2197SOL    HW218054   1.141   0.531   7.522  0.2149 -0.9735 -0.3637
 2198SOL     OW18055   1.461   2.612   6.164 -0.7881 -0.1014  0.1204
 2198SOL    HW118056   1.521   2.687   6.165 -1.9684  0.8336  0.6369
 2198SOL    HW218057   1.411   2.634   6.085  0.6305  2.7493  0.0111
 2199SOL     OW18058   0.511   3.003   6.909 -0.2620 -0.0303 -0.3858
 2199SOL    HW118059   0.536   2.913   6.928 -1.3559 -0.2974 -0.2155
 2199SOL    HW218060   0.491   3.002   6.816  2.5959 -1.0970 -0.9862
 2200SOL     OW18061   3.366   2.191   6.524  0.8470  0.0500  0.1610
 2200SOL    HW118062   3.320   2.219   6.604 -0.6888  1.7706 -1.3127
 2200SOL    HW218063   3.321   2.106   6.520  1.5761 -0.4004  1.7961
 2201SOL     OW18064   4.596   3.130   5.733 -0.3790 -0.0033  0.6736
 2201SOL    HW118065   4.549   3.167   5.808 -0.1993 -0.6129  1.0836
 2201SOL    HW218066   4.620   3.209   5.684 -1.9686 -1.0359 -1.7697
 2202SOL     OW18067   2.699   0.056   6.487 -0.3207 -0.2456  0.2784
 2202SOL    HW118068   2.657   0.120   6.430 -1.1355 -0.6322  0.4549
 2202SOL    HW218069   2.736   4.723   6.421  2.6824  0.4867  1.2834
 2203SOL     OW18070   2.581   1.033   8.372 -0.0717 -0.2150  0.0804
 2203SOL    HW118071   2.555   1.013   8.282  1.8242 -1.9889 -0.0868
 2203SOL    HW218072   2.654   1.094   8.361 -0.2032 -0.2041 -0.6755
 2204SOL     OW18073   3.225   2.609   5.317 -0.1958 -0.3444 -0.3705
 2204SOL    HW118074   3.209   2.590   5.410 -0.3293  0.9483 -0.1241
 2204SOL    HW218075   3.170   2.685   5.301  0.6209  0.7095  1.7764
 2205SOL     OW18076   2.561   3.497   8.958 -0.4370  0.6475 -0.1563
 2205SOL    HW118077   2.553   3.487   8.863  0.3747 -2.3210  0.0889
 2205SOL    HW218078   2.656   3.490   8.970 -0.1060  1.9129 -2.0271
 2206SOL     OW18079   0.200   3.307   6.790  0.4313  0.2234  0.7146
 2206SOL    HW118080   0.230   3.262   6.870 -0.4811 -2.3298 -0.3850
 2206SOL    HW218081   0.149   3.234   6.754  1.6599 -0.4711  0.3462
 2207SOL     OW18082   2.090   0.237   4.095  0.5091 -0.1806  0.3159
 2207SOL    HW118083   2.063   0.305   4.034  0.6952  0.4751  0.9691
 2207SOL    HW218084   2.169   0.196   4.057 -1.9329 -2.3381 -2.4564
 2208SOL     OW18085   1.101   3.561   5.524  0.3138 -0.0064 -0.1935
 2208SOL    HW118086   1.163   3.517   5.581 -1.1825  0.3411  1.7177
 2208SOL    HW218087   1.055   3.615   5.589 -1.0997 -1.7431  0.2457
 2209SOL     OW18088   2.029   4.014  12.181  0.2607  0.0283  0.1487
 2209SOL    HW118089   1.942   4.011  12.222 -0.0291  0.3127 -0.4498
 2209SOL    HW218090   2.070   4.093  12.217  1.0123 -1.0896  1.7398
 2210SOL     OW18091   4.118   3.835  12.989 -0.3306 -0.2341  0.1141
 2210SOL    HW118092   4.152   3.855  12.901  0.5448  1.1214  0.7700
 2210SOL    HW218093   4.043   3.895  12.995  0.0195  0.2110  0.0256
 2211SOL     OW18094   0.169   3.765   1.469 -0.3693  0.3847  0.0087
 2211SOL    HW118095   0.105   3.712   1.517 -1.2003 -0.2712 -1.8126
 2211SOL    HW218096   0.112   3.823   1.418 -1.9938  0.8511  2.3708
 2212SOL     OW18097   2.978   2.067   6.760 -0.0125  0.2261 -0.3954
 2212SOL    HW118098   3.004   1.977   6.779 -0.4230 -0.3588 -2.5602
 2212SOL    HW218099   3.061   2.106   6.732  0.7782 -0.5145  0.9459
 2213SOL     OW18100   3.067   3.258  10.022  0.1973  0.3410  0.4677
 2213SOL    HW118101   3.015   3.329   9.984  0.2798  0.5232  0.6962
 2213SOL    HW218102   3.065   3.198   9.947 -0.3882  0.1150  0.6705
 2214SOL     OW18103   3.800   2.824   9.628  0.1644  0.0624 -0.3512
 2214SOL    HW118104   3.844   2.876   9.561  0.6866  2.2982  1.7411
 2214SOL    HW218105   3.774   2.896   9.686 -0.2540  0.5812 -1.1767
 2215SOL     OW18106   0.779   2.527   6.385 -0.1288  0.0398 -0.0157
 2215SOL    HW118107   0.728   2.602   6.354 -0.4449 -0.4046 -0.5588
 2215SOL    HW218108   0.863   2.571   6.374  0.3773 -0.0614  3.3662
 2216SOL     OW18109   0.003   3.583   0.327 -0.1637  0.0265  0.4267
 2216SOL    HW118110   4.670   3.658   0.334 -0.8849 -0.3865 -1.2043
 2216SOL    HW218111   0.077   3.605   0.383 -0.1477  1.4217 -0.1497
 2217SOL     OW18112   1.440   1.865   8.282  0.4477  0.8946  0.3856
 2217SOL    HW118113   1.394   1.940   8.318 -0.3289 -0.2798  1.8328
 2217SOL    HW218114   1.533   1.874   8.303  0.9665 -2.0817 -0.5478
 2218SOL     OW18115   1.083   0.686   4.484  0.4660  0.4012  0.1837
 2218SOL    HW118116   0.992   0.699   4.456  0.7159  3.2310  0.6078
 2218SOL    HW218117   1.073   0.627   4.558  1.2567 -0.1372 -0.1364
 2219SOL     OW18118   0.997   1.118  14.485  0.5422 -0.4220 -0.2429
 2219SOL    HW118119   1.009   1.095  14.578 -2.7688 -0.4355  0.1681
 2219SOL    HW218120   0.964   1.034  14.453 -3.1784  1.0995 -0.3466
 2220SOL     OW18121   2.671   0.567   4.128  0.2904 -0.0741  0.0462
 2220SOL    HW118122   2.609   0.637   4.107  0.2095 -0.6683 -1.6833
 2220SOL    HW218123   2.702   0.611   4.208  2.6798  0.8663 -1.3921
 2221SOL     OW18124   1.122   4.435   6.014  0.0655  0.1635 -0.1251
 2221SOL    HW118125   1.089   4.486   5.940 -0.3679 -2.1169 -1.4881
 2221SOL    HW218126   1.163   4.362   5.967 -0.8484 -1.0790  1.0404
 2222SOL     OW18127   3.990   0.411   0.823  0.2953  0.2262  0.3948
 2222SOL    HW118128   3.979   0.452   0.737 -0.9741 -1.8974 -0.4398
 2222SOL    HW218129   4.063   0.352   0.809  0.0420 -0.3684  1.6183
 2223SOL     OW18130   2.216   1.568  13.780 -0.4878 -0.2508  0.1711
 2223SOL    HW118131   2.258   1.489  13.813  0.0568 -1.6928 -3.8712
 2223SOL    HW218132   2.137   1.533  13.737 -0.2220  0.2403 -0.7186
 2224SOL     OW18133   1.488   3.952   4.569  0.5733  0.3876 -0.8466
 2224SOL    HW118134   1.554   3.895   4.531  1.8137  0.9203  0.4714
 2224SOL    HW218135   1.440   3.984   4.493  0.1059  2.3117  0.2381
 2225SOL     OW18136   0.152   1.202   5.999  0.5401 -0.3792 -0.3723
 2225SOL    HW118137   0.182   1.194   5.909 -0.5992 -0.7279 -0.7132
 2225SOL    HW218138   0.093   1.127   6.005 -0.2042  0.3104  0.8533
 2226SOL     OW18139   0.834   2.818   5.089  0.2153  0.1437 -0.0974
 2226SOL    HW118140   0.809   2.744   5.145  2.1600  0.3782  1.0610
 2226SOL    HW218141   0.927   2.800   5.079  0.8856  2.4246  2.0307
 2227SOL     OW18142   1.497   1.384  13.622  0.5593  0.2589 -0.1232
 2227SOL    HW118143   1.504   1.290  13.603  0.5809  0.1544  0.3996
 2227SOL    HW218144   1.427   1.389  13.687  1.7595  0.8781  1.0948
 2228SOL     OW18145   2.607   4.378   6.182  1.1110 -0.3648 -0.4014
 2228SOL    HW118146   2.631   4.286   6.193  0.5091 -0.7939 -2.8063
 2228SOL    HW218147   2.680   4.404   6.126  0.9904  0.3267 -0.2480
 2229SOL     OW18148   3.289   1.836   7.142 -0.4323  0.3787  0.3037
 2229SOL    HW118149   3.376   1.874   7.142 -1.1514  2.0036 -1.0680
 2229SOL    HW218150   3.265   1.822   7.234 -2.7992  1.2890 -0.1682
 2230SOL     OW18151   0.631   1.312   3.885 -0.3350 -0.0795  0.2564
 2230SOL    HW118152   0.677   1.384   3.843 -2.6945  1.1910 -0.1534
 2230SOL    HW218153   0.564   1.289   3.821  1.5299 -0.2231 -1.6289
 2231SOL     OW18154   4.110   0.687   3.364  0.4925  0.1194  0.1187
 2231SOL    HW118155   4.188   0.737   3.389  2.8533 -3.7934  0.5740
 2231SOL    HW218156   4.106   0.628   3.439  0.0062 -0.3056 -0.2405
 2232SOL     OW18157   0.868   1.856  14.362 -0.4450  0.4090 -0.4241
 2232SOL    HW118158   0.894   1.901  14.282 -0.7280  1.4336  0.0527
 2232SOL    HW218159   0.786   1.905  14.378 -0.4228 -0.6807  3.1314
 2233SOL     OW18160   1.259   0.073  14.600 -0.2174  0.0487  0.5251
 2233SOL    HW118161   1.271   0.112  14.687  0.4479  1.0446 -0.0192
 2233SOL    HW218162   1.326   0.004  14.604 -0.5045 -0.2196  0.7374
 2234SOL     OW18163   3.259   1.209   4.180  0.4219 -0.4459 -0.0859
 2234SOL    HW118164   3.183   1.159   4.208  0.6164 -0.9494 -0.4456
 2234SOL    HW218165   3.217   1.260   4.111  0.0640 -1.7661 -0.8368
 2235SOL     OW18166   2.580   0.560   7.411  0.1045 -0.6382  0.7462
 2235SOL    HW118167   2.525   0.571   7.333  1.4823 -0.2122 -0.1748
 2235SOL    HW218168   2.650   0.625   7.410 -2.0134  1.6569  0.2675
 2236SOL     OW18169   1.504   0.471   7.542  0.3571  0.2925 -0.5368
 2236SOL    HW118170   1.568   0.406   7.571  0.8677  0.2555 -1.7581
 2236SOL    HW218171   1.433   0.447   7.603  0.7416  0.8521  0.1192
 2237SOL     OW18172   3.179   4.707  15.366 -0.3066  0.2158 -0.3864
 2237SOL    HW118173   3.162   0.074  15.387 -0.6308  0.3183 -1.1029
 2237SOL    HW218174   3.273   4.699  15.381 -0.7226 -0.8090  1.6380
 2238SOL     OW18175   2.356   2.488   3.053 -0.2457  0.0604 -0.4846
 2238SOL    HW118176   2.413   2.506   3.128 -1.6017  3.4360 -0.2402
 2238SOL    HW218177   2.378   2.396   3.040 -0.5084  0.2454 -2.2794
 2239SOL     OW18178   1.189   2.340   3.118  0.0721 -0.1665  0.1532
 2239SOL    HW118179   1.142   2.259   3.139 -0.1267 -0.0466  0.1725
 2239SOL    HW218180   1.276   2.308   3.095 -0.8363 -1.7065 -1.1587
 2240SOL     OW18181   0.132   1.368   8.093  0.7811 -0.3506 -0.1485
 2240SOL    HW118182   0.101   1.342   8.006 -0.6281  1.1941 -0.1000
 2240SOL    HW218183   0.123   1.463   8.086  1.6999 -0.4111 -2.2269
 2241SOL     OW18184   0.827   1.996  12.026 -0.2154 -0.0066  0.5226
 2241SOL    HW118185   0.809   2.061  11.958 -1.8076  0.1339  1.0760
 2241SOL    HW218186   0.790   1.916  11.988  0.1128 -0.2456  0.7085
 2242SOL     OW18187   3.176   0.767   2.854 -0.0826 -0.3264 -0.1509
 2242SOL    HW118188   3.207   0.723   2.775  0.5779  0.5063 -0.3480
 2242SOL    HW218189   3.231   0.727   2.921  0.7719 -1.1818 -1.3724
 2243SOL     OW18190   1.518   2.041   0.420 -0.0106  0.1529 -0.4526
 2243SOL    HW118191   1.611   2.058   0.433  0.7901 -3.1629 -1.8713
 2243SOL    HW218192   1.515   1.947   0.401 -3.6293  0.1335  0.1833
 2244SOL     OW18193   1.787   1.558  11.969  0.1620  0.1357  0.0096
 2244SOL    HW118194   1.827   1.474  11.994 -1.2709 -0.6275 -0.3043
 2244SOL    HW218195   1.853   1.623  11.994  0.7724 -0.5669  0.2152
 2245SOL     OW18196   3.763   4.396   6.238 -0.7532 -0.7989 -0.1752
 2245SOL    HW118197   3.789   4.327   6.299 -0.2688 -0.2130  0.2794
 2245SOL    HW218198   3.834   4.460   6.241 -1.4099  0.0111 -2.4256
 2246SOL     OW18199   0.488   0.441   4.560  0.1474  0.5070 -0.2920
 2246SOL    HW118200   0.525   0.399   4.482  0.5696  1.1774 -0.4551
 2246SOL    HW218201   0.574   0.472   4.586  0.4956  0.6045 -1.5444
 2247SOL     OW18202   0.221   2.012  10.887 -0.0696 -0.5551  0.2009
 2247SOL    HW118203   0.185   2.101  10.883 -0.0776 -0.4674  2.4239
 2247SOL    HW218204   0.194   1.970  10.968 -0.1707 -0.1881  0.3564
 2248SOL     OW18205   2.808   2.692   2.638  0.1576  0.4705  0.7274
 2248SOL    HW118206   2.730   2.655   2.598  0.5443  0.5707 -0.1304
 2248SOL    HW218207   2.806   2.777   2.595  1.9627  0.7184  1.1172
 2249SOL     OW18208   1.480   4.264  13.769  0.8955  0.2065  0.0790
 2249SOL    HW118209   1.574   4.278  13.766  0.8563  0.3903 -0.2294
 2249SOL    HW218210   1.459   4.265  13.863  2.8008 -1.2418  0.5371
 2250SOL     OW18211   3.970   1.041   5.095  0.1076  0.0175 -0.8349
 2250SOL    HW118212   3.900   1.100   5.122 -1.4874 -1.2815 -2.1379
 2250SOL    HW218213   4.026   1.116   5.075 -1.0129  1.1149  0.1347
 2251SOL     OW18214   0.323   4.517   9.390 -0.2645  0.0652  0.1281
 2251SOL    HW118215   0.352   4.608   9.377 -0.7498  0.1119 -0.6554
 2251SOL    HW218216   0.397   4.461   9.369  0.8955  0.4664  3.1817
 2252SOL     OW18217   3.682   3.980   5.193  0.3989 -0.4729  0.0825
 2252SOL    HW118218   3.673   3.927   5.273  0.7527 -2.2172 -1.0378
 2252SOL    HW218219   3.753   4.041   5.215 -0.9925  1.1682 -0.0306
 2253SOL     OW18220   1.213   0.639  16.422 -0.5238 -0.2979  0.0103
 2253SOL    HW118221   1.246   0.699  16.356 -1.1610 -0.7096 -0.6808
 2253SOL    HW218222   1.281   0.646  16.490 -2.3373  0.6146  1.7240
 2254SOL     OW18223   0.642   3.239   5.436  0.2964 -0.2192  0.3912
 2254SOL    HW118224   0.585   3.291   5.493  0.4147 -0.3169  0.5996
 2254SOL    HW218225   0.717   3.298   5.425  1.1545 -1.2216  0.8303
 2255SOL     OW18226   3.866   0.298   8.801 -0.5600  0.1261  0.1127
 2255SOL    HW118227   3.819   0.337   8.876 -0.7062 -1.0147  0.6149
 2255SOL    HW218228   3.935   0.256   8.853  0.2490  2.2839  0.7932
 2256SOL     OW18229   3.075   1.203  16.866  0.1498 -0.4759 -0.7534
 2256SOL    HW118230   3.042   1.290  16.888 -0.0115 -0.7950  0.2589
 2256SOL    HW218231   3.141   1.229  16.803  0.2958 -1.2784 -0.9295
 2257SOL     OW18232   4.609   2.023   8.511 -0.0095 -0.1855 -0.7510
 2257SOL    HW118233   4.657   1.967   8.573  0.9763  1.8309  0.3079
 2257SOL    HW218234   4.549   1.960   8.471  0.6393 -2.1356  1.3053
 2258SOL     OW18235   4.101   0.043   9.465 -0.3868 -0.2538 -1.0742
 2258SOL    HW118236   4.019   0.086   9.489  0.3130  2.2768 -3.1998
 2258SOL    HW218237   4.147   0.039   9.549  0.7565 -0.7482 -1.7212
 2259SOL     OW18238   4.641   2.086   3.117  0.0939 -0.1177 -0.0545
 2259SOL    HW118239   4.626   2.018   3.183  1.9858 -2.9868 -2.5529
 2259SOL    HW218240   4.562   2.072   3.066  0.6576 -0.6316 -0.8011
 2260SOL     OW18241   1.865   1.320   0.854 -0.0293  0.0749  0.0765
 2260SOL    HW118242   1.955   1.290   0.867 -0.2097 -0.2248  0.6199
 2260SOL    HW218243   1.824   1.294   0.936  0.3563 -0.4513  0.1045
 2261SOL     OW18244   2.948   1.877   8.774  0.4815 -0.6789  0.6817
 2261SOL    HW118245   2.962   1.956   8.827  0.5477  1.1705 -2.0942
 2261SOL    HW218246   3.031   1.840   8.804 -0.2321 -1.8437  1.2182
 2262SOL     OW18247   1.059   1.162   3.019  0.0105  0.1624  0.3753
 2262SOL    HW118248   1.083   1.071   3.000  0.3050  0.5397 -1.0174
 2262SOL    HW218249   1.126   1.191   3.081 -0.7330  3.0734 -0.1671
 2263SOL     OW18250   1.595   4.211   0.589  0.0817 -0.0684 -0.6215
 2263SOL    HW118251   1.532   4.273   0.625 -0.2149 -1.9471  2.0000
 2263SOL    HW218252   1.663   4.196   0.655  2.5147 -0.6662 -3.2348
 2264SOL     OW18253   2.198   1.063   7.404  0.5495  0.5667  0.4979
 2264SOL    HW118254   2.177   0.974   7.374  2.6396  0.0834  0.4272
 2264SOL    HW218255   2.125   1.085   7.461 -0.4685  0.8277 -0.9075
 2265SOL     OW18256   4.712   1.592  10.724 -0.1291 -0.0811 -0.1844
 2265SOL    HW118257   4.675   1.620  10.640 -0.0367 -1.0689 -0.5453
 2265SOL    HW218258   0.034   1.675  10.735 -0.3006 -0.0140  0.0413
 2266SOL     OW18259   0.078   1.027   9.987  0.2719  0.1482 -0.1418
 2266SOL    HW118260   0.092   0.967   9.913 -0.9323 -0.0655 -0.1901
 2266SOL    HW218261   0.100   0.963  10.055  1.2168  1.5586  0.8642
 2267SOL     OW18262   1.635   3.839   9.298  0.3281 -0.2294 -0.4883
 2267SOL    HW118263   1.674   3.819   9.213  5.2275 -0.8822  1.9063
 2267SOL    HW218264   1.619   3.751   9.332 -1.2863  0.3179  0.1962
 2268SOL     OW18265   4.500   2.569   5.974  0.2167 -0.4749 -0.2675
 2268SOL    HW118266   4.510   2.628   6.048 -2.9852  1.8547 -1.6709
 2268SOL    HW218267   4.407   2.552   5.962 -0.3538  1.8391  0.9884
 2269SOL     OW18268   4.501   2.080   4.126  0.1783  0.2765 -0.5288
 2269SOL    HW118269   4.442   2.112   4.194  0.1943  0.7973 -0.7606
 2269SOL    HW218270   4.441   2.010   4.099  0.7388 -0.3738 -0.0747
 2270SOL     OW18271   1.357   3.067   7.383  0.3196 -0.0801 -0.2703
 2270SOL    HW118272   1.430   3.106   7.335  0.2484  2.1755  1.4529
 2270SOL    HW218273   1.406   3.046   7.462  0.3832 -1.2802 -0.6322
 2271SOL     OW18274   0.789   3.377   6.513 -0.3913 -0.2333 -0.3954
 2271SOL    HW118275   0.717   3.341   6.461 -0.3430  0.7352 -1.1327
 2271SOL    HW218276   0.768   3.470   6.509  0.8979  0.0637 -0.1474
 2272SOL     OW18277   2.407   1.017   3.148 -0.4034  0.6139 -0.0667
 2272SOL    HW118278   2.326   0.966   3.148 -0.5806  0.9067  1.0815
 2272SOL    HW218279   2.464   0.954   3.193 -0.6138  1.6336  1.6051
 2273SOL     OW18280   1.310   3.628  13.103 -0.2973  0.2366 -0.1498
 2273SOL    HW118281   1.259   3.620  13.184 -0.8209 -1.0368 -0.6029
 2273SOL    HW218282   1.246   3.583  13.047  0.7242  2.1293 -2.8447
 2274SOL     OW18283   0.545   0.034  11.216 -0.6102 -0.1307  0.0602
 2274SOL    HW118284   0.557   0.090  11.139  0.0968  1.5508  1.3708
 2274SOL    HW218285   0.581   0.094  11.282 -0.4256 -2.2121  1.8441
 2275SOL     OW18286   0.513   3.206   5.800  0.2413 -0.0447 -0.2633
 2275SOL    HW118287   0.511   3.263   5.724 -0.0713 -1.2224 -1.1289
 2275SOL    HW218288   0.462   3.130   5.770  1.8932 -1.8287  1.4029
 2276SOL     OW18289   0.441   1.364   0.962 -0.0636  0.2282 -0.0798
 2276SOL    HW118290   0.493   1.284   0.966 -0.9189 -0.3481 -0.4159
 2276SOL    HW218291   0.436   1.369   0.866 -0.5167 -0.4009 -0.0906
 2277SOL     OW18292   2.158   2.795  16.576 -0.1006 -0.1261 -0.3658
 2277SOL    HW118293   2.104   2.728  16.617 -0.4707 -0.2684 -1.0791
 2277SOL    HW218294   2.237   2.750  16.547  0.3887  0.9229 -0.6691
 2278SOL     OW18295   4.511   0.786   4.880  0.8361  0.5383  0.3694
 2278SOL    HW118296   4.604   0.769   4.868  0.3762 -0.2172 -2.0027
 2278SOL    HW218297   4.484   0.819   4.795  2.3121  1.3100  0.2105
 2279SOL     OW18298   4.200   3.535  16.805  0.1790  0.1989  0.0785
 2279SOL    HW118299   4.227   3.560  16.717 -1.4955 -1.6867 -0.9906
 2279SOL    HW218300   4.255   3.584  16.864  0.1653 -0.9295  1.0323
 2280SOL     OW18301   1.966   3.080   3.376  0.1215 -0.4391  0.0045
 2280SOL    HW118302   2.027   3.096   3.305 -0.2806  1.0405 -0.0122
 2280SOL    HW218303   1.993   2.992   3.404  1.6104 -0.5346 -1.7849
 2281SOL     OW18304   0.175   3.640   8.251 -0.0211  0.2438 -0.0970
 2281SOL    HW118305   0.259   3.594   8.255  0.0195  0.2086 -1.5605
 2281SOL    HW218306   0.154   3.638   8.344 -0.5449  0.9452 -0.2046
 2282SOL     OW18307   4.447   0.922  10.432  0.2395 -0.1483  0.3199
 2282SOL    HW118308   4.531   0.964  10.413  0.4090 -0.1878  0.9695
 2282SOL    HW218309   4.407   0.930  10.345 -0.2998 -0.3330  0.5472
 2283SOL     OW18310   2.567   2.011   2.194 -0.0556  1.0558  0.2633
 2283SOL    HW118311   2.524   1.932   2.162  0.2714  1.1429 -0.3897
 2283SOL    HW218312   2.656   1.976   2.183  0.1041  1.1914  1.1514
 2284SOL     OW18313   1.146   4.547  10.443 -0.0511 -0.3688  0.1699
 2284SOL    HW118314   1.190   4.567  10.526  1.6473 -0.2306 -0.7913
 2284SOL    HW218315   1.216   4.538  10.379 -1.5885 -0.5361 -1.4890
 2285SOL     OW18316   3.542   4.671   5.764 -0.4943  0.5835  0.2310
 2285SOL    HW118317   3.538   4.693   5.857  1.5440 -0.4028  0.5521
 2285SOL    HW218318   3.634   4.672   5.738 -0.2634  0.0675  1.0432
 2286SOL     OW18319   1.599   0.189  14.918  0.7845 -0.0104  0.1324
 2286SOL    HW118320   1.640   0.108  14.887  0.5168 -0.4729  1.0034
 2286SOL    HW218321   1.572   0.159  15.004  0.0334  0.4501  0.0509
 2287SOL     OW18322   0.232   1.830   5.837 -0.2584  0.1384  0.4671
 2287SOL    HW118323   0.188   1.809   5.919  1.0563 -2.3907  0.5195
 2287SOL    HW218324   0.214   1.741   5.806 -0.1263  0.0483  0.6507
 2288SOL     OW18325   0.351   3.223   6.118 -0.3589 -0.2033  0.5386
 2288SOL    HW118326   0.257   3.214   6.105 -0.2798 -0.3670  0.0781
 2288SOL    HW218327   0.356   3.291   6.185  2.7059  0.7142 -0.6290
 2289SOL     OW18328   2.010   3.232   7.332  0.3905 -0.4835  0.1020
 2289SOL    HW118329   2.044   3.148   7.302 -0.2826 -0.2990 -1.2016
 2289SOL    HW218330   1.936   3.200   7.384 -0.2575  0.2101 -0.3982
 2290SOL     OW18331   0.750   2.446   9.094 -0.5994 -0.1064 -0.1843
 2290SOL    HW118332   0.814   2.408   9.153  0.9045  0.9478 -1.1314
 2290SOL    HW218333   0.672   2.469   9.145 -1.5999 -3.6057 -0.1733
 2291SOL     OW18334   3.802   0.054   9.499  0.2416  0.0710  0.4916
 2291SOL    HW118335   3.847   0.049   9.583 -0.2395 -0.4302  0.7183
 2291SOL    HW218336   3.803   0.149   9.493  4.8938 -0.0204 -0.1395
 2292SOL     OW18337   0.732   0.502   2.972 -0.2506  0.3197  0.2213
 2292SOL    HW118338   0.730   0.407   2.982 -2.9425  0.4161  0.4731
 2292SOL    HW218339   0.649   0.513   2.926  0.3766 -0.5637 -1.1197
 2293SOL     OW18340   3.352   3.472   1.069 -0.1881 -0.0240  0.5628
 2293SOL    HW118341   3.352   3.381   1.098  0.5195 -1.5646 -4.2636
 2293SOL    HW218342   3.395   3.519   1.141 -0.8641 -0.9521  1.5886
 2294SOL     OW18343   2.933   3.625  11.416  0.0523  0.1184  0.0896
 2294SOL    HW118344   2.947   3.575  11.335  0.1292 -2.9895  2.0256
 2294SOL    HW218345   3.016   3.603  11.457 -0.7822  2.0630  2.7733
 2295SOL     OW18346   1.714   3.352   7.451 -0.4409  0.2309  0.6338
 2295SOL    HW118347   1.744   3.262   7.450  0.8124  0.6538  0.7092
 2295SOL    HW218348   1.765   3.384   7.526 -0.4273 -0.5487  0.9582
 2296SOL     OW18349   4.124   1.663   2.302  0.0749 -0.0703 -0.6144
 2296SOL    HW118350   4.062   1.715   2.250 -3.0275 -0.9275  2.1967
 2296SOL    HW218351   4.108   1.574   2.272  1.6002 -0.7929  0.7531
 2297SOL     OW18352   2.635   3.776   8.939  0.3929  0.5333  0.5331
 2297SOL    HW118353   2.567   3.729   8.890  2.4913 -0.8990 -1.0221
 2297SOL    HW218354   2.707   3.713   8.934 -0.0299  0.0652  0.2879
 2298SOL     OW18355   3.415   4.040   9.105  0.2689 -0.2784 -0.5129
 2298SOL    HW118356   3.476   3.977   9.066  1.6785  0.7489  0.0537
 2298SOL    HW218357   3.476   4.100   9.148  0.6778 -1.9617  1.2320
 2299SOL     OW18358   4.429   1.420   9.801  0.6949  0.5596 -0.0792
 2299SOL    HW118359   4.352   1.367   9.825  0.8512  0.0276 -0.7715
 2299SOL    HW218360   4.438   1.487   9.869 -1.5645 -0.6387  1.4195
 2300SOL     OW18361   2.307   1.555   1.386  0.2753  0.0996 -0.6056
 2300SOL    HW118362   2.302   1.649   1.375  0.2730  0.3334  1.3405
 2300SOL    HW218363   2.234   1.521   1.334  0.0965  0.8121 -0.8120
 2301SOL     OW18364   0.140   1.372   2.870  0.1372  0.0631  0.3670
 2301SOL    HW118365   0.184   1.457   2.866 -1.6882  0.7872 -3.8012
 2301SOL    HW218366   0.178   1.329   2.794 -1.4034 -1.5492  0.5317
 2302SOL     OW18367   1.214   2.565   6.937  0.9866  0.2902 -0.0757
 2302SOL    HW118368   1.264   2.552   7.018  0.7971 -0.8920 -0.1490
 2302SOL    HW218369   1.187   2.657   6.944  0.3977 -0.0552  2.0972
 2303SOL     OW18370   3.529   1.918  16.921 -0.1021 -0.0132  0.0103
 2303SOL    HW118371   3.589   1.861  16.873 -0.3441 -0.1366 -0.1455
 2303SOL    HW218372   3.469   1.947  16.852  1.0438  0.5077 -0.7521
 2304SOL     OW18373   1.863   3.281   6.546  0.0548  0.2397 -0.1784
 2304SOL    HW118374   1.898   3.333   6.473  0.0271  0.8261  0.2256
 2304SOL    HW218375   1.769   3.294   6.530 -0.3043 -0.0500  1.7529
 2305SOL     OW18376   4.487   3.622  10.616  0.0182 -0.2441 -0.2481
 2305SOL    HW118377   4.520   3.572  10.690  1.0944  0.8301 -0.0009
 2305SOL    HW218378   4.567   3.664  10.583  0.4164 -0.0341  1.0197
 2306SOL     OW18379   2.823   1.155  15.778 -0.2903 -0.2268  0.2450
 2306SOL    HW118380   2.780   1.071  15.759 -1.1638  0.3667 -0.3967
 2306SOL    HW218381   2.770   1.179  15.853  0.4631  1.0172  0.3719
 2307SOL     OW18382   2.620   1.754  16.980 -0.2412  0.4837  0.1833
 2307SOL    HW118383   2.554   1.786  17.041 -0.7332  0.0689 -0.1395
 2307SOL    HW218384   2.651   1.841  16.955  0.3705  1.0381  2.8321
 2308SOL     OW18385   2.774   2.401   4.128  0.0486 -0.5519  0.5238
 2308SOL    HW118386   2.683   2.385   4.151 -0.2962  0.0857 -0.4227
 2308SOL    HW218387   2.811   2.339   4.192  0.1847 -0.4169  0.5754
 2309SOL     OW18388   2.765   0.906   5.709 -0.3022 -0.5322 -0.2329
 2309SOL    HW118389   2.770   0.812   5.722  0.5907 -0.4621 -0.0633
 2309SOL    HW218390   2.675   0.927   5.736  0.3365 -0.4599  1.8789
 2310SOL     OW18391   0.534   0.735   4.084  0.2551  0.0851 -0.2865
 2310SOL    HW118392   0.583   0.815   4.101 -0.7462  0.5398  0.3929
 2310SOL    HW218393   0.585   0.665   4.125 -2.4140 -1.9377 -0.4300
 2311SOL     OW18394   2.572   1.691   6.252  0.1152  0.0105  0.3579
 2311SOL    HW118395   2.506   1.654   6.310 -1.2236  0.3660 -0.9196
 2311SOL    HW218396   2.565   1.638   6.172  0.0880 -2.0779  1.7612
 2312SOL     OW18397   2.980   1.793  13.973  0.1859 -0.1396  0.4685
 2312SOL    HW118398   3.028   1.719  14.010 -1.8885 -0.6437  2.1659
 2312SOL    HW218399   2.980   1.772  13.880 -0.5885 -0.6226  0.5798
 2313SOL     OW18400   1.118   1.357  12.885 -0.2638 -0.2007 -0.5361
 2313SOL    HW118401   1.116   1.287  12.820  1.1549 -1.2752  0.5787
 2313SOL    HW218402   1.128   1.307  12.966 -1.8924 -1.0841 -0.8870
 2314SOL     OW18403   3.934   2.541   7.998 -0.4973  0.1790 -0.1487
 2314SOL    HW118404   4.008   2.557   7.940  0.5340 -0.4529  0.9981
 2314SOL    HW218405   3.864   2.568   7.939 -0.9197 -2.8487 -0.9773
 2315SOL     OW18406   2.742   4.351   9.454  0.9629  0.9690  0.1483
 2315SOL    HW118407   2.775   4.426   9.503 -0.8917  1.4773  0.6101
 2315SOL    HW218408   2.707   4.409   9.387  2.2584 -0.4188 -1.7369
 2316SOL     OW18409   0.199   0.378   5.677 -0.2350  0.3996  0.6835
 2316SOL    HW118410   0.196   0.473   5.690  0.0432  0.2480  1.8829
 2316SOL    HW218411   0.229   0.344   5.762  0.5669 -2.1678 -0.6250
 2317SOL     OW18412   1.055   2.816   6.895  0.0524  0.3862  0.2357
 2317SOL    HW118413   0.983   2.753   6.890  0.2016  0.0854  1.9565
 2317SOL    HW218414   1.009   2.892   6.928 -1.0850 -0.8603  1.5044
 2318SOL     OW18415   3.534   1.978  17.174 -0.0643 -0.0090 -0.0013
 2318SOL    HW118416   3.544   2.073  17.166 -0.2127  0.0327  0.3199
 2318SOL    HW218417   3.520   1.952  17.083  1.4450  1.5388 -0.6845
 2319SOL     OW18418   1.647   3.791   2.827 -0.1505  0.0938  0.6197
 2319SOL    HW118419   1.735   3.821   2.851  0.9764 -1.2499 -1.8819
 2319SOL    HW218420   1.660   3.736   2.750 -0.1694 -1.3749  1.6698
 2320SOL     OW18421   2.324   3.313   8.417  0.1107 -0.2404  0.6245
 2320SOL    HW118422   2.333   3.314   8.512 -2.3596  1.9558  0.8139
 2320SOL    HW218423   2.316   3.408   8.410  2.3397 -0.0102  1.0158
 2321SOL     OW18424   1.643   1.112   4.933 -0.2636 -0.4655 -0.3125
 2321SOL    HW118425   1.672   1.144   4.848 -0.1533  1.1035  0.3127
 2321SOL    HW218426   1.727   1.107   4.980 -0.6641 -1.4595  0.3061
 2322SOL     OW18427   1.990   2.693   5.406  0.4313  0.2986 -0.2235
 2322SOL    HW118428   2.060   2.758   5.399 -0.1085  0.8571 -0.4064
 2322SOL    HW218429   1.918   2.752   5.426  0.0295  0.1005 -1.0879
 2323SOL     OW18430   2.647   1.296   9.901  0.5724  0.7080 -0.1462
 2323SOL    HW118431   2.663   1.322   9.811  0.1628 -2.8980 -1.2470
 2323SOL    HW218432   2.569   1.242   9.895  0.5548  1.0770 -3.1478
 2324SOL     OW18433   1.108   1.617  16.662  0.3668 -0.0138 -0.1475
 2324SOL    HW118434   1.056   1.563  16.723 -0.4941  0.5144 -0.4131
 2324SOL    HW218435   1.048   1.610  16.587  0.9876 -2.7156 -0.3988
 2325SOL     OW18436   2.476   2.190   1.246 -0.2827 -0.1491  0.0856
 2325SOL    HW118437   2.502   2.185   1.154  0.0680  2.4635  0.0620
 2325SOL    HW218438   2.395   2.241   1.238  0.3870  0.6436 -1.5690
 2326SOL     OW18439   1.199   2.588   3.013 -0.3997 -0.2758 -0.6060
 2326SOL    HW118440   1.129   2.586   2.948 -0.6856 -0.8096 -0.2836
 2326SOL    HW218441   1.182   2.502   3.051 -0.1317  0.0002  0.1498
 2327SOL     OW18442   4.144   2.422   3.017  0.4779  0.0580 -0.2241
 2327SOL    HW118443   4.150   2.489   2.950 -0.6445  1.4028  0.9995
 2327SOL    HW218444   4.216   2.435   3.078 -0.7855 -0.5841  1.4091
 2328SOL     OW18445   0.994   4.527  12.426  0.2099 -0.8927 -0.3949
 2328SOL    HW118446   0.980   4.596  12.361 -0.7245 -0.4337  0.2968
 2328SOL    HW218447   0.910   4.483  12.432 -1.0246  1.4781 -0.1634
 2329SOL     OW18448   0.667   3.728   1.766 -0.3132  0.5492  0.3316
 2329SOL    HW118449   0.629   3.816   1.770  1.4795  1.2425  2.0932
 2329SOL    HW218450   0.761   3.737   1.785 -0.5135  2.6161  0.3844
 2330SOL     OW18451   3.325   0.419  17.260  0.6576 -0.2312  0.4885
 2330SOL    HW118452   3.340   0.445  17.169  1.3493  1.1638  1.0018
 2330SOL    HW218453   3.303   0.500  17.307  3.0081  0.6620  0.0324
 2331SOL     OW18454   0.994   2.448   8.147 -0.4490  0.4371 -0.2999
 2331SOL    HW118455   0.908   2.476   8.117 -0.8251  0.7841  1.0680
 2331SOL    HW218456   1.023   2.392   8.076 -0.6531  0.8328 -0.6955
 2332SOL     OW18457   2.049   2.912   5.959  0.4000  0.6748  0.8574
 2332SOL    HW118458   2.023   2.931   6.049 -1.9458  0.6094  0.2085
 2332SOL    HW218459   1.964   2.889   5.922  0.7244  1.5236 -0.4153
 2333SOL     OW18460   1.366   1.681  12.911 -0.5872 -0.2364 -0.1878
 2333SOL    HW118461   1.364   1.759  12.967 -1.1823 -0.3321 -0.0793
 2333SOL    HW218462   1.435   1.625  12.945 -1.8346 -1.2577  0.6459
 2334SOL     OW18463   4.054   0.383   7.784 -0.4164 -0.1156 -0.6282
 2334SOL    HW118464   4.124   0.404   7.846 -2.3411  2.2501  0.7663
 2334SOL    HW218465   4.107   0.357   7.709  0.3089 -1.2170  0.2566
 2335SOL     OW18466   2.823   1.162  10.272 -0.3388 -0.3885  0.2141
 2335SOL    HW118467   2.876   1.207  10.205 -0.0524  0.4063  0.9822
 2335SOL    HW218468   2.878   1.184  10.347 -0.6530 -1.2505  0.6981
 2336SOL     OW18469   1.376   4.281   5.441 -0.1904  0.0102 -0.4959
 2336SOL    HW118470   1.457   4.286   5.390  0.1859  2.0385  0.2908
 2336SOL    HW218471   1.387   4.207   5.500 -0.7417 -0.3773 -0.8873
 2337SOL     OW18472   3.500   0.460   7.168  0.2286 -0.0517  0.2490
 2337SOL    HW118473   3.494   0.515   7.245 -1.3609  0.9055 -0.5624
 2337SOL    HW218474   3.531   0.526   7.105 -0.7720 -1.5944 -1.8609
 2338SOL     OW18475   1.263   3.351   4.836  0.5172  0.4187 -0.2140
 2338SOL    HW118476   1.179   3.389   4.811  0.0553  0.3596  1.2417
 2338SOL    HW218477   1.316   3.428   4.814 -2.1309  2.1572 -0.5057
 2339SOL     OW18478   3.468   2.614   4.778 -0.0083 -0.6710  0.7083
 2339SOL    HW118479   3.391   2.605   4.723  0.1607  0.4489  0.2775
 2339SOL    HW218480   3.537   2.621   4.712  1.0958 -0.7016  1.8440
 2340SOL     OW18481   0.245   2.505   3.371  0.4035  0.2073 -0.3664
 2340SOL    HW118482   0.315   2.440   3.370  0.2269  0.0063 -0.0458
 2340SOL    HW218483   0.266   2.563   3.444  0.7399  0.6257 -0.8014
 2341SOL     OW18484   3.204   2.853  17.207 -0.3730  0.0852 -0.6504
 2341SOL    HW118485   3.162   2.926  17.162 -0.2085  0.0592 -0.8486
 2341SOL    HW218486   3.287   2.856  17.160  0.6354 -0.4199  1.0985
 2342SOL     OW18487   2.246   0.874   5.481  0.1711  0.5075  0.3606
 2342SOL    HW118488   2.186   0.822   5.427 -0.6981  0.6119  1.2097
 2342SOL    HW218489   2.314   0.810   5.500  0.9577  1.3710  0.4598
 2343SOL     OW18490   3.325   3.738   9.111 -0.6110  0.6127 -0.0586
 2343SOL    HW118491   3.349   3.686   9.188  1.1082  0.5674 -0.6221
 2343SOL    HW218492   3.373   3.692   9.042  0.9872  1.1486  0.6711
 2344SOL     OW18493   4.690   4.440   6.932  0.3035 -0.1677 -0.4037
 2344SOL    HW118494   4.650   4.382   6.997  1.0002 -0.9507 -0.6697
 2344SOL    HW218495   4.680   4.380   6.857 -2.3145 -1.0253  0.6248
 2345SOL     OW18496   2.768   1.174   0.976  0.2859  0.3561  0.3409
 2345SOL    HW118497   2.823   1.209   1.045  1.2560  2.2883 -1.4175
 2345SOL    HW218498   2.695   1.136   1.025  0.3238  0.7425  0.6939
 2346SOL     OW18499   2.021   0.828   1.065 -0.2027 -0.0863  0.4679
 2346SOL    HW118500   2.048   0.853   0.976 -1.3945 -1.6147 -0.3229
 2346SOL    HW218501   2.014   0.917   1.100  1.7262 -0.0190  0.6565
 2347SOL     OW18502   2.975   2.664   9.593 -0.6213 -0.4086  0.4092
 2347SOL    HW118503   2.908   2.641   9.529  1.0880  1.8905 -2.2216
 2347SOL    HW218504   2.930   2.712   9.662  1.5153 -0.1533  1.6164
 2348SOL     OW18505   0.563   2.765   2.578  0.2180  0.1708 -0.0203
 2348SOL    HW118506   0.562   2.859   2.556 -1.2860  0.0207 -0.5940
 2348SOL    HW218507   0.594   2.763   2.668 -2.0543  1.6929  0.7994
 2349SOL     OW18508   1.833   3.046  10.110  0.4718 -0.1826  0.4602
 2349SOL    HW118509   1.921   3.053  10.146  0.5704  1.4924 -0.0778
 2349SOL    HW218510   1.859   3.004  10.028  1.9511  1.3963  0.1037
 2350SOL     OW18511   3.751   2.928   6.064  0.3280  0.2301 -0.1172
 2350SOL    HW118512   3.757   3.023   6.067  0.8826  0.2789 -2.6623
 2350SOL    HW218513   3.665   2.917   6.025 -0.3062 -2.0919  1.9429
 2351SOL     OW18514   1.995   3.320   8.242  0.2392 -0.5154  0.3486
 2351SOL    HW118515   2.030   3.387   8.301  1.2895  0.9295 -1.9174
 2351SOL    HW218516   2.047   3.246   8.272 -1.0489 -0.3414  3.0555
 2352SOL     OW18517   2.126   1.393   7.681 -0.0383 -0.0907 -0.2608
 2352SOL    HW118518   2.063   1.410   7.751  0.5557  0.9425  0.0201
 2352SOL    HW218519   2.099   1.317   7.630  1.5916 -0.6964 -0.2427
 2353SOL     OW18520   2.425   2.344  14.547 -0.1915 -0.1026  0.0215
 2353SOL    HW118521   2.440   2.419  14.604 -2.2559 -0.8294  1.4894
 2353SOL    HW218522   2.334   2.352  14.518 -0.1521 -2.5728 -0.8009
 2354SOL     OW18523   1.713   2.640   1.804 -0.1887  0.4776  0.4051
 2354SOL    HW118524   1.728   2.608   1.716  2.0865  0.9136  0.6361
 2354SOL    HW218525   1.665   2.720   1.782  0.6186  0.3181 -1.9103
 2355SOL     OW18526   2.505   1.246   0.721 -0.6659  0.3961  0.1842
 2355SOL    HW118527   2.488   1.336   0.749  0.1315  0.3096  0.9500
 2355SOL    HW218528   2.449   1.233   0.645 -0.3968  0.1550  0.0264
 2356SOL     OW18529   3.628   1.619   2.768 -0.3468 -0.0261 -0.0715
 2356SOL    HW118530   3.665   1.548   2.820  0.3213 -0.1810 -0.7657
 2356SOL    HW218531   3.584   1.670   2.837 -0.1077 -0.6415  0.5348
 2357SOL     OW18532   1.006   0.146   7.742 -0.6588 -0.0565  0.0710
 2357SOL    HW118533   0.928   0.090   7.750 -1.9449  1.6495 -0.6022
 2357SOL    HW218534   1.055   0.098   7.808  0.9084  1.4446 -0.0045
 2358SOL     OW18535   3.250   2.350   8.259  0.4977 -0.0335  0.2651
 2358SOL    HW118536   3.209   2.263   8.256  0.9422 -0.2077 -1.3615
 2358SOL    HW218537   3.203   2.394   8.329 -1.5140  0.2235 -1.2333
 2359SOL     OW18538   2.566   4.698   8.055 -0.5247  0.6805 -0.5258
 2359SOL    HW118539   2.510   4.643   8.110 -0.5059  1.5957  0.3971
 2359SOL    HW218540   2.617   0.020   8.120  0.9333 -1.0047 -0.4416
 2360SOL     OW18541   3.643   2.678   6.749  0.2266  0.5739 -0.1429
 2360SOL    HW118542   3.719   2.703   6.801 -0.0784 -0.9322  1.0219
 2360SOL    HW218543   3.677   2.685   6.659  3.2210 -2.6298  0.7518
 2361SOL     OW18544   2.458   2.961   1.121 -0.1687 -0.2798 -0.8517
 2361SOL    HW118545   2.493   3.049   1.116  2.1865 -1.2135 -0.7668
 2361SOL    HW218546   2.368   2.975   1.151  0.4279  1.2449  0.1711
 2362SOL     OW18547   2.738   0.526  11.458 -0.4070  0.1165 -0.3374
 2362SOL    HW118548   2.791   0.489  11.529  0.5596  0.2088 -1.0171
 2362SOL    HW218549   2.794   0.599  11.431  1.0937 -0.1552  2.0046
 2363SOL     OW18550   3.925   3.401   2.601 -0.6012 -0.0843  0.2832
 2363SOL    HW118551   3.879   3.419   2.519  0.8217 -1.2491 -0.7770
 2363SOL    HW218552   3.966   3.319   2.574  1.3404  0.2473  2.1584
 2364SOL     OW18553   2.939   3.976   7.818 -0.1567  0.0798  0.2784
 2364SOL    HW118554   2.955   3.950   7.909 -0.3916  1.7646  0.7938
 2364SOL    HW218555   2.872   3.908   7.805 -2.0903  2.5483 -2.4686
 2365SOL     OW18556   0.801   1.434   9.541  0.0695  0.1073  0.6191
 2365SOL    HW118557   0.854   1.394   9.610 -0.5855  0.1790  1.1637
 2365SOL    HW218558   0.801   1.526   9.569  2.2088  0.4024 -0.3875
 2366SOL     OW18559   1.806   2.876   8.712  0.5830  0.2417 -0.1990
 2366SOL    HW118560   1.838   2.786   8.714 -2.6503 -0.8753  0.7015
 2366SOL    HW218561   1.847   2.909   8.632  1.0546  0.8978  0.3089
 2367SOL     OW18562   0.585   3.597   9.456 -0.2248 -0.2289 -0.3544
 2367SOL    HW118563   0.598   3.674   9.511  0.9226 -0.2525 -0.5901
 2367SOL    HW218564   0.494   3.572   9.473  0.3763 -1.1149  1.6123
 2368SOL     OW18565   2.946   2.460   2.125  0.5228  0.0265  0.0666
 2368SOL    HW118566   2.924   2.550   2.149 -0.5329 -0.0431 -0.6512
 2368SOL    HW218567   2.999   2.458   2.045  2.2768 -0.1572  1.2291
 2369SOL     OW18568   0.815   4.714   7.777 -0.6102  0.4832  0.3019
 2369SOL    HW118569   0.782   4.696   7.865  0.1426 -2.1266  0.0441
 2369SOL    HW218570   0.752   0.056   7.749 -0.7859 -0.5973 -1.8765
 2370SOL     OW18571   1.402   1.859   6.647  0.2978  0.8477  0.2508
 2370SOL    HW118572   1.462   1.866   6.721 -1.2735  1.7112  1.4457
 2370SOL    HW218573   1.324   1.839   6.699 -0.1753  0.1539 -0.7325
 2371SOL     OW18574   4.029   0.305   6.737  0.0363 -0.2600  0.4307
 2371SOL    HW118575   4.002   0.214   6.744  2.2754 -0.7176  3.0005
 2371SOL    HW218576   4.123   0.310   6.757 -0.5979 -0.1286  3.3567
 2372SOL     OW18577   2.377   4.652  14.784  0.3217 -0.4204  0.1482
 2372SOL    HW118578   2.425   4.628  14.863  0.4995  0.8872  0.4264
 2372SOL    HW218579   2.306   4.703  14.822 -0.2380  0.2629 -1.7913
 2373SOL     OW18580   3.150   2.445   2.894  0.3738 -0.6392 -0.1185
 2373SOL    HW118581   3.106   2.498   2.960  0.9439 -0.1389 -0.1399
 2373SOL    HW218582   3.242   2.472   2.899  0.5759 -1.0517 -1.6827
 2374SOL     OW18583   2.198   2.579   6.743 -0.7604  0.1441 -0.4745
 2374SOL    HW118584   2.218   2.624   6.661  1.1154 -0.2348 -0.2234
 2374SOL    HW218585   2.198   2.654   6.803 -0.6249 -0.3854  0.1880
 2375SOL     OW18586   2.485   0.984   3.502  0.0713 -0.1426 -0.5696
 2375SOL    HW118587   2.449   1.073   3.501  1.3554  0.3713 -1.5306
 2375SOL    HW218588   2.575   0.999   3.531 -0.4832 -0.2412  1.1969
 2376SOL     OW18589   0.733   3.206  10.775 -0.1951  0.3265  0.6768
 2376SOL    HW118590   0.816   3.183  10.734 -2.1580 -2.4202 -1.8593
 2376SOL    HW218591   0.717   3.143  10.845  0.3408 -2.7367 -1.9259
 2377SOL     OW18592   0.492   1.164   8.450 -0.0110 -0.1436 -0.4546
 2377SOL    HW118593   0.532   1.139   8.534 -0.4492 -0.3386 -0.3029
 2377SOL    HW218594   0.564   1.202   8.399  1.9679 -0.1229  2.3540
 2378SOL     OW18595   2.662   1.239  14.296 -0.3371 -0.2505 -0.1823
 2378SOL    HW118596   2.648   1.158  14.247  1.9757 -0.6849 -0.1551
 2378SOL    HW218597   2.583   1.230  14.349 -0.0995 -1.2551  0.0233
 2379SOL     OW18598   0.572   0.362   4.320  0.1850  0.0569  0.0311
 2379SOL    HW118599   0.641   0.411   4.275  1.1357 -0.5048  0.8827
 2379SOL    HW218600   0.597   0.272   4.302 -2.3235  0.0071 -3.0516
 2380SOL     OW18601   0.205   1.102   0.954  0.0236 -0.2363 -0.0214
 2380SOL    HW118602   0.224   1.066   1.041  3.1262 -1.5978 -1.2515
 2380SOL    HW218603   0.272   1.170   0.946  0.2709 -0.7410 -2.1122
 2381SOL     OW18604   1.735   4.201   6.498 -0.5785 -0.1885  0.0730
 2381SOL    HW118605   1.687   4.166   6.424 -0.0305  0.2584 -0.4956
 2381SOL    HW218606   1.659   4.244   6.538  1.4722  1.5961  2.0572
 2382SOL     OW18607   1.455   4.581  10.559 -0.3594  0.3359 -0.0865
 2382SOL    HW118608   1.533   4.570  10.614  0.0359  1.1866 -0.4744
 2382SOL    HW218609   1.418   4.494  10.573 -0.0503  0.5452  1.9476
 2383SOL     OW18610   4.210   2.734   3.505  0.3105  0.1900 -0.5984
 2383SOL    HW118611   4.235   2.733   3.413  1.1945 -1.6060 -0.3271
 2383SOL    HW218612   4.274   2.789   3.551  1.5778 -1.4957 -0.3546
 2384SOL     OW18613   4.664   4.663   7.086  0.7394  0.1875 -0.1418
 2384SOL    HW118614   4.676   4.587   7.029  0.1546 -1.1801  1.5482
 2384SOL    HW218615   0.024   4.668   7.130  0.6171 -1.1096  0.2575
 2385SOL     OW18616   0.834   0.708   7.920 -0.3955  0.0972  0.3606
 2385SOL    HW118617   0.846   0.773   7.850  4.4756 -0.1226  1.0002
 2385SOL    HW218618   0.741   0.684   7.914 -0.4629  0.1314  1.2548
 2386SOL     OW18619   3.854   1.705   6.426  0.1544 -0.1567 -0.4753
 2386SOL    HW118620   3.787   1.761   6.388  0.8370 -0.4969 -2.2147
 2386SOL    HW218621   3.860   1.750   6.510 -1.2669 -0.6207 -0.1310
 2387SOL     OW18622   4.064   3.258   4.313 -0.4466 -0.1611 -0.0521
 2387SOL    HW118623   4.040   3.168   4.291 -1.5561  0.0119  0.4292
 2387SOL    HW218624   4.002   3.308   4.260  0.5711  2.1957  1.0000
 2388SOL     OW18625   0.299   2.116   7.854  0.7840  0.2740 -0.6826
 2388SOL    HW118626   0.288   2.116   7.949  1.1492  1.5668 -0.6377
 2388SOL    HW218627   0.263   2.029   7.836 -0.6173  0.7206 -0.0716
 2389SOL     OW18628   1.581   0.185  13.442  0.0519 -0.1797 -0.0066
 2389SOL    HW118629   1.631   0.156  13.366 -0.5275  0.2003 -0.5274
 2389SOL    HW218630   1.609   0.115  13.502  2.2758  2.1478  1.6796
 2390SOL     OW18631   4.399   2.452  15.190  0.2815 -0.4756 -0.0209
 2390SOL    HW118632   4.416   2.534  15.238 -0.7174  0.5075 -1.3495
 2390SOL    HW218633   4.333   2.482  15.128  0.4215 -2.0031 -0.9000
 2391SOL     OW18634   1.223   0.074  10.268 -0.1018  0.0305  0.0326
 2391SOL    HW118635   1.277   0.098  10.343 -0.4159 -0.3453  0.3810
 2391SOL    HW218636   1.295   0.077  10.205 -1.0127 -0.2059 -1.0092
 2392SOL     OW18637   1.938   2.109   3.022 -0.0294  0.5397  0.5127
 2392SOL    HW118638   2.016   2.077   2.976  0.5038  1.6785  0.6092
 2392SOL    HW218639   1.912   2.179   2.962 -2.8077 -2.3890 -1.6334
 2393SOL     OW18640   3.501   3.210   5.464  0.0669  0.2246 -0.6053
 2393SOL    HW118641   3.561   3.266   5.512 -1.1593  1.2964 -0.3357
 2393SOL    HW218642   3.561   3.183   5.394 -0.1120  0.1286 -0.7202
 2394SOL     OW18643   0.213   2.086  14.396 -0.5318  0.4232  0.4000
 2394SOL    HW118644   0.209   2.173  14.355  0.4799  0.2325 -0.0995
 2394SOL    HW218645   0.285   2.100  14.458  0.6684  2.5661 -1.4764
 2395SOL     OW18646   2.450   1.835   1.272  0.4545 -0.1916  0.0824
 2395SOL    HW118647   2.374   1.893   1.263  1.7292  1.5233  0.2572
 2395SOL    HW218648   2.460   1.820   1.178  1.2448 -1.1190  0.3234
 2396SOL     OW18649   4.349   1.741   8.847  0.1179  0.0649 -0.2553
 2396SOL    HW118650   4.266   1.695   8.865 -0.1141  0.4886 -0.2550
 2396SOL    HW218651   4.378   1.681   8.778 -0.8554  1.4352 -1.8509
 2397SOL     OW18652   0.844   2.141   8.369  0.2495 -0.2472 -0.5831
 2397SOL    HW118653   0.855   2.235   8.358  0.5084 -0.1795  0.2340
 2397SOL    HW218654   0.878   2.132   8.459  0.1072  3.1543 -0.1767
 2398SOL     OW18655   2.060   0.289   1.332 -0.2755  0.2348 -0.1714
 2398SOL    HW118656   2.138   0.321   1.288  0.5474  0.6986  1.6246
 2398SOL    HW218657   2.004   0.266   1.258 -0.8595 -3.0977  1.2837
 2399SOL     OW18658   4.011   3.403  15.999 -0.1958 -0.9058  0.0326
 2399SOL    HW118659   4.105   3.398  16.015 -0.4017 -0.4112  1.4502
 2399SOL    HW218660   4.001   3.336  15.932  1.6296 -0.1378 -0.9989
 2400SOL     OW18661   0.997   0.782  11.963  0.3296 -0.4160  0.0332
 2400SOL    HW118662   1.008   0.688  11.979  1.3896 -0.6090 -1.8131
 2400SOL    HW218663   1.044   0.821  12.036 -0.0872 -2.1133  1.2143
 2401SOL     OW18664   0.888   4.715  12.282  0.0263  0.2577  0.0630
 2401SOL    HW118665   0.826   4.723  12.210  0.0674  1.1830  0.1228
 2401SOL    HW218666   0.939   0.066  12.254  2.6551 -2.1213 -1.6608
 2402SOL     OW18667   0.126   1.340   6.233 -0.0054  0.3430 -0.2955
 2402SOL    HW118668   0.117   1.279   6.307  0.5096  1.0634  0.3618
 2402SOL    HW218669   0.126   1.277   6.161  1.5077  0.7092 -0.6244
 2403SOL     OW18670   0.010   3.875   4.718 -0.1416 -0.3903  0.1800
 2403SOL    HW118671   4.687   3.792   4.724  1.3421 -1.5026 -2.8936
 2403SOL    HW218672   0.061   3.863   4.638  0.6359  2.2810  0.2818
 2404SOL     OW18673   3.718   0.834   7.547  0.3206 -0.2353  0.2773
 2404SOL    HW118674   3.788   0.881   7.502 -1.9430  1.9321 -0.9918
 2404SOL    HW218675   3.753   0.775   7.613 -0.7655 -0.5559  0.5768
 2405SOL     OW18676   1.172   1.847   4.744  0.3314 -0.1037 -0.3299
 2405SOL    HW118677   1.111   1.836   4.671  1.7653 -2.0527 -1.2252
 2405SOL    HW218678   1.257   1.852   4.700  0.3141  1.8386 -0.1611
 2406SOL     OW18679   1.217   0.914  14.632 -0.3473  0.3651  0.3653
 2406SOL    HW118680   1.280   0.969  14.585  1.4095 -1.8467  0.1087
 2406SOL    HW218681   1.151   0.972  14.669 -0.8719  0.4646 -0.7363
 2407SOL     OW18682   1.009   0.360  14.204  0.2915  0.8492 -0.2643
 2407SOL    HW118683   1.051   0.331  14.285 -0.0075  0.9794 -0.0616
 2407SOL    HW218684   0.942   0.419  14.239  0.1440 -0.6083  1.9101
 2408SOL     OW18685   1.609   3.445  17.388  0.1739  0.1218  0.3981
 2408SOL    HW118686   1.533   3.494  17.354  1.3856  1.4406 -0.3941
 2408SOL    HW218687   1.577   3.364  17.427 -2.3303  0.0500 -1.7990
 2409SOL     OW18688   0.080   1.845  10.721  0.3550  0.4474 -0.2458
 2409SOL    HW118689   0.140   1.864  10.649  0.5790  0.2786 -0.1049
 2409SOL    HW218690   0.075   1.923  10.776  0.4514 -1.0443  1.9137
 2410SOL     OW18691   4.655   3.128   9.004 -0.6849 -0.5353 -0.2565
 2410SOL    HW118692   4.669   3.211   8.959  0.9631 -1.8629 -2.2022
 2410SOL    HW218693   4.695   3.068   8.940  0.5411 -0.1716  0.1794
 2411SOL     OW18694   2.986   2.960   2.248  0.3022  0.3831 -0.0290
 2411SOL    HW118695   2.909   3.008   2.217 -0.0004 -0.0833 -0.0040
 2411SOL    HW218696   3.041   2.994   2.178  0.0876 -0.2462 -0.5020
 2412SOL     OW18697   3.183   4.047   7.723 -0.4570 -0.6383  0.2304
 2412SOL    HW118698   3.115   4.019   7.785 -1.0606 -0.7525 -0.4828
 2412SOL    HW218699   3.133   4.018   7.646 -0.2792  0.8214 -0.4287
 2413SOL     OW18700   4.490   1.004  16.398 -0.3111  0.3375 -0.0096
 2413SOL    HW118701   4.533   1.059  16.332 -0.7956 -1.1185 -1.5328
 2413SOL    HW218702   4.459   0.921  16.362  1.5848 -0.2336 -0.3075
 2414SOL     OW18703   3.500   4.334   2.509 -0.2930 -0.0460  0.0848
 2414SOL    HW118704   3.535   4.321   2.597  1.3821  2.2781 -0.2620
 2414SOL    HW218705   3.418   4.378   2.533  0.2609  0.7640  0.4555
 2415SOL     OW18706   1.130   1.383  12.130  0.4964 -0.4461 -0.6968
 2415SOL    HW118707   1.220   1.356  12.112  0.5268 -1.7401  1.4737
 2415SOL    HW218708   1.139   1.470  12.093 -0.3287  0.3144  0.8995
 2416SOL     OW18709   0.364   1.955   3.275 -0.8054 -0.6697  0.3175
 2416SOL    HW118710   0.284   1.904   3.279 -1.5658  0.4069 -1.2309
 2416SOL    HW218711   0.416   1.901   3.216 -1.9580 -3.3432  1.7668
 2417SOL     OW18712   2.360   2.462   0.595 -0.5343 -0.2579 -0.1015
 2417SOL    HW118713   2.436   2.431   0.546  0.4908 -1.3351  2.1693
 2417SOL    HW218714   2.379   2.555   0.589 -0.4010 -0.1889  1.4415
 2418SOL     OW18715   1.678   1.708   3.846 -0.1555  0.0633  0.7230
 2418SOL    HW118716   1.614   1.691   3.777 -0.0736 -2.3080  1.2439
 2418SOL    HW218717   1.631   1.776   3.894 -0.2406 -0.6952  1.7106
 2419SOL     OW18718   2.560   0.645  17.011  1.0208  0.1699  0.2027
 2419SOL    HW118719   2.565   0.711  16.943 -0.9357  0.8852  0.7535
 2419SOL    HW218720   2.468   0.652  17.036  0.9476 -1.8036  0.4930
 2420SOL     OW18721   4.646   1.576  14.746 -0.3921 -0.1767 -0.1119
 2420SOL    HW118722   4.589   1.600  14.820 -2.3381 -0.7116 -1.4392
 2420SOL    HW218723   4.670   1.487  14.772 -1.2691 -0.2861  0.3265
 2421SOL     OW18724   4.699   1.731   5.553  0.3553 -0.3832  0.3025
 2421SOL    HW118725   4.620   1.690   5.588 -1.0746  0.5023 -1.9209
 2421SOL    HW218726   0.030   1.698   5.623 -0.2710 -0.9118  0.5490
 2422SOL     OW18727   4.129   3.456   8.931 -0.4762 -0.2403  0.3479
 2422SOL    HW118728   4.143   3.495   9.017 -0.6681  0.8085 -0.0884
 2422SOL    HW218729   4.190   3.504   8.875  0.0066 -2.5905 -1.1256
 2423SOL     OW18730   4.432   2.805   1.902  0.2344 -0.5223 -0.1050
 2423SOL    HW118731   4.433   2.771   1.813  0.8065  0.5716 -0.5288
 2423SOL    HW218732   4.392   2.890   1.882  0.8076 -0.6040 -1.5590
 2424SOL     OW18733   1.575   1.205   1.811  0.1544  0.2494  0.2161
 2424SOL    HW118734   1.498   1.220   1.756 -2.0324  0.2553  3.2712
 2424SOL    HW218735   1.638   1.262   1.767 -1.0018 -0.0787 -1.8579
 2425SOL     OW18736   0.664   0.563   7.611 -0.2202 -0.0542  0.0330
 2425SOL    HW118737   0.681   0.555   7.517 -0.3598 -2.2034  0.1779
 2425SOL    HW218738   0.739   0.524   7.655 -0.0928 -0.2974 -0.3947
 2426SOL     OW18739   2.505   2.410   5.975  0.2427 -0.2582  0.5259
 2426SOL    HW118740   2.530   2.500   5.996 -1.1351 -0.2611  2.2145
 2426SOL    HW218741   2.586   2.364   5.997  1.1802  0.2779 -1.8564
 2427SOL     OW18742   1.422   1.532   7.669 -0.1906 -0.3517 -0.0788
 2427SOL    HW118743   1.500   1.583   7.690 -0.3077 -0.6705  1.1253
 2427SOL    HW218744   1.359   1.580   7.722 -0.7780 -1.4797  0.2480
 2428SOL     OW18745   0.099   2.363   0.715 -0.0284 -0.3995  0.0945
 2428SOL    HW118746   0.024   2.319   0.755 -0.9605  0.4063 -0.7709
 2428SOL    HW218747   0.164   2.294   0.722  0.2977 -0.0650  0.3753
 2429SOL     OW18748   2.697   2.190  13.733  0.5516  0.2486 -0.2014
 2429SOL    HW118749   2.734   2.137  13.803 -1.1466  0.7008  1.0400
 2429SOL    HW218750   2.771   2.198  13.673 -0.0560  0.9692 -0.8692
 2430SOL     OW18751   3.389   0.494  16.740  0.4144 -0.4232  0.3852
 2430SOL    HW118752   3.461   0.549  16.709 -0.4299  0.5476  0.1414
 2430SOL    HW218753   3.414   0.409  16.704  1.0843 -0.0048 -0.1262
 2431SOL     OW18754   1.168   1.550   4.298 -0.7434 -0.2265  0.4774
 2431SOL    HW118755   1.184   1.643   4.314  4.3757 -0.7138 -1.9585
 2431SOL    HW218756   1.072   1.552   4.299 -0.7060  1.7437  1.1132
 2432SOL     OW18757   1.404   3.980  10.126 -0.4783 -0.0725  0.1764
 2432SOL    HW118758   1.335   3.943  10.181  1.4323  0.0260  2.6454
 2432SOL    HW218759   1.368   3.942  10.045 -2.5465 -1.8806  1.9368
 2433SOL     OW18760   1.123   4.368   3.393 -0.2363  0.0379 -0.3971
 2433SOL    HW118761   1.203   4.339   3.435 -1.7480 -1.0186  1.7599
 2433SOL    HW218762   1.127   4.461   3.417  1.1364  0.1407 -1.0644
 2434SOL     OW18763   1.849   0.290  15.402 -0.2181 -0.2170 -0.0260
 2434SOL    HW118764   1.810   0.228  15.463 -0.8471 -1.0991 -1.3273
 2434SOL    HW218765   1.783   0.360  15.399  0.4372  0.2991 -2.8494
 2435SOL     OW18766   1.387   4.328   2.889  0.1488 -0.3533 -0.0938
 2435SOL    HW118767   1.359   4.249   2.936  1.4546 -0.5186  0.3869
 2435SOL    HW218768   1.458   4.300   2.832 -1.4084 -1.9581 -1.2706
 2436SOL     OW18769   4.665   0.760   6.915  0.3504  0.3272  0.3093
 2436SOL    HW118770   0.009   0.803   6.864  0.1555 -0.8031 -0.9022
 2436SOL    HW218771   4.587   0.798   6.874 -1.0048 -1.3198  1.3654
 2437SOL     OW18772   1.724   1.621   1.387  0.2309 -0.4116 -0.2229
 2437SOL    HW118773   1.752   1.623   1.479  1.2839  2.2477 -0.6131
 2437SOL    HW218774   1.792   1.677   1.349 -1.1243  0.6594 -1.0911
 2438SOL     OW18775   2.156   2.013  14.715 -0.9612 -0.0862 -0.0803
 2438SOL    HW118776   2.156   2.043  14.624  2.2123 -0.1172 -0.0891
 2438SOL    HW218777   2.235   2.053  14.751 -0.3572 -0.1244 -1.3757
 2439SOL     OW18778   2.126   4.545   8.775 -0.4296 -0.1517  0.2292
 2439SOL    HW118779   2.093   4.555   8.685  3.1106 -1.9211 -1.2997
 2439SOL    HW218780   2.088   4.461   8.801 -0.8508 -0.3515 -1.0036
 2440SOL     OW18781   2.715   0.480   8.678  0.1116  0.7180 -0.0388
 2440SOL    HW118782   2.735   0.480   8.585 -0.1248 -0.4932 -0.0890
 2440SOL    HW218783   2.621   0.499   8.679  0.2549  1.3837  0.4590
 2441SOL     OW18784   3.627   4.592   1.498  0.4056 -0.0410  0.3811
 2441SOL    HW118785   3.617   4.516   1.554  1.4135  0.8831  1.8224
 2441SOL    HW218786   3.633   4.666   1.559  1.3596 -0.5857  0.9449
 2442SOL     OW18787   1.115   2.497  16.140 -0.5131 -0.2883 -0.2048
 2442SOL    HW118788   1.122   2.442  16.062 -0.3013 -0.5044 -0.0314
 2442SOL    HW218789   1.196   2.546  16.140 -1.2642  0.9453 -0.4822
 2443SOL     OW18790   0.014   2.192  13.959  0.3234  0.0666  0.0867
 2443SOL    HW118791   0.049   2.281  13.970 -3.5759  1.2783  2.5599
 2443SOL    HW218792   4.648   2.218  13.966  0.3714 -0.1223  1.3776
 2444SOL     OW18793   4.365   4.454   8.519 -0.6520 -0.0802 -0.1236
 2444SOL    HW118794   4.295   4.397   8.550 -0.3565  0.4596  1.5910
 2444SOL    HW218795   4.432   4.393   8.487 -1.8599 -0.5785 -1.6909
 2445SOL     OW18796   1.351   3.681  16.558 -0.2532 -0.1928 -0.1909
 2445SOL    HW118797   1.443   3.697  16.538 -0.2973  1.7358  1.1590
 2445SOL    HW218798   1.298   3.720  16.488  2.0117  1.7901 -0.8060
 2446SOL     OW18799   1.795   1.982   6.101 -0.5309 -0.6412  0.5761
 2446SOL    HW118800   1.731   1.957   6.033 -0.8090  2.1007 -0.1649
 2446SOL    HW218801   1.747   2.054   6.141 -1.6901  0.3080 -2.4746
 2447SOL     OW18802   0.966   3.368  11.779 -0.0636 -0.2954  0.0589
 2447SOL    HW118803   0.896   3.404  11.724 -2.4105 -1.0928  2.5527
 2447SOL    HW218804   1.028   3.440  11.769 -0.0216 -0.2947  0.3429
 2448SOL     OW18805   4.279   1.817   2.477 -0.0879 -0.0015 -0.3519
 2448SOL    HW118806   4.215   1.835   2.547 -1.6516 -0.9678 -1.5184
 2448SOL    HW218807   4.215   1.799   2.408 -1.4735  0.8469  0.6832
 2449SOL     OW18808   3.919   1.912   9.757  0.4062  0.1154  0.8187
 2449SOL    HW118809   3.924   1.835   9.701 -0.9496 -0.7848  1.9439
 2449SOL    HW218810   3.902   1.983   9.695 -0.5814  0.2241  1.2182
 2450SOL     OW18811   3.910   1.757  10.151 -0.3874 -0.1310 -0.7387
 2450SOL    HW118812   3.987   1.707  10.123 -1.4182 -2.2396  0.1375
 2450SOL    HW218813   3.845   1.693  10.123 -0.8557 -0.3329  0.7908
 2451SOL     OW18814   3.539   0.514  13.206  0.0217 -0.2605  0.8162
 2451SOL    HW118815   3.471   0.483  13.146  1.2208 -0.7232 -0.3062
 2451SOL    HW218816   3.491   0.553  13.279 -0.2081 -1.7801  1.4820
 2452SOL     OW18817   0.472   1.377  10.061  0.3297  0.3644  0.6264
 2452SOL    HW118818   0.550   1.381  10.116  0.6487 -0.3521  0.2175
 2452SOL    HW218819   0.450   1.285  10.075 -0.7173  0.6593  0.9198
 2453SOL     OW18820   0.397   1.120  11.092  0.1227 -0.0924 -0.3906
 2453SOL    HW118821   0.474   1.136  11.147  0.9263  0.6280 -1.7372
 2453SOL    HW218822   0.348   1.059  11.147  0.9387 -0.8907 -0.5420
 2454SOL     OW18823   3.041   0.380   0.123 -0.2712  0.0259  0.4294
 2454SOL    HW118824   3.024   0.469   0.092  1.7765  1.0652  2.3172
 2454SOL    HW218825   2.990   0.327   0.061 -0.5499  0.4677  0.2863
 2455SOL     OW18826   0.857   3.974  11.273  0.5838  0.1159  0.2954
 2455SOL    HW118827   0.766   3.982  11.300  0.1976  1.2773 -1.3641
 2455SOL    HW218828   0.868   4.067  11.255 -1.2331  0.2795  0.0371
 2456SOL     OW18829   0.467   1.869   9.936 -0.0208  0.1286 -0.7212
 2456SOL    HW118830   0.489   1.853  10.027 -0.8609  2.3444 -0.1157
 2456SOL    HW218831   0.379   1.831   9.941  0.1255 -0.0303  0.5150
 2457SOL     OW18832   4.013   3.920  12.133  0.2890  0.2046 -0.1228
 2457SOL    HW118833   3.929   3.965  12.127  0.6580  0.5978 -2.3056
 2457SOL    HW218834   4.063   3.969  12.068  0.3152  0.3820  0.0296
 2458SOL     OW18835   0.306   0.275   1.828  0.1846  0.4242 -0.1755
 2458SOL    HW118836   0.268   0.189   1.808  0.0451  0.4991 -0.2291
 2458SOL    HW218837   0.297   0.265   1.923  0.6208  0.3305 -0.1444
 2459SOL     OW18838   1.019   1.170   7.012 -0.3762  0.5302 -0.1630
 2459SOL    HW118839   1.074   1.247   7.026  1.7377 -1.3046  1.5689
 2459SOL    HW218840   0.942   1.203   7.059 -1.9290 -4.1035  0.6182
 2460SOL     OW18841   0.644   1.585   5.247 -0.5221  0.1854 -0.4229
 2460SOL    HW118842   0.625   1.663   5.196  0.7353  0.0413 -1.1232
 2460SOL    HW218843   0.739   1.581   5.236 -0.1219  0.8774  2.5430
 2461SOL     OW18844   2.151   1.487   0.116  0.1393 -0.0446 -0.3930
 2461SOL    HW118845   2.064   1.462   0.087 -0.5116 -0.3208  1.8178
 2461SOL    HW218846   2.136   1.578   0.142 -0.8577 -0.0232 -1.0483
 2462SOL     OW18847   0.298   1.970   7.205 -0.5725 -0.1851 -0.6462
 2462SOL    HW118848   0.254   2.055   7.204  1.8032  1.0444  0.1872
 2462SOL    HW218849   0.296   1.943   7.113 -0.3716 -2.8570  0.1251
 2463SOL     OW18850   1.181   0.615   3.092 -0.0179 -0.2348 -0.2594
 2463SOL    HW118851   1.161   0.653   3.006  0.6725  0.5917 -0.0503
 2463SOL    HW218852   1.126   0.537   3.090  0.2208 -0.4247  0.5061
 2464SOL     OW18853   1.180   0.055   5.525  0.1910  0.3901  0.1986
 2464SOL    HW118854   1.211   4.690   5.528 -1.1836 -0.0513  1.2118
 2464SOL    HW218855   1.260   0.108   5.515 -0.8387  2.0233  0.5833
 2465SOL     OW18856   4.440   0.933   7.612 -0.4069 -0.7870 -0.4672
 2465SOL    HW118857   4.399   0.942   7.698  2.3253 -2.3233  0.9688
 2465SOL    HW218858   4.482   1.018   7.611 -0.5069 -0.7300  1.0501
 2466SOL     OW18859   2.716   3.490   2.657  0.0495  0.0477 -0.2881
 2466SOL    HW118860   2.724   3.415   2.597  0.0305 -1.1732  1.2280
 2466SOL    HW218861   2.752   3.457   2.739 -0.9228 -2.0107 -0.6724
 2467SOL     OW18862   4.336   3.789   7.448  0.3014 -0.6769 -0.1191
 2467SOL    HW118863   4.302   3.829   7.528  1.1611 -0.9781  0.3958
 2467SOL    HW218864   4.367   3.703   7.475  0.1657 -0.0011  2.1396
 2468SOL     OW18865   3.734   0.322   5.575 -0.1230 -0.4359 -0.0591
 2468SOL    HW118866   3.657   0.271   5.550  1.1149 -1.8417 -0.9970
 2468SOL    HW218867   3.729   0.316   5.671 -0.8689 -0.3782 -0.0941
 2469SOL     OW18868   0.509   0.730  10.548 -0.0880  0.5020  0.1318
 2469SOL    HW118869   0.493   0.772  10.632 -0.7142  1.0195 -0.2489
 2469SOL    HW218870   0.532   0.645  10.586  1.6825  0.7053 -0.4862
 2470SOL     OW18871   0.392   4.307   3.606  0.0651 -0.0484  0.1631
 2470SOL    HW118872   0.469   4.250   3.617  0.4964 -0.0403 -2.8353
 2470SOL    HW218873   0.425   4.388   3.644 -0.5809 -1.0854  2.8871
 2471SOL     OW18874   4.439   3.350   5.157  0.1814 -0.0336 -0.2210
 2471SOL    HW118875   4.416   3.319   5.069 -0.1027 -0.5963  0.0502
 2471SOL    HW218876   4.485   3.430   5.133  2.0986 -0.7737  0.9919
 2472SOL     OW18877   2.479   2.708   3.738 -0.3198  0.0533 -0.2973
 2472SOL    HW118878   2.558   2.657   3.719 -1.6083 -2.6144  1.4890
 2472SOL    HW218879   2.473   2.699   3.833 -0.4046  0.8423 -0.2306
 2473SOL     OW18880   0.126   1.220   2.061  0.7134 -0.1336 -0.1529
 2473SOL    HW118881   0.101   1.128   2.049 -1.3401  0.4327 -0.1436
 2473SOL    HW218882   0.071   1.261   1.994 -1.3015  0.9604  2.2029
 2474SOL     OW18883   2.172   3.769   2.519  0.0564 -0.4468  0.3953
 2474SOL    HW118884   2.092   3.817   2.496  0.8154  0.6771  0.1126
 2474SOL    HW218885   2.159   3.766   2.614  1.7566 -1.1545  0.5974
 2475SOL     OW18886   4.386   3.046  17.640 -0.1520 -0.1628 -0.3644
 2475SOL    HW118887   4.471   3.080  17.665  0.7253 -1.9813 -0.8867
 2475SOL    HW218888   4.377   3.106  17.566  0.8877 -0.7738 -0.9827
 2476SOL     OW18889   0.858   2.751   9.871 -0.0779  0.1347 -0.0982
 2476SOL    HW118890   0.923   2.771   9.804 -1.2021  0.7276 -1.0140
 2476SOL    HW218891   0.804   2.829   9.861  0.0526  0.0146 -1.7705
 2477SOL     OW18892   3.909   0.352   3.632  0.1167 -0.3788 -0.6742
 2477SOL    HW118893   3.971   0.425   3.636  1.4058 -1.4843 -0.5644
 2477SOL    HW218894   3.907   0.342   3.537  0.9961 -0.7628 -0.6510
 2478SOL     OW18895   1.038   3.090   3.409  0.3027  0.4257 -0.2102
 2478SOL    HW118896   1.115   3.049   3.370  0.4056  0.9215 -0.5310
 2478SOL    HW218897   0.975   3.094   3.338  0.3082 -0.5963 -0.2614
 2479SOL     OW18898   0.990   4.532  10.169  0.5595  0.3253  0.0411
 2479SOL    HW118899   0.979   4.443  10.203  2.3999 -0.1474 -0.5847
 2479SOL    HW218900   1.041   4.509  10.091 -0.1047  0.0047 -0.2918
 2480SOL     OW18901   3.571   3.118   2.391  0.1940 -0.1200  0.7563
 2480SOL    HW118902   3.550   3.031   2.425 -0.9300 -0.2585 -0.2876
 2480SOL    HW218903   3.512   3.119   2.316  0.3086 -0.1470  0.6658
 2481SOL     OW18904   2.266   2.906   3.875 -0.3316 -0.5949  0.0038
 2481SOL    HW118905   2.192   2.967   3.865 -0.4049 -0.3281  2.1771
 2481SOL    HW218906   2.221   2.855   3.943  1.4447 -0.9540  0.9101
 2482SOL     OW18907   2.782   2.321   2.441 -0.0597 -0.5179  0.6736
 2482SOL    HW118908   2.876   2.336   2.435 -0.7174  3.3105  0.2296
 2482SOL    HW218909   2.785   2.232   2.406  1.0392  0.4172 -1.5804
 2483SOL     OW18910   3.285   3.716   7.665  0.0108  0.3212  0.3986
 2483SOL    HW118911   3.331   3.797   7.642  0.5932  0.2188  1.1869
 2483SOL    HW218912   3.206   3.725   7.612 -0.3675 -1.3865  0.6656
 2484SOL     OW18913   4.242   1.635   4.933  0.6882  0.3271  0.4792
 2484SOL    HW118914   4.333   1.610   4.948  0.5392  1.0960  2.7163
 2484SOL    HW218915   4.236   1.591   4.848  0.7731 -0.3855  0.8461
 2485SOL     OW18916   0.558   3.213  10.561  0.3365  0.3573 -0.6067
 2485SOL    HW118917   0.470   3.226  10.598  1.8174  3.0138  2.0412
 2485SOL    HW218918   0.616   3.182  10.630  2.3214  3.9715 -0.6445
 2486SOL     OW18919   1.057   3.267   8.598 -0.2218  0.5152  0.5004
 2486SOL    HW118920   0.998   3.226   8.661  1.7721 -1.3300  1.1797
 2486SOL    HW218921   1.010   3.347   8.576 -2.1807 -0.6940  0.2881
 2487SOL     OW18922   1.839   3.761  11.000 -0.0562 -0.0669  0.2845
 2487SOL    HW118923   1.753   3.762  10.959  0.1853  0.8060 -0.1984
 2487SOL    HW218924   1.832   3.759  11.096  1.2623  0.8505  0.4116
 2488SOL     OW18925   0.809   1.784   1.755  0.2631  0.1593  0.5404
 2488SOL    HW118926   0.789   1.730   1.831  0.7540  0.0313  0.5782
 2488SOL    HW218927   0.846   1.714   1.701  0.1863  0.7086 -0.2309
 2489SOL     OW18928   2.983   3.781  16.393 -0.6913 -0.2565 -0.3726
 2489SOL    HW118929   3.041   3.727  16.339 -0.7539 -0.1650 -0.5332
 2489SOL    HW218930   2.908   3.810  16.341  1.1470 -0.0114 -2.9204
 2490SOL     OW18931   2.533   0.573  16.311  0.3734  0.3091 -0.9438
 2490SOL    HW118932   2.529   0.667  16.298 -0.3824  0.0577 -2.5361
 2490SOL    HW218933   2.513   0.543  16.223 -1.7408  0.4809 -0.5345
 2491SOL     OW18934   1.902   2.609   2.894  0.2036 -0.0800  0.1095
 2491SOL    HW118935   1.983   2.599   2.943  0.6630  1.0817 -0.4001
 2491SOL    HW218936   1.902   2.696   2.853 -0.2249 -0.5805 -0.9668
 2492SOL     OW18937   1.678   3.667   4.933 -0.7909 -0.4364 -0.6673
 2492SOL    HW118938   1.649   3.721   5.006 -0.0651  0.2752 -0.8960
 2492SOL    HW218939   1.745   3.721   4.889  0.2442 -2.5666 -1.6866
 2493SOL     OW18940   3.421   0.154   7.573 -0.3456 -0.4707  1.0661
 2493SOL    HW118941   3.347   0.193   7.619 -0.3053  1.6215 -0.6804
 2493SOL    HW218942   3.467   0.108   7.644 -1.0575  2.0317  3.1354
 2494SOL     OW18943   3.453   4.301   6.571  0.2298  0.3210  0.2245
 2494SOL    HW118944   3.548   4.289   6.572 -0.0742 -1.9668  1.3179
 2494SOL    HW218945   3.427   4.210   6.577  0.3286  0.3942  1.8361
 2495SOL     OW18946   2.056   2.938   4.722  0.1799 -0.1497 -0.6181
 2495SOL    HW118947   1.986   3.002   4.714  0.6335  0.3061 -0.9626
 2495SOL    HW218948   2.028   2.885   4.797  0.0823  2.1853  0.9953
 2496SOL     OW18949   2.377   1.494   1.666 -0.2334  0.1365 -0.0470
 2496SOL    HW118950   2.373   1.570   1.607  1.0142  1.4962  1.6151
 2496SOL    HW218951   2.468   1.500   1.694 -0.8501 -2.5883  2.5642
 2497SOL     OW18952   0.139   2.354  14.352  0.4494  0.1806 -0.3141
 2497SOL    HW118953   0.060   2.376  14.302 -0.2734 -1.1254  0.2793
 2497SOL    HW218954   0.195   2.430  14.334  1.3284 -0.5561 -0.7361
 2498SOL     OW18955   3.676   2.500   7.604  0.5592  0.3104  0.3600
 2498SOL    HW118956   3.749   2.516   7.544 -0.4377 -2.5963 -1.6569
 2498SOL    HW218957   3.680   2.406   7.622  1.3901 -0.4153 -3.6359
 2499SOL     OW18958   0.130   1.966   1.520  0.2371 -0.1799 -0.2381
 2499SOL    HW118959   0.079   1.983   1.440 -1.7528  0.5771  1.1957
 2499SOL    HW218960   0.222   1.974   1.496 -0.0324  0.7750 -0.9165
 2500SOL     OW18961   3.119   2.205   3.514  0.4113  0.7219 -0.6121
 2500SOL    HW118962   3.119   2.123   3.562 -0.7929  1.7089  1.0730
 2500SOL    HW218963   3.097   2.274   3.576  0.0361  0.4584 -0.4550
 2501SOL     OW18964   2.842   0.217   7.942  0.6627  0.2097  0.4850
 2501SOL    HW118965   2.909   0.181   8.001  1.4930  0.8265 -0.0730
 2501SOL    HW218966   2.833   0.307   7.972  3.0281  0.8897 -0.8311
 2502SOL     OW18967   0.405   2.699   6.019 -0.3034 -0.0875  0.2117
 2502SOL    HW118968   0.386   2.683   6.112 -4.3372 -1.5580 -0.8591
 2502SOL    HW218969   0.439   2.788   6.027  1.3376 -0.5682 -1.5686
 2503SOL     OW18970   2.869   1.940   7.126 -0.0417 -0.4234  0.1775
 2503SOL    HW118971   2.793   1.935   7.068  0.1762 -2.0967  0.0467
 2503SOL    HW218972   2.932   1.889   7.076  0.2781  0.3247 -0.1796
 2504SOL     OW18973   2.642   1.308   3.439 -0.3358 -0.1718 -0.4083
 2504SOL    HW118974   2.665   1.265   3.356 -2.0570  1.7037 -1.8821
 2504SOL    HW218975   2.725   1.296   3.485  1.1199  3.1025 -2.1815
 2505SOL     OW18976   0.789   3.768   7.942 -0.1263  0.2878  0.9000
 2505SOL    HW118977   0.854   3.828   7.906 -0.9841  0.5338 -0.2411
 2505SOL    HW218978   0.708   3.794   7.899  0.6062 -0.2338 -0.7589
 2506SOL     OW18979   2.032   0.256  11.100 -0.1636  0.1556 -0.0908
 2506SOL    HW118980   2.107   0.224  11.150 -0.6649 -1.0280 -0.0988
 2506SOL    HW218981   2.022   0.347  11.127  0.1586  0.2330 -0.2333
 2507SOL     OW18982   4.389   3.894   5.576  0.1251 -0.4545 -0.3915
 2507SOL    HW118983   4.331   3.963   5.607  0.3351  0.3592 -1.8020
 2507SOL    HW218984   4.470   3.945   5.573 -0.0094 -0.2350 -0.2807
 2508SOL     OW18985   0.225   0.474   9.607 -0.2001  0.3266  0.3983
 2508SOL    HW118986   0.320   0.465   9.618 -0.0873  0.0722 -0.7663
 2508SOL    HW218987   0.220   0.563   9.641  0.6714  0.5404 -0.0353
 2509SOL     OW18988   1.983   0.615   1.444 -0.1747 -0.0732  0.3248
 2509SOL    HW118989   2.076   0.634   1.429  0.1569 -1.5444  0.4537
 2509SOL    HW218990   1.982   0.520   1.428  0.1906  0.0867 -0.6408
 2510SOL     OW18991   1.083   3.958   9.411 -0.3797 -0.1765 -0.3403
 2510SOL    HW118992   0.994   3.984   9.389 -1.0946 -0.2309  2.5495
 2510SOL    HW218993   1.086   3.880   9.355 -2.2333 -1.5199  1.4373
 2511SOL     OW18994   3.430   1.043  11.350  0.3319  0.1295  0.2861
 2511SOL    HW118995   3.474   0.991  11.283 -0.0317  0.5626 -0.2925
 2511SOL    HW218996   3.445   0.991  11.429  1.8343 -1.2290 -0.8922
 2512SOL     OW18997   2.263   3.540   8.075  0.6388 -0.3441 -0.2964
 2512SOL    HW118998   2.238   3.578   8.159  2.0584 -3.3540  1.4670
 2512SOL    HW218999   2.327   3.599   8.037 -0.4788  0.0974 -1.5048
 2513SOL     OW19000   4.406   1.568   8.655  0.4211 -0.3866 -0.8617
 2513SOL    HW119001   4.442   1.505   8.593  1.4674 -0.0354 -0.6242
 2513SOL    HW219002   4.344   1.618   8.601 -0.1221  0.1224  0.2433
 2514SOL     OW19003   3.843   4.341   0.401 -0.0325 -0.2512  0.1039
 2514SOL    HW119004   3.874   4.360   0.489  0.9853  2.0906 -0.7363
 2514SOL    HW219005   3.771   4.403   0.390  1.2019  1.0149 -0.9996
 2515SOL     OW19006   2.731   3.026  12.168  0.4163 -0.4223 -0.0554
 2515SOL    HW119007   2.648   2.983  12.153 -0.5601  1.6782 -0.6383
 2515SOL    HW219008   2.751   3.057  12.079 -0.9814 -0.0574 -0.2324
 2516SOL     OW19009   0.336   2.886  13.681  0.4137 -0.0249 -0.6346
 2516SOL    HW119010   0.377   2.856  13.600  1.6036  1.8252 -0.7077
 2516SOL    HW219011   0.310   2.808  13.732  0.1081  0.9703  0.7492
 2517SOL     OW19012   3.537   0.083   8.317 -0.3215 -0.4582  0.4332
 2517SOL    HW119013   3.463   0.087   8.377 -0.6681  1.0607 -0.0882
 2517SOL    HW219014   3.540   0.177   8.295  1.1306 -0.3871  0.9529
 2518SOL     OW19015   2.141   2.908   5.236 -0.1994  0.1289 -0.1437
 2518SOL    HW119016   2.153   2.819   5.204  1.2155  0.9228 -1.7888
 2518SOL    HW219017   2.047   2.923   5.229 -0.4860 -1.2322  0.5977
 2519SOL     OW19018   2.519   2.885   7.986  0.3628 -0.4036 -0.5756
 2519SOL    HW119019   2.489   2.860   8.074 -2.8622 -1.6052 -2.0302
 2519SOL    HW219020   2.527   2.980   7.992  0.5663 -0.5090  0.9001
 2520SOL     OW19021   0.151   1.021   9.222  0.2454 -0.1527 -0.1698
 2520SOL    HW119022   0.151   0.966   9.144 -0.4006  0.8909 -0.9019
 2520SOL    HW219023   0.216   0.973   9.274  1.0433 -0.0751 -1.0933
 2521SOL     OW19024   0.885   2.485  15.142  0.3018  0.1182  0.2848
 2521SOL    HW119025   0.810   2.536  15.173  1.7962  1.4114  1.8032
 2521SOL    HW219026   0.846   2.407  15.103  1.7845  0.8861 -2.6789
 2522SOL     OW19027   1.950   0.122   8.765  0.5180 -0.5683  0.5413
 2522SOL    HW119028   1.897   0.151   8.839  0.2837 -0.5479  0.3641
 2522SOL    HW219029   1.909   0.036   8.764 -0.0776 -0.3622  5.6088
 2523SOL     OW19030   3.504   3.922   7.285 -0.9255 -0.5082  0.3421
 2523SOL    HW119031   3.427   3.879   7.248 -1.3814  0.0334  0.6635
 2523SOL    HW219032   3.510   3.911   7.379 -2.3599  1.8813  0.7296
 2524SOL     OW19033   3.990   4.615   2.894 -0.3349 -0.8130 -0.3368
 2524SOL    HW119034   4.009   4.708   2.880 -0.6183 -0.5484  1.0251
 2524SOL    HW219035   4.071   4.568   2.874  1.3864  0.8690  2.6244
 2525SOL     OW19036   1.158   1.638  10.244  0.8956  0.4575  0.1333
 2525SOL    HW119037   1.248   1.661  10.266  0.8755  2.0158 -1.4892
 2525SOL    HW219038   1.118   1.725  10.251 -2.6401 -1.1762  0.2243
 2526SOL     OW19039   3.841   4.253   6.023  0.0010  0.3312  0.4732
 2526SOL    HW119040   3.815   4.270   6.114  0.2966  1.4140  0.3418
 2526SOL    HW219041   3.893   4.331   6.005 -1.6335  0.7791 -2.3191
 2527SOL     OW19042   1.879   1.536   7.471  0.1977  0.3846 -0.1277
 2527SOL    HW119043   1.847   1.613   7.519  1.6605 -0.1640  1.7387
 2527SOL    HW219044   1.817   1.470   7.501 -1.2462  0.7671 -2.2972
 2528SOL     OW19045   0.644   2.720   7.476 -0.0440 -0.3551  0.0601
 2528SOL    HW119046   0.659   2.628   7.496  0.6966  0.1246  1.7626
 2528SOL    HW219047   0.637   2.713   7.381  2.4093 -0.0071 -0.1546
 2529SOL     OW19048   4.197   2.368   7.272 -0.3798 -0.6252 -0.2108
 2529SOL    HW119049   4.111   2.329   7.286 -0.2939  0.9094  4.5875
 2529SOL    HW219050   4.188   2.402   7.183 -0.0750  0.0268  0.0025
 2530SOL     OW19051   2.635   3.344   8.060 -0.3377 -0.1391 -0.6826
 2530SOL    HW119052   2.691   3.349   8.137  1.7463  0.4367 -2.2434
 2530SOL    HW219053   2.547   3.340   8.098  0.2828  0.6346  0.8261
 2531SOL     OW19054   2.317   2.380   6.878  0.0906  0.2205  0.1708
 2531SOL    HW119055   2.246   2.441   6.860 -0.2206 -0.0799  0.3979
 2531SOL    HW219056   2.273   2.310   6.925  0.3501  0.9630  1.5468
 2532SOL     OW19057   1.422   3.934  15.534  0.1783  0.2223 -0.3210
 2532SOL    HW119058   1.366   4.001  15.494  0.4032  1.0214  0.6881
 2532SOL    HW219059   1.367   3.887  15.596 -0.6564  1.7008  0.0719
 2533SOL     OW19060   1.305   0.145  13.471  0.1552 -0.0907 -0.1879
 2533SOL    HW119061   1.392   0.152  13.433 -1.3719  0.3720 -3.5804
 2533SOL    HW219062   1.313   0.210  13.541  0.9834 -1.5437  1.0773
 2534SOL     OW19063   2.380   2.593  16.534  0.1571 -0.1985  0.1768
 2534SOL    HW119064   2.453   2.562  16.480  1.0488  0.4475  1.0080
 2534SOL    HW219065   2.314   2.528  16.513 -0.0941  0.0749  0.1245
 2535SOL     OW19066   2.604   2.454   6.816  0.0999 -0.2196  0.1510
 2535SOL    HW119067   2.585   2.543   6.843  1.5232  0.2660 -0.4191
 2535SOL    HW219068   2.514   2.426   6.801  0.1526  0.1087 -0.7897
 2536SOL     OW19069   4.580   0.981  11.895  0.1174 -0.7715 -0.5089
 2536SOL    HW119070   4.596   0.907  11.836  0.0410  0.4515 -2.0663
 2536SOL    HW219071   4.485   0.989  11.882  0.0838  0.0014  0.2475
 2537SOL     OW19072   0.046   2.544   3.681 -0.2806 -0.9415  0.2073
 2537SOL    HW119073   0.135   2.557   3.714 -0.2494 -0.7010  0.0298
 2537SOL    HW219074   0.053   2.475   3.614  3.1371  0.5053 -0.9548
 2538SOL     OW19075   3.039   0.218  12.409  0.2981  0.2341  0.1333
 2538SOL    HW119076   3.049   0.153  12.479  0.0637  1.3311  1.1826
 2538SOL    HW219077   2.967   0.273  12.439  1.0506  0.8173  0.8397
 2539SOL     OW19078   4.000   3.528   9.796 -0.3569  0.2666 -0.1171
 2539SOL    HW119079   3.957   3.502   9.877  0.2890  0.5604  0.3230
 2539SOL    HW219080   4.045   3.603   9.835  2.8249 -0.3490 -2.5492
 2540SOL     OW19081   4.115   3.817   4.341 -0.6790  0.0281  0.0698
 2540SOL    HW119082   4.115   3.908   4.308 -0.0754  0.6252  1.7321
 2540SOL    HW219083   4.086   3.833   4.430  1.1401  1.5808  0.3830
 2541SOL     OW19084   0.844   2.861  13.225  0.5342 -0.3151 -0.3135
 2541SOL    HW119085   0.760   2.852  13.180 -1.2193 -0.0954  2.9384
 2541SOL    HW219086   0.895   2.783  13.203  0.1513 -1.1349  1.7123
 2542SOL     OW19087   0.061   0.459   7.773 -0.1143  0.4593 -0.1033
 2542SOL    HW119088   0.058   0.435   7.680  0.5498 -1.1207  0.2802
 2542SOL    HW219089   0.066   0.371   7.810 -1.2489 -0.6705 -2.5941
 2543SOL     OW19090   1.060   0.414   8.035  0.3699 -1.0565  0.2230
 2543SOL    HW119091   1.101   0.339   7.992 -0.2348 -1.6272  0.6355
 2543SOL    HW219092   1.073   0.484   7.971 -0.7010  2.2055  3.5954
 2544SOL     OW19093   0.948   0.252   5.984  0.0772 -0.3500  0.2885
 2544SOL    HW119094   0.915   0.277   5.897 -1.6763 -0.9948  0.7622
 2544SOL    HW219095   1.027   0.204   5.961 -0.8831 -2.6434  1.8044
 2545SOL     OW19096   1.647   0.159   6.669  0.2993 -0.0866 -0.2203
 2545SOL    HW119097   1.650   0.069   6.636  0.8396  0.3022 -1.2154
 2545SOL    HW219098   1.741   0.176   6.670  0.2066  0.3127  2.4875
 2546SOL     OW19099   2.015   2.419  15.957  0.2115 -0.1714 -0.0229
 2546SOL    HW119100   2.061   2.471  15.892  0.5795  0.1591  0.5052
 2546SOL    HW219101   2.051   2.338  15.922  1.0628 -0.7416  2.1473
 2547SOL     OW19102   3.404   2.399  10.119 -0.1624  0.0690  0.2539
 2547SOL    HW119103   3.381   2.367  10.032 -2.5859 -0.0181  0.9385
 2547SOL    HW219104   3.353   2.338  10.172 -0.6658  0.1646 -0.1258
 2548SOL     OW19105   3.674   1.301   8.096 -0.3108  0.1283  0.1651
 2548SOL    HW119106   3.704   1.223   8.050 -3.0616 -0.4342 -0.6800
 2548SOL    HW219107   3.721   1.372   8.053 -1.6215 -0.6886 -2.6040
 2549SOL     OW19108   0.648   3.837   3.022 -0.2698  0.0667  0.0725
 2549SOL    HW119109   0.641   3.815   2.929  1.1874  1.3640 -0.3580
 2549SOL    HW219110   0.612   3.754   3.052 -1.2203 -0.2375 -1.8714
 2550SOL     OW19111   2.489   0.248   7.594  0.6607  0.5268  0.3489
 2550SOL    HW119112   2.511   0.205   7.676  0.5119 -2.6087 -1.2333
 2550SOL    HW219113   2.411   0.296   7.622  0.5689  0.6131 -0.0528
 2551SOL     OW19114   3.883   1.712   6.851  0.5083 -0.1955  0.2847
 2551SOL    HW119115   3.848   1.797   6.823  2.3719  0.1185 -1.0803
 2551SOL    HW219116   3.876   1.732   6.944 -0.3717  1.6805 -0.1729
 2552SOL     OW19117   0.447   4.003   3.851 -0.5952  0.1839 -0.3818
 2552SOL    HW119118   0.480   3.984   3.763  1.2852  2.0628 -0.0786
 2552SOL    HW219119   0.364   4.049   3.838 -1.3691 -1.0185  0.3538
 2553SOL     OW19120   3.955   1.189   6.225 -0.3958 -0.1276  0.3581
 2553SOL    HW119121   3.980   1.253   6.292 -1.2183  1.1182 -0.5399
 2553SOL    HW219122   3.895   1.234   6.166 -0.8263 -1.9363 -0.5917
 2554SOL     OW19123   3.464   2.779   5.401 -0.0879  0.0261  0.0443
 2554SOL    HW119124   3.487   2.812   5.314 -1.1006 -1.9548 -0.9690
 2554SOL    HW219125   3.421   2.697   5.376 -1.1222  0.6023 -0.0093
 2555SOL     OW19126   4.072   2.482   9.966 -0.3258  0.9791 -0.0891
 2555SOL    HW119127   4.095   2.399   9.923 -4.0455 -0.8559  1.4533
 2555SOL    HW219128   3.994   2.447  10.009  0.3486  3.0690  2.8772
 2556SOL     OW19129   0.189   0.193   9.588  0.1926  0.0678  0.1679
 2556SOL    HW119130   0.283   0.185   9.571 -0.7342 -3.2041 -3.5517
 2556SOL    HW219131   0.189   0.288   9.576  0.0575  0.3125  2.1863
 2557SOL     OW19132   2.232   1.019   5.784 -0.1522  0.3174  0.1056
 2557SOL    HW119133   2.189   1.101   5.759  0.7124  0.5691 -0.5682
 2557SOL    HW219134   2.289   1.004   5.708 -1.0559  1.4881 -0.8093
 2558SOL     OW19135   0.052   1.135   2.969 -0.5894 -0.7977  0.5144
 2558SOL    HW119136   0.065   1.216   2.920  1.9851 -1.6952 -0.2779
 2558SOL    HW219137   0.110   1.138   3.045 -1.3410 -0.0728  1.0486
 2559SOL     OW19138   2.713   0.745   6.007  0.7917  0.1789 -0.2041
 2559SOL    HW119139   2.658   0.777   5.936 -2.2674  0.6486  2.3773
 2559SOL    HW219140   2.688   0.653   5.992  0.7594  0.2195 -0.3957
 2560SOL     OW19141   2.893   2.853  16.358  0.0845 -0.5275  0.4703
 2560SOL    HW119142   2.902   2.833  16.452  1.6235 -0.4721  0.3398
 2560SOL    HW219143   2.969   2.810  16.319  1.1727  2.0206 -0.1746
 2561SOL     OW19144   0.978   2.118  10.715 -0.1777 -0.3643  0.1394
 2561SOL    HW119145   1.061   2.092  10.676 -0.1166 -0.5134  0.3659
 2561SOL    HW219146   0.937   2.031  10.712 -0.2745 -0.3584  1.5003
 2562SOL     OW19147   4.087   4.490   3.269 -0.6802  0.5222 -0.8872
 2562SOL    HW119148   4.038   4.499   3.187 -0.6000 -1.2925 -1.1385
 2562SOL    HW219149   4.088   4.395   3.282 -0.1867  0.5641 -0.6438
 2563SOL     OW19150   1.233   1.752   6.815 -0.0452 -0.3307  0.3456
 2563SOL    HW119151   1.273   1.667   6.835 -1.3021 -1.2985 -1.2378
 2563SOL    HW219152   1.150   1.743   6.860 -0.0664  0.2849  0.4320
 2564SOL     OW19153   4.312   0.028   7.799  0.1788  1.0457  0.3594
 2564SOL    HW119154   4.379   0.001   7.737  0.7179  1.4493  0.7746
 2564SOL    HW219155   4.242   0.059   7.741 -0.1154 -0.4794 -0.1110
 2565SOL     OW19156   3.817   4.173   7.770 -0.3813  0.0282  0.4695
 2565SOL    HW119157   3.791   4.168   7.862 -0.7582 -0.8864  0.3135
 2565SOL    HW219158   3.730   4.160   7.731  0.1270 -0.0048 -0.6643
 2566SOL     OW19159   4.114   2.635   6.549 -0.1509 -0.2547  0.4634
 2566SOL    HW119160   4.113   2.548   6.507 -1.8780 -0.3658  0.7387
 2566SOL    HW219161   4.022   2.647   6.568 -0.2547  0.1115 -0.2708
 2567SOL     OW19162   4.531   0.286   9.139  0.2831 -0.4397 -0.4156
 2567SOL    HW119163   4.617   0.325   9.154 -1.3332  2.3622  1.6085
 2567SOL    HW219164   4.475   0.363   9.137 -0.9242 -1.3352 -1.5520
 2568SOL     OW19165   4.058   2.948   5.216  0.0389  0.0036 -0.2155
 2568SOL    HW119166   3.997   2.954   5.290  0.9082  2.5807  0.3011
 2568SOL    HW219167   4.091   3.038   5.218 -1.9976  0.7586 -0.2127
 2569SOL     OW19168   1.419   1.412   1.299  1.0120 -0.5257 -0.1680
 2569SOL    HW119169   1.408   1.363   1.380  0.3356 -1.2729 -0.7156
 2569SOL    HW219170   1.385   1.346   1.239 -1.6136 -1.1293  1.9973
 2570SOL     OW19171   1.183   2.502   7.550  0.1997 -0.2451  0.1651
 2570SOL    HW119172   1.134   2.503   7.469 -0.9055  1.5760  0.8530
 2570SOL    HW219173   1.154   2.584   7.590 -0.6419 -1.0019  1.0989
 2571SOL     OW19174   0.358   1.767  15.768  0.7670  0.0934  0.0901
 2571SOL    HW119175   0.439   1.778  15.818  0.6575 -0.8090  0.4553
 2571SOL    HW219176   0.323   1.855  15.783  1.8588  0.7855 -1.3655
 2572SOL     OW19177   2.853   4.623   6.286  0.6387 -0.3452 -0.5827
 2572SOL    HW119178   2.901   4.690   6.238 -0.5746  1.0774  0.2167
 2572SOL    HW219179   2.849   4.558   6.216  1.5877 -0.5461 -0.4493
 2573SOL     OW19180   3.348   4.687  10.117 -0.5406 -0.6858 -0.6649
 2573SOL    HW119181   3.326   0.032  10.055  2.2742 -0.5981 -1.5291
 2573SOL    HW219182   3.410   0.018  10.163 -1.3649 -1.9936  2.0474
 2574SOL     OW19183   0.682   4.619   0.024 -0.1794  0.0239 -0.6917
 2574SOL    HW119184   0.612   4.555   0.010  1.7497 -2.1373 -0.3015
 2574SOL    HW219185   0.756   4.570  17.692  0.2239  0.1046  0.0715
 2575SOL     OW19186   4.298   4.466   3.933  0.4191 -0.4032  0.1481
 2575SOL    HW119187   4.264   4.550   3.961 -1.3472 -0.9574 -0.3143
 2575SOL    HW219188   4.286   4.482   3.839  2.7498  1.2330  0.1449
 2576SOL     OW19189   1.669   2.684   0.739  0.1741 -0.2840  0.4363
 2576SOL    HW119190   1.695   2.742   0.811  1.3022  1.3685 -1.3116
 2576SOL    HW219191   1.592   2.731   0.707  1.4595  1.5113 -0.0228
 2577SOL     OW19192   4.533   1.916  10.213  0.7529  0.1593  0.6364
 2577SOL    HW119193   4.614   1.866  10.208  2.0178  2.2567 -0.1153
 2577SOL    HW219194   4.465   1.855  10.184  0.7262  0.0253  0.9795
 2578SOL     OW19195   1.012   4.673   0.438 -0.3689  0.1860  0.2638
 2578SOL    HW119196   1.063   0.028   0.433 -0.8885  0.4729 -0.5284
 2578SOL    HW219197   0.967   4.664   0.353 -0.2905  1.4515  0.0975
 2579SOL     OW19198   1.789   2.487  14.201  0.2827  0.2350  0.5175
 2579SOL    HW119199   1.789   2.568  14.253  1.4306  1.2156 -1.0393
 2579SOL    HW219200   1.694   2.473  14.194  0.4751 -0.3638 -0.8020
 2580SOL     OW19201   0.473   2.256   7.682 -0.8440  0.1439 -0.2242
 2580SOL    HW119202   0.400   2.242   7.742 -0.1684  0.2486  0.6220
 2580SOL    HW219203   0.428   2.239   7.599 -0.3661 -2.0217 -0.0511
 2581SOL     OW19204   0.317   3.672   6.553 -0.7364 -0.0411  0.1452
 2581SOL    HW119205   0.221   3.677   6.550 -0.7205  0.6363  0.6304
 2581SOL    HW219206   0.331   3.579   6.573  0.6125 -0.2155 -1.5988
 2582SOL     OW19207   4.317   3.433   2.806 -0.1396 -0.5113  0.3568
 2582SOL    HW119208   4.375   3.463   2.875 -0.0843  1.4367 -0.5404
 2582SOL    HW219209   4.382   3.441   2.736 -0.3717  0.1094  0.2062
 2583SOL     OW19210   4.091   2.683   5.775 -0.5137  0.0115 -0.2529
 2583SOL    HW119211   4.110   2.676   5.682 -0.2000  1.7702 -0.3295
 2583SOL    HW219212   4.036   2.761   5.775 -0.5544 -0.0207 -0.7451
 2584SOL     OW19213   0.986   1.449  10.341 -0.2486 -0.4718  0.1800
 2584SOL    HW119214   0.898   1.487  10.336  0.2153  0.6274  0.2559
 2584SOL    HW219215   1.046   1.514  10.304  0.7676 -0.4442  1.8848
 2585SOL     OW19216   0.279   2.593  14.438 -0.1618  0.7219  0.3611
 2585SOL    HW119217   0.295   2.586  14.532  0.8745 -1.0126  0.0524
 2585SOL    HW219218   0.291   2.686  14.419  1.0571  0.6127  0.5886
 2586SOL     OW19219   4.616   4.283   7.411 -0.5518 -0.3977  0.0448
 2586SOL    HW119220   4.546   4.251   7.468 -0.3381 -1.1918 -0.1413
 2586SOL    HW219221   4.670   4.204   7.414 -0.4978 -0.2843  2.1255
 2587SOL     OW19222   3.440   4.267  12.402 -0.0559  0.5540 -0.4104
 2587SOL    HW119223   3.482   4.279  12.487 -0.8862 -1.9053  0.3520
 2587SOL    HW219224   3.495   4.315  12.340 -1.0956  2.0524 -0.1618
 2588SOL     OW19225   3.997   1.122   2.117  0.0319 -0.3379 -0.2326
 2588SOL    HW119226   3.989   1.196   2.177 -1.2122  0.0824 -0.9273
 2588SOL    HW219227   3.905   1.110   2.093 -0.4110 -1.4966  2.0614
 2589SOL     OW19228   3.343   1.997   5.081  0.2819  0.3360  0.3014
 2589SOL    HW119229   3.426   2.002   5.034  0.5251  0.3297  0.7276
 2589SOL    HW219230   3.357   2.066   5.147 -0.3802 -0.6584  1.4818
 2590SOL     OW19231   0.620   3.558   7.330 -0.1488 -0.7582  0.1725
 2590SOL    HW119232   0.575   3.536   7.248  0.0683  1.4296 -0.5252
 2590SOL    HW219233   0.580   3.643   7.349 -1.3816 -0.8645 -1.8905
 2591SOL     OW19234   1.535   2.986   1.316 -0.5159 -0.5324  0.1496
 2591SOL    HW119235   1.556   3.060   1.373 -0.5933 -1.4825  1.3919
 2591SOL    HW219236   1.527   3.030   1.231  1.1699  1.4871  1.0181
 2592SOL     OW19237   3.403   2.241   3.104  0.9109 -0.0471  0.8135
 2592SOL    HW119238   3.401   2.151   3.071 -1.3568  0.5526 -0.6185
 2592SOL    HW219239   3.412   2.226   3.198  2.3107 -0.3732  0.6382
 2593SOL     OW19240   0.042   0.092   5.701  0.6014 -0.0973  0.7068
 2593SOL    HW119241   0.110   0.127   5.759  0.9152  0.4560  0.0064
 2593SOL    HW219242   0.015   0.180   5.674 -0.0182  0.3676  2.8106
 2594SOL     OW19243   3.748   0.994   2.071 -0.4342  0.0965 -0.0293
 2594SOL    HW119244   3.721   0.917   2.021  1.9338 -0.6824 -0.1355
 2594SOL    HW219245   3.696   1.057   2.022 -2.3394 -1.9535 -0.6757
 2595SOL     OW19246   0.319   0.675  14.786  0.1264 -0.4951 -0.1283
 2595SOL    HW119247   0.267   0.684  14.706 -1.6762 -2.7588  0.7956
 2595SOL    HW219248   0.406   0.710  14.768  0.3804 -0.5732  0.9324
 2596SOL     OW19249   1.692   2.589   0.997 -0.2108 -0.0242  0.4845
 2596SOL    HW119250   1.656   2.610   0.911  0.0693  2.3839  0.9556
 2596SOL    HW219251   1.696   2.675   1.040  1.0341  0.4354 -0.5639
 2597SOL     OW19252   2.661   3.508   4.904  0.1443  0.5126 -0.1791
 2597SOL    HW119253   2.716   3.584   4.924 -2.5217  2.1233  0.9937
 2597SOL    HW219254   2.724   3.437   4.889 -0.6283 -0.0510 -0.7602
 2598SOL     OW19255   3.333   2.645   3.625  0.1912  0.0896  0.1517
 2598SOL    HW119256   3.295   2.659   3.538 -2.8547 -2.5049  1.0655
 2598SOL    HW219257   3.387   2.566   3.619 -1.0545 -0.4887 -3.5102
 2599SOL     OW19258   2.778   1.376   5.251 -0.7851 -0.2965  0.1663
 2599SOL    HW119259   2.736   1.422   5.324  0.2597  1.5699 -0.4048
 2599SOL    HW219260   2.845   1.437   5.220 -0.7900 -0.0777  0.5964
 2600SOL     OW19261   1.410   4.200   1.616  0.3426 -0.7955 -0.2750
 2600SOL    HW119262   1.504   4.217   1.623 -0.0470  1.4912 -0.8698
 2600SOL    HW219263   1.419   4.145   1.538  0.7160 -2.3403  0.8352
 2601SOL     OW19264   3.789   4.596  15.528 -0.0809  0.2258 -0.1705
 2601SOL    HW119265   3.775   4.598  15.433 -0.8963  1.2055 -0.0253
 2601SOL    HW219266   3.722   4.532  15.553  0.4935 -0.2996  0.0074
 2602SOL     OW19267   1.628   0.701   0.182  0.0628  0.2996 -0.0444
 2602SOL    HW119268   1.617   0.760   0.107 -1.1844  0.7052  0.4695
 2602SOL    HW219269   1.564   0.738   0.243  1.3671  1.3655  0.6821
 2603SOL     OW19270   3.789   2.851   7.567 -0.2698  0.2193 -0.0349
 2603SOL    HW119271   3.700   2.846   7.532  0.0690 -2.8877 -0.4695
 2603SOL    HW219272   3.770   2.906   7.643 -1.4553  1.6078 -1.3339
 2604SOL     OW19273   3.005   3.460  13.394 -0.0319 -0.1677 -0.6536
 2604SOL    HW119274   3.092   3.433  13.367  0.3151  1.3297 -1.0164
 2604SOL    HW219275   3.020   3.530  13.457 -0.6874 -0.9790  0.4246
 2605SOL     OW19276   4.229   1.997   5.110 -0.1240  0.2718 -0.6437
 2605SOL    HW119277   4.152   1.986   5.054  0.0271 -0.3427 -0.7323
 2605SOL    HW219278   4.301   1.978   5.049 -1.9149 -0.8339 -2.3856
 2606SOL     OW19279   4.246   4.280   0.020 -0.1450  0.1789  0.4448
 2606SOL    HW119280   4.203   4.199   0.047  2.6120 -2.2776 -2.4837
 2606SOL    HW219281   4.197   4.344   0.072 -1.5273  0.4824 -1.1998
 2607SOL     OW19282   2.118   0.706  17.367  0.6528 -0.2183 -0.1857
 2607SOL    HW119283   2.058   0.772  17.332  0.5184  1.6688  3.5403
 2607SOL    HW219284   2.049   0.654  17.408 -0.2887 -0.4639 -2.0862
 2608SOL     OW19285   1.979   1.156   3.130 -0.2707  0.3679  0.4015
 2608SOL    HW119286   1.953   1.167   3.221  2.2513  2.1453  0.9180
 2608SOL    HW219287   2.061   1.203   3.116  0.0067 -0.0179  0.7163
 2609SOL     OW19288   4.279   1.359   7.014  0.0181  0.1294  0.0150
 2609SOL    HW119289   4.248   1.277   7.051  0.8605  0.0801  0.6136
 2609SOL    HW219290   4.269   1.425   7.083  0.5362  1.4493 -1.1630
 2610SOL     OW19291   0.114   3.763   8.031 -0.1889 -0.0193  0.6272
 2610SOL    HW119292   0.125   3.750   8.126 -0.5943 -1.3855  0.4837
 2610SOL    HW219293   0.190   3.716   7.998 -1.0676 -0.8719 -0.1621
 2611SOL     OW19294   0.766   2.331   4.226  0.3306  0.0805  0.1540
 2611SOL    HW119295   0.808   2.320   4.141 -0.2873 -1.4471  0.0505
 2611SOL    HW219296   0.713   2.405   4.197  0.5787  1.3043  2.8375
 2612SOL     OW19297   3.952   3.483   7.360 -0.7616 -0.1256  0.1382
 2612SOL    HW119298   3.865   3.466   7.396 -1.7595  0.2329 -2.0948
 2612SOL    HW219299   4.003   3.408   7.389 -0.6009  0.3404  1.0482
 2613SOL     OW19300   1.943   2.018   8.005  0.3838 -0.4996 -0.2503
 2613SOL    HW119301   2.010   1.963   7.964  1.4759  0.6781 -0.0388
 2613SOL    HW219302   1.984   2.095   8.044 -0.1355 -0.7694  0.8367
 2614SOL     OW19303   2.466   2.096   5.577  0.2588 -0.2419  0.1866
 2614SOL    HW119304   2.482   2.071   5.668 -0.7082  0.3794  0.5212
 2614SOL    HW219305   2.558   2.108   5.555  0.0714  0.3560 -0.2660
 2615SOL     OW19306   0.234   2.626   6.671  0.3172 -0.3715 -0.5190
 2615SOL    HW119307   0.212   2.534   6.654 -1.9214  0.3422 -1.3623
 2615SOL    HW219308   0.317   2.633   6.624  1.4750 -0.9196  1.4433
 2616SOL     OW19309   1.811   3.052   7.809 -0.0565 -0.4025 -0.4594
 2616SOL    HW119310   1.764   3.123   7.851  0.5635  0.3707 -1.0693
 2616SOL    HW219311   1.901   3.068   7.838 -0.6865  2.0286  0.1020
 2617SOL     OW19312   0.851   2.378   7.886  0.4315  0.3770 -0.1167
 2617SOL    HW119313   0.880   2.305   7.832 -0.3029  1.2898 -1.7346
 2617SOL    HW219314   0.802   2.336   7.957 -0.2336 -0.4352 -1.0596
 2618SOL     OW19315   1.588   2.182   8.003 -0.1558  0.3245  0.5006
 2618SOL    HW119316   1.601   2.117   8.072  0.9360 -0.8612 -0.8317
 2618SOL    HW219317   1.531   2.245   8.047  1.2163  0.8817  1.4914
 2619SOL     OW19318   0.512   1.169   3.431 -0.5858  0.4177  0.5575
 2619SOL    HW119319   0.581   1.105   3.446 -0.1768  0.8657  0.6152
 2619SOL    HW219320   0.548   1.223   3.360  1.6439 -2.3617 -0.4354
 2620SOL     OW19321   1.604   4.073  17.572  0.1417  0.0168 -0.9545
 2620SOL    HW119322   1.526   4.122  17.546 -0.5807 -0.5731  0.1070
 2620SOL    HW219323   1.591   4.009  17.502 -0.3286 -1.6146  0.6134
 2621SOL     OW19324   3.691   0.338   6.696 -0.2913  0.1996  0.3312
 2621SOL    HW119325   3.712   0.325   6.788  1.7533  0.8463 -0.0407
 2621SOL    HW219326   3.729   0.426   6.690  1.1115 -0.4371 -0.2737
 2622SOL     OW19327   0.328   2.568  14.149  0.3466 -0.2692 -0.1976
 2622SOL    HW119328   0.381   2.641  14.114 -2.0461  0.7878 -1.6649
 2622SOL    HW219329   0.343   2.587  14.241 -0.7723 -1.6097  0.2671
 2623SOL     OW19330   1.872   3.922   3.776 -0.3599  0.2008  0.1634
 2623SOL    HW119331   1.914   3.993   3.726 -0.0900 -0.4284 -0.5134
 2623SOL    HW219332   1.811   3.974   3.828 -0.9198 -0.8008  0.5030
 2624SOL     OW19333   0.070   1.029   9.689 -0.4285 -0.4607 -0.0095
 2624SOL    HW119334   0.037   1.047   9.601 -2.0944 -1.6172  0.3712
 2624SOL    HW219335   0.000   1.075   9.737 -0.9758 -0.2458 -1.0152
 2625SOL     OW19336   2.294   1.063   4.429  0.0833  0.4881  0.5505
 2625SOL    HW119337   2.265   1.153   4.415 -0.2822  0.7142  2.9131
 2625SOL    HW219338   2.260   1.051   4.517 -4.6861  1.4919 -1.1864
 2626SOL     OW19339   1.220   3.167   9.895 -0.5881 -0.4475 -0.1814
 2626SOL    HW119340   1.136   3.148   9.853  0.4595  0.6980 -2.8286
 2626SOL    HW219341   1.188   3.250   9.930  1.2643  0.3682 -0.4060
 2627SOL     OW19342   3.513   4.028   9.713  0.1469 -0.5837 -0.2538
 2627SOL    HW119343   3.574   4.005   9.783  0.6553 -0.9629 -0.8166
 2627SOL    HW219344   3.558   4.109   9.689 -0.7139 -0.3195 -1.0068
 2628SOL     OW19345   4.268   4.211  11.766  0.8114 -0.0013 -0.0393
 2628SOL    HW119346   4.328   4.140  11.789  2.0239  1.5756  1.6135
 2628SOL    HW219347   4.233   4.191  11.679  0.1921 -0.0148  0.2055
 2629SOL     OW19348   4.414   0.127   5.953 -0.1417 -0.1071 -0.6076
 2629SOL    HW119349   4.452   0.215   5.957 -1.5824  0.4532  0.7017
 2629SOL    HW219350   4.414   0.108   6.047  1.7824  1.6703 -0.2426
 2630SOL     OW19351   3.821   0.620  11.742 -0.5145  0.1413  0.4341
 2630SOL    HW119352   3.826   0.593  11.834  3.4417 -0.6184 -0.0013
 2630SOL    HW219353   3.730   0.603  11.719 -0.6385  1.1049  0.2221
 2631SOL     OW19354   0.724   4.122   5.929 -0.3648  0.1235 -0.2301
 2631SOL    HW119355   0.630   4.103   5.934 -0.9134  2.4262 -1.6996
 2631SOL    HW219356   0.754   4.074   6.006 -0.7869  0.6276  0.2497
 2632SOL     OW19357   1.951   1.581  10.377 -0.4619 -0.8117  0.0572
 2632SOL    HW119358   1.960   1.498  10.423 -3.5577  0.4181  2.9448
 2632SOL    HW219359   1.938   1.559  10.285  0.5738  1.3298 -0.6045
 2633SOL     OW19360   1.624   0.128   8.202 -0.5309  0.2051 -0.0304
 2633SOL    HW119361   1.554   0.084   8.249  1.0667 -1.7010  0.5509
 2633SOL    HW219362   1.586   0.215   8.192 -1.6902 -0.3990 -0.8131
 2634SOL     OW19363   2.084   4.667   6.418 -0.3105  0.5184  0.4020
 2634SOL    HW119364   2.149   4.715   6.367 -0.8239 -0.7836 -1.5129
 2634SOL    HW219365   2.137   4.592   6.445  1.0779  1.1022 -0.7119
 2635SOL     OW19366   3.182   0.116   3.420 -0.2223 -0.3447 -0.5989
 2635SOL    HW119367   3.171   0.209   3.402 -2.1232 -0.3406  0.5544
 2635SOL    HW219368   3.213   0.126   3.510 -1.5856  0.2016 -0.1924
 2636SOL     OW19369   2.121   2.832   6.904 -0.2695 -0.0249  0.5592
 2636SOL    HW119370   2.064   2.852   6.978 -0.4526  0.1696  0.3646
 2636SOL    HW219371   2.205   2.857   6.944  0.5132  0.0927 -1.1606
 2637SOL     OW19372   1.421   3.533   3.963  0.0809  0.3552  0.2187
 2637SOL    HW119373   1.392   3.592   3.893  1.7115  0.6343 -0.2218
 2637SOL    HW219374   1.488   3.476   3.926 -0.9667 -0.8741  0.2188
 2638SOL     OW19375   2.663   4.610   7.510  0.3837 -1.0729  0.2897
 2638SOL    HW119376   2.698   4.659   7.584 -0.1810 -1.3750  0.7558
 2638SOL    HW219377   2.740   4.623   7.454  0.4887 -0.5795  0.5466
 2639SOL     OW19378   0.671   0.960   3.930 -0.2214 -0.3807 -0.3838
 2639SOL    HW119379   0.595   1.008   3.896 -0.0348  0.0472 -0.2053
 2639SOL    HW219380   0.735   0.986   3.864  0.0267 -0.5018 -0.1930
 2640SOL     OW19381   4.673   4.256   6.693 -0.2366  0.1584  0.1141
 2640SOL    HW119382   0.024   4.206   6.662  0.0895  0.5914  0.2288
 2640SOL    HW219383   4.633   4.271   6.607 -1.0937 -1.3164  0.2509
 2641SOL     OW19384   4.629   4.548  13.856  0.3590  0.0352 -0.1352
 2641SOL    HW119385   4.545   4.506  13.837 -0.4343  1.5884 -0.0608
 2641SOL    HW219386   4.660   4.567  13.767 -1.9099  0.0695 -0.9329
 2642SOL     OW19387   2.685   2.997   4.241 -0.0413  0.2157  0.2681
 2642SOL    HW119388   2.669   3.084   4.204 -3.4292 -0.8339 -0.7253
 2642SOL    HW219389   2.657   2.936   4.173  0.2480 -1.4895  1.6691
 2643SOL     OW19390   1.243   1.324   6.023  0.1483  0.3738 -0.1411
 2643SOL    HW119391   1.259   1.309   6.116 -1.8395 -0.9469 -0.0073
 2643SOL    HW219392   1.324   1.372   6.008 -0.6553  1.0479 -2.3185
 2644SOL     OW19393   4.348   4.560   3.137  0.1074  0.0370  0.1858
 2644SOL    HW119394   4.281   4.555   3.205  0.0958 -0.0444  0.1690
 2644SOL    HW219395   4.410   4.502   3.180  0.1864 -0.2127 -0.2661
 2645SOL     OW19396   0.820   3.759  12.888  0.0303  0.3851 -0.4768
 2645SOL    HW119397   0.738   3.711  12.879  1.9691 -3.1433  0.4623
 2645SOL    HW219398   0.877   3.684  12.907 -0.2258  0.3799  0.2864
 2646SOL     OW19399   3.481   4.552   2.678  0.0134 -0.2018  0.0108
 2646SOL    HW119400   3.400   4.522   2.635 -0.6630  1.1595  0.3480
 2646SOL    HW219401   3.511   4.476   2.727 -1.0748 -0.7062 -0.1038
 2647SOL     OW19402   3.199   2.882   2.444  0.3289  0.1479  0.3956
 2647SOL    HW119403   3.141   2.938   2.394  1.3440 -0.1542 -1.1056
 2647SOL    HW219404   3.132   2.824   2.482  0.9404 -0.1905  0.9637
 2648SOL     OW19405   2.197   1.175   1.627 -0.5746  0.4037 -0.6988
 2648SOL    HW119406   2.217   1.216   1.711 -1.1385  1.0816 -0.8948
 2648SOL    HW219407   2.278   1.195   1.581  0.1627  2.0758  1.2973
 2649SOL     OW19408   2.368   0.491   0.508  0.9984  0.1530  0.4038
 2649SOL    HW119409   2.334   0.570   0.467  3.5715  1.6384  1.1802
 2649SOL    HW219410   2.451   0.514   0.551  1.1735 -0.5462  0.4473
 2650SOL     OW19411   0.128   2.085   4.491  0.0432  0.1961  0.7084
 2650SOL    HW119412   0.076   2.095   4.571  1.0150  1.7709  1.1468
 2650SOL    HW219413   0.134   2.173   4.454 -0.7394  0.3012  0.8454
 2651SOL     OW19414   1.178   1.345   9.581  0.4903  0.5266  0.2377
 2651SOL    HW119415   1.095   1.306   9.553  0.3145  0.0161  1.4813
 2651SOL    HW219416   1.156   1.436   9.601 -1.8973 -0.5393  2.5142
 2652SOL     OW19417   0.802   1.159   3.126 -0.0507 -0.1111  0.2858
 2652SOL    HW119418   0.824   1.173   3.218 -0.8803 -0.3443  0.5199
 2652SOL    HW219419   0.884   1.180   3.081 -0.5748  0.2658 -0.4967
 2653SOL     OW19420   2.549   2.245   0.997 -0.2593  0.1451  0.4869
 2653SOL    HW119421   2.604   2.179   0.957  0.7090  0.6088  1.0641
 2653SOL    HW219422   2.468   2.214   0.957  0.8202 -0.4534 -1.2304
 2654SOL     OW19423   3.898   2.153  10.861  0.2051 -0.1233  0.3117
 2654SOL    HW119424   3.830   2.214  10.891 -0.0884 -0.6601  0.7371
 2654SOL    HW219425   3.916   2.185  10.772 -0.5934 -0.1109  0.1458
 2655SOL     OW19426   3.667   4.654   8.541  0.5338  0.2120 -0.2942
 2655SOL    HW119427   3.607   4.714   8.497 -0.1955 -0.8022 -0.6593
 2655SOL    HW219428   3.670   4.709   8.619 -2.9581  0.2791 -0.2310
 2656SOL     OW19429   1.521   1.267   6.572 -0.2732  0.1548 -0.5672
 2656SOL    HW119430   1.606   1.225   6.556  1.2630  3.1817 -0.3621
 2656SOL    HW219431   1.521   1.333   6.502 -1.2044 -1.5321 -2.1375
 2657SOL     OW19432   0.762   1.805   8.552  0.4533  0.1803  0.6079
 2657SOL    HW119433   0.757   1.713   8.577  1.7940  0.1831  0.9369
 2657SOL    HW219434   0.755   1.852   8.635 -1.8973  0.7621  0.0764
 2658SOL     OW19435   3.533   2.202  16.042  0.1334  0.1273 -0.6057
 2658SOL    HW119436   3.624   2.180  16.063 -0.4367 -1.2937  0.3380
 2658SOL    HW219437   3.546   2.294  16.019 -1.3092  0.5935  0.4308
 2659SOL     OW19438   3.296   1.610   5.498 -0.2398  0.1497  0.8208
 2659SOL    HW119439   3.233   1.538   5.493  1.2949 -1.0842 -0.9619
 2659SOL    HW219440   3.253   1.689   5.529 -0.7490  0.4865 -0.7275
 2660SOL     OW19441   1.720   3.238   6.807  0.2697  0.0344 -0.6086
 2660SOL    HW119442   1.789   3.270   6.749 -1.2928  0.0088 -2.4606
 2660SOL    HW219443   1.706   3.149   6.775 -0.2498 -0.4881  1.0687
 2661SOL     OW19444   3.537   1.957   4.159 -0.2859  0.1945 -0.0804
 2661SOL    HW119445   3.597   1.974   4.231  0.5802  3.3333 -1.5383
 2661SOL    HW219446   3.459   1.945   4.213 -0.1599  1.2153  0.3238
 2662SOL     OW19447   0.106   4.537  10.116 -0.4780  0.2352 -0.0106
 2662SOL    HW119448   0.081   4.445  10.116 -0.7610  0.2967 -3.0933
 2662SOL    HW219449   0.161   4.532  10.037  0.2301 -0.8051  0.5593
 2663SOL     OW19450   3.112   1.724   7.679  0.4899  0.0925 -0.2269
 2663SOL    HW119451   3.196   1.768   7.675 -1.1022  3.2817  1.3531
 2663SOL    HW219452   3.135   1.631   7.681 -0.7878 -0.2237 -0.1367
 2664SOL     OW19453   4.650   0.512   3.042 -0.3664  0.1556  0.1805
 2664SOL    HW119454   4.655   0.419   3.062  0.4502 -0.7029 -3.9070
 2664SOL    HW219455   4.583   0.519   2.974 -1.0865  1.4878  1.0397
 2665SOL     OW19456   4.625   0.419   3.457  0.1058  0.4139 -0.3870
 2665SOL    HW119457   4.610   0.456   3.370  2.9909  1.0758 -0.5973
 2665SOL    HW219458   4.632   0.328   3.430 -4.5716  0.0407 -0.3015
 2666SOL     OW19459   2.514   3.904   4.007  0.2102  0.3335 -0.3058
 2666SOL    HW119460   2.489   3.987   3.968 -0.2786  1.0087  1.4461
 2666SOL    HW219461   2.561   3.860   3.936  0.9857 -0.8722  0.9365
 2667SOL     OW19462   4.276   0.288   2.523 -0.0091 -0.0386  0.4421
 2667SOL    HW119463   4.264   0.342   2.444  2.5720 -1.1621 -0.7150
 2667SOL    HW219464   4.210   0.224   2.498 -0.1436  0.1617  0.2902
 2668SOL     OW19465   1.817   0.024   1.390  0.1694 -0.2193 -0.2179
 2668SOL    HW119466   1.898   4.703   1.411 -0.9741 -2.0138  0.2505
 2668SOL    HW219467   1.846   0.101   1.341  0.8400 -0.0490  0.4481
 2669SOL     OW19468   3.419   1.151   5.025 -0.3700 -0.1370  0.2468
 2669SOL    HW119469   3.506   1.188   5.041 -0.6612  0.8281 -0.4412
 2669SOL    HW219470   3.403   1.139   4.931  2.9345  1.6796 -0.5309
 2670SOL     OW19471   2.593   4.063   2.015 -0.5236 -0.7135  0.7646
 2670SOL    HW119472   2.606   4.015   1.933  1.2722  0.2090  0.5068
 2670SOL    HW219473   2.669   4.040   2.068  0.1982  2.3783  1.0338
 2671SOL     OW19474   2.940   1.297  14.327  0.2709  0.0104 -0.6936
 2671SOL    HW119475   2.913   1.280  14.418  1.2199  2.3668  0.0357
 2671SOL    HW219476   2.866   1.252  14.287  0.5407 -1.3290  0.3101
 2672SOL     OW19477   0.088   4.061   8.192 -0.0171  0.1447 -0.0881
 2672SOL    HW119478   0.022   4.054   8.261 -0.8602 -0.6233 -0.9776
 2672SOL    HW219479   0.085   3.976   8.150  0.4253  0.2396 -0.3125
 2673SOL     OW19480   2.951   0.025   0.175 -0.6225 -0.0693  0.2313
 2673SOL    HW119481   2.977   4.663   0.145  0.9879  0.2069  0.8276
 2673SOL    HW219482   2.931   0.072   0.094  0.5435  0.6018  0.3327
 2674SOL     OW19483   1.226   1.962   7.606 -0.4904 -0.1652  0.2898
 2674SOL    HW119484   1.265   2.020   7.672 -0.9778 -1.5031  1.7596
 2674SOL    HW219485   1.249   1.876   7.640 -1.7270 -0.4219  0.4485
 2675SOL     OW19486   4.428   1.284   4.720  0.1133 -0.3303  0.0554
 2675SOL    HW119487   4.372   1.247   4.790  0.2918  2.0212  1.4310
 2675SOL    HW219488   4.512   1.254   4.754  0.1542 -1.2486 -0.8469
 2676SOL     OW19489   1.378   0.559   6.892  0.2951  0.3867  0.0659
 2676SOL    HW119490   1.337   0.628   6.839 -0.8490 -0.9512 -0.7877
 2676SOL    HW219491   1.391   0.599   6.979  1.0505  1.0820 -0.3679
 2677SOL     OW19492   4.716   2.510   8.583  0.5663 -0.0514 -0.5550
 2677SOL    HW119493   4.654   2.459   8.531  0.4587 -0.8810  0.3869
 2677SOL    HW219494   0.012   2.586   8.530 -0.5272  0.1811 -0.6449
 2678SOL     OW19495   4.285   3.818   9.674 -0.0935 -0.2780  0.0630
 2678SOL    HW119496   4.259   3.772   9.594 -0.8987 -1.9928  1.3059
 2678SOL    HW219497   4.276   3.754   9.746 -2.4691 -2.8462 -2.5198
 2679SOL     OW19498   4.470   3.017   6.811  0.4003  0.4058 -0.0992
 2679SOL    HW119499   4.564   3.000   6.803  0.7728  2.0482  0.9078
 2679SOL    HW219500   4.451   3.105   6.779  0.4607  0.0116 -1.2038
 2680SOL     OW19501   1.599   1.310   0.450 -0.6191  0.3938  0.5546
 2680SOL    HW119502   1.658   1.327   0.523  0.8257  2.6190 -1.1613
 2680SOL    HW219503   1.570   1.396   0.419 -1.2417  0.9172  2.6057
 2681SOL     OW19504   1.067   1.520   2.251 -0.5765  1.0614  0.7220
 2681SOL    HW119505   1.062   1.606   2.209  0.8424  0.1309 -1.3625
 2681SOL    HW219506   0.988   1.469   2.233  0.6945 -0.2073 -1.3930
 2682SOL     OW19507   2.005   2.853   4.997  0.9200 -0.0564 -0.0416
 2682SOL    HW119508   1.918   2.817   5.011  1.0076 -0.2278  0.0596
 2682SOL    HW219509   2.043   2.770   4.968 -0.3241 -0.2274 -1.1868
 2683SOL     OW19510   2.280   4.183   9.193 -0.4691  0.5030 -0.0973
 2683SOL    HW119511   2.327   4.111   9.153 -0.3425 -0.4586  1.7834
 2683SOL    HW219512   2.281   4.164   9.287  1.5521 -0.3304 -0.2931
 2684SOL     OW19513   3.658   2.007   4.395  0.3810  0.4189 -0.5570
 2684SOL    HW119514   3.676   1.914   4.409 -1.3592  0.0790 -0.5292
 2684SOL    HW219515   3.653   2.045   4.483  0.3224 -1.0132  0.0625
 2685SOL     OW19516   4.711   0.754   5.138 -0.0957 -0.3106  0.3585
 2685SOL    HW119517   0.041   0.681   5.166  2.6252  1.4135 -0.4998
 2685SOL    HW219518   4.654   0.722   5.069  1.1647 -1.1413 -0.2965
 2686SOL     OW19519   0.644   0.237   5.303  0.1543  0.2641  0.1963
 2686SOL    HW119520   0.567   0.239   5.360  0.0385  0.9804  0.0142
 2686SOL    HW219521   0.666   0.146   5.282 -2.2734 -0.8213  2.3240
 2687SOL     OW19522   1.771   0.131  11.164 -0.3847  0.3039 -0.2129
 2687SOL    HW119523   1.834   0.109  11.232 -1.3009 -0.0894  0.5103
 2687SOL    HW219524   1.835   0.134  11.093  0.3193  1.1745  0.4535
 2688SOL     OW19525   1.026   1.660   1.987  0.0748 -0.5790  0.6542
 2688SOL    HW119526   1.097   1.700   1.938  0.7839 -1.8573  0.6284
 2688SOL    HW219527   0.971   1.732   2.016 -0.4337 -0.9775  0.6939
 2689SOL     OW19528   0.706   2.972   8.998 -0.0787  0.3251 -0.5831
 2689SOL    HW119529   0.746   2.943   8.916 -1.5913  0.4621 -1.3787
 2689SOL    HW219530   0.758   3.049   9.021 -0.1936  0.5749 -1.1513
 2690SOL     OW19531   2.450   1.012  15.277  0.3547  0.1588  0.1671
 2690SOL    HW119532   2.494   0.951  15.217 -1.0886 -0.8479  0.1272
 2690SOL    HW219533   2.526   1.055  15.316  0.4258 -0.7436  1.0424
 2691SOL     OW19534   0.620   3.709   8.437  0.0247  0.2726 -0.3672
 2691SOL    HW119535   0.678   3.686   8.364  1.0207  1.0827  0.1760
 2691SOL    HW219536   0.542   3.744   8.393 -0.6126 -0.1581  0.4477
 2692SOL     OW19537   4.102   0.536   8.361  0.4203 -0.1027  0.2585
 2692SOL    HW119538   4.124   0.472   8.293  0.9839 -0.4908  0.8070
 2692SOL    HW219539   4.091   0.476   8.435  0.2484 -1.1452 -0.6179
 2693SOL     OW19540   0.587   2.936   7.617 -0.2545  0.4331 -0.3595
 2693SOL    HW119541   0.597   2.850   7.577 -0.8907  0.1214  0.1498
 2693SOL    HW219542   0.635   2.926   7.699  1.2636 -3.5851 -1.7716
 2694SOL     OW19543   2.545   3.262   6.515  0.3183 -0.0356  0.1021
 2694SOL    HW119544   2.541   3.356   6.535 -0.8000 -0.0252 -0.1931
 2694SOL    HW219545   2.464   3.253   6.465 -0.8098  0.4763  1.8245
 2695SOL     OW19546   3.824   4.652   0.779  0.2632 -0.0994 -0.0643
 2695SOL    HW119547   3.821   4.568   0.735  0.0102 -1.4747  2.6023
 2695SOL    HW219548   3.738   4.687   0.757  1.2523  2.5508  0.2029
 2696SOL     OW19549   4.076   3.250  17.094  0.1130  0.6015  0.0036
 2696SOL    HW119550   4.094   3.223  17.004  1.9009 -0.9865  0.8369
 2696SOL    HW219551   4.018   3.324  17.076 -0.2417 -0.0795 -1.6377
 2697SOL     OW19552   4.330   1.304   9.272 -0.0809  0.4716 -0.0066
 2697SOL    HW119553   4.400   1.366   9.254 -0.4979  1.0824  0.5099
 2697SOL    HW219554   4.304   1.257   9.192 -1.6740  2.3327 -0.5742
 2698SOL     OW19555   2.240   4.308  11.960 -0.6861  0.1976  0.9924
 2698SOL    HW119556   2.291   4.247  12.014 -1.1825  0.3634  1.6539
 2698SOL    HW219557   2.222   4.377  12.024 -0.1889  2.5967 -1.4578
 2699SOL     OW19558   2.494   2.609   7.943  0.1770  0.1873 -0.4040
 2699SOL    HW119559   2.545   2.579   8.018  1.1159  1.1533 -0.6640
 2699SOL    HW219560   2.479   2.703   7.948 -1.5514 -0.1127  0.3547
 2700SOL     OW19561   3.604   1.581   8.711  0.3277  0.4349  0.4000
 2700SOL    HW119562   3.591   1.633   8.631  0.2090  3.1875  2.2067
 2700SOL    HW219563   3.700   1.575   8.704  0.1467 -2.9987  1.0106
 2701SOL     OW19564   0.649   1.948   1.467 -0.2554 -0.0142  0.0801
 2701SOL    HW119565   0.624   1.982   1.552  4.6010  2.1588  0.6207
 2701SOL    HW219566   0.704   1.871   1.486  0.5503  0.4366 -0.3994
 2702SOL     OW19567   0.266   4.586   2.922  0.0622  0.2957  0.4631
 2702SOL    HW119568   0.259   4.507   2.869 -2.8974  1.0379 -0.2499
 2702SOL    HW219569   0.271   4.658   2.860 -2.9462 -0.6172 -0.8107
 2703SOL     OW19570   3.931   2.237  10.609  0.7421  0.7329  0.1878
 2703SOL    HW119571   3.849   2.279  10.585  0.5309  1.7661  2.6878
 2703SOL    HW219572   3.960   2.219  10.520 -2.1976 -0.9906 -0.4039
 2704SOL     OW19573   3.226   0.243  17.529  0.0411  0.0179  0.0948
 2704SOL    HW119574   3.313   0.259  17.490  0.1309 -2.5986 -0.7563
 2704SOL    HW219575   3.242   0.284  17.614  0.0034 -2.1428  1.1384
 2705SOL     OW19576   3.432   0.235   1.020  0.5995 -0.1230 -0.4714
 2705SOL    HW119577   3.419   0.215   1.112  0.7943 -1.1879 -0.6704
 2705SOL    HW219578   3.426   0.150   0.976 -2.3723 -0.1107 -0.0759
 2706SOL     OW19579   2.374   2.587  13.415  0.6175 -0.3394  0.0800
 2706SOL    HW119580   2.327   2.504  13.423 -1.6089  1.3069  3.6822
 2706SOL    HW219581   2.304   2.645  13.445 -1.6163 -1.9042 -2.0820
 2707SOL     OW19582   3.108   4.069  15.591 -0.3786 -0.3138 -0.0915
 2707SOL    HW119583   3.096   4.126  15.515  2.5802 -2.1579 -1.9423
 2707SOL    HW219584   3.049   3.999  15.565  1.1411 -1.2071 -1.1463
 2708SOL     OW19585   0.862   1.118   5.961  0.0851  0.1528 -0.2906
 2708SOL    HW119586   0.920   1.192   5.978  1.4341 -1.0260  0.2260
 2708SOL    HW219587   0.895   1.081   5.879  2.5959  1.5694  0.0914
 2709SOL     OW19588   0.527   1.752   6.018  0.0321  0.3611  0.0938
 2709SOL    HW119589   0.471   1.675   6.017 -0.0272  0.3918  0.6852
 2709SOL    HW219590   0.605   1.724   5.971  0.5254  1.0407  0.5107
 2710SOL     OW19591   1.446   0.810   4.742 -0.0716  0.1407 -0.2533
 2710SOL    HW119592   1.535   0.791   4.713 -0.4825 -0.0850 -1.3613
 2710SOL    HW219593   1.402   0.748   4.685 -1.3147  0.0379  0.8126
 2711SOL     OW19594   1.677   0.307   1.983  0.4082  0.0403  0.6891
 2711SOL    HW119595   1.657   0.276   2.071  1.8678  0.5095  1.1861
 2711SOL    HW219596   1.747   0.370   1.998  0.0700  0.5732  0.0505
 2712SOL     OW19597   4.588   1.304   3.224 -0.9251  0.6473 -0.2628
 2712SOL    HW119598   4.622   1.347   3.146 -0.7987 -0.3487 -0.7532
 2712SOL    HW219599   4.617   1.215   3.207 -0.7840  1.0080 -1.9271
 2713SOL     OW19600   3.014   1.845  16.667 -0.0179 -0.1193 -0.1980
 2713SOL    HW119601   3.066   1.765  16.656 -0.7654 -0.7374  0.7885
 2713SOL    HW219602   2.970   1.809  16.744 -0.3103 -1.8093 -1.1445
 2714SOL     OW19603   1.922   0.245  15.082 -0.3605 -0.4592 -0.1015
 2714SOL    HW119604   1.870   0.168  15.105 -1.0850 -0.1616 -0.7346
 2714SOL    HW219605   1.925   0.289  15.166  1.2557 -1.6147  0.4425
 2715SOL     OW19606   0.225   4.158   3.840 -0.3319  0.9252 -0.0458
 2715SOL    HW119607   0.201   4.214   3.766 -2.4786  2.9285  2.1704
 2715SOL    HW219608   0.152   4.171   3.900  0.4175  2.8688  0.4664
 2716SOL     OW19609   3.399   3.532   5.551  0.2836  0.6391  0.6636
 2716SOL    HW119610   3.416   3.610   5.499  3.5123  1.3125  2.7359
 2716SOL    HW219611   3.344   3.490   5.485 -2.4868  2.7304  1.6527
 2717SOL     OW19612   0.315   0.740   4.784  0.0103 -0.8577  0.3599
 2717SOL    HW119613   0.386   0.798   4.810  0.6258 -1.8196  0.8303
 2717SOL    HW219614   0.266   0.804   4.731 -0.5509  1.8214  4.1718
 2718SOL     OW19615   1.940   0.053   5.072  0.2070 -0.0166  0.2813
 2718SOL    HW119616   2.023   0.084   5.108  1.2007 -1.4491 -0.7499
 2718SOL    HW219617   1.901   0.133   5.037  0.0624 -0.3416 -0.3144
 2719SOL     OW19618   4.081   2.375   0.695 -0.6852 -0.1874  0.3127
 2719SOL    HW119619   4.095   2.287   0.729  0.2913  0.3622  1.3204
 2719SOL    HW219620   4.076   2.423   0.778 -0.2948  1.1822 -0.4575
 2720SOL     OW19621   2.754   1.927   6.214 -0.1162 -0.2117 -0.4446
 2720SOL    HW119622   2.700   1.850   6.196  0.4453 -0.7164  0.0490
 2720SOL    HW219623   2.685   1.980   6.254 -0.1279  0.9030 -1.9469
 2721SOL     OW19624   1.239   3.953   5.790 -0.4614 -0.1889 -0.3997
 2721SOL    HW119625   1.172   3.931   5.726 -1.0227 -1.2234  0.5512
 2721SOL    HW219626   1.252   3.870   5.836 -0.3950  1.0690  1.8794
 2722SOL     OW19627   2.812   4.461  15.890 -0.7322  0.2019 -0.2384
 2722SOL    HW119628   2.884   4.403  15.864 -1.1951 -0.8375  0.7449
 2722SOL    HW219629   2.746   4.448  15.821 -0.1348 -0.6404 -0.6539
 2723SOL     OW19630   1.454   4.020   7.116  0.3424 -0.2259 -0.3491
 2723SOL    HW119631   1.430   3.942   7.167 -1.1453  1.4480  1.4924
 2723SOL    HW219632   1.473   3.985   7.029 -0.1456 -1.3244 -0.0218
 2724SOL     OW19633   3.192   1.924   5.932  0.7880  0.3990  0.8123
 2724SOL    HW119634   3.184   1.978   5.853 -1.9161 -0.0216  0.7874
 2724SOL    HW219635   3.128   1.959   5.994  0.2738  0.0086  0.4993
 2725SOL     OW19636   0.442   4.638  16.139  0.7058  0.3029 -0.5622
 2725SOL    HW119637   0.378   4.595  16.083 -0.0051  0.6432 -0.0058
 2725SOL    HW219638   0.488   4.561  16.173 -1.1830 -0.1621  0.9747
 2726SOL     OW19639   3.029   3.051   7.668 -0.2404  0.4254  0.1548
 2726SOL    HW119640   2.991   2.964   7.679 -0.1979  0.4272  0.3174
 2726SOL    HW219641   3.051   3.057   7.575 -0.9344 -1.5859 -0.1372
 2727SOL     OW19642   2.464   0.108  10.075 -0.3185 -0.1367  0.0419
 2727SOL    HW119643   2.444   0.103  10.169  0.8545 -0.7869  0.2632
 2727SOL    HW219644   2.434   0.021  10.047 -1.1068  0.4117 -0.7626
 2728SOL     OW19645   2.808   1.851   2.196 -0.1999 -0.4960 -0.0086
 2728SOL    HW119646   2.889   1.874   2.152  0.0468 -1.4007 -0.0177
 2728SOL    HW219647   2.821   1.757   2.192 -2.5655 -0.8225 -0.2211
 2729SOL     OW19648   4.278   1.888   4.864 -0.0695 -0.5022  0.2437
 2729SOL    HW119649   4.264   1.801   4.903  0.0038  0.1447  1.7229
 2729SOL    HW219650   4.358   1.868   4.815  1.4126  0.2406  2.3508
 2730SOL     OW19651   3.964   3.883   0.329 -0.4365  0.2691  1.0801
 2730SOL    HW119652   3.994   3.970   0.303  1.9907 -0.9740 -0.2921
 2730SOL    HW219653   3.886   3.893   0.384 -1.7007  0.0599 -0.6803
 2731SOL     OW19654   3.736   1.918   7.359  0.3975 -0.1893 -0.6790
 2731SOL    HW119655   3.767   1.876   7.279 -2.8489 -2.3694 -0.8086
 2731SOL    HW219656   3.755   2.010   7.341  0.3965 -0.4091 -1.7826
 2732SOL     OW19657   0.262   1.891   4.620  0.1813  0.4748  0.3014
 2732SOL    HW119658   0.215   1.961   4.575  1.8436  1.7559  0.5565
 2732SOL    HW219659   0.354   1.912   4.600  0.1794 -0.0838 -0.2640
 2733SOL     OW19660   4.320   2.095  16.219 -0.4725  0.4387  0.4175
 2733SOL    HW119661   4.368   2.012  16.225 -0.6990  0.2681 -0.0845
 2733SOL    HW219662   4.232   2.062  16.240 -1.0994  0.3711 -2.3119
 2734SOL     OW19663   3.733   1.560  11.461  0.6821  0.5122 -0.5246
 2734SOL    HW119664   3.716   1.490  11.525  0.6227  0.2705 -0.8018
 2734SOL    HW219665   3.826   1.582  11.472 -0.3714  3.2795  2.4506
 2735SOL     OW19666   4.714   2.723  17.294  0.2812  0.4940  0.2350
 2735SOL    HW119667   4.720   2.818  17.302  3.0942  0.1800  1.9053
 2735SOL    HW219668   4.691   2.687  17.380  2.1827 -0.1142  0.4940
 2736SOL     OW19669   2.414   1.338   8.369 -0.3791  0.9792  0.1899
 2736SOL    HW119670   2.499   1.376   8.345 -0.2397  0.2761 -0.4456
 2736SOL    HW219671   2.444   1.274   8.434  2.0634  1.0875 -0.8253
 2737SOL     OW19672   0.054   2.771   4.762  0.1157  0.4714 -0.0753
 2737SOL    HW119673   0.104   2.848   4.789 -2.3639  1.2209  2.4255
 2737SOL    HW219674   0.108   2.740   4.689 -1.8162 -0.3147 -1.1509
 2738SOL     OW19675   0.927   1.848  16.677 -0.1046 -0.4825 -0.3573
 2738SOL    HW119676   0.984   1.783  16.635  1.0762 -0.5659  1.3802
 2738SOL    HW219677   0.868   1.786  16.721  4.5397 -3.2770  1.9001
 2739SOL     OW19678   2.864   3.698   0.875 -0.1156 -0.2871 -0.0924
 2739SOL    HW119679   2.891   3.612   0.909  0.7045  0.0468  0.0971
 2739SOL    HW219680   2.933   3.714   0.811  0.9412  2.8528  1.8254
 2740SOL     OW19681   0.038   1.732  13.032  0.1028  0.3467  0.0428
 2740SOL    HW119682   0.084   1.710  13.113 -0.3693  0.3885  0.3212
 2740SOL    HW219683   4.712   1.810  13.054  0.2742 -0.2229  2.4400
 2741SOL     OW19684   0.497   4.175   8.066  0.3682 -0.3370 -0.1984
 2741SOL    HW119685   0.515   4.175   7.972  3.3360  0.5829  0.3709
 2741SOL    HW219686   0.464   4.088   8.085 -0.7945  0.6617  2.3163
 2742SOL     OW19687   4.271   1.989  15.179  0.3803 -0.5341 -0.2030
 2742SOL    HW119688   4.249   2.082  15.182  0.1047 -0.5320 -2.0738
 2742SOL    HW219689   4.319   1.988  15.096  0.9113  0.8174  0.0852
 2743SOL     OW19690   3.139   0.377   5.269 -0.4522  0.1318  0.0136
 2743SOL    HW119691   3.233   0.360   5.270 -0.2943  1.1727  1.6537
 2743SOL    HW219692   3.125   0.383   5.363  1.3550  1.2496  0.2191
 2744SOL     OW19693   4.724   3.758  10.726  0.2622  0.0907 -0.0402
 2744SOL    HW119694   0.085   3.749  10.685 -0.4236 -2.0417 -1.0046
 2744SOL    HW219695   4.724   3.667  10.755  3.2276  0.1747  0.2424
 2745SOL     OW19696   4.148   3.215   5.856  0.0748 -0.1908 -1.1999
 2745SOL    HW119697   4.098   3.243   5.932 -0.0474 -0.0603 -1.3289
 2745SOL    HW219698   4.101   3.131   5.853 -1.1602  0.4581  0.1168
 2746SOL     OW19699   2.446   1.690   8.458 -0.2935  0.3980 -0.5720
 2746SOL    HW119700   2.364   1.646   8.434 -1.4130  1.4598  1.3327
 2746SOL    HW219701   2.420   1.722   8.544  1.5096  0.3838 -0.0252
 2747SOL     OW19702   3.019   3.779   1.650 -0.0233 -0.2028 -0.0252
 2747SOL    HW119703   3.055   3.742   1.731  0.1132  2.4308  1.1176
 2747SOL    HW219704   3.097   3.829   1.625 -0.8938  0.5359 -1.2613
 2748SOL     OW19705   3.417   0.238   6.294  0.7581  0.5278 -0.2859
 2748SOL    HW119706   3.440   0.182   6.368  0.2074 -0.9924 -1.2870
 2748SOL    HW219707   3.394   0.321   6.336 -1.9570  0.7154 -2.1465
 2749SOL     OW19708   4.139   2.385   4.397 -0.0725  0.3475 -0.6657
 2749SOL    HW119709   4.177   2.303   4.431  1.4088  1.8308  1.3067
 2749SOL    HW219710   4.146   2.443   4.473  2.1685  2.2387 -2.3053
 2750SOL     OW19711   0.449   3.031  14.229  0.0311 -0.2240 -0.2764
 2750SOL    HW119712   0.414   2.969  14.294 -2.2164 -0.4993 -1.7550
 2750SOL    HW219713   0.385   3.101  14.243  0.7451  0.0540  1.6135
 2751SOL     OW19714   2.823   4.021   4.354 -0.5314 -0.6417 -0.0132
 2751SOL    HW119715   2.745   4.032   4.408  0.7869 -1.2786  2.0016
 2751SOL    HW219716   2.806   3.946   4.298  1.4800 -0.9176 -0.2569
 2752SOL     OW19717   2.432   0.340  17.422  0.4999  0.3984 -0.1742
 2752SOL    HW119718   2.495   0.398  17.380 -0.2134 -0.5083 -2.4809
 2752SOL    HW219719   2.360   0.345  17.360 -0.3247  2.4073  0.9532
 2753SOL     OW19720   1.440   3.608  11.822 -0.1661  0.3649 -0.2041
 2753SOL    HW119721   1.495   3.540  11.783 -1.5091 -0.9039  0.1248
 2753SOL    HW219722   1.457   3.593  11.915  0.2130  1.9244 -0.0316
 2754SOL     OW19723   2.720   1.313   5.578 -0.3620 -0.0743 -0.2936
 2754SOL    HW119724   2.628   1.291   5.591 -0.7005  0.9771 -0.8654
 2754SOL    HW219725   2.764   1.272   5.652 -0.4089 -1.8695 -1.2652
 2755SOL     OW19726   1.151   2.488   6.374  0.3166  0.1874 -0.6867
 2755SOL    HW119727   1.194   2.469   6.458 -1.1477  0.5295  0.1363
 2755SOL    HW219728   1.177   2.405   6.334 -1.6167 -1.0693  0.6910
 2756SOL     OW19729   3.026   0.261   6.153  0.1214 -0.1564  0.2738
 2756SOL    HW119730   3.048   0.170   6.173  0.2858 -0.0388  0.6217
 2756SOL    HW219731   3.041   0.252   6.058  0.0973 -0.7479  0.3322
 2757SOL     OW19732   0.998   3.908   6.693 -0.3287  0.4265 -0.3568
 2757SOL    HW119733   1.012   3.814   6.689 -1.7282  0.2477 -1.2868
 2757SOL    HW219734   0.990   3.915   6.788 -0.4022 -2.8858 -0.1251
 2758SOL     OW19735   2.351   0.829   2.548 -0.4877  0.0942  0.1786
 2758SOL    HW119736   2.302   0.831   2.466 -0.6023  3.8391  0.3290
 2758SOL    HW219737   2.286   0.811   2.616 -0.9003  2.4301  0.3950
 2759SOL     OW19738   2.148   2.262   0.697 -0.5021  0.2619 -0.1338
 2759SOL    HW119739   2.103   2.313   0.630  0.7844  0.0513 -1.1637
 2759SOL    HW219740   2.226   2.316   0.707  0.1047 -0.8071  1.0489
 2760SOL     OW19741   2.200   2.363  17.285 -0.0792  0.1144  0.0487
 2760SOL    HW119742   2.182   2.295  17.350  2.8788  0.8081  1.5678
 2760SOL    HW219743   2.122   2.418  17.287  0.8215  1.3512  1.1434
 2761SOL     OW19744   0.151   0.973   6.840  0.0927  0.5424  0.4015
 2761SOL    HW119745   0.152   1.022   6.922  1.0576  3.9104 -1.6265
 2761SOL    HW219746   0.149   1.036   6.768 -0.6270  0.5363  0.4097
 2762SOL     OW19747   1.916   1.609   0.462  0.2532  0.4201 -0.2288
 2762SOL    HW119748   1.898   1.651   0.378 -0.7147 -2.4787 -1.4763
 2762SOL    HW219749   1.911   1.516   0.441 -3.5599  0.2363  1.6511
 2763SOL     OW19750   0.679   2.145   7.516 -0.0607  0.6856  0.0233
 2763SOL    HW119751   0.673   2.127   7.422  2.9428  0.9178 -0.2243
 2763SOL    HW219752   0.584   2.153   7.529  0.2515  0.7112  2.3424
 2764SOL     OW19753   1.035   0.027   4.692 -0.1655  0.0850 -0.4314
 2764SOL    HW119754   1.084   4.716   4.618  0.2031 -2.0812  0.8814
 2764SOL    HW219755   1.059   4.707   4.773  1.2321  2.6511  0.5784
 2765SOL     OW19756   4.420   0.480   7.319  0.1711  0.5749  0.6767
 2765SOL    HW119757   4.502   0.465   7.367  0.1630  0.6090  0.7010
 2765SOL    HW219758   4.380   0.547   7.374 -1.4814 -0.0018  0.1777
 2766SOL     OW19759   2.556   1.895  14.038 -0.2238  0.7929  0.2601
 2766SOL    HW119760   2.566   1.852  13.953  2.3873  1.7316  0.1130
 2766SOL    HW219761   2.502   1.971  14.016  0.0777  0.8403 -0.3237
 2767SOL     OW19762   1.103   4.450   9.936  0.2735 -0.2966 -0.3644
 2767SOL    HW119763   1.184   4.480   9.893  1.6577 -2.1634  0.9202
 2767SOL    HW219764   1.144   4.393  10.001 -2.4122 -1.7874 -0.0064
 2768SOL     OW19765   0.120   1.311   9.988  0.3436 -0.1669 -0.0131
 2768SOL    HW119766   0.210   1.290   9.962  0.2566 -0.7732  0.1822
 2768SOL    HW219767   0.086   1.222   9.982  0.3884 -0.1180 -1.0972
 2769SOL     OW19768   3.953   1.741   4.917  0.5046 -0.1940  0.4807
 2769SOL    HW119769   4.041   1.727   4.953  1.2374  0.0143 -1.2018
 2769SOL    HW219770   3.939   1.834   4.938  1.8648 -0.2370  1.5911
 2770SOL     OW19771   1.192   0.110   3.810 -0.1012  0.0136  0.2714
 2770SOL    HW119772   1.260   0.151   3.755  1.6371 -1.6839  1.1509
 2770SOL    HW219773   1.216   0.134   3.899  0.6251  0.9807 -0.1882
 2771SOL     OW19774   1.182   3.140   1.040 -0.0594  0.1248  0.2276
 2771SOL    HW119775   1.272   3.173   1.047 -0.0315  0.4758 -1.7791
 2771SOL    HW219776   1.137   3.219   1.071  1.1595 -0.3971  3.3268
 2772SOL     OW19777   1.606   3.432   3.329 -0.0856  0.1962 -0.1315
 2772SOL    HW119778   1.568   3.410   3.414  0.5869 -2.5205 -0.5395
 2772SOL    HW219779   1.681   3.374   3.320  0.2141  1.0597 -3.1087
 2773SOL     OW19780   0.712   0.429   6.649  0.1227  0.4802 -0.2594
 2773SOL    HW119781   0.781   0.475   6.601  0.3326 -1.0160 -1.3967
 2773SOL    HW219782   0.641   0.468   6.598 -0.5514 -1.7153 -1.0049
 2774SOL     OW19783   1.554   3.039  10.638 -0.1553  0.0119  0.4502
 2774SOL    HW119784   1.484   3.010  10.581 -0.4282  0.7372  0.4137
 2774SOL    HW219785   1.585   3.109  10.580 -1.1272  0.8962  0.9935
 2775SOL     OW19786   2.007   3.820   0.950 -0.1284  0.1128  0.4870
 2775SOL    HW119787   1.933   3.880   0.951  0.9018  1.3783 -0.3360
 2775SOL    HW219788   1.967   3.738   0.980  1.3446 -0.4728  0.9063
 2776SOL     OW19789   2.975   3.533   4.336  0.9017 -0.1048  0.3043
 2776SOL    HW119790   2.992   3.606   4.396  0.6278 -0.4924  0.8489
 2776SOL    HW219791   3.056   3.534   4.286  1.1515 -0.0159  0.7166
 2777SOL     OW19792   1.620   1.585   6.777 -0.2585 -0.1929  0.3133
 2777SOL    HW119793   1.669   1.503   6.773 -0.2352 -0.2194  1.1455
 2777SOL    HW219794   1.651   1.611   6.864 -1.0373 -3.7041  1.6492
 2778SOL     OW19795   3.584   3.384   7.247  0.0336 -0.2210 -0.3692
 2778SOL    HW119796   3.517   3.424   7.303 -0.4224 -1.2597 -0.1802
 2778SOL    HW219797   3.590   3.300   7.293  1.0536 -0.4647 -0.9548
 2779SOL     OW19798   0.703   0.385   8.282 -0.1121  0.7842  0.0417
 2779SOL    HW119799   0.684   0.303   8.327 -1.9211  0.0479 -2.0760
 2779SOL    HW219800   0.674   0.352   8.197 -1.0478  0.7757  0.3623
 2780SOL     OW19801   1.690   2.286  12.446 -0.1908 -0.0406  0.1070
 2780SOL    HW119802   1.596   2.293  12.462 -0.0786 -1.0843  1.1838
 2780SOL    HW219803   1.714   2.338  12.522 -1.9798  2.8803 -1.2820
 2781SOL     OW19804   0.895   1.495   7.885  0.6662  0.7609 -0.3695
 2781SOL    HW119805   0.827   1.506   7.818 -1.1108 -0.7380  1.1795
 2781SOL    HW219806   0.959   1.443   7.836  0.3538  0.6859 -0.6964
 2782SOL     OW19807   2.059   4.495   4.815 -0.1981 -0.2549  0.3046
 2782SOL    HW119808   2.008   4.503   4.735 -1.8718  0.7112  1.4821
 2782SOL    HW219809   2.009   4.441   4.876  0.0216  0.5527  1.2147
 2783SOL     OW19810   0.187   4.327   8.246 -0.4295  0.1411 -0.5250
 2783SOL    HW119811   0.099   4.352   8.218 -1.2101 -0.1611  1.6467
 2783SOL    HW219812   0.175   4.232   8.250  3.9031 -0.4500 -1.1627
 2784SOL     OW19813   2.331   1.499  13.541  0.2356 -0.0941  0.0767
 2784SOL    HW119814   2.312   1.558  13.614 -1.7073  0.7954 -1.1460
 2784SOL    HW219815   2.345   1.561  13.470  0.0332 -2.3492 -1.9416
 2785SOL     OW19816   0.340   2.923   8.616 -0.1721 -0.1897  0.1681
 2785SOL    HW119817   0.247   2.943   8.605 -0.7323 -3.1318 -0.5404
 2785SOL    HW219818   0.376   2.993   8.671  1.2299 -0.6688 -0.1541
 2786SOL     OW19819   0.834   0.130   8.860  0.2383  0.0570 -0.0114
 2786SOL    HW119820   0.754   0.079   8.856  2.0997 -2.8879  0.5351
 2786SOL    HW219821   0.837   0.160   8.951  0.1403  0.9728 -0.3028
 2787SOL     OW19822   1.506   2.450  16.040 -0.6085  0.6118 -0.0714
 2787SOL    HW119823   1.596   2.425  16.022 -0.1411  1.3176  1.2729
 2787SOL    HW219824   1.466   2.433  15.955 -2.3448  1.0420  0.6533
 2788SOL     OW19825   1.639   2.246   3.246  0.3875 -0.4371 -0.8889
 2788SOL    HW119826   1.721   2.210   3.279 -0.1741 -0.0982  0.8394
 2788SOL    HW219827   1.667   2.327   3.202  0.1472  0.3713  0.4469
 2789SOL     OW19828   2.160   0.347   0.981 -0.3627 -0.5427  0.4462
 2789SOL    HW119829   2.178   0.383   0.894  0.2046  0.6185  1.0446
 2789SOL    HW219830   2.069   0.374   0.990 -0.1152 -0.3962  2.5081
 2790SOL     OW19831   1.997   1.119   7.574  0.1473 -1.1352  0.0561
 2790SOL    HW119832   1.906   1.148   7.572  0.1256 -1.2815 -1.0926
 2790SOL    HW219833   2.005   1.104   7.668 -1.1821 -1.3330  0.1388
 2791SOL     OW19834   3.078   0.915   9.849 -0.3020 -0.3991 -0.0421
 2791SOL    HW119835   2.996   0.949   9.814 -0.2445 -0.8168 -0.5831
 2791SOL    HW219836   3.125   0.995   9.873  0.5922 -1.2179  0.9329
 2792SOL     OW19837   1.748   2.341   5.097  0.5270  0.1329 -0.3306
 2792SOL    HW119838   1.779   2.336   5.007  1.4034 -1.9174  0.0862
 2792SOL    HW219839   1.702   2.426   5.096  0.1255 -0.0945 -0.9860
 2793SOL     OW19840   4.258   1.923  17.591  0.0318  0.6405 -0.1530
 2793SOL    HW119841   4.311   1.857  17.546 -1.6807  0.6698 -2.2166
 2793SOL    HW219842   4.198   1.924  17.516  0.3252 -1.3961 -0.4193
 2794SOL     OW19843   0.752   1.431  15.826 -0.5793 -0.8571  0.2120
 2794SOL    HW119844   0.764   1.424  15.731 -2.0078  1.1027 -0.1073
 2794SOL    HW219845   0.666   1.389  15.835 -1.3992  1.4047  2.8581
 2795SOL     OW19846   0.096   2.970   5.898 -0.2757  0.1692 -0.2563
 2795SOL    HW119847   0.066   2.991   5.810 -0.7341 -1.3373 -0.4740
 2795SOL    HW219848   0.009   2.952   5.935  0.2131 -0.1962  0.7237
 2796SOL     OW19849   3.142   4.434   7.039 -0.0932 -0.0479  0.3893
 2796SOL    HW119850   3.193   4.394   6.969  1.0494  0.3095  1.0183
 2796SOL    HW219851   3.212   4.448   7.103  1.0938 -2.3721 -0.4394
 2797SOL     OW19852   2.316   4.224   1.464 -0.0993 -0.2307 -0.0855
 2797SOL    HW119853   2.345   4.170   1.390  1.8852 -0.8861  1.1988
 2797SOL    HW219854   2.220   4.224   1.464 -0.1134 -1.9451 -1.5899
 2798SOL     OW19855   2.798   4.609   5.055  0.1139  0.4265  0.3354
 2798SOL    HW119856   2.883   4.593   5.014  0.2567 -1.4862  1.3956
 2798SOL    HW219857   2.745   4.551   5.000 -0.4459  0.5491  0.7509
 2799SOL     OW19858   0.687   1.605   6.621  0.2581 -0.1478  0.8420
 2799SOL    HW119859   0.612   1.616   6.562  1.1664  0.1388 -0.2785
 2799SOL    HW219860   0.715   1.514   6.614 -1.8040 -0.7490  0.2122
 2800SOL     OW19861   2.265   2.653   8.515 -0.0444 -0.1004 -0.6857
 2800SOL    HW119862   2.266   2.720   8.583 -1.6489  1.2773 -2.0290
 2800SOL    HW219863   2.178   2.662   8.476 -1.0277  1.1040  1.7717
 2801SOL     OW19864   0.565   0.839   5.129  0.1932  0.4401 -0.1731
 2801SOL    HW119865   0.559   0.751   5.091  1.1883  0.2295  0.1436
 2801SOL    HW219866   0.654   0.867   5.105  0.4529  1.4545  1.9960
 2802SOL     OW19867   4.524   1.988   1.433 -0.3087 -0.0795  0.6146
 2802SOL    HW119868   4.569   2.036   1.502 -1.6511  1.3144  0.5353
 2802SOL    HW219869   4.452   2.050   1.419 -0.4021 -0.4396 -0.4935
 2803SOL     OW19870   2.630   2.464   4.725  0.0367  0.2774  0.1919
 2803SOL    HW119871   2.617   2.430   4.636  0.5445 -1.8388  0.9092
 2803SOL    HW219872   2.659   2.554   4.717  0.2431  0.3355  1.6871
 2804SOL     OW19873   2.972   3.963   2.373  0.6873  0.1463 -0.1160
 2804SOL    HW119874   3.057   3.982   2.414 -0.2772  1.8812  1.0799
 2804SOL    HW219875   2.916   4.012   2.433  0.8269  0.0965  0.0564
 2805SOL     OW19876   3.967   2.803  12.957  0.2264  0.0618 -0.1030
 2805SOL    HW119877   3.908   2.738  12.995  1.2315 -0.9853 -0.3535
 2805SOL    HW219878   4.049   2.754  12.950  1.6327  1.9850  2.8825
 2806SOL     OW19879   4.295   3.448  10.502  0.3451 -0.2216  0.4222
 2806SOL    HW119880   4.242   3.408  10.570  0.6188  1.6882  1.7554
 2806SOL    HW219881   4.344   3.515  10.550 -0.3647  2.5071 -2.6685
 2807SOL     OW19882   1.303   4.442   4.046 -1.2079 -0.7000  0.1302
 2807SOL    HW119883   1.250   4.364   4.026 -2.1615 -0.0527  0.1155
 2807SOL    HW219884   1.378   4.400   4.088  0.6801  0.5025 -2.0235
 2808SOL     OW19885   3.775   1.744   2.215  0.0413 -0.0574 -0.0560
 2808SOL    HW119886   3.784   1.689   2.294  1.0825  0.5255  0.2266
 2808SOL    HW219887   3.820   1.824   2.240 -1.0167 -0.3818  2.9159
 2809SOL     OW19888   3.677   0.728   4.303 -0.0574  0.2381 -0.1227
 2809SOL    HW119889   3.701   0.788   4.233 -0.6926 -1.0813 -1.4804
 2809SOL    HW219890   3.632   0.783   4.367  1.1468  1.8343 -0.6478
 2810SOL     OW19891   3.719   2.901   8.494 -0.0944 -0.3700 -0.7227
 2810SOL    HW119892   3.745   2.824   8.544  0.0717 -1.5518 -2.6354
 2810SOL    HW219893   3.804   2.917   8.452  0.2174 -1.3258 -0.4488
 2811SOL     OW19894   3.596   3.540  13.060 -0.0898 -0.2105  0.8910
 2811SOL    HW119895   3.579   3.623  13.015 -1.3706  0.3138  2.3099
 2811SOL    HW219896   3.674   3.566  13.110 -1.8458  1.5172  2.7783
 2812SOL     OW19897   2.800   0.489  16.951  0.0828  0.2274 -0.2479
 2812SOL    HW119898   2.852   0.568  16.936 -1.0537  1.1996  0.8729
 2812SOL    HW219899   2.712   0.515  16.922 -0.7481 -0.3526  1.7912
 2813SOL     OW19900   0.082   2.698  12.769 -0.1161 -0.7348  0.3798
 2813SOL    HW119901   0.072   2.632  12.701 -1.9857  1.4215 -1.4460
 2813SOL    HW219902   0.110   2.770  12.713  1.6782 -0.4056  1.7267
 2814SOL     OW19903   2.649   4.429  10.993  0.2252  0.6339 -0.1972
 2814SOL    HW119904   2.674   4.343  10.957 -1.1192 -0.6846  2.0710
 2814SOL    HW219905   2.574   4.447  10.936  0.2602 -2.5158 -1.2748
 2815SOL     OW19906   3.922   4.595   4.463  0.0843  0.7564 -0.0596
 2815SOL    HW119907   3.832   4.625   4.473 -0.4445  0.0343 -2.6348
 2815SOL    HW219908   3.963   4.662   4.518  0.2611  0.5088  0.1086
 2816SOL     OW19909   4.395   2.506   9.140  0.1046  0.5186 -0.2684
 2816SOL    HW119910   4.328   2.560   9.183  0.6369  0.8031  0.1938
 2816SOL    HW219911   4.409   2.445   9.212  2.2306 -0.6095 -1.6571
 2817SOL     OW19912   2.683   0.619  15.801  0.7207 -0.1016  0.2845
 2817SOL    HW119913   2.658   0.572  15.721 -0.0739  1.7973 -0.5654
 2817SOL    HW219914   2.772   0.588  15.820  0.5698 -0.6296  0.1264
 2818SOL     OW19915   1.301   4.576  12.971 -0.4039 -0.2628 -0.0641
 2818SOL    HW119916   1.231   4.530  13.017 -2.2934  3.3501  0.6624
 2818SOL    HW219917   1.329   4.638  13.038 -0.1409 -2.0629  1.4973
 2819SOL     OW19918   3.246   4.175   8.376  0.1527  0.1305 -0.1987
 2819SOL    HW119919   3.281   4.234   8.442  0.9969  0.5333 -1.0122
 2819SOL    HW219920   3.161   4.214   8.354  0.8601  1.2556 -0.8945
 2820SOL     OW19921   2.366   4.205   6.634  0.3242 -0.3571  0.1565
 2820SOL    HW119922   2.314   4.271   6.679  1.8996  1.2238 -0.3009
 2820SOL    HW219923   2.445   4.256   6.614  1.0996 -1.8948 -0.7223
 2821SOL     OW19924   3.495   2.769   8.374 -0.2741 -0.5924  0.3443
 2821SOL    HW119925   3.533   2.702   8.431 -0.4383 -0.9981 -0.0164
 2821SOL    HW219926   3.549   2.840   8.407 -0.8546 -0.5526  1.1998
 2822SOL     OW19927   1.009   4.371   1.020 -0.0371 -0.0790  0.3845
 2822SOL    HW119928   0.936   4.312   1.001 -0.7434  1.2465 -1.0563
 2822SOL    HW219929   1.066   4.326   0.958 -1.8914 -0.8793 -0.7694
 2823SOL     OW19930   2.934   2.749   8.183  0.1166  0.2131 -0.5279
 2823SOL    HW119931   2.883   2.668   8.174  0.4220 -0.1633  1.1061
 2823SOL    HW219932   3.019   2.706   8.173  0.5391  1.7140 -3.3964
 2824SOL     OW19933   0.807   3.611   3.737  0.3996  0.2500  0.1193
 2824SOL    HW119934   0.859   3.556   3.795  0.0645 -0.1685  0.0262
 2824SOL    HW219935   0.845   3.588   3.652  0.0513  1.2833 -0.3190
 2825SOL     OW19936   0.851   3.625  11.560  0.2092  0.0019 -0.2272
 2825SOL    HW119937   0.904   3.668  11.627 -0.6864 -0.9989  1.1436
 2825SOL    HW219938   0.768   3.625  11.608  0.9768 -0.4120  1.1159
 2826SOL     OW19939   2.391   3.040   6.295  0.3766  0.2579  0.5134
 2826SOL    HW119940   2.385   2.961   6.240 -0.0427  0.7872 -0.2092
 2826SOL    HW219941   2.483   3.019   6.309  0.6472  0.3391 -1.1500
 2827SOL     OW19942   1.933   0.907   0.076  0.2554  0.2881  0.2391
 2827SOL    HW119943   1.903   0.874  17.693 -0.9571  1.5360  0.1738
 2827SOL    HW219944   1.986   0.833   0.105  1.8984  1.5945  0.5191
 2828SOL     OW19945   2.751   2.504  16.390 -0.2609  0.2178  0.4771
 2828SOL    HW119946   2.805   2.505  16.469  3.1092 -0.9884 -1.7963
 2828SOL    HW219947   2.810   2.462  16.327 -0.7408 -0.1559  0.2798
 2829SOL     OW19948   1.307   3.854   4.084  0.6092  0.3269  0.3749
 2829SOL    HW119949   1.362   3.808   4.148 -0.4787 -0.5559  0.6756
 2829SOL    HW219950   1.245   3.788   4.051  0.2580  0.7698  0.1550
 2830SOL     OW19951   1.707   3.013   3.222  0.4925 -0.3717 -0.3655
 2830SOL    HW119952   1.735   3.075   3.289 -1.1659  0.3322 -0.3321
 2830SOL    HW219953   1.627   2.982   3.265 -0.4917  0.9075 -1.2625
 2831SOL     OW19954   1.275   0.767   0.073 -0.3556  0.9810 -0.3004
 2831SOL    HW119955   1.360   0.785   0.112 -0.6979 -0.5332  1.1285
 2831SOL    HW219956   1.293   0.770  17.681  1.5009  1.1865  0.0568
 2832SOL     OW19957   2.515   3.595   1.813 -0.1339  0.1930 -0.1431
 2832SOL    HW119958   2.540   3.650   1.887  1.2910  1.9324 -1.9295
 2832SOL    HW219959   2.602   3.575   1.777  0.6786 -0.4828  2.1746
 2833SOL     OW19960   0.338   3.139   3.485  0.3102 -0.2068 -0.3137
 2833SOL    HW119961   0.419   3.105   3.449  2.6772  1.5703  3.3828
 2833SOL    HW219962   0.285   3.129   3.405 -0.8793 -0.3232  0.4905
 2834SOL     OW19963   3.834   2.387   4.311 -0.2946  0.1925 -0.6245
 2834SOL    HW119964   3.913   2.392   4.258  0.1742  0.5938  0.1013
 2834SOL    HW219965   3.868   2.434   4.388  2.3057 -0.4304 -1.4135
 2835SOL     OW19966   1.554   3.406  15.569 -0.7637  0.0197  0.1837
 2835SOL    HW119967   1.575   3.364  15.486  0.0946  2.1858 -0.7027
 2835SOL    HW219968   1.464   3.439  15.564 -0.1893  1.6739  0.5143
 2836SOL     OW19969   1.134   4.647   3.464 -0.3453  0.6045  0.0726
 2836SOL    HW119970   1.223   4.680   3.480  0.8320 -2.0396 -1.0716
 2836SOL    HW219971   1.089   4.725   3.496 -0.6850  1.2768 -1.9805
 2837SOL     OW19972   3.044   3.215   8.117 -0.2549  0.2369  0.0834
 2837SOL    HW119973   3.009   3.241   8.033  0.6858 -1.2241 -0.7641
 2837SOL    HW219974   2.972   3.160   8.147 -0.6660  3.0663  4.2492
 2838SOL     OW19975   4.039   3.073   2.218  0.6444 -0.2096 -0.5149
 2838SOL    HW119976   4.077   3.052   2.133  0.1613 -0.4069 -0.6826
 2838SOL    HW219977   3.953   3.032   2.214  0.7390 -0.3509 -1.0526
 2839SOL     OW19978   0.208   3.386   5.595 -0.0304  0.2662 -0.0086
 2839SOL    HW119979   0.161   3.380   5.512  2.0099 -0.7002 -1.0910
 2839SOL    HW219980   0.197   3.297   5.631  1.0376  0.2455  0.2951
 2840SOL     OW19981   2.525   1.953   5.030  0.1067  0.3075 -0.9780
 2840SOL    HW119982   2.527   1.862   5.000  0.8099 -1.1246  3.4438
 2840SOL    HW219983   2.567   2.000   4.957 -0.4066  0.2031 -1.3419
 2841SOL     OW19984   0.777   3.300   4.943 -0.0635 -0.0777 -0.0176
 2841SOL    HW119985   0.816   3.215   4.961 -0.0407  0.1506  1.0082
 2841SOL    HW219986   0.705   3.269   4.889 -0.1943  1.3106 -0.6587
 2842SOL     OW19987   0.770   3.097  14.477 -0.1564  0.2066  0.6039
 2842SOL    HW119988   0.739   3.006  14.477  1.8484 -0.4706 -1.4983
 2842SOL    HW219989   0.728   3.132  14.398 -1.0379 -1.9402  0.1239
 2843SOL     OW19990   0.877   1.193   3.382 -0.5704 -0.7926  0.1414
 2843SOL    HW119991   0.849   1.280   3.412  0.1227  0.4986 -2.9705
 2843SOL    HW219992   0.959   1.173   3.428 -0.2457  1.4902  0.5633
 2844SOL     OW19993   2.248   1.857  13.753 -0.3723  0.1621  0.4532
 2844SOL    HW119994   2.208   1.770  13.760  3.2509 -1.4379  1.3025
 2844SOL    HW219995   2.342   1.837  13.755 -0.6088 -1.0536 -0.8559
 2845SOL     OW19996   1.267   3.349   5.572  0.3612  0.3541  0.7602
 2845SOL    HW119997   1.355   3.315   5.557  0.1994 -1.2690  3.4214
 2845SOL    HW219998   1.225   3.296   5.504  0.3048  0.0577  1.0273
 2846SOL     OW19999   4.000   2.980   3.608 -0.0609 -0.3503  0.6973
 2846SOL    HW120000   4.059   2.914   3.571  1.7275  1.8948 -0.4665
 2846SOL    HW220001   4.040   2.995   3.694 -0.3414 -2.0702  1.1273
 2847SOL     OW20002   4.372   3.387  15.119 -0.8149  0.1089 -0.6328
 2847SOL    HW120003   4.312   3.330  15.169  0.6395 -0.8582  0.0030
 2847SOL    HW220004   4.318   3.432  15.054 -0.8082  0.6568 -0.2555
 2848SOL     OW20005   0.238   3.640  15.759  0.7494 -0.7527  0.0369
 2848SOL    HW120006   0.162   3.585  15.779  1.3030 -1.1746  0.9553
 2848SOL    HW220007   0.294   3.595  15.697 -0.6604 -0.8894 -1.1508
 2849SOL     OW20008   3.040   4.476   6.471 -0.1473  0.2848 -0.3143
 2849SOL    HW120009   2.980   4.536   6.428  1.6621  1.0358 -1.7900
 2849SOL    HW220010   2.999   4.390   6.465 -1.2596  0.7780  0.2065
 2850SOL     OW20011   1.558   2.876   5.840 -0.1464  0.3089 -0.0014
 2850SOL    HW120012   1.492   2.849   5.904 -1.5852  1.7840 -0.8639
 2850SOL    HW220013   1.510   2.952   5.808  0.4042  0.2855 -0.8843
 2851SOL     OW20014   3.063   1.488   5.841 -0.3784 -0.1703  0.1866
 2851SOL    HW120015   3.022   1.524   5.763  1.0827  0.9022 -0.0875
 2851SOL    HW220016   3.102   1.405   5.814  0.3538  0.7031 -1.4886
 2852SOL     OW20017   2.164   4.529  17.061  0.3448 -0.1637 -0.1390
 2852SOL    HW120018   2.084   4.520  17.113  1.0984 -1.7569  0.7427
 2852SOL    HW220019   2.132   4.579  16.985  0.9976  1.1818  0.4737
 2853SOL     OW20020   0.764   2.112  14.831 -0.0133  0.1129  0.1445
 2853SOL    HW120021   0.752   2.110  14.736  2.6133  0.0174 -0.2096
 2853SOL    HW220022   0.763   2.019  14.855  2.0177 -0.3910 -1.6386
 2854SOL     OW20023   1.224   3.170  17.144  0.5593  0.0084  0.4915
 2854SOL    HW120024   1.186   3.102  17.200  0.4308  1.2364  1.8995
 2854SOL    HW220025   1.188   3.253  17.177 -1.4899 -1.0362  0.8528
 2855SOL     OW20026   2.037   1.524   7.248  0.1586  0.1653  0.4957
 2855SOL    HW120027   1.980   1.545   7.322  0.4135 -1.3459  1.1108
 2855SOL    HW220028   2.027   1.430   7.237  1.1152  0.0947  0.2032
 2856SOL     OW20029   4.393   3.869  12.263  0.2972  0.1060 -0.4563
 2856SOL    HW120030   4.340   3.823  12.198 -0.4980 -1.5995  1.3792
 2856SOL    HW220031   4.408   3.945  12.208 -2.8602 -0.0744 -1.5599
 2857SOL     OW20032   0.170   2.459  10.526 -0.3188 -0.0297 -0.5330
 2857SOL    HW120033   0.081   2.423  10.518 -0.3423  0.0873 -0.7895
 2857SOL    HW220034   0.158   2.482  10.618 -0.1920 -1.5598 -0.1317
 2858SOL     OW20035   2.649   1.142   2.901 -0.0539  0.2251  0.0103
 2858SOL    HW120036   2.569   1.091   2.889 -0.5464  0.9436  0.2229
 2858SOL    HW220037   2.717   1.091   2.858 -2.0044 -0.7924 -1.8764
 2859SOL     OW20038   1.240   4.625  10.701 -0.2876 -0.0289  0.5451
 2859SOL    HW120039   1.231   4.712  10.741 -1.4688  0.0112  0.1766
 2859SOL    HW220040   1.329   4.620  10.666 -0.5198 -0.8182  0.0722
 2860SOL     OW20041   0.141   2.713   6.045 -0.6662  0.4790  0.3203
 2860SOL    HW120042   0.117   2.790   5.993  0.5638 -0.3067 -1.4175
 2860SOL    HW220043   0.234   2.709   6.020 -0.4430 -0.0791  1.2319
 2861SOL     OW20044   3.208   4.571  11.308  0.3069 -0.3600  0.6499
 2861SOL    HW120045   3.202   4.486  11.352 -0.1929 -1.3322 -1.3134
 2861SOL    HW220046   3.118   4.594  11.285  0.2078  0.5736  1.9567
 2862SOL     OW20047   3.964   4.335   4.430 -0.1091 -0.2883 -0.3824
 2862SOL    HW120048   4.025   4.347   4.357 -0.4858  4.3209  0.0736
 2862SOL    HW220049   3.951   4.426   4.457 -0.6042 -1.1362  2.3183
 2863SOL     OW20050   3.921   2.946   9.925 -0.5113 -0.0915  0.2682
 2863SOL    HW120051   3.878   2.998   9.857  0.3643  1.7841  1.1165
 2863SOL    HW220052   3.850   2.899   9.968  1.4819 -2.3675  1.0371
 2864SOL     OW20053   4.718   0.001   4.305  0.3596 -0.2437  0.9338
 2864SOL    HW120054   0.068   0.027   4.359  0.5055  1.3231 -0.0479
 2864SOL    HW220055   4.705   0.079   4.252 -0.2988 -1.1184 -0.1930
 2865SOL     OW20056   0.792   2.430   5.873  0.3922  0.2170 -0.8874
 2865SOL    HW120057   0.734   2.359   5.900  1.0756 -0.5310 -1.3819
 2865SOL    HW220058   0.837   2.466   5.949  3.0339 -1.4289 -1.6510
 2866SOL     OW20059   4.099   2.296   8.530  0.5298 -0.4352 -0.0690
 2866SOL    HW120060   4.139   2.376   8.494  1.5291 -0.5769  0.7314
 2866SOL    HW220061   4.069   2.251   8.451  2.1557  0.3528 -1.1414
 2867SOL     OW20062   1.749   3.826   1.637 -0.9555 -0.1200  0.7076
 2867SOL    HW120063   1.741   3.731   1.648 -2.5343  0.2669  2.9345
 2867SOL    HW220064   1.832   3.848   1.680 -0.9106  0.8286  0.1318
 2868SOL     OW20065   0.851   0.108  12.028 -0.2575 -0.3668 -0.3009
 2868SOL    HW120066   0.898   0.040  11.979  0.8311  1.4058 -1.7221
 2868SOL    HW220067   0.854   0.176  11.960  2.0066  0.9574  1.1628
 2869SOL     OW20068   4.453   1.490  14.465 -0.2018 -0.1035  0.6507
 2869SOL    HW120069   4.483   1.404  14.436  0.6248  0.5066 -0.3213
 2869SOL    HW220070   4.494   1.538  14.392 -1.7359  0.8710  0.4299
 2870SOL     OW20071   3.317   1.549   4.934 -0.0571 -0.7088 -0.1232
 2870SOL    HW120072   3.339   1.618   4.996  2.7735 -1.4471 -0.3224
 2870SOL    HW220073   3.242   1.585   4.887  0.0806 -3.3971 -2.3645
 2871SOL     OW20074   1.209   4.688   4.487 -0.6825 -0.0603 -0.0254
 2871SOL    HW120075   1.187   4.623   4.420 -2.2912  0.4367  0.0137
 2871SOL    HW220076   1.302   4.701   4.467 -0.5774 -0.6867  0.0565
 2872SOL     OW20077   1.091   3.866   9.138 -0.3693  0.0280  0.2003
 2872SOL    HW120078   1.024   3.807   9.106  0.1673 -0.8648  0.7337
 2872SOL    HW220079   1.176   3.828   9.115 -1.2539 -0.7752 -1.7198
 2873SOL     OW20080   1.786   0.034   6.276  0.2053  0.4074  0.2563
 2873SOL    HW120081   1.851   0.104   6.274 -0.2971  0.8559 -0.3927
 2873SOL    HW220082   1.800   0.005   6.367  0.1184  2.0130  0.7798
 2874SOL     OW20083   3.587   0.095   7.347 -0.0048 -0.3827 -0.0590
 2874SOL    HW120084   3.570   0.017   7.401  0.0612 -1.1665 -1.1761
 2874SOL    HW220085   3.523   0.159   7.379  1.0226  0.0809  1.0824
 2875SOL     OW20086   3.944   2.346  11.116 -1.0798  0.4118 -0.3345
 2875SOL    HW120087   3.884   2.307  11.052  0.0613  1.5432 -2.0928
 2875SOL    HW220088   3.900   2.429  11.129 -0.9329  0.2599  1.1288
 2876SOL     OW20089   1.294   1.226   8.730 -0.0640 -0.2341  0.2215
 2876SOL    HW120090   1.267   1.134   8.724  1.4311 -0.7232  0.8728
 2876SOL    HW220091   1.378   1.218   8.686  0.6466  0.9131  1.3899
 2877SOL     OW20092   2.955   3.799  10.622  0.2676 -0.3830 -0.7807
 2877SOL    HW120093   2.982   3.758  10.541  0.9670 -1.1895 -0.1323
 2877SOL    HW220094   3.005   3.746  10.684 -0.5565  0.7456  0.8562
 2878SOL     OW20095   2.753   0.083   5.725  0.2157  0.4602 -0.0067
 2878SOL    HW120096   2.662   0.060   5.707  0.0879  0.4861  0.6031
 2878SOL    HW220097   2.744   0.179   5.727 -2.4684  0.2373 -1.7927
 2879SOL     OW20098   2.321   1.399  11.629 -0.2168  0.3031 -0.3420
 2879SOL    HW120099   2.297   1.408  11.722 -0.3913  2.6432 -0.6128
 2879SOL    HW220100   2.389   1.464  11.611 -0.0269 -0.9676 -4.2325
 2880SOL     OW20101   1.247   1.605   7.388  0.4606  0.0180 -0.3268
 2880SOL    HW120102   1.310   1.598   7.316 -0.2939  3.9217 -1.3945
 2880SOL    HW220103   1.293   1.648   7.460  1.0873  0.0479 -0.7362
 2881SOL     OW20104   3.569   0.922   2.340  0.5522 -0.1339  0.3705
 2881SOL    HW120105   3.582   0.851   2.277 -0.9950  0.2098 -0.3631
 2881SOL    HW220106   3.618   0.892   2.416  1.6706  0.5339 -0.0955
 2882SOL     OW20107   0.907   1.139   7.531 -0.3764 -0.0741 -0.1148
 2882SOL    HW120108   0.991   1.093   7.535 -1.1977 -1.6453 -0.6614
 2882SOL    HW220109   0.855   1.063   7.504  0.1987 -0.3758 -0.3746
 2883SOL     OW20110   1.039   4.260   4.821  0.2829  0.6897 -0.2207
 2883SOL    HW120111   1.091   4.241   4.899 -1.6456  0.9177  1.1173
 2883SOL    HW220112   0.962   4.293   4.867 -0.8317  0.6970 -2.1075
 2884SOL     OW20113   4.542   3.627   5.708  0.0510  0.0824  0.7209
 2884SOL    HW120114   4.547   3.616   5.803 -0.8313  1.3089  0.9076
 2884SOL    HW220115   4.535   3.721   5.692 -0.6906 -0.2452 -0.9079
 2885SOL     OW20116   0.014   3.662   6.620  0.2826  0.4297 -0.3094
 2885SOL    HW120117   4.671   3.595   6.623  1.1589 -0.3812  1.2146
 2885SOL    HW220118   4.700   3.726   6.562 -0.2707  1.2894  1.0284
 2886SOL     OW20119   4.385   2.956  15.566 -0.0472 -0.2851  0.0364
 2886SOL    HW120120   4.480   2.942  15.563  0.1678  1.3845 -0.8716
 2886SOL    HW220121   4.367   2.988  15.478  0.1744  1.2991  0.5575
 2887SOL     OW20122   3.935   0.685  10.241  0.0240 -0.2794 -0.4594
 2887SOL    HW120123   4.018   0.638  10.243  0.8638  1.2627  0.5276
 2887SOL    HW220124   3.871   0.620  10.269 -0.3769  0.4424  0.3219
 2888SOL     OW20125   0.206   2.342   6.626 -0.3507  0.0749 -0.0913
 2888SOL    HW120126   0.121   2.349   6.669  0.8211 -0.4442  2.2952
 2888SOL    HW220127   0.194   2.253   6.595 -1.3665 -0.2118  1.1269
 2889SOL     OW20128   3.546   3.856   0.487 -0.0844 -0.5630 -0.7085
 2889SOL    HW120129   3.541   3.887   0.396 -0.4014  3.3736  0.6665
 2889SOL    HW220130   3.536   3.764   0.459 -0.0076 -0.3721 -1.3681
 2890SOL     OW20131   2.779   3.432   4.147 -0.4813 -0.5844 -0.1410
 2890SOL    HW120132   2.696   3.412   4.190 -0.3092 -0.3958  0.2800
 2890SOL    HW220133   2.831   3.419   4.227  0.6148 -2.9994 -1.2421
 2891SOL     OW20134   3.627   1.330  17.002  0.0105  0.4806 -0.3137
 2891SOL    HW120135   3.652   1.402  16.944  2.7938 -0.4411 -0.2701
 2891SOL    HW220136   3.712   1.289  17.020 -0.1591  0.6957  0.9407
 2892SOL     OW20137   2.447   0.474   3.794  0.4030 -0.2660  0.4789
 2892SOL    HW120138   2.435   0.416   3.719  0.3190  0.1920  0.1372
 2892SOL    HW220139   2.458   0.563   3.758  1.2895 -0.8292 -0.6638
 2893SOL     OW20140   1.095   1.427   1.835 -0.2961 -0.2314  0.1246
 2893SOL    HW120141   1.059   1.507   1.872  1.2049  0.2187  0.5953
 2893SOL    HW220142   1.107   1.379   1.917  3.4286  1.2045  0.3773
 2894SOL     OW20143   1.697   0.919   3.051 -0.5628  0.6505  0.2114
 2894SOL    HW120144   1.682   0.962   3.136 -3.7027 -1.0696  0.5392
 2894SOL    HW220145   1.712   0.996   2.996 -2.5726  0.9133  0.0288
 2895SOL     OW20146   3.613   2.537  10.198  0.4284  0.4225 -0.8853
 2895SOL    HW120147   3.546   2.590  10.242 -0.8104  0.3728 -2.7288
 2895SOL    HW220148   3.563   2.463  10.164 -0.3317  0.9656 -0.9566
 2896SOL     OW20149   3.204   0.513   3.838  0.5661 -0.1004 -0.3866
 2896SOL    HW120150   3.181   0.497   3.746  1.7163  2.4545 -1.1208
 2896SOL    HW220151   3.297   0.536   3.836  0.6705 -0.4864  0.1582
 2897SOL     OW20152   1.191   2.414  11.090  0.4997  0.3363  0.3811
 2897SOL    HW120153   1.122   2.357  11.057 -0.5983  0.5881  2.2916
 2897SOL    HW220154   1.142   2.478  11.142  0.7011  0.8812 -0.1012
 2898SOL     OW20155   1.925   0.599   7.431  0.3099  0.1576  0.7685
 2898SOL    HW120156   2.015   0.625   7.410  0.8382 -1.5511  0.8861
 2898SOL    HW220157   1.904   0.569   7.343  0.4547  2.5236 -0.0695
 2899SOL     OW20158   1.625   0.240   8.836 -0.0983 -0.0430  0.1231
 2899SOL    HW120159   1.540   0.218   8.875 -0.2972 -0.9783 -0.8383
 2899SOL    HW220160   1.654   0.302   8.903  0.7391  0.2978 -0.5614
 2900SOL     OW20161   1.614   2.881   2.870  0.2483  0.6271 -0.7051
 2900SOL    HW120162   1.661   2.800   2.889 -0.5156  0.2086 -0.5992
 2900SOL    HW220163   1.529   2.850   2.838  0.8183 -1.5674 -0.0948
 2901SOL     OW20164   2.657   4.403   4.883 -0.2357 -0.1720  0.4878
 2901SOL    HW120165   2.731   4.409   4.823 -0.8590  0.4105 -0.2256
 2901SOL    HW220166   2.587   4.455   4.843 -0.7398 -1.3965 -0.2252
 2902SOL     OW20167   1.555   0.673   7.766  0.2815  0.3505  0.4497
 2902SOL    HW120168   1.522   0.702   7.852  3.0634 -0.3915  1.7782
 2902SOL    HW220169   1.649   0.689   7.777  0.5936 -0.6877 -0.8069
 2903SOL     OW20170   4.642   4.533   5.063 -0.2572 -0.0974 -0.2758
 2903SOL    HW120171   4.665   4.441   5.071 -1.0557 -0.0429  2.5969
 2903SOL    HW220172   4.557   4.529   5.019  1.0701  1.3541 -2.9856
 2904SOL     OW20173   2.019   2.002  12.437  0.1880  0.3218  0.0381
 2904SOL    HW120174   2.052   1.988  12.349 -0.6951 -2.7747  0.2051
 2904SOL    HW220175   1.937   1.952  12.432  1.0346 -0.9946 -0.6951
 2905SOL     OW20176   3.504   4.619  14.219  0.0564  0.0355 -0.0353
 2905SOL    HW120177   3.597   4.596  14.218 -0.4725 -2.1200 -0.4650
 2905SOL    HW220178   3.493   4.634  14.313  1.4989 -0.0199  0.1329
 2906SOL     OW20179   3.639   4.389   3.246  0.0728  0.4716 -0.1438
 2906SOL    HW120180   3.663   4.400   3.338  2.3250 -1.4219 -0.5281
 2906SOL    HW220181   3.702   4.447   3.204  2.2085 -0.0529  2.3345
 2907SOL     OW20182   2.630   3.816   5.377 -0.4897 -0.1023  0.0082
 2907SOL    HW120183   2.595   3.902   5.354  0.4973  0.0271 -0.9981
 2907SOL    HW220184   2.717   3.835   5.412 -0.5680  1.4737 -0.6597
 2908SOL     OW20185   3.989   0.111   4.635 -0.3917 -0.0262  0.0742
 2908SOL    HW120186   4.071   0.106   4.685  0.5679 -1.8838 -1.6728
 2908SOL    HW220187   3.923   0.064   4.685  1.1571 -2.0574  0.1999
 2909SOL     OW20188   1.685   1.982   6.543 -0.0470 -0.1564  0.1965
 2909SOL    HW120189   1.605   1.948   6.584 -0.6517  0.5544 -0.4005
 2909SOL    HW220190   1.737   1.962   6.621  2.3347  1.2346 -1.0516
 2910SOL     OW20191   1.233   2.630   2.639 -0.2341 -0.2894 -0.2481
 2910SOL    HW120192   1.220   2.648   2.546 -0.8957  1.1731  0.1284
 2910SOL    HW220193   1.158   2.578   2.665 -0.3490 -0.9626 -1.9456
 2911SOL     OW20194   2.822   3.933   2.144 -0.2645  1.0468 -0.4444
 2911SOL    HW120195   2.864   3.950   2.228 -3.8110 -2.9068  2.1174
 2911SOL    HW220196   2.901   3.916   2.093  0.8885 -1.9095  2.3770
 2912SOL     OW20197   1.384   2.642   6.431  0.6417 -0.0785  0.1832
 2912SOL    HW120198   1.417   2.640   6.341  0.0890 -1.4594  0.0071
 2912SOL    HW220199   1.292   2.632   6.409  0.5367  0.2059  0.4895
 2913SOL     OW20200   2.404   3.636  15.040 -0.2174 -0.1147  0.9448
 2913SOL    HW120201   2.409   3.702  14.970  0.0622  1.8587  2.8291
 2913SOL    HW220202   2.361   3.564  14.993  1.6646 -1.6351  1.5898
 2914SOL     OW20203   4.129   4.413   4.230  0.2587 -0.4054 -0.0059
 2914SOL    HW120204   4.143   4.504   4.205  1.5456  0.0154  2.2710
 2914SOL    HW220205   4.151   4.370   4.147 -1.1100 -0.4735 -0.3455
 2915SOL     OW20206   3.542   3.812  10.236 -0.3565  0.4251 -0.2328
 2915SOL    HW120207   3.509   3.742  10.180  1.2278  0.3949 -1.1482
 2915SOL    HW220208   3.516   3.786  10.324  2.5296  0.0726  0.5190
 2916SOL     OW20209   2.071   2.418   6.288  0.2501 -0.7643 -0.1607
 2916SOL    HW120210   2.128   2.397   6.214 -0.4925  1.1898 -1.2900
 2916SOL    HW220211   2.070   2.329   6.323 -0.0580 -0.6146  0.2098
 2917SOL     OW20212   0.165   2.769   9.116  0.3018 -0.3104 -0.8179
 2917SOL    HW120213   0.189   2.679   9.095 -1.1418 -0.3238 -2.3553
 2917SOL    HW220214   0.074   2.773   9.144  0.3868  0.3596 -0.6247
 2918SOL     OW20215   0.870   1.376   5.074  0.5871  0.0390  0.1947
 2918SOL    HW120216   0.875   1.417   4.988 -1.8037  0.9702  0.4988
 2918SOL    HW220217   0.946   1.413   5.120 -0.0195 -1.3202  2.3024
 2919SOL     OW20218   0.277   2.343   5.050 -0.1312  0.0362 -0.1266
 2919SOL    HW120219   0.292   2.407   5.119  1.5670  0.5689 -0.9798
 2919SOL    HW220220   0.344   2.359   4.983  0.2087 -1.5238 -0.1593
 2920SOL     OW20221   2.815   3.654   4.637 -0.5459  0.3186 -0.1085
 2920SOL    HW120222   2.751   3.702   4.584 -0.7092 -0.9157 -1.0214
 2920SOL    HW220223   2.853   3.733   4.675 -0.1045  0.1428 -0.1814
 2921SOL     OW20224   1.968   1.746   2.803  1.1970  0.2320  0.2969
 2921SOL    HW120225   2.028   1.672   2.813  0.2113 -0.2241  2.9395
 2921SOL    HW220226   1.939   1.750   2.894  0.0811  0.8806 -0.0832
 2922SOL     OW20227   0.075   0.745   8.135 -0.4223  0.3656 -0.8365
 2922SOL    HW120228   0.112   0.657   8.126 -1.7546 -0.3553  0.8820
 2922SOL    HW220229   0.133   0.779   8.203 -1.1539 -1.1981  0.5558
 2923SOL     OW20230   1.819   1.090   0.327  0.0349  0.0632 -0.5244
 2923SOL    HW120231   1.886   1.090   0.395 -1.1732  2.1417  0.6538
 2923SOL    HW220232   1.824   1.006   0.280 -0.5581 -0.0134 -0.4517
 2924SOL     OW20233   1.234   1.888   9.652 -0.0324  0.1759  0.0437
 2924SOL    HW120234   1.291   1.886   9.729 -0.8267  0.3775  0.6363
 2924SOL    HW220235   1.156   1.843   9.685  0.6285 -1.2122 -0.2746
 2925SOL     OW20236   2.154   4.450   8.498  0.0218 -0.5641 -0.0854
 2925SOL    HW120237   2.180   4.387   8.431  0.1105  1.4737 -1.9628
 2925SOL    HW220238   2.080   4.490   8.453  0.2749  1.2438  1.0954
 2926SOL     OW20239   0.146   0.861   6.346  0.9719  0.2955  0.3723
 2926SOL    HW120240   0.093   0.787   6.375  1.9616 -1.3512 -2.0837
 2926SOL    HW220241   0.218   0.822   6.297  1.2539  0.3506  0.7417
 2927SOL     OW20242   3.958   3.471  14.772 -0.3880  0.4187  0.1872
 2927SOL    HW120243   3.913   3.555  14.776 -1.3301  0.1147 -3.6586
 2927SOL    HW220244   3.902   3.407  14.728 -0.3275  0.6464 -0.2198
 2928SOL     OW20245   1.484   1.750   6.407  0.3843 -0.2229  0.0588
 2928SOL    HW120246   1.451   1.776   6.493 -0.9096 -0.6840 -0.2843
 2928SOL    HW220247   1.485   1.831   6.356  2.0330  0.7865  1.6784
 2929SOL     OW20248   2.588   0.558   0.676  0.3923 -0.2292  0.5651
 2929SOL    HW120249   2.580   0.636   0.622  0.8858 -0.0363  0.7755
 2929SOL    HW220250   2.683   0.556   0.690  0.6439  1.7109 -0.9991
 2930SOL     OW20251   3.192   0.356   0.618  0.0651 -0.0108  0.5930
 2930SOL    HW120252   3.152   0.416   0.556 -0.7742  1.2980  2.3855
 2930SOL    HW220253   3.198   0.409   0.698  0.2930  0.0839  0.5133
 2931SOL     OW20254   2.557   0.957   2.430 -0.2538  0.0488  0.4518
 2931SOL    HW120255   2.481   0.917   2.471  1.6391 -3.0033  0.9558
 2931SOL    HW220256   2.551   0.930   2.339 -0.1160  1.8909 -0.0996
 2932SOL     OW20257   3.087   2.482   9.236 -0.6450  0.2421  0.2186
 2932SOL    HW120258   3.119   2.572   9.237  0.7714 -0.2487 -1.8175
 2932SOL    HW220259   2.999   2.508   9.264  0.4529  2.2793  1.7122
 2933SOL     OW20260   3.325   1.417   4.398  0.0957 -0.1465  0.1639
 2933SOL    HW120261   3.351   1.359   4.470 -1.2895 -1.8382 -0.6875
 2933SOL    HW220262   3.325   1.355   4.324 -0.0926  0.5810 -0.4435
 2934SOL     OW20263   0.868   3.917  17.253  0.3346  0.1803  0.2260
 2934SOL    HW120264   0.918   3.918  17.171 -0.2979 -1.1509 -0.1602
 2934SOL    HW220265   0.924   3.857  17.302 -0.8998 -0.2458  1.0800
 2935SOL     OW20266   0.854   4.389   7.696  0.4136 -0.0114 -0.4579
 2935SOL    HW120267   0.873   4.480   7.718  0.6287 -0.5353  1.4640
 2935SOL    HW220268   0.759   4.389   7.687  0.3847  1.9363 -0.2598
 2936SOL     OW20269   0.108   1.482   3.270  0.3025 -0.1502  0.0303
 2936SOL    HW120270   0.130   1.448   3.357 -0.9310  1.6521  1.0621
 2936SOL    HW220271   0.026   1.435   3.256  0.4503 -0.3554 -0.1397
 2937SOL     OW20272   0.706   2.742   8.363  0.4066 -0.0023  0.0463
 2937SOL    HW120273   0.673   2.813   8.417 -0.3831 -1.0256  0.9207
 2937SOL    HW220274   0.773   2.709   8.423 -0.2344  0.8350  1.2131
 2938SOL     OW20275   0.781   2.582   2.310 -0.0356 -0.0109  0.2636
 2938SOL    HW120276   0.768   2.675   2.293 -1.7970 -0.5506 -1.3123
 2938SOL    HW220277   0.694   2.569   2.347 -0.0655  1.8504  0.8446
 2939SOL     OW20278   1.744   2.123   4.672  0.0454 -0.5188 -0.2432
 2939SOL    HW120279   1.718   2.039   4.636 -0.5479 -0.4190 -0.0459
 2939SOL    HW220280   1.838   2.119   4.692 -0.3807 -3.1354  1.1339
 2940SOL     OW20281   2.161   3.148   2.695  0.1308 -0.4317  0.2458
 2940SOL    HW120282   2.148   3.089   2.768  0.6253  2.2519  2.5226
 2940SOL    HW220283   2.152   3.089   2.621 -0.1617  1.3699 -1.1710
 2941SOL     OW20284   4.502   2.675   6.233 -0.3884 -0.1661  0.4177
 2941SOL    HW120285   4.574   2.681   6.295 -1.8167  0.4625  2.0412
 2941SOL    HW220286   4.431   2.718   6.282 -0.4585 -0.9304  0.9999
 2942SOL     OW20287   2.990   3.228  10.513  0.1040 -0.5133 -0.9240
 2942SOL    HW120288   2.952   3.141  10.504 -0.4761 -0.3370 -0.2249
 2942SOL    HW220289   3.034   3.232  10.428  0.0276 -1.5435 -1.0126
 2943SOL     OW20290   1.983   0.229   6.224  0.0377 -0.2377  1.1007
 2943SOL    HW120291   2.014   0.314   6.255 -0.1043 -0.1991  1.1404
 2943SOL    HW220292   2.044   0.213   6.152 -1.7295 -0.0876 -0.4436
 2944SOL     OW20293   4.430   4.421   9.216  0.0234 -0.0336 -0.1746
 2944SOL    HW120294   4.432   4.516   9.230 -2.2461 -0.2613  1.7823
 2944SOL    HW220295   4.381   4.391   9.293 -1.1462  0.5091 -0.7212
 2945SOL     OW20296   1.473   0.185   9.260 -0.1925 -0.3328  0.2465
 2945SOL    HW120297   1.546   0.205   9.319  0.4335  2.5940 -1.5337
 2945SOL    HW220298   1.461   0.091   9.273  0.8486 -0.4040  0.6726
 2946SOL     OW20299   2.529   2.255   2.997 -0.3419 -0.2928  0.2533
 2946SOL    HW120300   2.557   2.164   3.007  2.1959  0.1113 -3.1272
 2946SOL    HW220301   2.598   2.277   2.935 -0.2886 -0.9103  0.0915
 2947SOL     OW20302   3.023   0.493   0.871  0.2041  0.7148 -0.3805
 2947SOL    HW120303   3.118   0.481   0.869 -0.0106 -1.2180  1.1374
 2947SOL    HW220304   3.003   0.523   0.960  2.1884 -0.0342  0.3175
 2948SOL     OW20305   4.243   4.010  16.300  0.6917  0.1741 -0.3128
 2948SOL    HW120306   4.213   4.045  16.216  1.0545 -1.9295 -1.3094
 2948SOL    HW220307   4.279   4.084  16.350  0.4198  0.3055 -0.3111
 2949SOL     OW20308   2.141   2.711   0.202  0.6260  0.1905  1.2301
 2949SOL    HW120309   2.211   2.646   0.199  0.7260  0.4641 -2.6904
 2949SOL    HW220310   2.145   2.741   0.293 -1.1371  1.2653  0.9546
 2950SOL     OW20311   3.108   4.417   8.644 -0.1618 -0.1455  0.4609
 2950SOL    HW120312   3.013   4.410   8.654 -0.2294  0.8259  0.4924
 2950SOL    HW220313   3.126   4.451   8.732  0.9511  1.2688 -0.3189
 2951SOL     OW20314   3.522   3.270   9.745  0.0756  0.2859  0.4499
 2951SOL    HW120315   3.507   3.284   9.651  3.3238  2.7570  0.2913
 2951SOL    HW220316   3.594   3.333   9.753  0.8239 -0.6283  0.8763
 2952SOL     OW20317   1.697   1.987   8.220 -0.2480 -0.4862 -0.3890
 2952SOL    HW120318   1.732   1.979   8.308 -1.4219 -2.1416 -0.0575
 2952SOL    HW220319   1.773   2.004   8.166 -0.3486  0.6638 -0.1533
 2953SOL     OW20320   4.037   3.883   4.598 -0.6758 -0.2013 -0.0498
 2953SOL    HW120321   4.102   3.835   4.649  2.1069  2.4429 -1.1450
 2953SOL    HW220322   4.029   3.966   4.644 -0.7576 -0.2726  0.0662
 2954SOL     OW20323   4.328   2.958   2.785 -0.8911 -0.0974 -0.3471
 2954SOL    HW120324   4.245   2.944   2.830 -1.5363  0.7981 -1.2666
 2954SOL    HW220325   4.334   3.053   2.795  0.6664 -0.0466 -1.7722
 2955SOL     OW20326   3.077   1.649   4.802  0.2064 -0.2458  0.1844
 2955SOL    HW120327   3.051   1.722   4.858  2.0297  0.6357 -0.1045
 2955SOL    HW220328   3.052   1.688   4.718  0.5582  0.6146  0.4854
 2956SOL     OW20329   3.420   4.250   4.071  0.0545  0.1672 -0.0203
 2956SOL    HW120330   3.493   4.308   4.094  1.2245 -1.1200 -0.4433
 2956SOL    HW220331   3.363   4.322   4.043  1.9290  2.0424  0.8984
 2957SOL     OW20332   0.783   3.696  11.142 -0.5604  0.2036 -0.6747
 2957SOL    HW120333   0.789   3.639  11.066 -2.6631  0.6132 -1.1545
 2957SOL    HW220334   0.704   3.748  11.125 -0.5062  0.3516 -0.4773
 2958SOL     OW20335   1.179   1.329   4.463  0.6772  0.5874 -0.5491
 2958SOL    HW120336   1.096   1.299   4.426  0.8249  0.1130 -0.5048
 2958SOL    HW220337   1.184   1.411   4.413 -2.4489  1.4775  0.5925
 2959SOL     OW20338   0.407   4.116  15.661 -0.3683  0.3004 -0.1741
 2959SOL    HW120339   0.481   4.106  15.602  0.4312 -0.4610  0.9538
 2959SOL    HW220340   0.424   4.038  15.713  1.5468 -0.2487 -1.6776
 2960SOL     OW20341   4.554   1.172   9.738  0.0172  0.4871 -0.2735
 2960SOL    HW120342   4.469   1.161   9.694  0.1827  2.8684 -1.1509
 2960SOL    HW220343   4.549   1.266   9.754 -0.0326  0.3584  0.5047
 2961SOL     OW20344   0.812   3.877   8.540  0.0755 -0.5769  0.4567
 2961SOL    HW120345   0.755   3.947   8.574 -0.5796 -1.5506  1.3535
 2961SOL    HW220346   0.743   3.821   8.505  0.4151 -1.1928  0.7897
 2962SOL     OW20347   0.689   4.559   5.247  0.5334  0.5399  0.4758
 2962SOL    HW120348   0.704   4.501   5.322  3.4848  0.8428  0.1207
 2962SOL    HW220349   0.779   4.561   5.213  0.4987 -0.6779  0.3079
 2963SOL     OW20350   3.832   3.061  15.091  0.4465  0.1736  0.0091
 2963SOL    HW120351   3.849   3.054  14.997  1.2427 -1.3540  0.2807
 2963SOL    HW220352   3.824   3.155  15.107 -0.8662  0.2435 -1.0719
 2964SOL     OW20353   4.648   2.717   3.885 -0.0487 -0.0273 -0.0988
 2964SOL    HW120354   4.568   2.676   3.918 -0.6147  0.6141 -0.6867
 2964SOL    HW220355   4.658   2.660   3.809 -1.0640 -0.5342  0.1501
 2965SOL     OW20356   3.277   0.195   4.358  0.1210  0.1518  0.1839
 2965SOL    HW120357   3.287   0.154   4.445 -0.6277 -0.5648 -0.0667
 2965SOL    HW220358   3.307   0.121   4.305  0.3823  0.3409  0.0693
 2966SOL     OW20359   1.713   3.159   5.091  0.0494 -0.4109  0.1827
 2966SOL    HW120360   1.671   3.243   5.075  1.9103  0.8408  1.9028
 2966SOL    HW220361   1.634   3.108   5.108 -0.3022 -0.2210 -0.8690
 2967SOL     OW20362   4.226   0.476   6.424  0.0269 -0.9661  0.0895
 2967SOL    HW120363   4.216   0.549   6.363  1.9241 -1.1196 -0.4022
 2967SOL    HW220364   4.133   0.453   6.425 -0.3032  0.4570  1.9489
 2968SOL     OW20365   1.607   0.645   3.023 -0.5869 -0.3108  0.2262
 2968SOL    HW120366   1.585   0.638   2.930  1.9118 -1.4546 -0.2737
 2968SOL    HW220367   1.634   0.737   3.022  0.9446 -0.7435  2.0767
 2969SOL     OW20368   1.554   1.978   3.813 -0.6177  0.4813 -0.0505
 2969SOL    HW120369   1.621   2.005   3.875 -0.2454  0.3707 -0.4037
 2969SOL    HW220370   1.533   2.060   3.769 -0.3125  0.1029 -0.8902
 2970SOL     OW20371   2.600   4.557   9.271  0.4023  0.3547 -0.0395
 2970SOL    HW120372   2.537   4.628   9.283 -1.5389 -1.3507  0.0268
 2970SOL    HW220373   2.546   4.500   9.216  1.0673 -1.5891  1.3215
 2971SOL     OW20374   4.285   4.536   2.177  0.4571 -0.4956  0.2982
 2971SOL    HW120375   4.331   4.589   2.242  1.1277  1.1267 -1.4992
 2971SOL    HW220376   4.208   4.592   2.165  1.7078  1.4396  1.3217
 2972SOL     OW20377   2.291   2.668   7.414  0.2045 -0.1647 -0.6376
 2972SOL    HW120378   2.336   2.584   7.402  1.1776  0.5114 -1.6797
 2972SOL    HW220379   2.328   2.715   7.339 -0.7795  0.4008 -0.7613
 2973SOL     OW20380   4.498   0.976   3.012 -0.6794  0.7425  0.0683
 2973SOL    HW120381   4.574   1.034   3.005  1.2242 -1.6082  1.2151
 2973SOL    HW220382   4.535   0.895   3.047 -2.0297  0.7526  1.5262
 2974SOL     OW20383   2.917   2.026   0.049 -0.5551 -0.2222 -0.2289
 2974SOL    HW120384   2.900   1.934   0.067 -2.2474  0.4126  1.4217
 2974SOL    HW220385   2.832   2.070   0.050 -0.5067 -0.1486  0.8600
 2975SOL     OW20386   2.825   2.299  11.009  0.2549 -0.3980  0.1830
 2975SOL    HW120387   2.853   2.261  11.092  0.0959 -0.4330  0.2207
 2975SOL    HW220388   2.779   2.221  10.978  1.8343 -0.1954 -2.6008
 2976SOL     OW20389   2.823   2.802  15.947  0.1260 -0.0420  0.0436
 2976SOL    HW120390   2.887   2.747  15.991  1.6275  1.7537  0.0875
 2976SOL    HW220391   2.740   2.760  15.969 -0.7782  2.5211  1.5620
 2977SOL     OW20392   2.654   1.891  10.249  0.3354 -0.1093 -0.0547
 2977SOL    HW120393   2.590   1.941  10.197  2.2672 -0.3677 -2.6741
 2977SOL    HW220394   2.604   1.851  10.320  0.8427 -0.2769  0.2066
 2978SOL     OW20395   3.910   1.613   5.228  0.6160  0.2694  0.4697
 2978SOL    HW120396   4.000   1.640   5.245  0.9603 -1.0463  0.7075
 2978SOL    HW220397   3.878   1.679   5.166  1.9022 -0.5184 -1.0413
 2979SOL     OW20398   2.303   4.530  11.500  0.6226 -0.6274 -0.0678
 2979SOL    HW120399   2.352   4.450  11.520  2.2281  0.3242 -0.2616
 2979SOL    HW220400   2.213   4.509  11.527  0.2144 -0.3967 -1.2484
 2980SOL     OW20401   3.774   0.152   0.949  0.4093 -0.0157  0.2627
 2980SOL    HW120402   3.802   0.080   0.893 -0.2102  0.9554 -1.2768
 2980SOL    HW220403   3.685   0.161   0.916  0.1296  0.5222  1.1661
 2981SOL     OW20404   1.895   2.408   9.030  0.4297 -0.3177 -0.3814
 2981SOL    HW120405   1.948   2.330   9.048 -2.4899 -1.9214  1.1306
 2981SOL    HW220406   1.811   2.371   9.005 -0.6796  0.9006  1.5676
 2982SOL     OW20407   2.297   4.618   3.577 -0.2125 -0.1052  0.2791
 2982SOL    HW120408   2.290   4.678   3.503 -0.7049  0.0650  0.4671
 2982SOL    HW220409   2.318   4.682   3.644  0.5077 -0.2354  0.1726
 2983SOL     OW20410   3.446   2.267   5.992 -0.1375 -0.1731 -0.1511
 2983SOL    HW120411   3.366   2.307   5.960 -0.3982 -0.0654  0.6397
 2983SOL    HW220412   3.479   2.337   6.047 -0.4011  0.5157 -0.8729
 2984SOL     OW20413   0.695   1.728   7.966 -0.2067  0.3091 -0.3987
 2984SOL    HW120414   0.742   1.660   7.919  0.2751  2.4501 -3.0428
 2984SOL    HW220415   0.675   1.789   7.894  1.7275  1.3818 -0.0307
 2985SOL     OW20416   2.111   2.761  15.913 -0.2278  0.5687 -0.3602
 2985SOL    HW120417   2.138   2.688  15.857 -1.4496  0.7533 -1.1864
 2985SOL    HW220418   2.131   2.841  15.864  0.0339  1.2836  0.9149
 2986SOL     OW20419   0.650   2.002   3.837 -0.1374 -0.2315 -0.5201
 2986SOL    HW120420   0.564   1.972   3.865  1.1301 -3.6980 -0.2686
 2986SOL    HW220421   0.638   2.096   3.824  2.3106  0.8675  5.0023
 2987SOL     OW20422   2.322   4.549  14.206  0.4340  0.1084  0.1636
 2987SOL    HW120423   2.328   4.641  14.230 -1.1134  0.3378 -0.3180
 2987SOL    HW220424   2.415   4.527  14.215  0.5102  0.4074  0.1150
 2988SOL     OW20425   4.302   4.495   5.355 -0.1612 -0.1695  0.2846
 2988SOL    HW120426   4.295   4.582   5.396  0.6317 -0.8435  1.8495
 2988SOL    HW220427   4.244   4.454   5.419 -1.4912  1.2974  0.0399
 2989SOL     OW20428   3.795   0.419   0.995 -0.0866  0.0838 -0.6893
 2989SOL    HW120429   3.875   0.470   0.981  1.2394 -2.3720 -1.9998
 2989SOL    HW220430   3.822   0.337   0.953 -0.1804 -0.3470  0.1053
 2990SOL     OW20431   0.443   4.503  13.428 -0.8459  0.0144  0.2739
 2990SOL    HW120432   0.474   4.556  13.501  2.1490 -0.3668 -0.7296
 2990SOL    HW220433   0.470   4.420  13.469  0.5435  0.2563 -0.1469
 2991SOL     OW20434   3.158   3.716   4.489  0.4000 -0.4651  0.3547
 2991SOL    HW120435   3.129   3.803   4.461  2.5886  0.0025 -0.4567
 2991SOL    HW220436   3.230   3.702   4.427  1.2624  1.0680  1.0272
 2992SOL     OW20437   1.104   3.551   3.885  0.1095  0.0062 -0.1464
 2992SOL    HW120438   1.156   3.607   3.827  0.9787 -1.3807 -0.7001
 2992SOL    HW220439   1.054   3.625   3.919  0.6295 -0.7989  2.3619
 2993SOL     OW20440   1.407   0.334   1.885 -0.0599  0.4579 -0.2161
 2993SOL    HW120441   1.491   0.375   1.903  0.7812 -0.9179 -1.0210
 2993SOL    HW220442   1.416   0.245   1.921  3.3407  0.0302 -2.0955
 2994SOL     OW20443   4.616   3.072  15.202 -0.2075 -0.5222 -0.1770
 2994SOL    HW120444   4.531   3.042  15.234  0.1554 -1.5394 -0.1591
 2994SOL    HW220445   4.612   3.165  15.226  2.4347 -0.6170  0.6855
 2995SOL     OW20446   0.618   0.093   4.272  0.7873  0.0538  0.1374
 2995SOL    HW120447   0.652   0.004   4.278  2.8356  0.8316  0.0368
 2995SOL    HW220448   0.614   0.079   4.177  3.2901  0.9171 -0.0810
 2996SOL     OW20449   2.063   0.035   4.297  0.6713  0.0792  0.4580
 2996SOL    HW120450   1.980   4.723   4.268  1.0390 -1.3378  1.2727
 2996SOL    HW220451   2.079   0.108   4.236 -0.2543  0.7927  1.0677
 2997SOL     OW20452   1.085   3.310   4.573 -0.1532  0.4273 -0.2888
 2997SOL    HW120453   0.996   3.311   4.608 -0.2929  0.3776 -0.6363
 2997SOL    HW220454   1.118   3.222   4.591  0.3134  0.7350  0.3404
 2998SOL     OW20455   2.849   2.957  16.793  0.3017 -0.5991  0.6288
 2998SOL    HW120456   2.846   3.023  16.863 -1.7042  0.1754 -0.1747
 2998SOL    HW220457   2.844   2.890  16.861  1.1449 -0.4385  0.8500
 2999SOL     OW20458   4.664   1.706   8.442  0.1458  0.3615 -0.4868
 2999SOL    HW120459   0.003   1.635   8.446 -0.9446 -0.6078 -0.3515
 2999SOL    HW220460   4.655   1.738   8.532  2.0933 -1.3670  0.3190
 3000SOL     OW20461   3.799   1.006   3.037 -0.1684 -0.0245 -0.0401
 3000SOL    HW120462   3.849   1.054   3.103 -0.5228 -0.2578  0.4032
 3000SOL    HW220463   3.865   1.006   2.968 -0.5059 -0.3220 -0.3592
 3001SOL     OW20464   4.092   2.458   0.162 -0.6988 -0.2296 -0.0852
 3001SOL    HW120465   4.095   2.470   0.257  1.1992  0.5258 -0.2256
 3001SOL    HW220466   4.178   2.419   0.143 -0.4271 -0.0429  0.7790
 3002SOL     OW20467   1.525   3.488  16.392  0.3046 -0.5203  0.3348
 3002SOL    HW120468   1.520   3.458  16.301  2.5359  0.3807 -0.0920
 3002SOL    HW220469   1.439   3.471  16.428  0.7029 -1.9113  0.6223
 3003SOL     OW20470   0.372   1.868   2.489 -0.1621 -0.0495 -0.0084
 3003SOL    HW120471   0.284   1.843   2.517  0.8980 -2.8648  0.7470
 3003SOL    HW220472   0.366   1.963   2.497  0.7031 -0.0259  0.2884
 3004SOL     OW20473   4.309   2.825   2.259  0.1733  0.0979  0.1802
 3004SOL    HW120474   4.363   2.865   2.191 -1.2568  2.5138  0.4710
 3004SOL    HW220475   4.365   2.752   2.286  1.6779  1.4317  0.6356
 3005SOL     OW20476   3.941   3.557   5.944  0.4269  0.5227  0.1120
 3005SOL    HW120477   3.867   3.612   5.917  0.2779  0.7849  1.0452
 3005SOL    HW220478   3.911   3.466   5.948  1.4019  0.2607  1.3720
 3006SOL     OW20479   2.995   2.370  10.803  0.2233  0.4775  0.4619
 3006SOL    HW120480   3.061   2.301  10.807  1.0872  1.3457  1.2658
 3006SOL    HW220481   2.934   2.357  10.876 -0.6355  2.1457  0.0583
 3007SOL     OW20482   0.538   2.677   4.405 -0.6663  0.1542 -0.3590
 3007SOL    HW120483   0.608   2.741   4.393 -1.3117  0.8895 -0.2008
 3007SOL    HW220484   0.465   2.726   4.366  0.4448  2.0901 -0.0367
 3008SOL     OW20485   0.120   3.545   6.945  0.4017 -0.0912  0.4625
 3008SOL    HW120486   0.212   3.573   6.941  0.0958  0.8664 -0.0031
 3008SOL    HW220487   0.112   3.489   6.867  0.3534  0.3783  0.1294
 3009SOL     OW20488   3.979   3.774  16.994 -0.5590 -0.1794 -0.1248
 3009SOL    HW120489   3.962   3.804  16.904 -1.9411 -1.1121 -0.1744
 3009SOL    HW220490   3.939   3.847  17.040 -0.0571  0.1058 -0.1449
 3010SOL     OW20491   3.315   4.346   1.753  0.3524 -0.2163 -0.3675
 3010SOL    HW120492   3.315   4.251   1.769 -2.1491  0.4564  3.4903
 3010SOL    HW220493   3.348   4.338   1.663  3.0606 -0.6578  0.6744
 3011SOL     OW20494   1.569   1.512  16.487 -0.5148 -0.0243  0.2783
 3011SOL    HW120495   1.526   1.426  16.486  0.1436 -0.3628  0.9645
 3011SOL    HW220496   1.505   1.551  16.547 -0.8351 -0.3063  0.1192
 3012SOL     OW20497   2.032   0.294  11.469  0.3923 -0.1173 -0.3976
 3012SOL    HW120498   2.127   0.283  11.467  0.1050 -2.1496 -2.5038
 3012SOL    HW220499   2.019   0.324  11.559  1.5748 -0.2285 -0.1850
 3013SOL     OW20500   3.482   4.484  15.846 -0.2681  0.3140 -0.0183
 3013SOL    HW120501   3.469   4.445  15.933 -0.0110  1.2332  0.4326
 3013SOL    HW220502   3.503   4.571  15.879 -1.0561  0.0019  1.3135
 3014SOL     OW20503   1.091   0.638  14.410  0.7076  0.0183 -0.1157
 3014SOL    HW120504   1.016   0.582  14.390  2.1893 -1.7112 -0.8383
 3014SOL    HW220505   1.128   0.652  14.323 -0.7862  0.5393 -0.6621
 3015SOL     OW20506   0.010   3.004  17.295  0.2958 -0.3217 -0.0182
 3015SOL    HW120507   4.682   3.078  17.324 -2.4694 -2.1962 -0.2866
 3015SOL    HW220508   0.093   3.050  17.301  0.7191 -0.7486 -2.4117
 3016SOL     OW20509   4.194   2.717   5.504  0.0706  0.1746  0.2997
 3016SOL    HW120510   4.156   2.663   5.435 -0.9416  1.5661 -0.2014
 3016SOL    HW220511   4.159   2.803   5.482  0.9377  0.0602 -1.5429
 3017SOL     OW20512   1.658   0.977   6.508 -0.4671 -0.4773 -0.8676
 3017SOL    HW120513   1.620   0.990   6.421  0.0646  3.7929 -0.4622
 3017SOL    HW220514   1.583   0.928   6.541 -0.1213  0.8555  1.8584
 3018SOL     OW20515   3.040   0.184   5.840  0.1283  0.0286  0.4245
 3018SOL    HW120516   3.092   0.105   5.853  1.3411  0.6953 -0.3882
 3018SOL    HW220517   2.951   0.151   5.830  0.3925 -0.7242  0.6044
 3019SOL     OW20518   0.613   0.066   1.378  0.0471  0.2860  0.7362
 3019SOL    HW120519   0.637   0.071   1.285  0.7669 -1.1746  0.8461
 3019SOL    HW220520   0.684   0.104   1.429  0.7731 -0.6941  0.4483
 3020SOL     OW20521   0.035   3.155   4.321 -0.7572 -0.1740 -0.2045
 3020SOL    HW120522   0.038   3.224   4.388  0.8991 -0.4006 -0.0646
 3020SOL    HW220523   4.679   3.183   4.278 -0.8738  1.0909  0.8192
 3021SOL     OW20524   4.046   3.212   6.122 -0.4121 -0.3718 -0.2464
 3021SOL    HW120525   4.014   3.249   6.204  1.8810  0.2179  0.3931
 3021SOL    HW220526   3.964   3.207   6.074 -0.0653  0.5005 -0.9404
 3022SOL     OW20527   1.301   3.771  15.694 -0.3847 -0.9223 -0.4611
 3022SOL    HW120528   1.224   3.730  15.655 -1.9342  0.8696  0.6555
 3022SOL    HW220529   1.295   3.752  15.788  0.5671  1.0814  0.0075
 3023SOL     OW20530   1.715   0.117  15.180  0.5431  0.1466 -0.0236
 3023SOL    HW120531   1.683   0.056  15.246 -2.6425  2.7253  0.7795
 3023SOL    HW220532   1.734   0.198  15.228 -2.0209  1.3077 -0.9832
 3024SOL     OW20533   4.103   3.556   0.564  0.0845  0.0844  0.3918
 3024SOL    HW120534   4.133   3.635   0.518  2.2787  0.0897  1.8447
 3024SOL    HW220535   4.150   3.489   0.514 -2.8513 -0.6838 -1.3711
 3025SOL     OW20536   4.615   0.359  16.257 -0.1065  0.3462  0.5269
 3025SOL    HW120537   4.531   0.367  16.302  1.0025 -0.1467  2.7033
 3025SOL    HW220538   4.598   0.274  16.217  2.2356  0.0686  0.1379
 3026SOL     OW20539   1.735   3.120   2.966 -0.1000 -0.4303 -0.1598
 3026SOL    HW120540   1.744   3.088   3.055 -1.6665  1.2803  0.6052
 3026SOL    HW220541   1.673   3.052   2.939 -0.0402  0.4203 -2.4787
 3027SOL     OW20542   1.128   0.751   7.019  0.9714 -0.2607  0.0115
 3027SOL    HW120543   1.159   0.777   7.105 -0.0981 -2.2388  0.9969
 3027SOL    HW220544   1.129   0.836   6.975  1.8456  0.7640  2.0351
 3028SOL     OW20545   2.600   2.252   3.410 -0.0716  0.4101 -0.5641
 3028SOL    HW120546   2.656   2.329   3.410 -0.8963  1.0072  1.7230
 3028SOL    HW220547   2.651   2.193   3.354  0.3128  0.0247  0.1748
 3029SOL     OW20548   2.343   3.249   5.058  0.3136 -0.7001 -0.4133
 3029SOL    HW120549   2.317   3.325   5.110 -0.6223 -0.2438 -1.5633
 3029SOL    HW220550   2.328   3.181   5.124 -0.6630 -0.9454 -0.8904
 3030SOL     OW20551   2.823   0.540   5.839 -1.0348  0.5337 -0.4260
 3030SOL    HW120552   2.916   0.520   5.826 -0.8954  1.6033 -1.1133
 3030SOL    HW220553   2.780   0.480   5.777  0.3241 -1.6143  0.7014
 3031SOL     OW20554   2.494   3.717   4.777  0.4836 -0.3982 -0.6666
 3031SOL    HW120555   2.576   3.695   4.822 -0.2745 -1.8665 -0.0038
 3031SOL    HW220556   2.523   3.738   4.688  1.9366 -1.0100 -0.3351
 3032SOL     OW20557   2.744   4.053   6.506 -0.2837  0.1727 -0.4078
 3032SOL    HW120558   2.683   3.982   6.487 -1.3757  1.2249 -0.8271
 3032SOL    HW220559   2.735   4.070   6.600  1.8330 -3.6121  0.4707
 3033SOL     OW20560   2.868   0.801   6.279 -0.4258 -0.3677 -0.2644
 3033SOL    HW120561   2.797   0.770   6.222 -0.7111 -0.3613  0.0932
 3033SOL    HW220562   2.937   0.741   6.251 -0.2331  0.2770 -1.1939
 3034SOL     OW20563   3.374   2.221   3.378 -0.2634 -0.6103 -0.0163
 3034SOL    HW120564   3.310   2.278   3.421 -0.4275 -0.1378 -0.8828
 3034SOL    HW220565   3.454   2.255   3.419 -0.8465 -0.5913  1.1041
 3035SOL     OW20566   1.627   1.058   8.342 -0.4538 -0.5252  0.1457
 3035SOL    HW120567   1.569   1.130   8.318  0.7692 -0.2152 -1.9138
 3035SOL    HW220568   1.707   1.111   8.341 -1.6757  1.3153 -0.5113
 3036SOL     OW20569   2.796   3.248  12.603 -0.0282  0.3570  0.4534
 3036SOL    HW120570   2.731   3.311  12.571 -1.8818 -1.5205  0.5501
 3036SOL    HW220571   2.816   3.195  12.526  2.1894 -1.9339  2.5939
 3037SOL     OW20572   1.535   0.356  10.505 -0.2273 -0.1823 -0.8477
 3037SOL    HW120573   1.458   0.357  10.562 -1.1404 -0.8902 -2.0661
 3037SOL    HW220574   1.576   0.443  10.502  0.1621 -0.3606 -0.6285
 3038SOL     OW20575   4.127   2.613   7.840 -0.8416  0.1412 -0.2244
 3038SOL    HW120576   4.112   2.637   7.749 -2.1901  0.0229 -0.0386
 3038SOL    HW220577   4.200   2.668   7.868  0.9187 -1.8173 -1.0230
 3039SOL     OW20578   1.290   2.900   7.184 -0.3929 -0.2368  0.0711
 3039SOL    HW120579   1.328   2.942   7.261 -4.7329  3.1084  0.3986
 3039SOL    HW220580   1.356   2.833   7.165  0.8780  0.9647  0.2381
 3040SOL     OW20581   0.110   2.936   8.270  0.1728 -0.5372 -0.1461
 3040SOL    HW120582   0.093   3.029   8.283 -2.8538 -1.1895  0.5154
 3040SOL    HW220583   0.073   2.930   8.182 -1.4708 -1.8619  0.6278
 3041SOL     OW20584   2.177   2.529  15.779  0.0292 -0.4157  0.4136
 3041SOL    HW120585   2.133   2.565  15.702  0.3248  1.0723  0.9272
 3041SOL    HW220586   2.245   2.477  15.736  0.3635  1.3301 -1.2055
 3042SOL     OW20587   0.358   2.939   0.776  0.2056  0.5407 -0.4000
 3042SOL    HW120588   0.297   2.993   0.725 -1.2775  1.0952  1.9936
 3042SOL    HW220589   0.338   2.979   0.860 -0.0982  4.2067 -2.2028
 3043SOL     OW20590   4.137   2.809  10.728  0.2542  0.0984 -0.0469
 3043SOL    HW120591   4.205   2.742  10.731  0.3210  0.1861  0.4437
 3043SOL    HW220592   4.076   2.777  10.663 -0.7218 -1.0011  1.4119
 3044SOL     OW20593   3.962   4.132  16.443  0.5329  0.0585  0.0778
 3044SOL    HW120594   4.050   4.160  16.469  0.8804  0.3092 -1.3726
 3044SOL    HW220595   3.961   4.141  16.348  3.3842  2.0984  0.2375
 3045SOL     OW20596   0.360   0.123   5.454  0.6940 -0.4665  0.0272
 3045SOL    HW120597   0.356   0.029   5.470 -0.5299 -1.1069 -4.0552
 3045SOL    HW220598   0.419   0.153   5.523  0.5995  1.4342 -0.7171
 3046SOL     OW20599   3.371   1.758   6.476 -0.5595 -0.1461 -0.2315
 3046SOL    HW120600   3.413   1.674   6.461 -0.2224 -0.6193  3.3836
 3046SOL    HW220601   3.406   1.791   6.559 -0.9849  0.3880 -0.2587
 3047SOL     OW20602   1.937   2.108   7.182 -0.2017  0.5203  0.0305
 3047SOL    HW120603   1.910   2.038   7.241  1.2530  1.2967  1.6362
 3047SOL    HW220604   2.014   2.142   7.228  0.6989  0.8394 -1.7209
 3048SOL     OW20605   4.386   3.209   8.863  0.1095 -0.5560  0.4298
 3048SOL    HW120606   4.425   3.132   8.821  0.3590 -1.0988  1.6261
 3048SOL    HW220607   4.440   3.279   8.827 -0.0808 -0.1473  0.9342
 3049SOL     OW20608   3.553   0.700   0.880 -0.4806  0.2437 -0.1993
 3049SOL    HW120609   3.499   0.675   0.954 -2.6897  0.1247 -1.8408
 3049SOL    HW220610   3.496   0.767   0.840  1.2699  2.4353  0.9561
 3050SOL     OW20611   2.009   0.597  15.537  0.3225  0.2189  0.2817
 3050SOL    HW120612   2.001   0.632  15.626  2.0322 -0.1723  0.5721
 3050SOL    HW220613   1.939   0.531  15.534 -0.2728  0.9944 -2.8137
 3051SOL     OW20614   0.231   3.411   4.052  0.9652  0.6096  0.2112
 3051SOL    HW120615   0.240   3.492   4.001  1.6032 -0.6032 -1.6415
 3051SOL    HW220616   0.157   3.382   3.997  1.8849  0.9345 -1.2090
 3052SOL     OW20617   1.062   1.047   0.551 -0.0113 -0.0197  0.0952
 3052SOL    HW120618   1.105   1.122   0.592 -0.3793 -0.5045  1.3574
 3052SOL    HW220619   1.003   1.026   0.623 -1.5691 -1.3425 -1.5721
 3053SOL     OW20620   1.957   0.714   4.602  0.0033 -0.1353  0.2358
 3053SOL    HW120621   2.030   0.701   4.663 -0.0916  0.3100  0.4421
 3053SOL    HW220622   1.980   0.649   4.535  1.0237 -0.1053  0.5563
 3054SOL     OW20623   2.618   2.976   3.014  0.0663  0.6105  0.2047
 3054SOL    HW120624   2.548   2.983   2.949  0.2162  0.3138  0.0113
 3054SOL    HW220625   2.586   2.902   3.065 -0.6173  0.6240 -0.2004
 3055SOL     OW20626   0.086   4.708  13.188 -0.6776 -0.6814 -1.0974
 3055SOL    HW120627   0.104   0.002  13.280 -0.1303  1.1658 -1.6022
 3055SOL    HW220628   0.007   4.657  13.205  0.7787 -2.7784 -0.6014
 3056SOL     OW20629   1.870   1.400   7.868  0.4366 -0.2637 -0.1930
 3056SOL    HW120630   1.828   1.332   7.815  2.3949 -2.5428  1.1533
 3056SOL    HW220631   1.829   1.367   7.947 -0.8998  0.3604 -0.6278
 3057SOL     OW20632   3.776   3.245   2.756  0.3589  0.1767 -0.1349
 3057SOL    HW120633   3.830   3.303   2.702  1.6128 -0.2471  0.6703
 3057SOL    HW220634   3.829   3.166   2.751  0.0599  0.0543 -1.3723
 3058SOL     OW20635   1.255   0.877  13.077  0.5466 -0.4176  0.4215
 3058SOL    HW120636   1.246   0.795  13.028  1.2807 -0.9456  1.1576
 3058SOL    HW220637   1.344   0.906  13.059 -0.2633  1.9283  0.2755
 3059SOL     OW20638   1.261   3.667   3.067 -0.8105 -0.1319 -0.2446
 3059SOL    HW120639   1.356   3.651   3.061 -0.7261 -0.0673  0.9496
 3059SOL    HW220640   1.233   3.575   3.066 -0.7471 -0.1548  0.0323
 3060SOL     OW20641   0.438   0.551  14.477  0.0956  0.2229 -0.2854
 3060SOL    HW120642   0.364   0.612  14.475  1.0014  1.3369 -0.0131
 3060SOL    HW220643   0.434   0.529  14.384  2.0494  1.1231 -0.5931
 3061SOL     OW20644   2.940   0.200   7.018  0.2196  0.5821  0.2511
 3061SOL    HW120645   3.028   0.174   6.989 -1.0455 -1.5108 -1.7278
 3061SOL    HW220646   2.960   0.248   7.098  1.1821  0.2377  0.2254
 3062SOL     OW20647   4.141   3.239  12.066 -0.4537  0.7985  0.3865
 3062SOL    HW120648   4.081   3.250  12.139  0.4511 -0.1271  1.2600
 3062SOL    HW220649   4.211   3.298  12.093  0.9797 -0.8013  0.1821
 3063SOL     OW20650   3.549   0.694   8.030 -0.2641  0.4176 -0.2608
 3063SOL    HW120651   3.494   0.696   8.108  1.2561  0.9885  0.8063
 3063SOL    HW220652   3.508   0.759   7.974  0.2303 -1.0434 -2.3232
 3064SOL     OW20653   3.716   2.466  10.726 -0.1896  0.0387  0.3510
 3064SOL    HW120654   3.663   2.519  10.785  0.3716 -0.4073  1.2492
 3064SOL    HW220655   3.750   2.538  10.672 -0.6017 -0.1198 -0.1128
 3065SOL     OW20656   0.115   3.635   7.206  0.2617  0.5311 -0.2927
 3065SOL    HW120657   0.195   3.583   7.216 -0.4198 -0.8990 -2.2153
 3065SOL    HW220658   0.095   3.609   7.116 -1.2327  1.1408 -0.1223
 3066SOL     OW20659   3.638   0.943   8.782 -0.1312 -0.0784  0.1029
 3066SOL    HW120660   3.673   0.865   8.738 -0.1373  0.8315 -1.5316
 3066SOL    HW220661   3.562   0.898   8.817  0.7576 -2.4762 -1.0192
 3067SOL     OW20662   1.975   1.252   7.248  0.4626 -1.0029 -0.0786
 3067SOL    HW120663   1.910   1.209   7.303  0.3769 -2.0399 -0.9805
 3067SOL    HW220664   2.053   1.204   7.276  1.2724 -0.2763 -1.0603
 3068SOL     OW20665   4.214   2.790  15.172  0.6407  0.2429 -0.1703
 3068SOL    HW120666   4.197   2.713  15.118  0.7081 -0.3159  0.6106
 3068SOL    HW220667   4.246   2.751  15.253 -1.7920 -1.4324  0.0019
 3069SOL     OW20668   2.069   2.771  13.834  0.7053  0.3226 -0.5722
 3069SOL    HW120669   2.090   2.684  13.799 -0.3404 -0.5007  0.8540
 3069SOL    HW220670   2.015   2.805  13.762 -1.2343 -0.3023  0.5861
 3070SOL     OW20671   2.498   0.040  17.310 -0.2153  0.3766 -0.1414
 3070SOL    HW120672   2.402   0.048  17.309 -0.1534  1.2148 -0.0560
 3070SOL    HW220673   2.514   4.705  17.382  1.4145  1.0268  0.0322
 3071SOL     OW20674   3.675   3.454   6.848 -0.0834 -0.1151  0.2100
 3071SOL    HW120675   3.762   3.492   6.849 -0.2179  0.1569  1.6203
 3071SOL    HW220676   3.635   3.505   6.778  1.5157  1.5720  0.5179
 3072SOL     OW20677   3.797   0.652   7.730  0.3656  0.2632  0.5984
 3072SOL    HW120678   3.707   0.629   7.708  0.0104  0.3329  1.9780
 3072SOL    HW220679   3.849   0.616   7.658 -2.0289  1.4956 -1.7653
 3073SOL     OW20680   3.093   3.055   6.981  0.2383  0.5919 -0.1357
 3073SOL    HW120681   3.005   3.077   7.011  0.7252  0.9288  1.0223
 3073SOL    HW220682   3.150   3.120   7.022  1.2979  0.3532 -1.2180
 3074SOL     OW20683   3.169   0.095   7.689  0.0754  0.1946 -0.1772
 3074SOL    HW120684   3.118   0.045   7.754  0.1602  0.6803  0.2612
 3074SOL    HW220685   3.232   0.025   7.673  0.9434  0.8586  0.3550
 3075SOL     OW20686   4.311   0.215   6.488  0.6318 -0.0022 -0.1429
 3075SOL    HW120687   4.381   0.228   6.425 -0.3668  0.7100 -1.1076
 3075SOL    HW220688   4.259   0.295   6.486 -0.4324 -0.6775  0.2462
 3076SOL     OW20689   3.886   2.746   2.225  0.2810  0.2846 -0.5088
 3076SOL    HW120690   3.879   2.819   2.164  0.8839  0.6407 -0.1551
 3076SOL    HW220691   3.883   2.666   2.172  1.5842  0.7652 -1.3182
 3077SOL     OW20692   1.521   0.471  14.980 -0.2679  0.1631 -0.2312
 3077SOL    HW120693   1.543   0.379  14.963  1.8910  0.7651 -0.6733
 3077SOL    HW220694   1.487   0.498  14.895  3.3034 -0.3597 -1.8265
 3078SOL     OW20695   2.206   1.087  16.702 -0.2779  0.0109  0.0090
 3078SOL    HW120696   2.173   1.009  16.747  2.1459 -0.5817  0.7800
 3078SOL    HW220697   2.292   1.092  16.743 -1.7542 -0.2027  3.1117
 3079SOL     OW20698   1.233   3.989   5.372  0.1898  0.2360  0.1116
 3079SOL    HW120699   1.163   3.981   5.437  0.1509  0.7731  0.1404
 3079SOL    HW220700   1.297   4.029   5.431  1.8948  2.0135 -2.9691
 3080SOL     OW20701   4.023   0.874   9.041 -0.2620  0.2361 -0.1239
 3080SOL    HW120702   4.052   0.963   9.058 -2.1919  0.7342  0.5617
 3080SOL    HW220703   4.036   0.868   8.946 -3.0131  0.8991 -0.5432
 3081SOL     OW20704   1.875   4.541   8.268 -0.1116 -0.4328  0.2184
 3081SOL    HW120705   1.786   4.510   8.286 -1.1111  1.4749 -1.4861
 3081SOL    HW220706   1.877   4.633   8.295 -0.7324 -0.1747 -0.6113
 3082SOL     OW20707   2.190   1.874   1.131  0.3616  0.0824 -0.1461
 3082SOL    HW120708   2.115   1.883   1.189 -0.1057 -1.0934 -0.5686
 3082SOL    HW220709   2.145   1.830   1.059  4.5747 -1.7484 -1.6560
 3083SOL     OW20710   1.895   1.471   5.282  0.4321  0.0741  0.0572
 3083SOL    HW120711   1.948   1.548   5.303 -0.9671  1.3925 -1.2626
 3083SOL    HW220712   1.966   1.417   5.246  1.5864  1.0732  0.8425
 3084SOL     OW20713   1.423   0.884   6.786  0.1965  0.3931 -0.1189
 3084SOL    HW120714   1.407   0.852   6.698 -0.3914 -1.3399  0.6131
 3084SOL    HW220715   1.355   0.951   6.794 -0.2167 -0.0293 -0.1304
 3085SOL     OW20716   2.311   0.787  14.869  0.4060 -0.0880 -0.1297
 3085SOL    HW120717   2.257   0.860  14.840 -0.7022 -0.1130  1.8668
 3085SOL    HW220718   2.367   0.768  14.793  1.5561 -0.3073  0.7681
 3086SOL     OW20719   2.374   3.526   2.060 -0.4439  0.3845  0.0686
 3086SOL    HW120720   2.345   3.617   2.050  1.0591  0.7377 -1.0403
 3086SOL    HW220721   2.439   3.510   1.992  0.7557 -1.8120  1.7164
 3087SOL     OW20722   2.829   0.221   3.004  0.2720 -0.0060  0.3801
 3087SOL    HW120723   2.751   0.237   2.951  0.2716  0.6792  0.5937
 3087SOL    HW220724   2.889   0.175   2.945 -0.8107  0.1792 -0.8741
 3088SOL     OW20725   4.577   1.969   7.990 -0.1497  0.0197 -0.4223
 3088SOL    HW120726   4.605   2.058   7.968  0.7852  0.1596  1.3789
 3088SOL    HW220727   4.481   1.967   7.983 -0.2841  0.8127  1.3079
 3089SOL     OW20728   4.081   0.427  11.258 -0.4132 -0.6207 -0.1626
 3089SOL    HW120729   4.143   0.487  11.299 -0.1069 -0.9056 -0.2079
 3089SOL    HW220730   4.133   0.347  11.257  1.5737  0.6674  0.0038
 3090SOL     OW20731   4.191   4.415   2.934 -0.4717 -0.1093 -0.5907
 3090SOL    HW120732   4.262   4.385   2.878  1.5578 -2.6874  3.3977
 3090SOL    HW220733   4.233   4.475   2.996 -1.9241 -0.4485  0.7411
 3091SOL     OW20734   0.110   3.043  12.308 -0.3294 -0.1783  0.8030
 3091SOL    HW120735   0.048   3.100  12.263 -0.9239 -0.5261  1.1778
 3091SOL    HW220736   0.089   2.953  12.285 -0.2718 -0.0071  0.0817
 3092SOL     OW20737   3.926   3.812   3.650 -0.2354 -0.1143 -0.4139
 3092SOL    HW120738   3.846   3.763   3.671  0.2405 -0.1147  1.3942
 3092SOL    HW220739   3.908   3.892   3.700 -0.5626 -1.6642  1.9879
 3093SOL     OW20740   2.681   1.000   8.623 -0.6064  0.5693  0.4671
 3093SOL    HW120741   2.650   0.986   8.534  0.4909  0.2706  0.1264
 3093SOL    HW220742   2.648   1.086   8.650 -0.0581  1.1993 -0.8391
 3094SOL     OW20743   1.884   2.740   6.432  0.2054  0.0402 -0.6414
 3094SOL    HW120744   1.884   2.808   6.366  1.0621  1.0272  0.3803
 3094SOL    HW220745   1.911   2.792   6.508 -2.0439 -0.7662  0.7213
 3095SOL     OW20746   1.711   2.608   3.614  0.5285 -0.1171  0.1046
 3095SOL    HW120747   1.707   2.622   3.519  2.5630 -1.2516 -0.1724
 3095SOL    HW220748   1.620   2.581   3.622  0.4400 -0.1104 -0.7885
 3096SOL     OW20749   3.426   1.768   1.999  0.2435 -0.2062 -0.3368
 3096SOL    HW120750   3.427   1.864   2.000 -1.7816 -0.1943  0.5759
 3096SOL    HW220751   3.516   1.744   1.975  0.7609 -0.8978  2.2091
 3097SOL     OW20752   1.736   0.398   6.274  0.1738  0.3355  0.3114
 3097SOL    HW120753   1.826   0.384   6.245 -1.0003 -1.3052 -2.5355
 3097SOL    HW220754   1.740   0.408   6.369  2.9440  3.4834 -0.1489
 3098SOL     OW20755   3.025   2.400   4.453 -0.0303  0.0282 -0.4420
 3098SOL    HW120756   3.031   2.443   4.538 -0.0748 -0.8222 -0.0080
 3098SOL    HW220757   3.117   2.398   4.428 -0.1078 -1.3278 -0.5839
 3099SOL     OW20758   2.203   2.086   7.801  0.0837 -0.5556  0.4657
 3099SOL    HW120759   2.152   2.062   7.723  0.7787 -0.2940 -0.0707
 3099SOL    HW220760   2.176   2.012   7.855  1.5806 -1.0839  0.4626
 3100SOL     OW20761   4.560   3.437   2.653  0.2026 -0.4164 -0.2514
 3100SOL    HW120762   4.622   3.499   2.613 -1.0192  1.5252  0.8794
 3100SOL    HW220763   4.524   3.386   2.581  0.8697 -0.8287 -0.2920
 3101SOL     OW20764   3.854   2.484   6.887  0.0844 -0.6615 -0.2286
 3101SOL    HW120765   3.847   2.462   6.795 -2.6313  1.6291 -0.5736
 3101SOL    HW220766   3.857   2.580   6.885 -1.3135 -0.5509  2.9387
 3102SOL     OW20767   0.017   3.281  12.142 -0.1048  0.2002  0.1047
 3102SOL    HW120768   4.704   3.248  12.061 -3.0979  0.5254  1.3826
 3102SOL    HW220769   0.048   3.369  12.121 -0.1043 -0.0411 -0.8759
 3103SOL     OW20770   3.413   1.817   5.850  0.6690 -0.2529 -0.0976
 3103SOL    HW120771   3.333   1.867   5.866  1.5471  2.0095 -2.6874
 3103SOL    HW220772   3.479   1.880   5.878  1.0404 -0.0705 -1.3750
 3104SOL     OW20773   2.876   2.816   9.776 -0.3914 -0.4521  0.0330
 3104SOL    HW120774   2.903   2.908   9.773  0.6749 -0.7854 -0.4684
 3104SOL    HW220775   2.807   2.823   9.842 -0.0635  0.4737  0.2773
 3105SOL     OW20776   1.345   1.287   7.793  0.2966 -0.3060  1.0300
 3105SOL    HW120777   1.373   1.364   7.743 -2.0458  0.7406  1.3472
 3105SOL    HW220778   1.262   1.273   7.747  0.2762  1.0598  0.6402
 3106SOL     OW20779   2.575   3.810   6.317 -0.1517  0.3117 -0.2721
 3106SOL    HW120780   2.531   3.849   6.241  0.6416  0.9656 -0.4015
 3106SOL    HW220781   2.609   3.726   6.285  0.9246 -0.2206  2.2802
 3107SOL     OW20782   0.653   3.374   3.280  0.3855  0.0731  0.0882
 3107SOL    HW120783   0.564   3.339   3.287  0.8883 -1.4100 -0.7349
 3107SOL    HW220784   0.689   3.334   3.359  2.2324  0.5600 -0.4871
 3108SOL     OW20785   3.987   1.832   1.974 -0.5017  0.2898 -1.0259
 3108SOL    HW120786   4.048   1.770   1.933  1.3460  0.8964  0.8193
 3108SOL    HW220787   4.052   1.891   2.012  0.0552 -0.7869 -0.3019
 3109SOL     OW20788   0.675   3.518   5.124  0.3043 -0.1113 -0.5806
 3109SOL    HW120789   0.701   3.429   5.100 -1.6928 -0.8742  0.1271
 3109SOL    HW220790   0.621   3.538   5.047  1.4137  0.0812 -1.3198
 3110SOL     OW20791   0.178   0.033  10.806  0.4835 -0.1198 -0.1460
 3110SOL    HW120792   0.252   0.039  10.866  0.6133 -1.6023 -0.1590
 3110SOL    HW220793   0.220   0.029  10.721  0.4261  1.5658 -0.2532
 3111SOL     OW20794   2.395   2.906   1.804 -0.5450 -0.3346  0.1447
 3111SOL    HW120795   2.430   2.881   1.718  1.9456  1.2746  0.7284
 3111SOL    HW220796   2.351   2.825   1.833  0.3990 -0.5148  1.0350
 3112SOL     OW20797   0.761   1.091   6.306  0.1232 -0.0157 -0.1967
 3112SOL    HW120798   0.734   1.171   6.261  1.2138 -0.5172 -1.7516
 3112SOL    HW220799   0.720   1.090   6.392 -2.5859 -0.8395 -1.4639
 3113SOL     OW20800   0.345   4.060   9.684 -0.1743 -0.0287 -0.1243
 3113SOL    HW120801   0.369   4.009   9.761  0.3214 -1.5403 -1.2884
 3113SOL    HW220802   0.430   4.102   9.667 -0.4487  0.0006 -1.4083
 3114SOL     OW20803   0.579   3.458  10.818 -0.1309 -0.1546 -0.3685
 3114SOL    HW120804   0.663   3.416  10.799  0.4306  0.4645  0.7241
 3114SOL    HW220805   0.525   3.405  10.760 -0.4411  0.1446 -0.3459
 3115SOL     OW20806   1.215   4.089   4.001 -0.6752 -0.5197 -0.4090
 3115SOL    HW120807   1.268   4.011   4.020 -1.8443 -1.2983 -0.3149
 3115SOL    HW220808   1.205   4.087   3.906 -1.2439  2.5969 -0.4097
 3116SOL     OW20809   3.806   3.427   9.169  0.0800 -0.3266 -0.1274
 3116SOL    HW120810   3.876   3.382   9.121 -0.4690 -1.5042  0.1620
 3116SOL    HW220811   3.790   3.511   9.126 -1.0886 -1.0323 -1.0940
 3117SOL     OW20812   2.356   2.778   6.621 -0.2020  0.0929 -0.1246
 3117SOL    HW120813   2.377   2.843   6.688 -3.6463  0.2906  0.8024
 3117SOL    HW220814   2.443   2.764   6.586 -0.2028 -2.0427  0.7283
 3118SOL     OW20815   0.997   0.404   4.848  0.1972  0.1870 -0.2259
 3118SOL    HW120816   0.938   0.480   4.849 -0.7456 -0.5947  3.7376
 3118SOL    HW220817   0.974   0.354   4.927  2.2204  1.2886  1.0529
 3119SOL     OW20818   1.550   4.610   9.051 -0.4423 -0.5369 -0.2537
 3119SOL    HW120819   1.489   4.681   9.034  1.1469  0.1420 -3.0504
 3119SOL    HW220820   1.573   4.636   9.140 -1.7769 -1.8419  0.4712
 3120SOL     OW20821   3.252   0.644   2.628  0.1754  0.7075  0.2167
 3120SOL    HW120822   3.271   0.552   2.645 -1.0344  0.3997 -0.0954
 3120SOL    HW220823   3.171   0.635   2.579  0.9212 -1.7818 -0.5403
 3121SOL     OW20824   1.201   2.318   2.637  0.3056 -0.0096  0.5450
 3121SOL    HW120825   1.208   2.261   2.561 -0.1014  0.9776 -0.2273
 3121SOL    HW220826   1.117   2.361   2.620  0.3894 -0.3171 -0.6461
 3122SOL     OW20827   0.591   2.136  17.395 -0.3760  0.0101 -0.1188
 3122SOL    HW120828   0.546   2.083  17.460 -1.9624  2.5324  0.8602
 3122SOL    HW220829   0.555   2.101  17.313 -0.8551 -0.7506  0.4205
 3123SOL     OW20830   3.599   0.504   4.556  0.2200  0.7317  0.0241
 3123SOL    HW120831   3.586   0.471   4.467 -1.1732  0.1911  0.4285
 3123SOL    HW220832   3.690   0.527   4.539  0.5522 -0.0134  0.7871
 3124SOL     OW20833   2.967   4.217  14.846 -0.2393  0.7591  0.2218
 3124SOL    HW120834   2.952   4.147  14.909  1.9396 -1.0268 -1.2448
 3124SOL    HW220835   2.971   4.163  14.767 -1.5849  0.0636  0.6251
 3125SOL     OW20836   2.420   1.353   3.587 -0.0680 -0.3844  1.0414
 3125SOL    HW120837   2.491   1.329   3.527 -1.3094 -2.2114  0.3119
 3125SOL    HW220838   2.439   1.442   3.615 -0.7874  0.3456 -0.8111
 3126SOL     OW20839   1.414   3.261  17.576 -0.1283 -0.4639  0.1640
 3126SOL    HW120840   1.338   3.300  17.532  0.2435 -0.0938 -0.1389
 3126SOL    HW220841   1.400   3.167  17.566 -3.1882  0.0755 -0.6572
 3127SOL     OW20842   4.235   0.899   7.243 -0.0587  0.4292 -0.0276
 3127SOL    HW120843   4.242   0.852   7.160 -1.0600  1.1703 -0.5207
 3127SOL    HW220844   4.325   0.894   7.278 -0.3649 -3.2760  0.1990
 3128SOL     OW20845   4.603   0.128   4.006  0.4015 -0.3898  0.3207
 3128SOL    HW120846   4.628   0.183   3.931  2.1890 -0.5842  0.7703
 3128SOL    HW220847   4.598   0.199   4.071  0.5949  0.6065 -0.7510
 3129SOL     OW20848   4.708   0.091   4.963 -0.3129 -0.5544 -0.7412
 3129SOL    HW120849   4.704   0.013   5.020  0.1732 -0.7988 -1.0488
 3129SOL    HW220850   4.677   0.060   4.878 -2.6466 -1.8750  0.5983
 3130SOL     OW20851   0.654   2.762   3.839 -0.1377  0.1841  0.2420
 3130SOL    HW120852   0.582   2.708   3.871 -2.5452  2.9250 -0.5680
 3130SOL    HW220853   0.615   2.849   3.847 -0.1207  0.2338 -0.2644
 3131SOL     OW20854   4.073   3.185  15.579 -0.4164  0.1420 -0.1235
 3131SOL    HW120855   4.157   3.190  15.625 -1.2688  1.7001  1.2489
 3131SOL    HW220856   4.013   3.162  15.649 -1.0973 -0.5096 -0.9213
 3132SOL     OW20857   4.276   2.122   1.355 -0.2362 -0.5897  0.0900
 3132SOL    HW120858   4.312   2.147   1.270 -0.3493  2.5368  0.9656
 3132SOL    HW220859   4.206   2.186   1.364  1.2996  1.3907 -2.0097
 3133SOL     OW20860   1.897   4.235  11.659  0.3086  0.9816 -0.0056
 3133SOL    HW120861   1.858   4.310  11.615  1.1228  1.3220 -0.1571
 3133SOL    HW220862   1.825   4.173  11.646  1.0999 -0.1577  0.9923
 3134SOL     OW20863   0.241   3.923   4.292  0.1404  0.0673  0.2935
 3134SOL    HW120864   0.208   3.898   4.206  3.5405 -0.9377 -0.7260
 3134SOL    HW220865   0.229   4.017   4.280 -0.3974  0.2765  2.4465
 3135SOL     OW20866   1.823   3.431   4.377  0.6471  0.1418 -0.0415
 3135SOL    HW120867   1.791   3.502   4.321  0.3018  0.2723  0.3124
 3135SOL    HW220868   1.813   3.470   4.464 -0.6222 -0.2996  0.0215
 3136SOL     OW20869   4.025   0.659   3.958 -0.1036 -0.3299  0.4400
 3136SOL    HW120870   3.988   0.691   3.876 -2.6349 -0.5436  1.4841
 3136SOL    HW220871   4.039   0.742   4.004 -0.6838  0.8139 -1.4463
 3137SOL     OW20872   0.333   0.750   3.123 -0.2536 -0.1031 -0.1822
 3137SOL    HW120873   0.361   0.773   3.034 -0.4300  0.1616 -0.1690
 3137SOL    HW220874   0.397   0.679   3.132 -0.4325 -0.0129  1.7342
 3138SOL     OW20875   1.724   3.190  10.445  0.7248  0.5679 -0.1565
 3138SOL    HW120876   1.766   3.229  10.522  1.9837  0.0114 -0.5592
 3138SOL    HW220877   1.766   3.104  10.442 -0.3722 -0.0690  2.1840
 3139SOL     OW20878   3.833   1.749   9.322 -0.6414  0.0550 -0.0646
 3139SOL    HW120879   3.819   1.674   9.265 -2.8671  0.5824 -0.2150
 3139SOL    HW220880   3.917   1.774   9.284 -0.7148 -2.5458 -1.8771
 3140SOL     OW20881   3.745   3.075   7.978 -0.4637  0.5718  0.1104
 3140SOL    HW120882   3.762   3.169   7.976 -0.1701  0.5250  0.4544
 3140SOL    HW220883   3.657   3.074   8.016 -0.0419  0.7511  1.1007
 3141SOL     OW20884   4.573   2.216   7.098  0.1684 -0.4540  0.4070
 3141SOL    HW120885   4.574   2.253   7.186 -0.4976 -0.2707  0.3383
 3141SOL    HW220886   4.517   2.283   7.059  0.4970  0.7024  1.9294
 3142SOL     OW20887   2.138   0.647   3.098 -0.1473 -0.3157  0.0482
 3142SOL    HW120888   2.178   0.731   3.120 -1.1669  0.2732 -0.3528
 3142SOL    HW220889   2.046   0.666   3.113 -0.0951  0.1722 -0.2592
 3143SOL     OW20890   4.005   2.502  12.264 -0.1882 -0.2458  0.0929
 3143SOL    HW120891   4.049   2.518  12.180 -0.5496 -2.8437 -0.6027
 3143SOL    HW220892   4.060   2.437  12.308 -0.9508 -0.8729  0.1209
 3144SOL     OW20893   1.850   3.310   3.977 -0.2266  0.4856 -0.9223
 3144SOL    HW120894   1.941   3.310   3.945  0.4063  2.1712  0.8822
 3144SOL    HW220895   1.870   3.276   4.065 -2.2657  2.0279  0.1298
 3145SOL     OW20896   0.085   2.599   5.416  0.0488  0.0290  0.4272
 3145SOL    HW120897   0.116   2.517   5.455 -2.0119  0.2528  2.4660
 3145SOL    HW220898   4.716   2.587   5.406 -0.2069  1.5069  0.9885
 3146SOL     OW20899   3.307   4.435  16.415  0.0131 -0.1579  0.4140
 3146SOL    HW120900   3.246   4.473  16.351  0.3436  2.1007  1.4750
 3146SOL    HW220901   3.257   4.359  16.445 -1.6941  0.7286 -0.1638
 3147SOL     OW20902   1.354   0.206   8.036  0.0675  0.3197 -0.0486
 3147SOL    HW120903   1.442   0.186   8.005 -0.4530 -0.3794 -1.0734
 3147SOL    HW220904   1.354   0.168   8.124  2.1024  1.3069  0.3842
 3148SOL     OW20905   4.010   3.348   6.708  0.0388  0.7738  0.0318
 3148SOL    HW120906   3.970   3.411   6.767  1.6845  0.6093  1.3338
 3148SOL    HW220907   4.009   3.401   6.629  4.0578  1.5522  0.4694
 3149SOL     OW20908   1.566   1.286  10.335  0.3939  0.1959 -0.2838
 3149SOL    HW120909   1.567   1.212  10.396 -0.3034  0.3965 -0.0208
 3149SOL    HW220910   1.483   1.275  10.287  1.8704  0.8746 -2.9751
 3150SOL     OW20911   1.641   1.192   1.366  0.0130  0.5402  0.2201
 3150SOL    HW120912   1.671   1.243   1.441 -1.5129  0.7394  0.6928
 3150SOL    HW220913   1.551   1.171   1.390  0.1058  0.9364  0.8992
 3151SOL     OW20914   3.732   3.419   8.204 -0.0352  0.1848  0.1040
 3151SOL    HW120915   3.773   3.480   8.265  0.9066  0.7275 -1.0604
 3151SOL    HW220916   3.769   3.338   8.238  1.7984  0.7306 -0.6031
 3152SOL     OW20917   0.415   0.363   6.985 -0.3632  0.1278 -0.9855
 3152SOL    HW120918   0.337   0.360   7.040  0.8574 -0.4816  0.7172
 3152SOL    HW220919   0.485   0.342   7.047 -1.0537  1.5433  0.2661
 3153SOL     OW20920   1.061   4.484   7.356 -0.3237 -0.5947  0.3688
 3153SOL    HW120921   1.023   4.399   7.379 -0.1730 -0.8594 -0.3525
 3153SOL    HW220922   1.111   4.490   7.437  0.3461  1.7620 -0.2149
 3154SOL     OW20923   0.462   2.762   2.204  0.2607 -0.3121  0.3025
 3154SOL    HW120924   0.489   2.849   2.236  0.0014 -0.6446  1.4376
 3154SOL    HW220925   0.504   2.695   2.257 -2.8810 -2.0364  0.5887
 3155SOL     OW20926   3.254   4.506   7.289  0.1784 -0.1298 -0.4761
 3155SOL    HW120927   3.268   4.597   7.265 -1.9898  0.5156  0.7160
 3155SOL    HW220928   3.229   4.502   7.381  2.0442  1.0715  0.0943
 3156SOL     OW20929   1.231   2.782  16.858  0.5576  0.2271  0.2065
 3156SOL    HW120930   1.172   2.850  16.827  0.7185  0.4840  0.4640
 3156SOL    HW220931   1.307   2.796  16.802 -0.0941 -0.8975 -0.9702
 3157SOL     OW20932   3.867   2.868   9.274 -0.0052 -0.3753 -0.1739
 3157SOL    HW120933   3.894   2.945   9.224  0.1317 -0.1090  0.3093
 3157SOL    HW220934   3.945   2.853   9.328 -0.7188 -0.1498  0.9119
 3158SOL     OW20935   1.141   0.223   3.022 -0.3509 -0.0424 -0.5210
 3158SOL    HW120936   1.153   0.147   2.965 -2.7153  0.2644 -1.4234
 3158SOL    HW220937   1.051   0.211   3.053  0.0271  0.2834  0.6971
 3159SOL     OW20938   4.124   2.113  11.910 -0.0896  0.6627 -0.1738
 3159SOL    HW120939   4.060   2.070  11.854 -1.5251  0.2183  1.8260
 3159SOL    HW220940   4.077   2.195  11.927  0.7613  1.1842 -0.3296
 3160SOL     OW20941   1.163   0.258   9.224 -0.0837  0.6854 -0.1398
 3160SOL    HW120942   1.087   0.200   9.219 -0.3098  0.7749  2.6068
 3160SOL    HW220943   1.223   0.189   9.253 -1.3337  0.0410  0.9217
 3161SOL     OW20944   2.177   4.141   3.990  0.2787 -0.2917  0.7293
 3161SOL    HW120945   2.161   4.172   3.901 -2.5890 -0.9788  1.0027
 3161SOL    HW220946   2.239   4.070   3.970 -1.5556 -1.1288 -1.8762
 3162SOL     OW20947   1.467   2.572   0.261  0.2158  0.1259 -0.0956
 3162SOL    HW120948   1.456   2.534   0.348  2.2290  0.9067  0.5027
 3162SOL    HW220949   1.488   2.664   0.272  2.0529 -0.5470  1.9500
 3163SOL     OW20950   1.366   0.355  13.685  0.0203  0.9299  0.1436
 3163SOL    HW120951   1.352   0.445  13.712  0.3923 -0.3362  4.4885
 3163SOL    HW220952   1.335   0.308  13.762  2.0274  0.1809  0.4906
 3164SOL     OW20953   1.613   4.588  11.853 -0.4649  0.0435 -0.2635
 3164SOL    HW120954   1.645   4.603  11.942  0.2131 -2.0626 -0.1414
 3164SOL    HW220955   1.674   4.642  11.803 -3.1629  2.3106 -1.1048
 3165SOL     OW20956   2.887   2.289  13.032  0.3052 -0.3495  0.3435
 3165SOL    HW120957   2.838   2.267  13.111 -0.1077  0.4643  0.3197
 3165SOL    HW220958   2.818   2.314  12.970 -0.2923 -2.6272  0.0954
 3166SOL     OW20959   2.849   3.338   2.865  0.4904 -0.6270  0.4799
 3166SOL    HW120960   2.810   3.259   2.828 -0.8302  0.3631 -0.2520
 3166SOL    HW220961   2.941   3.332   2.839  0.4239 -1.8211  0.5128
 3167SOL     OW20962   1.082   1.489   3.929  0.4318  0.2825 -0.1462
 3167SOL    HW120963   1.145   1.503   3.858 -0.5896  3.2151 -0.4778
 3167SOL    HW220964   1.142   1.447   3.990 -1.4443  1.0924  2.2562
 3168SOL     OW20965   1.009   0.496   8.724 -0.0902 -0.2525  0.3075
 3168SOL    HW120966   1.077   0.445   8.679 -1.2438 -1.1065 -0.4756
 3168SOL    HW220967   0.947   0.526   8.657  1.8040  0.4875 -1.1146
 3169SOL     OW20968   3.787   3.726   7.964 -0.9446 -0.5026  0.4065
 3169SOL    HW120969   3.794   3.807   8.014  0.6654 -0.8308  0.7157
 3169SOL    HW220970   3.870   3.697   8.001  0.6687  0.1198 -2.7179
 3170SOL     OW20971   3.392   0.358   5.362 -0.1116 -0.4471 -0.1825
 3170SOL    HW120972   3.398   0.277   5.411  2.0401 -0.1109  0.1304
 3170SOL    HW220973   3.468   0.410   5.388  1.7905 -2.4540 -1.7957
 3171SOL     OW20974   1.210   2.848   4.036  0.1816 -0.2791 -0.4905
 3171SOL    HW120975   1.295   2.867   4.076 -0.9532  1.1751  1.1913
 3171SOL    HW220976   1.180   2.939   4.028  0.8552 -0.1232 -1.3220
 3172SOL     OW20977   0.593   1.876  16.682  0.4392  0.5952  0.8241
 3172SOL    HW120978   0.658   1.832  16.737 -2.2851  0.8086  4.1530
 3172SOL    HW220979   0.619   1.840  16.597  1.2206  2.8315  0.1029
 3173SOL     OW20980   4.030   1.592   2.671  0.2841  0.1456  0.1753
 3173SOL    HW120981   4.010   1.552   2.756 -0.9161  0.4361  0.0387
 3173SOL    HW220982   4.077   1.671   2.696 -0.9681  1.3898 -1.4305
 3174SOL     OW20983   0.240   3.851  16.051 -0.9471 -0.6005  0.3684
 3174SOL    HW120984   0.255   3.942  16.074  1.7525 -1.3421  1.5313
 3174SOL    HW220985   0.150   3.854  16.019 -1.2372  1.2195  1.3788
 3175SOL     OW20986   0.578   4.398   6.513 -0.4918  0.3773 -0.1491
 3175SOL    HW120987   0.613   4.467   6.455  0.5612 -1.1544 -1.3372
 3175SOL    HW220988   0.574   4.444   6.597  2.9333  1.1249 -0.3627
 3176SOL     OW20989   0.491   1.092   9.409  0.3032 -1.2095  0.2107
 3176SOL    HW120990   0.510   1.140   9.329  1.5582  0.3721  1.4575
 3176SOL    HW220991   0.569   1.104   9.463  0.5240  1.0670 -0.6114
 3177SOL     OW20992   0.948   1.219   4.338  0.6607 -0.5650  0.1334
 3177SOL    HW120993   0.959   1.180   4.251 -1.2636  0.8882 -0.7588
 3177SOL    HW220994   0.866   1.183   4.374 -0.1132  1.4486  0.3472
 3178SOL     OW20995   4.102   2.585  16.123 -0.0238  0.1418 -0.3310
 3178SOL    HW120996   4.192   2.614  16.111  0.1585 -0.0110  0.6858
 3178SOL    HW220997   4.110   2.525  16.197 -2.4605 -1.5626 -1.4433
 3179SOL     OW20998   2.221   0.541   2.346  0.0281  0.2984  0.2532
 3179SOL    HW120999   2.225   0.636   2.350  1.2339  0.1967  1.2002
 3179SOL    HW221000   2.130   0.532   2.315  0.0171 -0.8267  0.6004
 3180SOL     OW21001   1.700   1.882   1.992  0.1566 -0.1652 -0.1431
 3180SOL    HW121002   1.749   1.862   2.072  0.4424 -0.3598 -0.3678
 3180SOL    HW221003   1.767   1.940   1.956  1.0654  0.7510  2.9966
 3181SOL     OW21004   3.505   3.491   4.231 -0.0028  0.0704 -0.0492
 3181SOL    HW121005   3.524   3.414   4.178 -0.2329 -0.2155  0.2790
 3181SOL    HW221006   3.596   3.514   4.249  0.3298 -2.0852  1.0778
 3182SOL     OW21007   3.352   4.632   0.222 -0.1791 -0.3135 -0.5004
 3182SOL    HW121008   3.290   4.559   0.219  0.6718 -1.0893  0.6448
 3182SOL    HW221009   3.297   4.707   0.244  0.5942 -0.0750  0.6024
 3183SOL     OW21010   2.161   2.929   4.286 -0.6994 -0.0319  0.4291
 3183SOL    HW121011   2.124   2.883   4.211 -1.9866  1.9478 -0.1621
 3183SOL    HW221012   2.136   2.873   4.359  1.6860 -1.3230  0.2606
 3184SOL     OW21013   0.694   1.175   9.578 -0.1607  0.3928  0.3528
 3184SOL    HW121014   0.788   1.192   9.583 -0.2054  0.0830  2.4164
 3184SOL    HW221015   0.661   1.218   9.657  0.1527  1.8195 -0.2966
 3185SOL     OW21016   3.553   1.939   3.029 -0.7429 -0.0521  0.2366
 3185SOL    HW121017   3.536   1.943   3.123  4.4148 -0.6412  1.1487
 3185SOL    HW221018   3.619   1.870   3.025 -1.0641 -0.3018 -0.6925
 3186SOL     OW21019   2.374   1.456   4.309  0.2670  0.1477  0.1261
 3186SOL    HW121020   2.292   1.430   4.266  0.8409 -2.2282  0.4289
 3186SOL    HW221021   2.336   1.485   4.391 -0.0469  2.7882 -0.9672
 3187SOL     OW21022   2.020   1.923   3.417 -0.5521  0.3203  0.5039
 3187SOL    HW121023   2.021   1.834   3.383  2.4273  0.7199 -0.4619
 3187SOL    HW221024   1.955   1.906   3.485 -0.6183 -0.0832  0.3369
 3188SOL     OW21025   4.052   1.262   7.647  0.5095  0.0151  0.0950
 3188SOL    HW121026   4.114   1.197   7.680 -1.5020 -1.4560  0.9213
 3188SOL    HW221027   4.105   1.342   7.636 -0.1769  0.3838 -0.4921
 3189SOL     OW21028   1.698   3.125  13.759  0.0007  0.0304 -0.4304
 3189SOL    HW121029   1.716   3.032  13.771  5.5722  1.2738  0.9857
 3189SOL    HW221030   1.778   3.145  13.710  0.9570  1.3819  1.6648
 3190SOL     OW21031   0.794   2.104   1.975  0.3469 -0.3612 -0.0945
 3190SOL    HW121032   0.748   2.138   2.052 -5.0244 -2.9600 -2.1069
 3190SOL    HW221033   0.781   2.177   1.913 -1.1498  0.1847  0.8655
 3191SOL     OW21034   2.432   0.459   4.901 -0.3181  0.3687  0.0340
 3191SOL    HW121035   2.458   0.374   4.867 -0.1803  0.9610 -1.3571
 3191SOL    HW221036   2.517   0.504   4.908  0.1759 -0.5847  0.1224
 3192SOL     OW21037   4.111   2.838   4.045  0.2562  0.4244  0.0622
 3192SOL    HW121038   4.155   2.822   3.961  1.7854  1.7264  0.5997
 3192SOL    HW221039   4.035   2.780   4.042  0.0938  0.7331 -2.0946
 3193SOL     OW21040   1.011   1.372  14.496 -0.3946 -0.0028  0.1508
 3193SOL    HW121041   0.973   1.284  14.492  1.4230 -0.8350  0.8949
 3193SOL    HW221042   1.090   1.347  14.545 -1.0317 -0.8750  0.7229
 3194SOL     OW21043   0.271   3.826   7.343  0.1968  0.1734 -0.1807
 3194SOL    HW121044   0.315   3.881   7.278 -1.2344  1.2006 -0.2754
 3194SOL    HW221045   0.210   3.771   7.293 -1.0136  2.7913 -1.6201
 3195SOL     OW21046   2.671   1.327   1.916 -0.5935  0.2472  0.5064
 3195SOL    HW121047   2.726   1.404   1.908 -0.4584 -0.0140 -1.2832
 3195SOL    HW221048   2.669   1.286   1.829  1.3195 -1.4837  1.2952
 3196SOL     OW21049   0.870   2.916   1.946  0.2105  0.1271 -0.1073
 3196SOL    HW121050   0.931   2.988   1.927 -0.1002  0.1072 -1.1804
 3196SOL    HW221051   0.799   2.961   1.992  1.3510  0.1952  1.5895
 3197SOL     OW21052   0.881   1.616   4.292  0.0865 -0.0637 -0.2165
 3197SOL    HW121053   0.811   1.556   4.317  2.1608 -0.9502  3.3989
 3197SOL    HW221054   0.873   1.688   4.354  0.7446 -0.1328 -0.0562
 3198SOL     OW21055   0.933   3.487   9.878  0.2209 -0.2387  0.2238
 3198SOL    HW121056   0.999   3.440   9.929 -0.7240  1.7889  3.3165
 3198SOL    HW221057   0.917   3.565   9.932  2.2297 -0.7150  1.5273
 3199SOL     OW21058   3.027   2.752   7.625  0.2309 -0.9621 -0.4501
 3199SOL    HW121059   3.043   2.743   7.719 -1.9561  1.9027  0.2151
 3199SOL    HW221060   3.019   2.662   7.596 -4.9377 -1.0631  1.2936
 3200SOL     OW21061   2.672   4.676   0.340 -0.1749 -0.5831  0.0765
 3200SOL    HW121062   2.688   0.043   0.359  2.3782 -0.8245 -0.9647
 3200SOL    HW221063   2.729   4.622   0.396 -1.0642 -0.2810  1.2768
 3201SOL     OW21064   3.590   3.611   4.868 -0.3768  0.5296  0.0188
 3201SOL    HW121065   3.545   3.642   4.790 -3.7077 -0.6261  1.4985
 3201SOL    HW221066   3.577   3.685   4.927  0.3452  1.2536 -0.7337
 3202SOL     OW21067   3.303   0.453   0.869  0.0980 -0.0523 -0.1258
 3202SOL    HW121068   3.320   0.446   0.963 -2.7540  0.2265  0.4022
 3202SOL    HW221069   3.385   0.411   0.841 -0.4562 -0.1778 -1.5203
 3203SOL     OW21070   4.268   3.517   7.737  0.3696 -0.2231 -0.6932
 3203SOL    HW121071   4.212   3.532   7.661 -1.1055  3.0050  1.0383
 3203SOL    HW221072   4.352   3.543   7.699  0.6734 -1.9804 -1.2580
 3204SOL     OW21073   0.730   0.257   9.429  0.2413 -0.0386  0.3491
 3204SOL    HW121074   0.795   0.314   9.387  1.2697 -2.8254 -1.8753
 3204SOL    HW221075   0.667   0.319   9.464  0.8172  0.5264  0.3902
 3205SOL     OW21076   4.193   0.394  17.112 -0.1015  0.2316 -0.6970
 3205SOL    HW121077   4.165   0.309  17.080  0.0376 -0.4510  1.0167
 3205SOL    HW221078   4.117   0.442  17.079 -1.8783 -0.6696  2.0544
 3206SOL     OW21079   0.886   3.269  16.950  0.2019 -0.0198 -0.0530
 3206SOL    HW121080   0.955   3.234  17.006 -0.0744 -0.0446  0.2710
 3206SOL    HW221081   0.810   3.253  17.006 -0.5789 -2.0348 -1.6859
 3207SOL     OW21082   2.335   0.145   3.107  0.1526 -0.2578  0.0629
 3207SOL    HW121083   2.264   0.184   3.055 -1.9768 -1.8676  1.7514
 3207SOL    HW221084   2.382   0.095   3.041  0.2237 -0.1165  0.0056
 3208SOL     OW21085   1.884   3.912  16.610 -0.3539  0.3600 -0.0073
 3208SOL    HW121086   1.789   3.905  16.624 -0.0196  0.6229  2.2227
 3208SOL    HW221087   1.918   3.822  16.614 -1.0787  0.0263 -0.9831
 3209SOL     OW21088   4.279   0.195   7.122 -0.1223 -0.0929 -0.4048
 3209SOL    HW121089   4.238   0.115   7.152 -1.4449 -0.1110 -2.2111
 3209SOL    HW221090   4.278   0.180   7.027  1.2100  1.9527 -0.7597
 3210SOL     OW21091   3.655   3.394  14.766  0.0820 -0.2578  0.5975
 3210SOL    HW121092   3.569   3.358  14.746  0.0551 -0.2639  0.7308
 3210SOL    HW221093   3.635   3.484  14.789 -3.0057 -1.1113  1.1653
 3211SOL     OW21094   0.507   1.213  14.028  0.1263  0.3359 -0.7064
 3211SOL    HW121095   0.555   1.131  14.015  1.3084  1.1190 -1.3536
 3211SOL    HW221096   0.427   1.190  13.981  1.0533  0.0732 -2.1923
 3212SOL     OW21097   2.657   0.368  11.875 -0.0632 -0.0046  0.0265
 3212SOL    HW121098   2.707   0.390  11.795 -1.5768 -0.2078 -0.9691
 3212SOL    HW221099   2.685   0.446  11.923  1.8554 -0.6060 -0.0780
 3213SOL     OW21100   1.206   1.081   6.803 -0.8000 -0.1378  0.2014
 3213SOL    HW121101   1.198   1.143   6.731  1.3800  0.0963  0.1654
 3213SOL    HW221102   1.147   1.124   6.865  1.2341  1.8654  0.7359
 3214SOL     OW21103   1.212   0.681   2.022 -0.3197 -0.5449 -0.0149
 3214SOL    HW121104   1.166   0.609   1.979 -1.3298 -0.8963  1.6800
 3214SOL    HW221105   1.155   0.712   2.092 -1.0278 -0.7758 -0.4935
 3215SOL     OW21106   2.460   2.260   7.633 -0.3172 -0.0831  0.4635
 3215SOL    HW121107   2.452   2.168   7.657  1.4021  0.0723  1.5843
 3215SOL    HW221108   2.533   2.259   7.572  0.0696 -0.2862  0.9330
 3216SOL     OW21109   1.748   3.560  12.880  0.5010 -0.1181 -0.7246
 3216SOL    HW121110   1.703   3.542  12.962 -0.4248 -1.5389 -1.5202
 3216SOL    HW221111   1.813   3.625  12.906 -1.1157  0.4423  1.8398
 3217SOL     OW21112   4.434   2.874  16.548  0.2948  0.0513  0.0833
 3217SOL    HW121113   4.482   2.920  16.479  0.1513  0.2198  0.0940
 3217SOL    HW221114   4.499   2.809  16.576  1.3646  1.0733 -0.0116
 3218SOL     OW21115   1.579   3.820  11.692 -0.3514  0.0664 -0.0376
 3218SOL    HW121116   1.536   3.760  11.753 -1.4969  1.9860  1.0366
 3218SOL    HW221117   1.545   3.803  11.604 -2.0697 -0.4729  0.7169
 3219SOL     OW21118   0.294   0.324  16.137 -0.4912 -0.2520  0.0972
 3219SOL    HW121119   0.333   0.355  16.218  2.9080 -1.2610 -1.1427
 3219SOL    HW221120   0.214   0.287  16.172  0.4194  0.1762  2.5989
 3220SOL     OW21121   0.748   2.470   7.453 -0.2138  0.5335 -0.0617
 3220SOL    HW121122   0.754   2.383   7.492 -1.2280  0.2764 -0.4746
 3220SOL    HW221123   0.764   2.448   7.362  0.7036 -3.5064  1.0856
 3221SOL     OW21124   0.562   3.921   3.588 -0.0557 -0.3127 -0.2790
 3221SOL    HW121125   0.559   3.917   3.492  0.2954  0.6279 -0.3232
 3221SOL    HW221126   0.544   3.827   3.599  0.1814 -0.3685 -0.3613
 3222SOL     OW21127   3.217   4.585   0.520  0.4541 -0.5309  0.4654
 3222SOL    HW121128   3.273   4.653   0.559 -0.4083 -0.6120  1.8376
 3222SOL    HW221129   3.255   4.508   0.562  1.2303 -1.5758 -2.1327
 3223SOL     OW21130   3.956   3.579   5.235 -0.1476  0.3042 -0.0666
 3223SOL    HW121131   3.982   3.671   5.234 -1.0513  0.5621 -0.1519
 3223SOL    HW221132   3.979   3.559   5.326  0.0801  0.3807 -0.1082
 3224SOL     OW21133   1.566   1.030  10.480  0.2077 -0.2674  0.1550
 3224SOL    HW121134   1.479   0.994  10.491  0.3522 -1.3415 -2.0885
 3224SOL    HW221135   1.618   0.954  10.453 -0.3809  0.0037 -1.7718
 3225SOL     OW21136   3.458   3.686  10.468  0.0951  0.0203  0.2120
 3225SOL    HW121137   3.534   3.627  10.464  0.0296  0.0281 -1.2505
 3225SOL    HW221138   3.409   3.639  10.535  0.1443 -1.6571 -0.9035
 3226SOL     OW21139   3.019   1.777   0.481 -0.2578  0.1993  0.0866
 3226SOL    HW121140   3.086   1.831   0.439  2.3942 -2.3755  1.0079
 3226SOL    HW221141   3.031   1.804   0.572  0.7668  0.4130 -0.1141
 3227SOL     OW21142   0.008   4.560  13.609 -0.5092  0.5643 -0.2548
 3227SOL    HW121143   4.724   4.490  13.544  1.0926 -0.6243  0.8044
 3227SOL    HW221144   0.041   4.634  13.558 -0.6691 -0.3952 -1.7757
 3228SOL     OW21145   3.135   3.599  10.415 -0.0230 -0.1742 -0.0765
 3228SOL    HW121146   3.115   3.528  10.354  0.3568 -0.2791 -0.0798
 3228SOL    HW221147   3.217   3.642  10.393  1.2325 -1.2257  2.5351
 3229SOL     OW21148   4.694   3.722   6.100 -0.0638  0.4281 -0.0773
 3229SOL    HW121149   4.703   3.629   6.119 -1.7959  0.0852 -0.9538
 3229SOL    HW221150   4.605   3.732   6.065 -0.1985 -0.5629 -0.0096
 3230SOL     OW21151   3.474   0.957   5.797  0.3059 -0.5066  0.0846
 3230SOL    HW121152   3.444   0.886   5.853  1.9875 -0.6313  0.8447
 3230SOL    HW221153   3.480   1.027   5.862 -0.3537 -1.7319  1.4598
 3231SOL     OW21154   0.734   1.187   5.236  0.2874 -0.3077  0.2600
 3231SOL    HW121155   0.735   1.130   5.160 -2.2985  1.3975 -1.0736
 3231SOL    HW221156   0.785   1.262   5.207  0.8428 -0.6439  0.3743
 3232SOL     OW21157   0.274   4.324   5.083 -0.0238 -0.1184 -0.3991
 3232SOL    HW121158   0.352   4.274   5.107  0.8968  3.2246  3.6398
 3232SOL    HW221159   0.317   4.410   5.088  1.4866 -0.9458  0.4602
 3233SOL     OW21160   2.078   0.781  11.262 -0.4724  0.3221  0.1951
 3233SOL    HW121161   2.113   0.739  11.183 -0.6359  0.2320  0.1701
 3233SOL    HW221162   2.027   0.707  11.295 -1.5070  1.3648  0.9263
 3234SOL     OW21163   2.018   4.397   3.371 -0.1199  0.0410  0.3192
 3234SOL    HW121164   2.037   4.488   3.349 -0.9332  0.1538  0.0968
 3234SOL    HW221165   2.105   4.360   3.358  0.3792  1.3282 -0.0397
 3235SOL     OW21166   3.431   2.766   9.073 -0.6568  0.7303 -0.6710
 3235SOL    HW121167   3.448   2.675   9.097 -0.3990  0.6767 -1.0645
 3235SOL    HW221168   3.512   2.805   9.042 -0.4803  2.1512  1.6328
 3236SOL     OW21169   0.427   0.480  16.539  0.1463 -0.4215  0.0329
 3236SOL    HW121170   0.395   0.465  16.628  2.3061 -1.2672  0.6763
 3236SOL    HW221171   0.422   0.576  16.539  1.0513 -0.3746 -1.2188
 3237SOL     OW21172   2.658   3.854   3.318  0.3294  0.1952 -0.3567
 3237SOL    HW121173   2.726   3.815   3.372 -0.0339 -0.2305 -0.2101
 3237SOL    HW221174   2.660   3.943   3.355  1.6056  0.9710 -2.2628
 3238SOL     OW21175   1.560   2.500   8.165 -0.5155 -0.2708 -0.1335
 3238SOL    HW121176   1.492   2.560   8.132 -0.5771 -0.5615 -0.5352
 3238SOL    HW221177   1.503   2.423   8.171  1.8481 -2.0064  0.2004
 3239SOL     OW21178   1.479   3.685  17.699  0.3477  0.0834 -0.1212
 3239SOL    HW121179   1.474   3.692   0.093  0.1780 -0.6100 -0.0817
 3239SOL    HW221180   1.564   3.643  17.689 -0.3241 -0.7228 -2.2654
 3240SOL     OW21181   2.082   3.870   7.446 -0.6437  0.6510  0.5880
 3240SOL    HW121182   2.014   3.818   7.489 -0.0277 -1.5743 -1.1296
 3240SOL    HW221183   2.072   3.959   7.478 -0.1950  0.7428  0.4772
 3241SOL     OW21184   3.553   3.399   2.434 -0.2258 -0.0901  0.5505
 3241SOL    HW121185   3.634   3.434   2.398  1.5572 -0.8106  3.9322
 3241SOL    HW221186   3.570   3.305   2.431 -0.0182 -0.0500  0.5237
 3242SOL     OW21187   0.142   1.262   8.347 -0.0892  0.1586 -0.2477
 3242SOL    HW121188   0.145   1.288   8.255  0.0290  2.2264  0.3398
 3242SOL    HW221189   0.193   1.182   8.335 -0.7148 -0.3292  0.3583
 3243SOL     OW21190   3.483   4.472   7.626 -0.2819 -0.4648  1.0609
 3243SOL    HW121191   3.495   4.552   7.677 -1.8287  0.8786 -0.6952
 3243SOL    HW221192   3.441   4.412   7.688 -2.4750 -1.7020 -1.5850
 3244SOL     OW21193   2.844   2.960   8.029  0.6663 -0.5774  0.2140
 3244SOL    HW121194   2.786   2.978   8.103  2.2196  2.0394  0.7824
 3244SOL    HW221195   2.880   2.875   8.052  0.1318 -0.6386  0.8283
 3245SOL     OW21196   0.376   3.382   6.610  0.7500 -0.1451  0.5056
 3245SOL    HW121197   0.304   3.370   6.672  2.0148  1.3637  2.2573
 3245SOL    HW221198   0.448   3.369   6.673 -0.8310  0.3383  2.4323
 3246SOL     OW21199   2.386   3.602   8.393  0.3383  1.0835  0.3317
 3246SOL    HW121200   2.471   3.615   8.352 -1.8181  2.9859 -3.4740
 3246SOL    HW221201   2.359   3.694   8.396  1.4006  1.4374 -0.9166
 3247SOL     OW21202   4.115   1.810   7.450  0.2291 -0.0379  0.5036
 3247SOL    HW121203   4.141   1.760   7.527  0.6945 -0.0905  0.3133
 3247SOL    HW221204   4.070   1.743   7.398  0.5019  0.1901 -0.0257
 3248SOL     OW21205   0.179   3.899  13.116  0.2250 -0.6988 -0.0673
 3248SOL    HW121206   0.118   3.870  13.184 -1.2927 -1.3374 -1.6839
 3248SOL    HW221207   0.242   3.957  13.158  1.8486 -2.1529 -0.4747
 3249SOL     OW21208   1.568   3.690   9.786  0.0694 -0.5002 -0.2169
 3249SOL    HW121209   1.527   3.630   9.849  0.8703 -1.7834 -0.9139
 3249SOL    HW221210   1.518   3.661   9.710 -0.0791 -0.7188 -0.0360
 3250SOL     OW21211   0.941   1.987  14.140  0.6333  0.3555  0.1122
 3250SOL    HW121212   0.864   2.042  14.126  0.6411 -0.3762 -2.8561
 3250SOL    HW221213   1.011   2.046  14.112 -0.9933  1.9188 -0.6510
 3251SOL     OW21214   2.411   0.723   7.543 -0.1391 -0.0538  0.1932
 3251SOL    HW121215   2.442   0.686   7.626 -0.7710 -0.6032  0.1806
 3251SOL    HW221216   2.463   0.669   7.484  0.2806 -0.8461  1.2932
 3252SOL     OW21217   1.433   3.663   6.477 -0.7442  0.3111 -0.5772
 3252SOL    HW121218   1.454   3.699   6.563  0.7857 -4.5276  1.0611
 3252SOL    HW221219   1.348   3.621   6.489  0.3609 -1.4579  1.1381
 3253SOL     OW21220   2.829   1.768   2.764  0.0603  0.2410  0.1720
 3253SOL    HW121221   2.803   1.859   2.751 -1.4032 -0.5870 -2.6268
 3253SOL    HW221222   2.849   1.773   2.858  0.3246  1.3312  0.0602
 3254SOL     OW21223   2.603   4.052   4.522  0.0499 -0.1087  0.0923
 3254SOL    HW121224   2.604   4.114   4.595 -0.2293  0.2656 -0.2168
 3254SOL    HW221225   2.509   4.056   4.501 -0.2087  1.1098  1.5034
 3255SOL     OW21226   3.400   3.978   5.282  0.0932  0.4742 -0.0055
 3255SOL    HW121227   3.472   4.013   5.231 -1.0115  0.0492 -1.8529
 3255SOL    HW221228   3.389   4.035   5.358  0.6272 -0.8350  1.0479
 3256SOL     OW21229   2.740   0.468   6.087 -0.6608  0.2684 -0.4137
 3256SOL    HW121230   2.822   0.507   6.115 -0.4161 -1.2758  1.0197
 3256SOL    HW221231   2.764   0.477   5.995  0.0467 -0.4567 -0.2932
 3257SOL     OW21232   3.763   1.963   6.858  0.0278  0.4044  0.1558
 3257SOL    HW121233   3.828   2.025   6.825  0.2099 -0.1716 -0.5686
 3257SOL    HW221234   3.710   2.018   6.915  0.9659  0.1301  1.2993
 3258SOL     OW21235   1.701   2.776   6.170  0.0864  0.2279  0.3673
 3258SOL    HW121236   1.732   2.772   6.079 -1.5485  0.9656 -0.2313
 3258SOL    HW221237   1.694   2.869   6.191 -0.4079  0.2759  0.0051
 3259SOL     OW21238   4.117   0.539   5.428 -0.7378  0.0691 -0.6129
 3259SOL    HW121239   4.096   0.610   5.367  0.2818  0.8255 -0.1012
 3259SOL    HW221240   4.138   0.470   5.365 -1.1616 -0.0143 -0.6625
 3260SOL     OW21241   4.602   1.837   1.246 -0.5790  0.1685  0.5178
 3260SOL    HW121242   4.573   1.887   1.322 -0.2115  0.0737  0.7174
 3260SOL    HW221243   4.644   1.910   1.200 -0.1985 -0.0053  0.5862
 3261SOL     OW21244   1.621   2.837  14.260 -0.1223 -0.2852  0.1604
 3261SOL    HW121245   1.605   2.915  14.314 -2.6962 -1.6369  1.3037
 3261SOL    HW221246   1.694   2.806  14.314 -0.0916 -0.2205  0.1562
 3262SOL     OW21247   2.841   1.029   6.439 -0.2303 -0.2447  0.2041
 3262SOL    HW121248   2.753   1.021   6.476  0.1252 -1.0189  0.8639
 3262SOL    HW221249   2.831   0.960   6.373 -0.2901  0.5325 -0.5951
 3263SOL     OW21250   3.190   0.433  11.136 -0.5229 -0.1378 -0.2393
 3263SOL    HW121251   3.190   0.370  11.207 -1.4329  0.0908 -0.0327
 3263SOL    HW221252   3.240   0.500  11.183  2.2257 -4.0322  2.2644
 3264SOL     OW21253   0.520   2.936   4.164 -0.0223  0.0588 -0.3038
 3264SOL    HW121254   0.541   3.004   4.228 -0.8009 -0.6527  0.7120
 3264SOL    HW221255   0.451   2.881   4.202 -0.5043  0.5471 -0.4675
 3265SOL     OW21256   3.426   0.873   7.859 -0.1619 -0.1673  0.0489
 3265SOL    HW121257   3.483   0.936   7.816  1.7759 -1.8493  0.1233
 3265SOL    HW221258   3.340   0.914   7.849 -0.3133 -0.5653 -0.2751
 3266SOL     OW21259   3.432   3.972   2.705  0.3400 -0.1130 -0.0235
 3266SOL    HW121260   3.513   3.956   2.655  0.0901  0.5373 -0.6428
 3266SOL    HW221261   3.426   3.885   2.745 -0.5420  0.1260  0.3574
 3267SOL     OW21262   2.577   1.984   3.014 -0.5633  0.4973 -0.1122
 3267SOL    HW121263   2.558   1.948   2.927 -0.7051  0.2582  0.0184
 3267SOL    HW221264   2.567   1.912   3.076  0.7385  1.3372  1.0668
 3268SOL     OW21265   4.345   1.865   3.601  0.2338 -0.4768 -0.6551
 3268SOL    HW121266   4.374   1.795   3.542  1.5206  1.8429 -2.7397
 3268SOL    HW221267   4.346   1.936   3.538  1.3385  0.2608  0.1981
 3269SOL     OW21268   0.981   0.140   3.538  0.1926  0.3824 -0.4472
 3269SOL    HW121269   0.948   0.228   3.520  4.0488  1.4920 -2.2513
 3269SOL    HW221270   0.958   0.116   3.628 -0.6920  0.7394 -0.5764
 3270SOL     OW21271   0.113   4.656   9.530 -0.2993 -0.4088 -0.4149
 3270SOL    HW121272   0.187   4.625   9.479 -0.1240  2.7617 -2.0403
 3270SOL    HW221273   0.149   0.012   9.564 -0.6658 -1.0110  1.4613
 3271SOL     OW21274   2.309   1.277   2.855  0.0008 -0.0412  0.0043
 3271SOL    HW121275   2.251   1.285   2.779  2.2764  0.6574 -1.6581
 3271SOL    HW221276   2.386   1.246   2.807 -1.4117 -2.4807 -0.6893
 3272SOL     OW21277   0.166   1.086   4.820  0.1460  0.0834  0.4821
 3272SOL    HW121278   0.164   1.039   4.903  1.4439 -0.9158 -0.0617
 3272SOL    HW221279   0.221   1.163   4.834 -0.2774 -0.1377  3.3817
 3273SOL     OW21280   4.602   1.074   6.501  0.2267  0.3925  0.1406
 3273SOL    HW121281   4.688   1.107   6.473 -0.0114 -0.0887 -1.1395
 3273SOL    HW221282   4.576   1.152   6.550  0.0571 -1.5434  3.1502
 3274SOL     OW21283   3.378   0.754   4.738  0.6023 -0.2251  0.1741
 3274SOL    HW121284   3.329   0.686   4.784  3.6765 -1.5446  1.5424
 3274SOL    HW221285   3.418   0.792   4.816  0.4553  0.2739  0.0005
 3275SOL     OW21286   0.114   0.676  11.699 -0.1805 -0.3062 -0.6105
 3275SOL    HW121287   0.091   0.585  11.680  2.3215 -1.2100  0.7911
 3275SOL    HW221288   0.070   0.682  11.784  0.1878  1.4332 -0.5276
 3276SOL     OW21289   4.476   3.966   8.934 -0.0177 -0.3199  0.1451
 3276SOL    HW121290   4.452   4.052   8.970  1.2403  0.9808 -2.1195
 3276SOL    HW221291   4.460   3.906   9.007  0.4953 -0.8325 -0.1660
 3277SOL     OW21292   0.634   4.715   4.029 -0.1536 -0.0501  0.5539
 3277SOL    HW121293   0.559   0.024   3.981 -1.3934 -2.0639  1.0933
 3277SOL    HW221294   0.623   4.620   4.025 -2.9466  0.3349 -0.8705
 3278SOL     OW21295   2.770   1.755  17.561 -0.1990 -0.5318  0.7730
 3278SOL    HW121296   2.823   1.708  17.496 -2.3237 -0.9553 -0.6679
 3278SOL    HW221297   2.782   1.842  17.523 -0.9989  0.1338  2.0410
 3279SOL     OW21298   0.868   2.907  14.159 -0.2640 -0.2603  0.4481
 3279SOL    HW121299   0.825   2.917  14.074 -0.1149  0.9403  0.5139
 3279SOL    HW221300   0.823   2.976  14.206  0.6504  2.0357 -2.0334
 3280SOL     OW21301   0.093   1.112   2.502 -0.3449  0.6354  0.6012
 3280SOL    HW121302   0.054   1.049   2.563 -2.3029  1.3210  0.0546
 3280SOL    HW221303   0.012   1.150   2.468  1.4367  1.8492 -2.3033
 3281SOL     OW21304   3.771   0.147  15.575  0.2459  0.0343  0.1390
 3281SOL    HW121305   3.769   0.129  15.481  0.7149  0.4368  0.0520
 3281SOL    HW221306   3.745   0.060  15.606 -1.0553 -0.2739 -1.8966
 3282SOL     OW21307   0.682   2.780   6.889 -0.0432  0.1186  0.4535
 3282SOL    HW121308   0.752   2.723   6.923  1.4579  1.8132  0.1737
 3282SOL    HW221309   0.610   2.717   6.888 -0.5436  0.7545 -3.5575
 3283SOL     OW21310   3.509   2.214   9.304  0.4590 -0.1707 -0.1578
 3283SOL    HW121311   3.532   2.185   9.216  0.5949  0.7031 -0.4085
 3283SOL    HW221312   3.584   2.266   9.333 -0.0773  0.4617  0.0930
 3284SOL     OW21313   1.222   1.858   4.359 -0.1571 -0.2990 -0.2230
 3284SOL    HW121314   1.283   1.883   4.428  0.9356 -0.2716 -1.1916
 3284SOL    HW221315   1.254   1.905   4.281 -0.6112 -0.3170 -0.4203
 3285SOL     OW21316   4.601   4.200   4.798 -0.2342  0.6368  0.0624
 3285SOL    HW121317   4.656   4.150   4.858 -2.1035 -1.5403  0.0020
 3285SOL    HW221318   4.664   4.224   4.731 -0.3067 -1.1119 -0.6316
 3286SOL     OW21319   3.891   0.941   0.145 -0.2897  0.3036 -0.4258
 3286SOL    HW121320   3.815   0.900   0.186  1.5383 -1.9286  0.7142
 3286SOL    HW221321   3.907   1.009   0.211 -1.1288 -0.3627  0.4624
 3287SOL     OW21322   0.461   1.442   5.052 -0.4066 -0.1485 -0.0502
 3287SOL    HW121323   0.387   1.458   5.110  0.4750  0.8169  0.8159
 3287SOL    HW221324   0.532   1.484   5.101 -0.3515  1.2598 -1.3615
 3288SOL     OW21325   1.682   1.251   4.323  0.0496  0.2870 -0.2400
 3288SOL    HW121326   1.610   1.307   4.352 -0.2049 -0.1239 -0.0798
 3288SOL    HW221327   1.643   1.164   4.330  0.6970 -0.3060 -3.7747
 3289SOL     OW21328   2.570   1.323  17.443  0.3533 -0.0609 -0.3628
 3289SOL    HW121329   2.644   1.380  17.461  0.2567 -0.3308  0.9037
 3289SOL    HW221330   2.505   1.366  17.499 -2.2446 -2.9069 -1.1923
 3290SOL     OW21331   0.919   3.228  14.981  0.1589 -0.0583  0.4418
 3290SOL    HW121332   0.991   3.165  14.988  0.7397  0.8709  2.9024
 3290SOL    HW221333   0.890   3.231  15.072  0.3416 -1.7986  0.5628
 3291SOL     OW21334   4.435   2.893   7.661 -0.1674  0.2314  0.0185
 3291SOL    HW121335   4.396   2.867   7.744  1.3478 -1.9255  0.0496
 3291SOL    HW221336   4.354   2.919   7.618  0.1811 -0.1131 -0.8508
 3292SOL     OW21337   0.911   0.905   4.579  0.8234  0.1954 -0.4343
 3292SOL    HW121338   0.883   0.829   4.529 -1.2001  0.4689  0.2613
 3292SOL    HW221339   0.838   0.965   4.563 -0.5698 -1.3729  0.0444
 3293SOL     OW21340   2.898   2.205   4.318  0.3846  0.4110  0.0683
 3293SOL    HW121341   2.938   2.274   4.371  0.3138 -1.6069  2.7897
 3293SOL    HW221342   2.847   2.164   4.388 -1.9688  1.3112 -1.1470
 3294SOL     OW21343   0.692   4.055   7.003 -0.1606 -0.0864  0.4220
 3294SOL    HW121344   0.756   4.126   7.002 -0.6928  0.4180  2.3504
 3294SOL    HW221345   0.628   4.096   6.945 -0.7289 -0.8931  0.4652
 3295SOL     OW21346   2.044   1.100   8.070 -0.8195  0.0857 -0.2790
 3295SOL    HW121347   2.064   1.102   7.976 -0.2211 -0.6814 -0.1608
 3295SOL    HW221348   2.105   1.040   8.111  0.1784  0.1956 -1.6053
 3296SOL     OW21349   2.300   1.737   2.909 -0.4154 -0.0401 -0.3280
 3296SOL    HW121350   2.355   1.807   2.873 -0.2692 -0.8468 -1.6731
 3296SOL    HW221351   2.358   1.661   2.911 -1.6226 -0.9256  2.5261
 3297SOL     OW21352   1.181   2.971   6.133  0.2633  0.0859 -0.3039
 3297SOL    HW121353   1.144   2.916   6.201  0.3334  1.1721  0.6191
 3297SOL    HW221354   1.120   3.045   6.125  0.7479  0.5660  0.4125
 3298SOL     OW21355   3.478   0.474   3.638  0.5218  0.0056  0.0576
 3298SOL    HW121356   3.408   0.413   3.616  1.1461 -0.5909 -0.2506
 3298SOL    HW221357   3.508   0.490   3.548  1.0010 -1.6618 -0.0799
 3299SOL     OW21358   3.843   2.302  11.470  0.7761 -0.2963 -0.0120
 3299SOL    HW121359   3.920   2.262  11.430  0.3276 -0.3248 -0.8427
 3299SOL    HW221360   3.875   2.392  11.476  1.2242 -0.6217  2.3575
 3300SOL     OW21361   0.506   3.440  12.235 -0.1283 -1.1071  0.1683
 3300SOL    HW121362   0.458   3.482  12.307  0.1717 -0.7209  0.1459
 3300SOL    HW221363   0.445   3.375  12.201 -1.8507  1.6862 -2.1014
 3301SOL     OW21364   3.010   2.678   9.035  0.1204 -0.1914 -0.4467
 3301SOL    HW121365   3.091   2.629   9.024  0.8408  0.9067 -0.0317
 3301SOL    HW221366   2.942   2.614   9.053 -0.2698  0.3857  0.1414
 3302SOL     OW21367   2.137   2.956   3.157  0.0471  0.4219  0.0367
 3302SOL    HW121368   2.075   2.891   3.125  0.3782 -0.2798  0.8182
 3302SOL    HW221369   2.194   2.893   3.200  0.5275 -0.0167 -1.2558
 3303SOL     OW21370   2.190   0.135   6.016  0.4175  0.0550 -0.1982
 3303SOL    HW121371   2.229   0.107   6.099 -0.5153 -1.4896 -0.2800
 3303SOL    HW221372   2.170   0.052   5.973 -0.1804 -0.8209  1.7782
 3304SOL     OW21373   1.705   0.757   4.699 -0.2146  0.1972  0.0250
 3304SOL    HW121374   1.760   0.825   4.737 -0.3720  1.0851 -1.3485
 3304SOL    HW221375   1.770   0.717   4.642 -0.8792  0.8484 -1.1981
 3305SOL     OW21376   0.622   3.604  11.404  0.1054 -0.0634 -0.1163
 3305SOL    HW121377   0.612   3.542  11.332  2.8272 -0.5275 -0.1020
 3305SOL    HW221378   0.708   3.578  11.437  0.5445  0.0206 -1.1899
 3306SOL     OW21379   2.103   2.326  11.634 -0.5167  0.1220 -0.5897
 3306SOL    HW121380   2.030   2.277  11.671 -1.8828  2.1761 -0.5248
 3306SOL    HW221381   2.171   2.273  11.675 -0.4605  1.7390  1.3801
 3307SOL     OW21382   2.713   4.368   0.453  0.0153 -0.1657 -0.1341
 3307SOL    HW121383   2.665   4.285   0.449 -1.0989  0.4271  1.0572
 3307SOL    HW221384   2.680   4.404   0.535 -2.0259 -0.9645 -0.6099
 3308SOL     OW21385   1.586   0.689   4.358 -0.0852 -0.1617  0.1182
 3308SOL    HW121386   1.587   0.626   4.286  2.3334  0.8634 -0.7411
 3308SOL    HW221387   1.528   0.651   4.425 -2.2774 -0.8292 -2.1568
 3309SOL     OW21388   0.997   3.604   7.880 -0.2874 -0.2790 -0.0127
 3309SOL    HW121389   0.924   3.649   7.922  1.4193 -0.0040  2.6401
 3309SOL    HW221390   0.952   3.541   7.824 -0.4427  0.6152 -0.9122
 3310SOL     OW21391   2.651   1.242   1.657 -0.0985 -0.1764  0.4566
 3310SOL    HW121392   2.611   1.161   1.625  0.5550 -0.2270 -0.2159
 3310SOL    HW221393   2.741   1.211   1.645 -0.2971  0.4540 -2.7352
 3311SOL     OW21394   2.185   3.150  13.121 -0.3724 -0.2432 -0.4378
 3311SOL    HW121395   2.162   3.153  13.028  2.3880 -1.2648 -1.1676
 3311SOL    HW221396   2.256   3.086  13.114 -0.7781 -0.7438  0.0319
 3312SOL     OW21397   4.674   3.864   5.786  0.1141  0.5233  0.6228
 3312SOL    HW121398   4.616   3.920   5.838 -1.9910  0.3534 -1.5197
 3312SOL    HW221399   0.029   3.887   5.831 -0.0911  0.7016  0.8995
 3313SOL     OW21400   0.018   3.148   5.251  0.1526 -0.4437 -0.2306
 3313SOL    HW121401   0.107   3.141   5.286 -0.2932  0.8461  1.1768
 3313SOL    HW221402   0.022   3.244   5.245 -0.2573 -0.6565 -3.7091
 3314SOL     OW21403   1.632   1.976   5.632  0.3086  0.5125 -0.0339
 3314SOL    HW121404   1.536   1.979   5.630  0.3132  1.9811  2.2797
 3314SOL    HW221405   1.659   1.984   5.540  2.4448 -1.0506  0.4791
 3315SOL     OW21406   0.397   3.628  10.917 -0.1650  0.3525 -0.1788
 3315SOL    HW121407   0.411   3.706  10.971 -2.7965 -1.0831  2.6069
 3315SOL    HW221408   0.481   3.599  10.881 -1.3582  0.3673 -2.9862
 3316SOL     OW21409   0.653   2.056   6.706 -0.5904  0.2216  0.0854
 3316SOL    HW121410   0.743   2.089   6.715 -0.7632  0.9985 -1.0357
 3316SOL    HW221411   0.611   2.138   6.731  1.6937  1.2275  0.6200
 3317SOL     OW21412   2.906   4.561   3.710  0.5698  0.1192  0.9229
 3317SOL    HW121413   2.864   4.646   3.693 -0.3325 -0.5649 -0.2292
 3317SOL    HW221414   2.997   4.581   3.691  0.5352  0.0265  0.6606
 3318SOL     OW21415   3.352   1.371   3.723  0.0497 -0.4415  0.6042
 3318SOL    HW121416   3.414   1.325   3.778 -0.8639 -2.0605  0.2753
 3318SOL    HW221417   3.338   1.305   3.655 -0.7354  0.0866  0.2496
 3319SOL     OW21418   1.371   2.469   7.154  0.2215  0.2010  0.3079
 3319SOL    HW121419   1.412   2.416   7.085  1.0569  1.0202  0.1832
 3319SOL    HW221420   1.349   2.395   7.210  1.8817 -0.2913  0.3123
 3320SOL     OW21421   2.620   0.502  14.243  0.0051 -0.4429 -0.2249
 3320SOL    HW121422   2.715   0.500  14.236 -0.0695 -1.7390 -0.8120
 3320SOL    HW221423   2.609   0.569  14.176 -3.3374  1.2620  1.9981
 3321SOL     OW21424   0.982   0.460   9.791 -0.2768 -0.3624 -0.7627
 3321SOL    HW121425   0.993   0.555   9.793 -1.1278 -0.3721  3.8747
 3321SOL    HW221426   1.035   0.454   9.712  2.1280  1.1004  0.7355
 3322SOL     OW21427   0.536   1.447  10.390 -0.2561  0.0161 -0.4867
 3322SOL    HW121428   0.468   1.512  10.372  0.0917  0.2125 -1.0767
 3322SOL    HW221429   0.544   1.444  10.485 -0.6204  1.5206 -0.4078
 3323SOL     OW21430   0.335   2.613   9.584  0.1836 -0.0050 -0.1672
 3323SOL    HW121431   0.334   2.663   9.502 -0.7339  1.4860  0.7563
 3323SOL    HW221432   0.341   2.521   9.557  1.3376  0.0062  0.0826
 3324SOL     OW21433   0.956   4.428   8.124 -0.2463 -0.2531 -0.5604
 3324SOL    HW121434   0.923   4.338   8.125  0.8712 -0.6637 -0.5955
 3324SOL    HW221435   0.948   4.453   8.216  1.6788  0.3463 -0.5653
 3325SOL     OW21436   0.670   3.277   3.558  0.1534  0.7467  0.2151
 3325SOL    HW121437   0.647   3.292   3.650 -1.5066 -0.4621 -0.0074
 3325SOL    HW221438   0.602   3.212   3.541 -0.0670  1.1389 -0.4091
 3326SOL     OW21439   0.641   3.592  13.154  0.2370 -0.1421  0.1823
 3326SOL    HW121440   0.607   3.603  13.065  0.1460 -1.6692  0.0250
 3326SOL    HW221441   0.562   3.594  13.208 -1.1455  0.8162 -1.8856
 3327SOL     OW21442   0.308   0.484   9.143 -0.4558 -0.7673  0.2946
 3327SOL    HW121443   0.240   0.416   9.149 -0.0160 -1.1295  1.2024
 3327SOL    HW221444   0.258   0.541   9.201 -0.0899 -0.6212  0.4666
 3328SOL     OW21445   1.273   0.530  12.243 -0.2207 -0.2126 -0.1984
 3328SOL    HW121446   1.290   0.584  12.165 -1.3183  0.6612  0.1681
 3328SOL    HW221447   1.360   0.550  12.279 -0.0233 -1.5235  0.0285
 3329SOL     OW21448   2.258   2.171   3.018  0.0351  0.0356  0.2489
 3329SOL    HW121449   2.232   2.110   2.949  0.1305 -0.9835  1.1268
 3329SOL    HW221450   2.349   2.194   3.000 -0.7651  0.1176 -3.6172
 3330SOL     OW21451   2.957   3.434   5.746 -0.5117 -0.3856  0.3174
 3330SOL    HW121452   2.911   3.353   5.768 -1.1415 -0.3577 -0.8694
 3330SOL    HW221453   2.986   3.411   5.658 -1.6855 -0.0896 -0.1504
 3331SOL     OW21454   2.530   0.169   1.234  0.4272 -0.0676 -0.1512
 3331SOL    HW121455   2.602   0.207   1.185 -0.5759  1.4462 -0.4637
 3331SOL    HW221456   2.535   0.080   1.199  3.4538 -0.9160  2.4868
 3332SOL     OW21457   0.399   3.240  11.052  0.1144  0.0236  0.1162
 3332SOL    HW121458   0.402   3.153  11.092  0.4366  0.3034  0.7034
 3332SOL    HW221459   0.316   3.271  11.087  0.2883 -1.2428  1.6856
 3333SOL     OW21460   1.546   1.404  14.595 -0.0658 -0.1653 -0.5488
 3333SOL    HW121461   1.468   1.410  14.651 -1.0623  1.7198 -2.1192
 3333SOL    HW221462   1.612   1.447  14.649 -2.8530 -1.5074  3.9408
 3334SOL     OW21463   0.403   2.702   6.309  0.3234 -0.6295  0.9616
 3334SOL    HW121464   0.364   2.619   6.337  0.0318 -1.1964 -1.1973
 3334SOL    HW221465   0.420   2.736   6.397  0.4856 -1.0629  1.0980
 3335SOL     OW21466   2.538   0.719   8.895 -0.1212  0.3052 -0.0069
 3335SOL    HW121467   2.527   0.693   8.986  0.1304  0.7013  0.1354
 3335SOL    HW221468   2.625   0.758   8.884 -0.9412  2.2455  0.4049
 3336SOL     OW21469   2.535   0.763   9.595 -0.2739 -0.2442 -0.0635
 3336SOL    HW121470   2.555   0.842   9.546 -2.6088  0.6588  0.4505
 3336SOL    HW221471   2.601   0.771   9.663  0.0543 -1.0920 -0.2823
 3337SOL     OW21472   0.721   0.989   3.482  0.6478  0.3821 -1.0238
 3337SOL    HW121473   0.776   0.965   3.557  0.5839  0.6201 -0.8995
 3337SOL    HW221474   0.782   1.049   3.439  0.5066  1.9218  0.8815
 3338SOL     OW21475   2.613   0.230   2.834  0.2800 -0.1286  0.5910
 3338SOL    HW121476   2.530   0.234   2.786  0.1314 -0.2205  0.8426
 3338SOL    HW221477   2.621   0.325   2.830  1.4678 -0.2665 -0.4180
 3339SOL     OW21478   1.124   0.855   5.806 -0.0139 -0.6815 -0.1174
 3339SOL    HW121479   1.085   0.796   5.871 -0.0325  2.1445  2.4713
 3339SOL    HW221480   1.189   0.886   5.870 -1.1404 -0.8873  1.1345
 3340SOL     OW21481   3.149   3.262  10.282 -0.4588  0.0404 -0.4670
 3340SOL    HW121482   3.121   3.257  10.191 -1.1079 -0.8148 -0.2272
 3340SOL    HW221483   3.197   3.343  10.265 -1.0901  0.8418  1.5338
 3341SOL     OW21484   2.197   1.484  12.192  0.2763  0.0197 -0.5558
 3341SOL    HW121485   2.271   1.467  12.251  1.3931  2.4542 -1.2651
 3341SOL    HW221486   2.187   1.413  12.129 -0.3554  1.4326 -2.0319
 3342SOL     OW21487   3.738   3.176   3.154 -0.5708  0.0431 -0.0695
 3342SOL    HW121488   3.727   3.199   3.246 -1.0697 -0.7725  0.0695
 3342SOL    HW221489   3.772   3.258   3.117  2.0080 -1.8925 -1.9849
 3343SOL     OW21490   2.216   3.655   9.614 -0.2270 -0.1910 -0.1974
 3343SOL    HW121491   2.259   3.571   9.596 -2.2465 -0.9183 -1.7664
 3343SOL    HW221492   2.137   3.621   9.655 -0.5013  2.5175  1.4851
 3344SOL     OW21493   0.485   2.740   7.841 -0.3752  0.9259  0.5538
 3344SOL    HW121494   0.571   2.781   7.848  0.5023 -1.0042  1.1560
 3344SOL    HW221495   0.514   2.649   7.833 -1.0349  0.6393  1.2942
 3345SOL     OW21496   1.942   2.470   7.898 -0.4656  0.0346  0.0342
 3345SOL    HW121497   1.964   2.421   7.977 -1.8090 -1.8952 -0.7739
 3345SOL    HW221498   1.849   2.491   7.903 -0.8141 -1.1639 -1.1222
 3346SOL     OW21499   0.072   4.231   4.412  0.2389  0.7925  0.3087
 3346SOL    HW121500   0.162   4.234   4.378 -0.4149  0.5728 -1.4093
 3346SOL    HW221501   0.042   4.319   4.390 -0.1477  0.7783  0.7813
 3347SOL     OW21502   1.083   4.392   4.575  0.4008  0.0529  0.1664
 3347SOL    HW121503   1.091   4.340   4.655 -0.6543  0.5614  0.6063
 3347SOL    HW221504   1.157   4.350   4.532 -1.1452 -2.9761  0.5060
 3348SOL     OW21505   1.523   2.837   8.810 -0.3866 -0.6537 -0.7137
 3348SOL    HW121506   1.440   2.790   8.820 -1.0482  0.5895 -0.2888
 3348SOL    HW221507   1.563   2.774   8.751 -0.1613  0.2845 -1.5566
 3349SOL     OW21508   0.686   4.527   6.279 -0.3545  0.1039  0.1842
 3349SOL    HW121509   0.711   4.449   6.230 -0.3434 -0.3085  0.8528
 3349SOL    HW221510   0.773   4.560   6.303  0.9064 -2.2138 -1.2692
 3350SOL     OW21511   0.161   0.157   6.517  0.3004 -0.0951 -0.2769
 3350SOL    HW121512   0.164   0.251   6.496  1.6294 -0.1029 -0.1351
 3350SOL    HW221513   0.241   0.121   6.478  0.8597 -0.0673  0.8436
 3351SOL     OW21514   0.758   1.528   8.634  0.4546 -0.0567  0.3092
 3351SOL    HW121515   0.794   1.556   8.719  0.1069 -0.6684  0.6568
 3351SOL    HW221516   0.799   1.442   8.625  1.7375  0.4744  0.9876
 3352SOL     OW21517   1.771   3.110   5.546 -0.0763  0.5317  0.1918
 3352SOL    HW121518   1.750   3.149   5.631 -0.1065 -0.7168  0.7586
 3352SOL    HW221519   1.733   3.171   5.483 -0.7615  1.1829  1.2333
 3353SOL     OW21520   3.156   0.795   8.325  0.3696 -0.0424  0.2863
 3353SOL    HW121521   3.101   0.780   8.402 -2.4538 -1.6143 -2.0269
 3353SOL    HW221522   3.179   0.886   8.344  1.1940 -0.3388  0.7063
 3354SOL     OW21523   1.000   0.689   5.171  0.6764 -0.1526  0.4641
 3354SOL    HW121524   1.023   0.775   5.136 -0.7816  0.6625  1.5288
 3354SOL    HW221525   1.015   0.644   5.088  1.0814  0.4243  0.2332
 3355SOL     OW21526   4.247   1.692  10.450  0.0184  0.5875 -0.2091
 3355SOL    HW121527   4.310   1.660  10.385  0.7353  0.4246  0.5588
 3355SOL    HW221528   4.243   1.785  10.430  0.0599  0.9887  1.6692
 3356SOL     OW21529   3.556   4.131   7.708  0.2758  0.6471 -0.0258
 3356SOL    HW121530   3.503   4.181   7.646  1.3075  0.9004 -0.7190
 3356SOL    HW221531   3.497   4.107   7.779 -0.1827 -2.4924 -1.4742
 3357SOL     OW21532   1.443   4.036   9.692 -0.1960 -0.3096  0.4649
 3357SOL    HW121533   1.450   4.101   9.761 -0.8263 -1.1535  1.3246
 3357SOL    HW221534   1.527   3.990   9.690 -0.2390 -0.3195 -1.6380
 3358SOL     OW21535   3.988   0.238   3.927 -0.2430 -0.4872  0.1749
 3358SOL    HW121536   4.037   0.294   3.867  2.1420 -3.1570 -0.4052
 3358SOL    HW221537   3.903   0.233   3.884  0.5328 -0.1457 -1.4076
 3359SOL     OW21538   3.106   4.719  10.649 -0.2083  0.1026  0.4661
 3359SOL    HW121539   3.043   4.647  10.650  0.4948 -0.5208 -1.2621
 3359SOL    HW221540   3.117   4.718  10.554  1.7638  0.2249  0.6900
 3360SOL     OW21541   0.463   0.555   8.231 -0.8391 -0.1295 -0.2886
 3360SOL    HW121542   0.503   0.532   8.315  1.0023  0.5408 -0.9918
 3360SOL    HW221543   0.376   0.514   8.234 -0.3820 -0.9207  2.3694
 3361SOL     OW21544   2.142   2.195   2.212  0.0828  0.4462 -0.0473
 3361SOL    HW121545   2.143   2.136   2.137 -2.5631  1.3710 -0.8007
 3361SOL    HW221546   2.231   2.228   2.220  0.8275 -2.0788  2.0159
 3362SOL     OW21547   2.025   4.537  11.594 -0.2495 -0.2215 -0.2088
 3362SOL    HW121548   2.045   4.602  11.662 -1.7314 -0.8109  0.7744
 3362SOL    HW221549   1.973   4.587  11.532  1.5146 -1.0703 -2.4069
 3363SOL     OW21550   3.544   4.671   6.737 -0.7539 -0.2651  0.1244
 3363SOL    HW121551   3.572   0.019   6.791 -2.6435  1.0515 -0.6606
 3363SOL    HW221552   3.604   4.678   6.662 -0.5538 -0.4568  0.2655
 3364SOL     OW21553   1.715   0.749   7.099  0.1426  0.3156 -0.4072
 3364SOL    HW121554   1.750   0.684   7.037  1.0362  0.1137  0.3119
 3364SOL    HW221555   1.669   0.807   7.038 -0.5660 -0.7091 -0.8505
 3365SOL     OW21556   1.115   2.962   5.870 -0.0834 -0.0170  0.3553
 3365SOL    HW121557   1.055   2.892   5.894 -0.2406  0.2050  0.6036
 3365SOL    HW221558   1.153   2.973   5.958 -1.8539 -0.6803  1.1935
 3366SOL     OW21559   0.236   3.755  12.891 -0.0592  0.3005  0.2383
 3366SOL    HW121560   0.254   3.832  12.838 -0.1225  1.9349  2.6005
 3366SOL    HW221561   0.221   3.800  12.974  0.4303 -2.8180  2.0367
 3367SOL     OW21562   2.340   0.238   4.525  0.2353 -0.1635  0.2956
 3367SOL    HW121563   2.256   0.196   4.544  0.2227 -0.4210 -0.3359
 3367SOL    HW221564   2.372   0.262   4.612 -0.4199 -0.6260  0.6642
 3368SOL     OW21565   3.855   1.893  14.932  0.0340  0.1702 -0.5179
 3368SOL    HW121566   3.906   1.974  14.932 -0.3330  0.4014 -0.6106
 3368SOL    HW221567   3.813   1.913  14.848 -1.0542  2.1343  0.4998
 3369SOL     OW21568   3.664   3.197  14.483 -0.1826 -0.3613 -0.4646
 3369SOL    HW121569   3.711   3.280  14.496  0.9190 -0.8924 -1.0242
 3369SOL    HW221570   3.666   3.198  14.387  1.4328 -0.1081 -0.4390
 3370SOL     OW21571   1.437   4.203   9.932 -0.4005  0.6451 -0.9517
 3370SOL    HW121572   1.456   4.135   9.997  2.1243  2.1296 -0.1481
 3370SOL    HW221573   1.369   4.233   9.993 -1.4251  0.9857 -2.2689
 3371SOL     OW21574   0.469   2.626   6.891 -0.2267  0.3856 -0.3069
 3371SOL    HW121575   0.456   2.533   6.870 -4.1857  0.8001  0.2098
 3371SOL    HW221576   0.471   2.655   6.799 -2.0783  1.7575  0.0819
 3372SOL     OW21577   1.493   3.666   5.665  0.4742  0.2563 -0.1375
 3372SOL    HW121578   1.473   3.640   5.575 -1.2183 -0.1289  0.3565
 3372SOL    HW221579   1.490   3.762   5.663 -1.2861  0.1851 -0.9166
 3373SOL     OW21580   0.839   0.777  14.760 -0.6971  0.0999 -0.2079
 3373SOL    HW121581   0.930   0.749  14.755 -0.8593  0.0399 -2.6217
 3373SOL    HW221582   0.860   0.870  14.769 -0.6775  0.0233  0.5546
 3374SOL     OW21583   1.131   0.090  12.399  0.2185 -0.9656  0.4603
 3374SOL    HW121584   1.060   0.080  12.462  1.5365 -0.8150  1.9785
 3374SOL    HW221585   1.179   0.013  12.430  0.3766 -1.0939 -0.1064
 3375SOL     OW21586   1.712   4.554   1.611  0.3676  0.2547  0.3170
 3375SOL    HW121587   1.639   4.576   1.668  0.2549  0.9442 -0.1039
 3375SOL    HW221588   1.763   4.633   1.597 -0.4125  0.5745 -0.6476
 3376SOL     OW21589   3.969   1.046  15.711  0.4803  0.2272 -0.0983
 3376SOL    HW121590   3.954   0.973  15.651 -0.1629 -0.9210  1.4389
 3376SOL    HW221591   4.047   1.011  15.754  0.6952 -1.2335 -1.6896
 3377SOL     OW21592   4.477   4.540   1.866 -0.2836 -0.2722 -0.0676
 3377SOL    HW121593   4.465   4.635   1.864  1.0917 -0.1120 -1.0236
 3377SOL    HW221594   4.571   4.539   1.882 -0.3574  2.6764  0.6423
 3378SOL     OW21595   1.155   2.814  11.385 -0.2436  0.2153  0.0930
 3378SOL    HW121596   1.141   2.762  11.306  0.8413 -1.2022  0.8337
 3378SOL    HW221597   1.249   2.833  11.387 -0.3525  0.9325 -1.4186
 3379SOL     OW21598   1.455   4.464   0.979  0.0337 -0.1763  0.1680
 3379SOL    HW121599   1.547   4.448   1.001  0.2170  0.8868  0.1680
 3379SOL    HW221600   1.441   4.555   1.007 -1.6909 -0.7557  1.1918
 3380SOL     OW21601   2.860   1.555   6.193 -0.0585  0.1438 -0.3481
 3380SOL    HW121602   2.769   1.575   6.213  0.1535  0.8467 -0.0822
 3380SOL    HW221603   2.859   1.460   6.202 -2.1917  0.4180  2.2068
 3381SOL     OW21604   1.555   3.907   6.191  0.2453 -0.1979  0.1152
 3381SOL    HW121605   1.549   3.867   6.278  1.9585 -1.9366 -0.5653
 3381SOL    HW221606   1.579   3.992   6.229  0.5620  0.0350 -0.6187
 3382SOL     OW21607   4.305   2.764   6.401  0.0095 -0.3670 -0.0516
 3382SOL    HW121608   4.284   2.848   6.442  2.0401 -0.3462  0.9504
 3382SOL    HW221609   4.240   2.703   6.436  0.2004  0.0845  1.0906
 3383SOL     OW21610   4.013   2.491   6.131  0.2461 -0.4587  0.3054
 3383SOL    HW121611   3.934   2.443   6.108 -0.0212 -0.2457  0.7845
 3383SOL    HW221612   3.979   2.580   6.117 -0.5264 -0.9176 -0.7643
 3384SOL     OW21613   4.092   1.452  14.832  0.3188  0.2129  0.1006
 3384SOL    HW121614   4.017   1.502  14.799  0.2890  0.5984  0.7639
 3384SOL    HW221615   4.150   1.464  14.756  1.1393 -0.7010  0.5781
 3385SOL     OW21616   2.735   2.023   2.773 -0.2232 -0.0360  0.4548
 3385SOL    HW121617   2.765   2.059   2.857  1.7146  0.0277 -0.2555
 3385SOL    HW221618   2.740   2.109   2.733 -0.5577  0.0434  0.5898
 3386SOL     OW21619   0.626   0.876   5.409 -0.5056  0.7052 -0.0786
 3386SOL    HW121620   0.581   0.870   5.324 -1.3803 -1.1354  0.5130
 3386SOL    HW221621   0.702   0.932   5.398  1.8958 -2.3063  1.4176
 3387SOL     OW21622   2.354   3.393   9.493  0.2286 -0.3573 -0.7784
 3387SOL    HW121623   2.359   3.432   9.406  0.4763  1.5950  0.1244
 3387SOL    HW221624   2.269   3.350   9.494  0.0271  0.0510  0.0052
 3388SOL     OW21625   4.509   0.080   8.941  0.1336 -0.2861 -0.0673
 3388SOL    HW121626   4.503   0.151   9.006 -1.5440  0.2446 -0.7978
 3388SOL    HW221627   4.603   0.063   8.944  0.3612  0.8939 -0.4023
 3389SOL     OW21628   2.402   3.704   8.763 -0.4803  0.7361 -0.2404
 3389SOL    HW121629   2.355   3.762   8.824 -0.6013  1.5616 -1.1232
 3389SOL    HW221630   2.329   3.658   8.723  2.0054 -1.9845 -1.6183
 3390SOL     OW21631   3.834   2.949   4.791  0.0182 -0.0118 -0.1195
 3390SOL    HW121632   3.845   2.865   4.836  0.3245 -0.9131 -1.8592
 3390SOL    HW221633   3.914   2.992   4.822 -0.1902 -0.0006  0.4023
 3391SOL     OW21634   1.140   1.675   8.790  0.2272  0.1058  0.3465
 3391SOL    HW121635   1.187   1.722   8.721 -0.6439 -1.3876 -1.2451
 3391SOL    HW221636   1.201   1.631   8.850  0.8875 -0.5531 -0.8222
 3392SOL     OW21637   1.237   1.606   2.504  0.4545 -0.4444 -0.1150
 3392SOL    HW121638   1.301   1.608   2.575  0.4020  0.6371 -0.0876
 3392SOL    HW221639   1.239   1.700   2.484  1.1513 -0.1069  1.5211
 3393SOL     OW21640   0.784   0.981   9.248 -0.4526 -0.7233  0.3716
 3393SOL    HW121641   0.856   0.976   9.184 -0.7191 -1.3087  0.1172
 3393SOL    HW221642   0.842   0.978   9.324  0.0688  0.3093  0.0153
 3394SOL     OW21643   1.645   2.934  10.320 -0.1865 -0.0906 -0.1076
 3394SOL    HW121644   1.573   2.994  10.299 -0.0789 -0.5408 -1.7995
 3394SOL    HW221645   1.704   2.955  10.247 -0.4500 -0.6646 -0.4869
 3395SOL     OW21646   4.660   4.047   7.258  0.1059  0.1754 -0.1164
 3395SOL    HW121647   4.703   3.977   7.209 -1.1811  0.6498 -1.9338
 3395SOL    HW221648   4.572   4.015   7.277  0.0208 -0.0748 -0.9165
 3396SOL     OW21649   2.445   1.785   1.595 -0.1515 -0.0121  0.4929
 3396SOL    HW121650   2.509   1.854   1.615 -0.7609  0.3483  1.2091
 3396SOL    HW221651   2.419   1.803   1.505  0.9211 -2.8895 -0.3977
 3397SOL     OW21652   4.264   2.615   7.056 -0.2013  0.7643  0.0211
 3397SOL    HW121653   4.276   2.692   7.000 -1.1244  0.2435 -0.9041
 3397SOL    HW221654   4.303   2.649   7.136 -0.2067  1.5414 -0.3075
 3398SOL     OW21655   1.871   3.519   1.946 -0.2534 -0.3986  0.4092
 3398SOL    HW121656   1.807   3.537   2.014 -0.3855 -1.5238  0.5805
 3398SOL    HW221657   1.923   3.598   1.953 -0.4787 -0.1627 -0.5464
 3399SOL     OW21658   1.040   0.472   5.363 -0.2550 -0.2746 -0.2056
 3399SOL    HW121659   1.018   0.552   5.315  0.1971  0.1970  0.3726
 3399SOL    HW221660   1.136   0.469   5.359 -0.2194  2.2192 -1.1424
 3400SOL     OW21661   3.583   1.164  12.966  0.2461  0.0751 -0.8406
 3400SOL    HW121662   3.596   1.069  12.976  1.2246  0.2292 -0.6357
 3400SOL    HW221663   3.489   1.171  12.950  0.1847  0.0199 -0.5128
 3401SOL     OW21664   3.429   3.984  12.095 -0.3766 -0.0837  0.1413
 3401SOL    HW121665   3.468   4.056  12.045 -0.2756  0.8718  1.6062
 3401SOL    HW221666   3.488   3.915  12.067  1.6752  3.0745 -3.4403
 3402SOL     OW21667   0.418   4.592   6.272 -0.1822 -0.1743  0.2250
 3402SOL    HW121668   0.372   4.531   6.214  1.2947 -0.8785 -0.1947
 3402SOL    HW221669   0.507   4.576   6.240 -0.1500  0.6603 -0.1187
 3403SOL     OW21670   2.536   1.345   4.637 -0.4408 -0.5997  0.2333
 3403SOL    HW121671   2.491   1.331   4.720 -2.6929  1.4175 -0.6175
 3403SOL    HW221672   2.595   1.270   4.638 -0.8546 -0.8968  2.6851
 3404SOL     OW21673   2.423   2.466   4.908 -0.3133  0.3477 -0.0948
 3404SOL    HW121674   2.510   2.454   4.870  0.2527 -1.0233  1.6428
 3404SOL    HW221675   2.368   2.432   4.837  0.9276 -1.5626 -0.1662
 3405SOL     OW21676   2.088   1.248   5.167 -0.2027 -0.1633  0.2507
 3405SOL    HW121677   2.140   1.234   5.246 -0.8297 -0.3783  0.6281
 3405SOL    HW221678   2.143   1.215   5.095  0.1919 -0.2742  0.6046
 3406SOL     OW21679   1.023   3.905  16.813 -0.9156 -0.3919  0.7995
 3406SOL    HW121680   1.054   3.945  16.732  1.2567 -1.8727  0.8795
 3406SOL    HW221681   1.049   3.814  16.798  0.2533  0.0628  0.0363
 3407SOL     OW21682   4.590   0.274   5.625 -0.7671 -0.7494 -0.0918
 3407SOL    HW121683   4.614   0.359   5.662 -0.0414 -1.0288  0.0815
 3407SOL    HW221684   4.499   0.278   5.598 -0.7289 -1.8041 -0.4003
 3408SOL     OW21685   2.454   4.079   0.094 -0.4223 -0.8223 -0.3081
 3408SOL    HW121686   2.404   4.090   0.013 -1.8903  0.5805  0.8096
 3408SOL    HW221687   2.447   3.983   0.093 -0.4973 -0.8105 -0.7841
 3409SOL     OW21688   3.906   2.411  13.860 -0.3088 -0.2511 -0.2231
 3409SOL    HW121689   3.889   2.494  13.905 -0.0067 -0.6800  0.6872
 3409SOL    HW221690   3.993   2.428  13.824 -0.2503  1.6952  0.8850
 3410SOL     OW21691   3.283   4.541   5.347  0.4422  0.3036 -0.7618
 3410SOL    HW121692   3.369   4.507   5.320  0.2952  0.3550 -1.2968
 3410SOL    HW221693   3.263   4.585   5.264  1.5039  0.4799 -0.9300
 3411SOL     OW21694   4.673   4.425  15.956  0.2136 -0.3925 -0.0588
 3411SOL    HW121695   4.638   4.340  15.982 -0.8603  0.2992  0.7519
 3411SOL    HW221696   4.588   4.468  15.945  1.0509  1.3157  0.0524
 3412SOL     OW21697   0.908   1.141   5.465 -0.0568 -0.0717  0.1708
 3412SOL    HW121698   0.876   1.179   5.383  0.3680 -1.8494 -0.8046
 3412SOL    HW221699   0.989   1.095   5.443 -0.3856 -1.0525  0.9898
 3413SOL     OW21700   3.091   0.195  17.287 -0.4503  0.1914 -0.5435
 3413SOL    HW121701   3.003   0.230  17.307 -0.0958  1.5796 -1.3873
 3413SOL    HW221702   3.137   0.193  17.370  1.8962 -0.5125 -1.8789
 3414SOL     OW21703   4.208   3.933  14.459  0.2466  0.3716  0.9125
 3414SOL    HW121704   4.136   3.985  14.421  1.0566  0.5183 -0.4263
 3414SOL    HW221705   4.272   4.004  14.449  1.0778 -0.5658 -0.3678
 3415SOL     OW21706   3.248   3.107   9.322  0.1297 -0.1681 -0.5314
 3415SOL    HW121707   3.205   3.054   9.390  0.6122  0.9505  0.6386
 3415SOL    HW221708   3.178   3.125   9.259 -2.7158 -0.9943  2.3744
 3416SOL     OW21709   0.773   1.642  10.334 -0.1429 -0.2196 -0.1173
 3416SOL    HW121710   0.706   1.582  10.367 -0.1217  0.6444  1.4701
 3416SOL    HW221711   0.779   1.702  10.408  0.6509  1.4667 -1.5553
 3417SOL     OW21712   2.080   1.930  12.164  0.0224  0.4739 -0.5942
 3417SOL    HW121713   2.052   1.842  12.188 -1.7879  0.8255 -1.4147
 3417SOL    HW221714   2.172   1.918  12.142 -0.3861 -1.5797 -1.2025
 3418SOL     OW21715   3.032   1.971  14.514 -0.2192  0.3056 -0.2129
 3418SOL    HW121716   3.067   1.918  14.442 -1.6981 -1.8229  0.6476
 3418SOL    HW221717   3.112   2.018  14.538  0.0238  0.2575 -0.9208
 3419SOL     OW21718   2.566   3.117  11.032 -0.7242  0.6433  0.0424
 3419SOL    HW121719   2.583   3.023  11.036 -1.1474  0.5233 -1.0368
 3419SOL    HW221720   2.591   3.142  11.121  1.8408  1.2293 -0.8372
 3420SOL     OW21721   2.075   1.198   2.660  0.1716 -0.0688 -0.0517
 3420SOL    HW121722   2.059   1.136   2.589 -0.4617 -0.3201  0.3146
 3420SOL    HW221723   1.997   1.180   2.713  0.5437 -2.7470 -0.4236
 3421SOL     OW21724   3.113   2.795   4.055  0.5781  0.3166  0.5510
 3421SOL    HW121725   3.175   2.738   4.100  1.0191 -0.9195 -1.6151
 3421SOL    HW221726   3.029   2.752   4.070  0.9104 -0.7951 -0.7685
 3422SOL     OW21727   0.197   2.144   8.116  0.1688  0.1913  0.4011
 3422SOL    HW121728   0.104   2.162   8.102  0.4198  1.0059 -0.2085
 3422SOL    HW221729   0.212   2.206   8.188 -1.8265 -0.2721  1.2195
 3423SOL     OW21730   2.109   3.396   3.919  0.2931 -0.2272  0.1301
 3423SOL    HW121731   2.141   3.404   4.009  1.5677  2.0435 -0.5309
 3423SOL    HW221732   2.194   3.394   3.875 -0.0877 -3.0255 -0.4828
 3424SOL     OW21733   1.335   0.603   8.111 -0.2596 -0.0307  0.1259
 3424SOL    HW121734   1.261   0.571   8.060  0.3005  1.7203 -1.8238
 3424SOL    HW221735   1.375   0.667   8.052 -1.2443 -1.3532 -1.9734
 3425SOL     OW21736   1.028   3.829  13.650 -0.1495 -0.2376 -0.0382
 3425SOL    HW121737   1.104   3.772  13.653  0.7634  0.9435 -0.7595
 3425SOL    HW221738   1.073   3.908  13.620  0.7909 -0.7776 -0.0432
 3426SOL     OW21739   1.800   1.805   7.541  0.7310 -0.2536  0.2165
 3426SOL    HW121740   1.719   1.762   7.517  0.3141  0.4013  0.4569
 3426SOL    HW221741   1.795   1.822   7.635  1.0512  1.2554 -0.0423
 3427SOL     OW21742   1.362   0.057   2.790 -0.3233 -0.8219 -0.2427
 3427SOL    HW121743   1.411   4.710   2.831  1.3973  1.1173  1.0847
 3427SOL    HW221744   1.412   0.129   2.828  1.2422 -1.6176 -0.7874
 3428SOL     OW21745   0.755   0.588   4.184  0.1583  0.0114 -0.1841
 3428SOL    HW121746   0.764   0.507   4.133  1.5047 -1.8544  2.9535
 3428SOL    HW221747   0.841   0.628   4.169  0.1655 -0.1942 -0.6680
 3429SOL     OW21748   0.008   4.609   0.758 -0.5865  0.6383 -0.5034
 3429SOL    HW121749   4.697   4.620   0.670  0.1141  1.3201 -0.7038
 3429SOL    HW221750   4.709   4.692   0.801  0.0645  0.3537  0.4155
 3430SOL     OW21751   3.548   2.437  14.974  0.8876 -0.1370 -0.1138
 3430SOL    HW121752   3.591   2.510  15.019  0.7019  0.9904 -1.7749
 3430SOL    HW221753   3.465   2.416  15.017  0.1802  0.2894 -1.2744
 3431SOL     OW21754   4.397   2.586   2.466 -0.1290 -0.5916 -0.1267
 3431SOL    HW121755   4.408   2.676   2.495  1.3533 -0.8017 -0.0633
 3431SOL    HW221756   4.321   2.560   2.518 -0.5139 -1.6910 -1.2247
 3432SOL     OW21757   0.094   3.411   2.273 -0.4692 -0.1581 -0.1149
 3432SOL    HW121758   0.159   3.380   2.337  1.0026 -2.4176 -2.6906
 3432SOL    HW221759   0.156   3.424   2.201 -1.2792  0.4680 -0.6936
 3433SOL     OW21760   0.137   2.560  17.121  0.2260 -0.1305  0.7981
 3433SOL    HW121761   0.183   2.513  17.190  1.4524  2.7161  1.9133
 3433SOL    HW221762   0.100   2.636  17.167 -0.3520  0.4003 -0.5404
 3434SOL     OW21763   3.114   0.095   4.911  0.7242  0.0653 -0.3354
 3434SOL    HW121764   3.139   0.168   4.854 -0.6357  1.8288  1.3212
 3434SOL    HW221765   3.030   0.075   4.869  0.3793 -1.4076  1.0582
 3435SOL     OW21766   0.119   0.326   4.993  0.1942  0.9144 -0.0449
 3435SOL    HW121767   0.087   0.237   4.982 -1.5671  1.6550 -0.8894
 3435SOL    HW221768   0.098   0.372   4.912  2.7911  1.5718 -0.3479
 3436SOL     OW21769   1.832   2.940   4.329 -0.0737  0.3960  0.4105
 3436SOL    HW121770   1.759   2.963   4.271  0.3998  1.1821  0.1153
 3436SOL    HW221771   1.840   3.026   4.370  0.1919 -0.5584  2.3513
 3437SOL     OW21772   1.778   0.644   1.253 -0.6962  0.4513 -0.7004
 3437SOL    HW121773   1.707   0.628   1.314 -0.6861  3.8455  0.2094
 3437SOL    HW221774   1.855   0.651   1.310  0.2346  0.0501 -1.9140
 3438SOL     OW21775   3.628   0.906   5.147 -0.2245  0.4285 -0.0211
 3438SOL    HW121776   3.681   0.852   5.207 -1.8141  0.0946  1.0797
 3438SOL    HW221777   3.688   0.920   5.074  0.9154 -3.5505  0.1397
 3439SOL     OW21778   0.405   1.453   9.245  0.3197  0.1635 -0.5961
 3439SOL    HW121779   0.485   1.455   9.192  0.4174  0.5973 -0.4288
 3439SOL    HW221780   0.441   1.475   9.330  1.4454 -3.5743 -0.1208
 3440SOL     OW21781   4.646   1.155  15.361 -0.4334  0.3333  0.0828
 3440SOL    HW121782   4.565   1.187  15.399 -0.2938 -1.5683  1.9502
 3440SOL    HW221783   4.610   1.083  15.309  1.7609 -0.2706 -0.6197
 3441SOL     OW21784   1.562   4.214   4.373  0.8379 -0.3935 -0.1823
 3441SOL    HW121785   1.550   4.303   4.406  1.0532 -1.5678  3.0353
 3441SOL    HW221786   1.566   4.171   4.458  1.1944 -0.1100 -0.0567
 3442SOL     OW21787   0.542   3.671   3.811 -0.3458  0.0045 -0.3557
 3442SOL    HW121788   0.546   3.722   3.891  0.5835 -1.2555  0.4078
 3442SOL    HW221789   0.632   3.654   3.785  0.0269  1.1294  0.2466
 3443SOL     OW21790   3.207   4.711   5.918  0.2136 -0.3251  0.2401
 3443SOL    HW121791   3.300   4.714   5.941  0.0133  0.6456  0.9177
 3443SOL    HW221792   3.202   4.618   5.895 -0.7068 -0.1907 -0.0774
 3444SOL     OW21793   1.979   1.235  14.841 -0.2314 -0.2857  0.0632
 3444SOL    HW121794   1.974   1.259  14.933  1.1947  0.0933  0.0492
 3444SOL    HW221795   1.967   1.320  14.799 -0.5266 -0.6815 -0.6535
 3445SOL     OW21796   3.019   1.128   5.024 -0.5270 -0.0375  0.0248
 3445SOL    HW121797   3.006   1.156   5.114 -1.0713 -2.6076  0.7322
 3445SOL    HW221798   3.057   1.208   4.987 -1.7020 -0.2693 -1.6867
 3446SOL     OW21799   2.518   2.088   2.482 -0.1079 -0.5303  0.0954
 3446SOL    HW121800   2.486   2.176   2.462  2.9265  1.3542  3.4980
 3446SOL    HW221801   2.552   2.067   2.396 -1.7535 -1.1638 -0.3959
 3447SOL     OW21802   0.748   3.231   9.248  0.0001 -0.2720  0.6660
 3447SOL    HW121803   0.756   3.151   9.299  1.8606 -0.3311  0.2708
 3447SOL    HW221804   0.819   3.220   9.185 -0.3235 -0.2880  0.3025
 3448SOL     OW21805   2.818   3.651   5.074  0.6162 -0.1702 -0.3488
 3448SOL    HW121806   2.783   3.647   5.163  0.6894 -1.9957 -0.3995
 3448SOL    HW221807   2.796   3.740   5.048 -4.6600 -1.0516  1.0437
 3449SOL     OW21808   1.092   0.289   5.645 -0.2418 -0.6975 -0.1142
 3449SOL    HW121809   1.091   0.217   5.582  1.1917 -0.5094 -0.3715
 3449SOL    HW221810   1.012   0.337   5.626 -0.3157  0.0218  1.9844
 3450SOL     OW21811   2.950   3.469   7.198  0.4836 -0.0070  0.2907
 3450SOL    HW121812   2.898   3.547   7.216  0.2501 -0.2389  0.6083
 3450SOL    HW221813   2.947   3.480   7.103 -0.5882  0.2591  0.3517
 3451SOL     OW21814   3.368   3.088  14.048 -0.3094  0.7798  0.1213
 3451SOL    HW121815   3.329   3.060  13.966 -1.5786  1.8803  0.3496
 3451SOL    HW221816   3.296   3.133  14.092 -1.1618  0.0580 -0.5449
 3452SOL     OW21817   2.143   0.669   7.246 -1.0753 -0.2477 -0.2934
 3452SOL    HW121818   2.189   0.589   7.221  0.1524  1.3382 -3.0885
 3452SOL    HW221819   2.202   0.727   7.198 -0.2570 -0.1210  0.8535
 3453SOL     OW21820   0.562   2.153   4.265 -0.1052  0.4009  0.6728
 3453SOL    HW121821   0.641   2.205   4.249  0.5140 -0.3542  1.2487
 3453SOL    HW221822   0.496   2.222   4.274 -1.3662 -0.7407  0.0397
 3454SOL     OW21823   3.045   2.808   5.283 -0.4056 -0.1731  0.0209
 3454SOL    HW121824   2.990   2.864   5.229 -1.6264 -0.4135  1.0281
 3454SOL    HW221825   3.058   2.856   5.365  1.5191 -0.2931 -0.1978
 3455SOL     OW21826   1.713   2.926   4.805  0.3529 -0.2319  1.1118
 3455SOL    HW121827   1.727   3.014   4.768 -0.8715  0.6307  2.6950
 3455SOL    HW221828   1.633   2.929   4.857 -3.4352  0.8119 -4.8031
 3456SOL     OW21829   1.278   2.887  12.872  0.2681  0.1688 -0.1300
 3456SOL    HW121830   1.330   2.949  12.922  0.8812  1.3151 -2.1743
 3456SOL    HW221831   1.194   2.903  12.914  0.4439 -2.0829  1.0647
 3457SOL     OW21832   3.062   0.841   0.527 -0.4302 -0.4928 -0.0846
 3457SOL    HW121833   2.989   0.780   0.522 -0.6763  0.0070 -2.7696
 3457SOL    HW221834   3.010   0.917   0.551  0.4876 -0.0503  0.5407
 3458SOL     OW21835   3.689   4.533  10.348  0.0504  0.3174 -0.8865
 3458SOL    HW121836   3.673   4.625  10.329  0.2760  0.3196 -1.0568
 3458SOL    HW221837   3.629   4.496  10.283  0.7140  0.1940 -1.4152
 3459SOL     OW21838   2.449   3.566   2.616 -0.4545 -0.2094 -0.2691
 3459SOL    HW121839   2.413   3.477   2.622 -1.1211 -0.0223 -1.5824
 3459SOL    HW221840   2.540   3.539   2.625 -0.1439  0.5406 -1.2162
 3460SOL     OW21841   2.658   3.727  15.965  0.6680  0.0948  0.1698
 3460SOL    HW121842   2.646   3.800  15.905 -2.9066  1.0629  2.0990
 3460SOL    HW221843   2.752   3.712  15.951  1.1358  2.0074  1.3166
 3461SOL     OW21844   0.249   3.961  11.427  0.2428  0.4538 -0.3550
 3461SOL    HW121845   0.301   3.966  11.507  0.8949 -0.1259 -0.7444
 3461SOL    HW221846   0.261   3.868  11.411  0.9108  0.5110 -0.1929
 3462SOL     OW21847   4.091   3.254   7.451  0.4372 -0.0391  0.0786
 3462SOL    HW121848   4.049   3.170   7.472 -2.0850  1.0234 -0.7642
 3462SOL    HW221849   4.179   3.224   7.476  0.4156 -0.6683 -0.5989
 3463SOL     OW21850   3.294   2.072   9.410  0.5746 -0.2784  0.1176
 3463SOL    HW121851   3.370   2.128   9.394  1.5129 -1.2287  1.2219
 3463SOL    HW221852   3.231   2.126   9.363  0.8130  0.4845  0.6751
 3464SOL     OW21853   0.845   4.024  16.010 -0.0179  0.4581 -0.0624
 3464SOL    HW121854   0.934   4.044  16.041 -0.5881 -2.7977  3.7164
 3464SOL    HW221855   0.861   3.935  15.980 -0.2025 -0.2742  1.9960
 3465SOL     OW21856   2.443   0.674  11.937 -1.0874 -0.1302  0.0258
 3465SOL    HW121857   2.444   0.585  11.973  1.0285 -0.1080  0.0106
 3465SOL    HW221858   2.533   0.680  11.906 -1.7245 -2.8012 -2.4078
 3466SOL     OW21859   1.670   0.512   0.505  0.3302 -0.5075  0.2300
 3466SOL    HW121860   1.644   0.602   0.527  0.3357 -0.6307  0.7393
 3466SOL    HW221861   1.730   0.529   0.432 -0.9080  1.9644 -0.2272
 3467SOL     OW21862   2.911   4.395   7.730  0.2585  0.0328  0.5989
 3467SOL    HW121863   2.870   4.388   7.643 -1.5450  0.1912  1.4276
 3467SOL    HW221864   2.849   4.341   7.780  1.4953 -1.9008  0.0507
 3468SOL     OW21865   1.087   1.980   2.198 -0.6165 -0.2186  0.1490
 3468SOL    HW121866   1.182   1.968   2.205 -0.4270  1.4634  0.4858
 3468SOL    HW221867   1.070   2.061   2.246  0.8208 -0.4220  1.0232
 3469SOL     OW21868   2.221   4.139   2.539 -0.2384 -0.2205  1.3801
 3469SOL    HW121869   2.145   4.175   2.585 -0.3403  0.0538  0.9976
 3469SOL    HW221870   2.272   4.126   2.619  0.5949  0.3390  0.9266
 3470SOL     OW21871   0.285   1.970   9.297  0.0890  0.4775  0.6629
 3470SOL    HW121872   0.356   2.033   9.296  1.8524 -1.5639 -1.1564
 3470SOL    HW221873   0.273   1.949   9.204 -0.4862 -0.5033  0.9585
 3471SOL     OW21874   2.561   1.753   1.873  0.1791  0.2827  0.0403
 3471SOL    HW121875   2.513   1.762   1.791  1.2121  1.0343 -0.4833
 3471SOL    HW221876   2.489   1.764   1.936 -2.2217 -0.5393 -2.5793
 3472SOL     OW21877   2.904   0.222   8.271  0.7048  0.3245 -0.0340
 3472SOL    HW121878   2.858   0.305   8.257  0.7563  0.1942 -0.9694
 3472SOL    HW221879   2.986   0.244   8.314  0.4209 -1.8508  1.6323
 3473SOL     OW21880   0.952   4.500   8.395 -0.1942 -0.1512 -0.0632
 3473SOL    HW121881   0.914   4.581   8.430 -0.6166 -0.1575 -0.5078
 3473SOL    HW221882   1.000   4.464   8.469 -0.3412 -0.5210 -0.1511
 3474SOL     OW21883   1.316   3.632   8.636  0.2880  0.2936  0.0451
 3474SOL    HW121884   1.406   3.633   8.668  0.8319  0.6038 -1.5104
 3474SOL    HW221885   1.305   3.721   8.602 -0.9484 -0.3969 -1.3770
 3475SOL     OW21886   0.392   0.610   6.816  0.0914 -0.1905  0.4444
 3475SOL    HW121887   0.393   0.651   6.903  2.4281 -0.7967  0.6968
 3475SOL    HW221888   0.422   0.520   6.827 -1.3387 -0.7625 -0.3061
 3476SOL     OW21889   0.913   3.530   8.154  0.2054 -0.5402  0.2854
 3476SOL    HW121890   0.955   3.588   8.217  2.3149  0.4207 -1.9891
 3476SOL    HW221891   0.982   3.466   8.133  0.9526  0.5755 -0.6660
 3477SOL     OW21892   4.161   4.413   6.187  0.2625  0.1936 -0.3983
 3477SOL    HW121893   4.170   4.385   6.278  1.8076  0.7287 -0.3978
 3477SOL    HW221894   4.248   4.422   6.149  0.2170  0.0477 -0.5371
 3478SOL     OW21895   2.082   0.402   5.525 -0.1352 -0.0267 -0.1526
 3478SOL    HW121896   2.054   0.375   5.438  0.5600 -0.0491 -0.3710
 3478SOL    HW221897   2.177   0.410   5.513 -0.1355 -0.3272 -0.3637
 3479SOL     OW21898   2.838   3.137   7.385 -0.2276  0.5937 -0.5010
 3479SOL    HW121899   2.900   3.069   7.360 -0.5659 -0.3068  1.0794
 3479SOL    HW221900   2.899   3.209   7.403 -0.6051  0.9516 -0.6737
 3480SOL     OW21901   3.742   2.682   7.860  0.2793  0.3880  0.2940
 3480SOL    HW121902   3.695   2.765   7.862  1.1620  0.8154  3.8075
 3480SOL    HW221903   3.705   2.627   7.791 -1.1662 -0.7510  1.9481
 3481SOL     OW21904   0.470   3.511   2.582  0.4681  0.2163  0.3016
 3481SOL    HW121905   0.435   3.545   2.500  2.5641 -1.1313 -1.1403
 3481SOL    HW221906   0.389   3.485   2.626  0.4583 -0.4617 -0.1097
 3482SOL     OW21907   0.214   1.960   4.225 -0.1997 -0.0003  0.0061
 3482SOL    HW121908   0.157   1.973   4.149 -2.0906 -1.3356  1.1956
 3482SOL    HW221909   0.196   2.018   4.299 -2.5269  0.1427 -0.6691
 3483SOL     OW21910   0.584   2.493   2.826  0.3030 -0.6030 -0.0751
 3483SOL    HW121911   0.672   2.460   2.807 -0.3177 -3.2529  1.7038
 3483SOL    HW221912   0.534   2.438   2.766 -0.9886  1.1572 -0.6085
 3484SOL     OW21913   4.527   3.252  11.434  0.1555  0.6123 -0.7876
 3484SOL    HW121914   4.482   3.182  11.386  0.7980 -1.0055  0.9600
 3484SOL    HW221915   4.462   3.322  11.439 -0.9964 -0.6911  2.4876
 3485SOL     OW21916   4.651   0.880   5.362 -0.2652 -0.1712 -0.2950
 3485SOL    HW121917   4.670   0.848   5.274  1.3931 -1.9141  0.7060
 3485SOL    HW221918   4.569   0.831   5.373  0.2684 -0.2226  3.4578
 3486SOL     OW21919   3.998   4.148   0.254  0.0591  0.1241 -0.0150
 3486SOL    HW121920   3.957   4.203   0.321  2.7402 -0.6477  2.2573
 3486SOL    HW221921   3.947   4.165   0.175  1.1163 -1.8247 -1.1235
 3487SOL     OW21922   4.263   1.698   1.551  0.1028 -0.2127 -0.2603
 3487SOL    HW121923   4.219   1.780   1.529 -0.8740 -0.4291  0.9542
 3487SOL    HW221924   4.317   1.680   1.473 -0.4722 -0.6200 -0.5627
 3488SOL     OW21925   3.088   1.384   6.108 -0.5351 -0.2038 -0.1845
 3488SOL    HW121926   3.090   1.425   6.022 -0.1029  1.5044  0.6362
 3488SOL    HW221927   3.054   1.452   6.166 -1.2353  0.7475 -1.7312
 3489SOL     OW21928   2.425   1.151   2.528  0.5520 -0.0832 -0.3825
 3489SOL    HW121929   2.488   1.089   2.491 -0.3109 -1.6090  0.7447
 3489SOL    HW221930   2.361   1.090   2.563  1.1813  0.1741  1.1962
 3490SOL     OW21931   1.281   1.524   4.742  0.2277 -0.3792  0.1069
 3490SOL    HW121932   1.326   1.590   4.795  0.6361 -2.0833  1.8991
 3490SOL    HW221933   1.357   1.486   4.698  1.4465  0.2165  1.7014
 3491SOL     OW21934   1.241   0.863   2.389 -0.5199 -0.2493 -0.6125
 3491SOL    HW121935   1.169   0.863   2.326 -1.3542 -0.4280  0.3417
 3491SOL    HW221936   1.309   0.913   2.344 -0.4163 -0.7730 -1.0379
 3492SOL     OW21937   1.389   2.288   8.206  0.2739 -0.4690 -0.7000
 3492SOL    HW121938   1.356   2.295   8.296  1.8975 -2.0583  0.0303
 3492SOL    HW221939   1.307   2.271   8.159  1.1478 -0.8609 -2.0952
 3493SOL     OW21940   3.080   2.023  12.070  0.1443  0.4099  0.2257
 3493SOL    HW121941   3.020   1.957  12.037  1.0624 -0.3768  0.1454
 3493SOL    HW221942   3.164   1.979  12.063  0.4709  1.4930 -2.4263
 3494SOL     OW21943   1.686   3.239  17.612  0.5499 -0.1130 -0.5816
 3494SOL    HW121944   1.695   3.169  17.676  0.7608  0.7435  0.3105
 3494SOL    HW221945   1.590   3.242  17.604  0.3456 -1.4845  1.5022
 3495SOL     OW21946   2.821   0.719  13.082  0.2467 -0.5527 -0.6171
 3495SOL    HW121947   2.854   0.776  13.151 -0.9176  1.2914 -1.6003
 3495SOL    HW221948   2.727   0.739  13.087  0.5656  0.5896  0.8017
 3496SOL     OW21949   0.008   4.524   2.785  0.1034  0.0167 -0.2492
 3496SOL    HW121950   0.059   4.443   2.780 -0.5895 -0.2209 -3.6264
 3496SOL    HW221951   4.663   4.511   2.722 -0.2397  0.5438  0.0256
 3497SOL     OW21952   0.771   3.266  11.415  0.4744 -0.0138  0.1611
 3497SOL    HW121953   0.858   3.290  11.447  0.1284  1.4643 -0.0051
 3497SOL    HW221954   0.755   3.198  11.481  1.0769 -1.8013 -1.5270
 3498SOL     OW21955   0.355   3.261   2.996  0.2994  0.4968 -0.3142
 3498SOL    HW121956   0.378   3.329   3.058 -2.8970  1.4499 -0.1751
 3498SOL    HW221957   0.419   3.193   3.018 -0.9243 -0.9701 -1.2038
 3499SOL     OW21958   2.326   3.513   4.790 -0.3752 -0.6233 -0.2942
 3499SOL    HW121959   2.396   3.577   4.778 -1.1230  0.1824 -0.3444
 3499SOL    HW221960   2.291   3.545   4.873 -1.5161 -1.5285 -0.4174
 3500SOL     OW21961   2.219   1.953  10.208 -0.7397  0.9718  0.0706
 3500SOL    HW121962   2.165   1.886  10.165 -0.5153  1.9011 -1.6340
 3500SOL    HW221963   2.188   1.943  10.298  1.9215 -3.9705  0.4985
 3501SOL     OW21964   1.683   2.072   8.526 -0.0925 -0.3071  0.0949
 3501SOL    HW121965   1.771   2.095   8.499  0.2610 -1.3488  0.3801
 3501SOL    HW221966   1.637   2.149   8.494  0.6451  0.4692  0.9094
 3502SOL     OW21967   2.330   1.692   8.697 -0.0948  0.3233 -0.1781
 3502SOL    HW121968   2.344   1.606   8.736 -2.5603  0.9099  1.9949
 3502SOL    HW221969   2.234   1.696   8.697 -0.1820 -1.9818  0.7568
 3503SOL     OW21970   0.464   2.557  16.375  0.1477  0.1824  0.6411
 3503SOL    HW121971   0.506   2.569  16.460  1.9930  2.7341 -0.6439
 3503SOL    HW221972   0.374   2.563  16.407  0.4941 -2.8169  2.1426
 3504SOL     OW21973   3.579   4.563  12.506 -0.0338 -1.2279 -0.0502
 3504SOL    HW121974   3.598   4.482  12.554 -0.0279 -0.4709  1.2418
 3504SOL    HW221975   3.642   4.564  12.434 -1.5076 -0.4614 -1.3138
 3505SOL     OW21976   1.318   0.468   1.648 -0.0360  0.5911  0.4231
 3505SOL    HW121977   1.384   0.426   1.593 -0.0002  0.9077  0.2313
 3505SOL    HW221978   1.333   0.429   1.734  2.4625  2.0044  0.6227
 3506SOL     OW21979   3.536   0.625   5.386  0.2621  0.1192 -0.6330
 3506SOL    HW121980   3.593   0.671   5.448  0.7271  1.2501 -1.9026
 3506SOL    HW221981   3.587   0.579   5.319  0.1786 -0.5093 -0.2605
 3507SOL     OW21982   3.355   3.905   3.289  0.2413  0.5759  0.3726
 3507SOL    HW121983   3.261   3.888   3.288  0.2340  0.6477  0.0889
 3507SOL    HW221984   3.354   3.998   3.267 -0.8513  0.2158 -1.0582
 3508SOL     OW21985   2.137   1.398  10.640 -0.2167  0.4153  0.1834
 3508SOL    HW121986   2.153   1.351  10.558 -2.5180  1.8900 -1.1241
 3508SOL    HW221987   2.044   1.382  10.657 -0.3820  0.8828 -0.2605
 3509SOL     OW21988   0.685   0.565   3.273 -0.6051 -0.0006  0.5848
 3509SOL    HW121989   0.615   0.526   3.221  0.5468 -0.5807 -0.5268
 3509SOL    HW221990   0.642   0.617   3.341  0.8808  0.9541  0.8086
 3510SOL     OW21991   4.425   1.736   8.259 -0.0034  0.1651 -0.0291
 3510SOL    HW121992   4.420   1.668   8.192 -2.1196  0.4481 -0.1677
 3510SOL    HW221993   4.491   1.699   8.317  0.9580  0.2507 -1.0856
 3511SOL     OW21994   4.155   4.360   9.622 -0.0179 -0.4648 -0.5397
 3511SOL    HW121995   4.208   4.408   9.685  2.3084 -2.1036 -1.2589
 3511SOL    HW221996   4.065   4.385   9.644  0.2610  0.0330  0.0221
 3512SOL     OW21997   0.231   3.121  14.470 -0.2175 -0.4675  0.5417
 3512SOL    HW121998   0.178   3.157  14.541 -2.0934 -1.1813 -0.4727
 3512SOL    HW221999   0.188   3.167  14.397  3.5499  0.5252 -1.0541
 3513SOL     OW22000   4.617   2.025   5.576  0.2428  0.5807 -0.1797
 3513SOL    HW122001   4.678   2.062   5.640  1.1830  0.5062 -1.0323
 3513SOL    HW222002   4.641   1.933   5.570  1.5124  0.8734  0.3229
 3514SOL     OW22003   4.107   3.600   7.548  0.2440 -0.0263  0.1716
 3514SOL    HW122004   4.067   3.686   7.564  3.6804  1.5433  0.4220
 3514SOL    HW222005   4.067   3.571   7.466  0.5094 -3.2643  1.2041
 3515SOL     OW22006   3.444   4.449   5.650 -0.1262  0.2747 -0.7665
 3515SOL    HW122007   3.377   4.447   5.718 -1.5944  0.3534 -2.1979
 3515SOL    HW222008   3.507   4.511   5.686 -0.7768  0.5843 -0.1641
 3516SOL     OW22009   1.991   3.837   3.475 -0.0894  0.3986 -0.4372
 3516SOL    HW122010   1.911   3.785   3.486 -0.2786  1.0791  1.4952
 3516SOL    HW222011   2.016   3.828   3.567  1.3566 -0.1804 -0.8954
 3517SOL     OW22012   4.717   1.466   2.218  0.1715 -0.2983 -0.1783
 3517SOL    HW122013   0.060   1.506   2.272 -0.1939  1.1464 -0.7759
 3517SOL    HW222014   4.642   1.521   2.243  0.0356 -1.3645  1.7043
 3518SOL     OW22015   0.025   3.350   7.951  0.2367  0.1382  0.0977
 3518SOL    HW122016   0.117   3.325   7.955  0.1119 -0.0427  2.0378
 3518SOL    HW222017   0.027   3.440   7.918  1.0431  0.2912  0.5742
 3519SOL     OW22018   4.267   1.950  10.389 -0.1377  0.1170 -0.3989
 3519SOL    HW122019   4.316   2.031  10.374  0.2558  0.1851  1.2769
 3519SOL    HW222020   4.181   1.962  10.349 -0.2564  1.1888  0.1779
 3520SOL     OW22021   3.717   2.434  12.261  0.3882 -0.0559  0.2602
 3520SOL    HW122022   3.812   2.445  12.266  0.6755 -2.0022 -1.0753
 3520SOL    HW222023   3.683   2.522  12.242 -0.9073 -0.5677  0.1833
 3521SOL     OW22024   2.607   3.659  15.205  0.1462 -0.0006 -0.2110
 3521SOL    HW122025   2.592   3.574  15.246  1.6333 -0.7003 -1.1212
 3521SOL    HW222026   2.529   3.658  15.149 -0.0426  2.0932  0.0031
 3522SOL     OW22027   3.300   3.815  12.308  0.3152  0.0583  0.1256
 3522SOL    HW122028   3.334   3.894  12.266 -0.7283  0.0858 -0.6684
 3522SOL    HW222029   3.364   3.747  12.286  0.4962 -0.0057  0.8460
 3523SOL     OW22030   1.693   2.398  10.699  0.6395  0.2408  0.1309
 3523SOL    HW122031   1.655   2.481  10.672 -1.4243 -0.9664 -0.6549
 3523SOL    HW222032   1.737   2.421  10.781  0.0971 -2.3950  1.1400
 3524SOL     OW22033   1.724   3.190   4.470  0.8352  0.8882  0.0919
 3524SOL    HW122034   1.637   3.229   4.478 -0.2785 -1.0019 -2.9797
 3524SOL    HW222035   1.768   3.252   4.412  0.5698  2.1837  1.2371
 3525SOL     OW22036   1.668   4.661  13.518 -0.3209 -0.3254  0.2844
 3525SOL    HW122037   1.754   4.688  13.549 -0.7688  0.7019  0.6293
 3525SOL    HW222038   1.667   4.571  13.553  1.6638 -0.1410  0.8073
 3526SOL     OW22039   0.553   4.316  12.527  0.0626 -0.3802 -0.4956
 3526SOL    HW122040   0.524   4.350  12.612  0.9515  1.1427 -0.8063
 3526SOL    HW222041   0.499   4.364  12.465 -0.9550 -0.2336  0.4971
 3527SOL     OW22042   3.210   0.867   0.741  0.5171  0.4548  0.1056
 3527SOL    HW122043   3.160   0.831   0.668 -2.2861  1.1906  1.6443
 3527SOL    HW222044   3.185   0.811   0.814  2.4425 -0.9505 -0.3434
 3528SOL     OW22045   2.651   3.905  11.043  0.9130 -1.0607  0.1125
 3528SOL    HW122046   2.616   3.829  10.996 -2.6369  0.5023  0.1813
 3528SOL    HW222047   2.670   3.865  11.128  0.3133 -3.7169 -0.9966
 3529SOL     OW22048   0.229   1.465   1.144 -0.0893 -0.8591  0.2785
 3529SOL    HW122049   0.301   1.433   1.198  0.0878 -0.6014  0.1966
 3529SOL    HW222050   0.253   1.433   1.057  2.6077 -1.2572  1.1791
 3530SOL     OW22051   3.665   3.328  13.211 -0.4000 -0.2558  0.1816
 3530SOL    HW122052   3.629   3.248  13.173  3.2877 -1.4515 -0.8218
 3530SOL    HW222053   3.653   3.386  13.136  1.4063  1.2140  1.0519
 3531SOL     OW22054   0.373   4.100  11.733  0.1532 -0.5503  0.1394
 3531SOL    HW122055   0.452   4.154  11.724  0.1011 -0.3659  0.7894
 3531SOL    HW222056   0.313   4.169  11.762 -1.5362 -1.7377 -0.5865
 3532SOL     OW22057   2.463   1.975  10.058 -0.0352  0.4719  0.1670
 3532SOL    HW122058   2.494   1.926   9.981 -2.0321  2.4895 -1.8838
 3532SOL    HW222059   2.373   1.948  10.075 -0.5934  2.9645  1.1683
 3533SOL     OW22060   3.293   2.828   7.522  0.6201 -0.3308 -0.3850
 3533SOL    HW122061   3.203   2.798   7.535  0.1796  2.0258  1.9936
 3533SOL    HW222062   3.258   2.908   7.483 -0.3690 -0.7466 -0.3602
 3534SOL     OW22063   0.368   0.166  16.577 -0.1219 -0.1227 -0.1012
 3534SOL    HW122064   0.379   0.071  16.575 -0.7117 -0.1739 -0.8263
 3534SOL    HW222065   0.325   0.185  16.660  0.4032 -0.2079  0.1923
 3535SOL     OW22066   2.745   2.236   4.892 -0.1256  0.4570 -0.5585
 3535SOL    HW122067   2.688   2.168   4.856  0.9896 -0.4330 -0.6612
 3535SOL    HW222068   2.722   2.312   4.839  0.7346  0.6632 -0.6371
 3536SOL     OW22069   0.268   3.279   3.708  0.8633  0.3342  0.5369
 3536SOL    HW122070   0.173   3.272   3.722  0.6959  2.5300  0.4304
 3536SOL    HW222071   0.273   3.236   3.623 -1.2635 -1.7080  1.4450
 3537SOL     OW22072   3.382   3.103   4.295 -0.1573 -0.5205 -0.0670
 3537SOL    HW122073   3.359   3.160   4.369  1.0223  0.0662 -0.1494
 3537SOL    HW222074   3.467   3.078   4.334  0.4393 -0.5910 -1.4338
 3538SOL     OW22075   0.996   0.432  13.783  0.2729  0.6567  0.3165
 3538SOL    HW122076   0.956   0.519  13.790  0.3257  1.0030 -3.6997
 3538SOL    HW222077   1.084   0.456  13.753  1.0616 -3.0814 -0.2727
 3539SOL     OW22078   4.719   2.365   3.416  0.5451 -0.4043 -0.1118
 3539SOL    HW122079   4.675   2.381   3.332  0.3220 -1.8945 -0.2876
 3539SOL    HW222080   0.077   2.401   3.387  0.1547 -0.0077 -0.7482
 3540SOL     OW22081   0.311   2.574   2.087  0.3728  0.0228  0.0665
 3540SOL    HW122082   0.297   2.619   2.004  0.6260 -2.6679 -1.4251
 3540SOL    HW222083   0.362   2.639   2.135 -0.1293  0.0567  0.5575
 3541SOL     OW22084   1.166   3.633  16.769 -0.2849 -0.3610 -0.3315
 3541SOL    HW122085   1.113   3.561  16.735  0.6299 -1.0173 -0.3712
 3541SOL    HW222086   1.235   3.637  16.703 -1.3835  0.2184 -1.4460
 3542SOL     OW22087   1.705   2.896   3.854  0.2172  0.3728 -1.2742
 3542SOL    HW122088   1.668   2.964   3.796 -2.6670 -0.1202 -0.0367
 3542SOL    HW222089   1.623   2.856   3.884 -0.4525  0.2966 -3.2254
 3543SOL     OW22090   0.156   4.095   6.974  0.2316 -0.6769 -0.1101
 3543SOL    HW122091   0.095   4.027   7.005 -0.5679 -0.0482 -0.2917
 3543SOL    HW222092   0.149   4.103   6.879 -1.7283 -0.0965  0.0746
 3544SOL     OW22093   2.178   2.877   6.425  0.4830 -0.4800  0.1902
 3544SOL    HW122094   2.103   2.893   6.482 -0.6260 -2.6324 -0.6858
 3544SOL    HW222095   2.241   2.845   6.489  0.2323  1.5427  1.4456
 3545SOL     OW22096   4.163   2.607  12.922  0.1283 -0.2565  0.3041
 3545SOL    HW122097   4.166   2.524  12.969  1.3138 -0.5417 -0.2619
 3545SOL    HW222098   4.252   2.633  12.946 -0.1564  1.6444 -0.6749
 3546SOL     OW22099   2.118   3.525   8.403 -0.0093  0.3559  0.0772
 3546SOL    HW122100   2.195   3.576   8.381 -0.7770  1.0676 -0.9472
 3546SOL    HW222101   2.043   3.582   8.389 -0.3844 -0.2886 -0.5658
 3547SOL     OW22102   2.231   4.402  10.892 -0.0838 -0.4315 -0.1562
 3547SOL    HW122103   2.231   4.496  10.873  2.1894 -0.3748  0.0841
 3547SOL    HW222104   2.323   4.379  10.905 -0.0155 -0.6792 -1.1143
 3548SOL     OW22105   2.894   0.951   6.788  0.5599  0.4504 -0.1937
 3548SOL    HW122106   2.848   1.033   6.807  0.3015  0.2746 -0.0565
 3548SOL    HW222107   2.845   0.890   6.843  0.0187  0.9598 -0.1132
 3549SOL     OW22108   2.818   3.526   7.578 -0.2963  0.4207 -0.1789
 3549SOL    HW122109   2.909   3.512   7.553 -0.5307 -0.9133 -0.2573
 3549SOL    HW222110   2.792   3.438   7.604 -2.4884  2.0185  3.0550
 3550SOL     OW22111   1.165   4.619   7.143  0.3288 -0.4236  0.0539
 3550SOL    HW122112   1.114   4.583   7.217 -1.1160 -0.0177 -0.7410
 3550SOL    HW222113   1.244   4.568   7.159  1.3732  1.1363 -0.1437
 3551SOL     OW22114   4.428   1.690   3.403  0.0491 -0.6337 -0.2080
 3551SOL    HW122115   4.404   1.597   3.404  1.7792 -1.0742  0.5451
 3551SOL    HW222116   4.382   1.720   3.325 -1.7443 -3.4586 -0.2641
 3552SOL     OW22117   3.434   0.810   9.307  0.0546 -0.0516 -0.4335
 3552SOL    HW122118   3.477   0.863   9.240 -3.3050  1.2983 -1.4939
 3552SOL    HW222119   3.341   0.820   9.287 -0.5236  0.4438  2.5154
 3553SOL     OW22120   2.602   1.362   1.258  0.0192 -0.1839  0.0973
 3553SOL    HW122121   2.690   1.366   1.219 -0.4193 -1.1496 -0.9690
 3553SOL    HW222122   2.620   1.399   1.345  1.7006  1.0857 -0.7840
 3554SOL     OW22123   1.804   0.166   5.899  0.0550  0.0507  0.2869
 3554SOL    HW122124   1.789   0.259   5.915  1.3072  0.8095 -2.8259
 3554SOL    HW222125   1.861   0.178   5.822 -0.4389 -1.4160 -0.2987
 3555SOL     OW22126   0.313   3.752   6.977 -0.2088 -0.3865  0.1926
 3555SOL    HW122127   0.278   3.801   6.903  0.2232  0.4963  0.5683
 3555SOL    HW222128   0.342   3.820   7.039  1.3600  1.1681 -2.2350
 3556SOL     OW22129   3.664   1.006   6.387 -0.1123 -0.1615 -0.2371
 3556SOL    HW122130   3.711   1.056   6.454  0.1282 -0.2271 -0.3547
 3556SOL    HW222131   3.735   0.952   6.351  1.1948  0.2306  1.7319
 3557SOL     OW22132   2.523   0.338  12.602  0.5019 -0.4081 -0.4938
 3557SOL    HW122133   2.604   0.292  12.581 -0.2161 -2.5578  1.4180
 3557SOL    HW222134   2.487   0.286  12.675  1.3638 -0.3979 -0.0635
 3558SOL     OW22135   0.204   0.858   5.962 -0.2049 -0.4516 -0.5745
 3558SOL    HW122136   0.128   0.904   5.996 -0.3075 -1.1254  0.1031
 3558SOL    HW222137   0.228   0.926   5.900  0.2793 -1.2358 -1.2574
 3559SOL     OW22138   4.312   4.477  11.666 -0.2084  0.3110  0.2766
 3559SOL    HW122139   4.304   4.387  11.700  1.2468  0.0081 -0.1963
 3559SOL    HW222140   4.248   4.522  11.721  0.1329 -1.3467  2.0448
 3560SOL     OW22141   2.029   3.637  12.358 -0.6367  0.6318  0.3556
 3560SOL    HW122142   2.047   3.683  12.276  0.3202  0.9955  0.7689
 3560SOL    HW222143   2.053   3.547  12.333 -1.3512  0.9345 -1.4205
 3561SOL     OW22144   0.442   3.535  14.399 -0.2289 -0.1289 -0.3725
 3561SOL    HW122145   0.527   3.580  14.403 -0.7370  1.0399 -2.8664
 3561SOL    HW222146   0.389   3.606  14.434  0.7379  1.0115 -1.2357
 3562SOL     OW22147   1.770   2.050   2.360  0.5724  0.1880  0.4211
 3562SOL    HW122148   1.697   2.061   2.420  2.6230 -2.2043  3.4127
 3562SOL    HW222149   1.754   2.118   2.295  3.2372  1.2008  0.8149
 3563SOL     OW22150   3.575   1.305  11.058 -0.7666 -0.4812  0.0249
 3563SOL    HW122151   3.621   1.310  10.974 -1.3640  0.3907 -0.2521
 3563SOL    HW222152   3.491   1.266  11.034 -0.7828 -1.5028  1.7555
 3564SOL     OW22153   1.247   1.062   1.944 -0.3549 -0.1735  0.1546
 3564SOL    HW122154   1.294   1.011   2.011  1.2850  0.9776 -0.1285
 3564SOL    HW222155   1.183   1.106   2.000 -0.7327 -1.2141  0.5453
 3565SOL     OW22156   3.757   2.093  10.308  0.4594  0.0393 -0.6226
 3565SOL    HW122157   3.718   2.145  10.379 -3.1118 -0.0510 -2.5401
 3565SOL    HW222158   3.693   2.099  10.238  0.4910  2.2471 -0.4592
 3566SOL     OW22159   2.451   2.919   2.773  0.1190  0.0708 -0.0775
 3566SOL    HW122160   2.405   2.838   2.795  1.9904 -0.9730  0.0301
 3566SOL    HW222161   2.426   2.930   2.681 -3.3370 -0.9125  0.7453
 3567SOL     OW22162   4.325   1.253   7.344 -0.1040  0.6679  0.1338
 3567SOL    HW122163   4.294   1.343   7.355  1.2640  1.1573  0.0439
 3567SOL    HW222164   4.248   1.209   7.307 -1.3739  1.1711  2.1851
 3568SOL     OW22165   0.229   0.192   9.280  0.2459 -0.0832  0.2887
 3568SOL    HW122166   0.255   0.273   9.322  2.1062 -0.9995  0.8906
 3568SOL    HW222167   0.171   0.146   9.341 -1.8073 -0.3398 -1.8196
 3569SOL     OW22168   0.341   1.357   2.034 -0.7116 -0.4870  0.1044
 3569SOL    HW122169   0.325   1.441   1.991 -0.5985  0.1003  1.2285
 3569SOL    HW222170   0.253   1.334   2.064 -0.7045  1.1286  1.3698
 3570SOL     OW22171   4.622   3.852   4.265  0.0790  0.7634 -0.2973
 3570SOL    HW122172   4.537   3.853   4.222 -0.2531  0.1385  0.3586
 3570SOL    HW222173   4.669   3.818   4.189 -1.2052 -2.0952  0.1820
 3571SOL     OW22174   3.692   0.511   4.879  0.5996 -0.0470 -0.0199
 3571SOL    HW122175   3.671   0.497   4.786 -2.6858  1.0987  0.5525
 3571SOL    HW222176   3.777   0.553   4.873  0.0191  0.8071 -2.2795
 3572SOL     OW22177   1.299   1.684   1.237  0.4414 -0.5488  0.3271
 3572SOL    HW122178   1.244   1.606   1.230  0.8065 -0.7955  0.2316
 3572SOL    HW222179   1.232   1.741   1.276  1.0476  0.1385  0.3666
 3573SOL     OW22180   4.423   1.736   0.991  0.1503  0.1894 -0.4985
 3573SOL    HW122181   4.501   1.730   1.045 -0.3400  2.5926  0.4853
 3573SOL    HW222182   4.357   1.691   1.043  0.5442  0.4516  0.2201
 3574SOL     OW22183   0.875   0.108  11.017 -0.1606  0.6127  0.5027
 3574SOL    HW122184   0.867   0.176  10.950  0.5739  0.6004  0.4031
 3574SOL    HW222185   0.867   0.164  11.094  0.1326 -2.5488  2.8232
 3575SOL     OW22186   1.595   4.360  10.644 -0.0057  0.3733  0.0524
 3575SOL    HW122187   1.635   4.285  10.599  0.2981  0.5171  0.0789
 3575SOL    HW222188   1.503   4.335  10.647 -0.6588  2.8869  1.0423
 3576SOL     OW22189   3.003   0.576   6.194  0.0156 -0.3991 -0.2271
 3576SOL    HW122190   3.078   0.575   6.134  0.0165 -0.9768 -0.2156
 3576SOL    HW222191   3.008   0.490   6.235 -0.7250  0.3452  1.3959
 3577SOL     OW22192   4.602   3.231   4.619 -0.2449  0.1569  0.4005
 3577SOL    HW122193   4.626   3.299   4.556  0.4371  0.5356  1.0684
 3577SOL    HW222194   4.626   3.261   4.707 -1.3457  1.8785  0.0915
 3578SOL     OW22195   0.690   1.418  17.127  0.0713  0.0200  1.0593
 3578SOL    HW122196   0.765   1.387  17.177  1.0483  0.1071 -0.3543
 3578SOL    HW222197   0.724   1.413  17.038 -2.2849 -2.3287  0.3040
 3579SOL     OW22198   2.727   3.259  15.019 -0.0245  0.1276  0.1012
 3579SOL    HW122199   2.801   3.292  15.070 -2.0891  0.9797  2.5458
 3579SOL    HW222200   2.752   3.166  15.016  0.7897  0.3200  0.9118
 3580SOL     OW22201   1.442   0.131  10.087 -0.1363 -0.0996 -0.5356
 3580SOL    HW122202   1.507   0.146  10.155  0.5592 -1.0218 -0.9898
 3580SOL    HW222203   1.467   0.199  10.024  0.9148 -0.9174 -1.0098
 3581SOL     OW22204   1.723   2.678   2.643 -0.4718 -0.4735 -0.0966
 3581SOL    HW122205   1.811   2.698   2.612 -0.4709  0.5007  0.5456
 3581SOL    HW222206   1.738   2.598   2.694 -2.0384 -1.2124 -0.7692
 3582SOL     OW22207   3.832   3.519   6.543  0.3395  0.2703  0.0134
 3582SOL    HW122208   3.758   3.525   6.483 -0.6687 -2.1540  0.9852
 3582SOL    HW222209   3.816   3.588   6.607 -2.1619 -0.0305 -0.3153
 3583SOL     OW22210   1.494   3.156   5.505  0.0112  1.1892 -0.6488
 3583SOL    HW122211   1.551   3.216   5.456 -0.9938  1.8011 -1.0782
 3583SOL    HW222212   1.474   3.089   5.439 -0.9308  2.8351 -2.0492
 3584SOL     OW22213   4.592   0.391  16.590 -0.5863  0.1992 -0.0337
 3584SOL    HW122214   4.667   0.380  16.649 -1.3259  1.8826  1.2306
 3584SOL    HW222215   4.520   0.368  16.648 -1.3267  1.7138 -0.3516
 3585SOL     OW22216   1.910   2.813   9.364  0.4146 -0.6994  0.0900
 3585SOL    HW122217   1.817   2.805   9.344  0.2154  0.3407  0.5754
 3585SOL    HW222218   1.946   2.798   9.276 -0.4592  0.6578 -0.4941
 3586SOL     OW22219   4.165   2.437  16.345  0.6221  0.1165  0.3768
 3586SOL    HW122220   4.257   2.419  16.328  0.4349  0.2206 -0.7217
 3586SOL    HW222221   4.177   2.465  16.436 -0.9828 -0.3015  0.7155
 3587SOL     OW22222   3.102   1.360  14.139  0.3906  0.1492  0.0456
 3587SOL    HW122223   3.039   1.321  14.199  1.0178 -0.5852  0.2208
 3587SOL    HW222224   3.181   1.307  14.151 -0.2772 -1.0477 -0.8978
 3588SOL     OW22225   4.270   0.864  17.079  0.2025  0.1041 -0.6910
 3588SOL    HW122226   4.323   0.895  17.153 -0.7119 -2.0062  0.8375
 3588SOL    HW222227   4.286   0.940  17.023 -3.2906  0.8893 -0.5979
 3589SOL     OW22228   1.557   1.094   5.990  0.1646  0.1304  0.0459
 3589SOL    HW122229   1.513   1.029   6.045 -1.5565  1.6427  0.4446
 3589SOL    HW222230   1.591   1.153   6.058  0.7320 -1.0181  0.7667
 3590SOL     OW22231   0.001   1.683  12.770  0.4840  0.1780 -0.4734
 3590SOL    HW122232   4.661   1.752  12.754 -3.4938 -3.5549 -0.3770
 3590SOL    HW222233   0.017   1.702  12.862 -0.8373 -2.3282  0.2643
 3591SOL     OW22234   2.260   0.065   0.384 -0.2852  0.5999  0.0748
 3591SOL    HW122235   2.340   0.016   0.400 -0.9410 -0.6933 -0.6632
 3591SOL    HW222236   2.221   0.010   0.317  1.5151 -0.3451 -0.1747
 3592SOL     OW22237   1.712   1.617   7.071  0.3068  0.1390  0.4612
 3592SOL    HW122238   1.722   1.521   7.069 -3.1896 -0.2126 -0.1190
 3592SOL    HW222239   1.804   1.635   7.089  0.1626  1.4018 -0.0778
 3593SOL     OW22240   0.707   2.577   5.198  0.4208  0.3780  0.3655
 3593SOL    HW122241   0.650   2.532   5.261 -1.3037  1.0438 -0.7118
 3593SOL    HW222242   0.775   2.511   5.184 -2.3167 -2.4348  0.1327
 3594SOL     OW22243   2.020   3.600   5.271  0.0573 -0.3778  0.2773
 3594SOL    HW122244   1.944   3.549   5.244  0.9275 -0.8250 -1.3408
 3594SOL    HW222245   1.989   3.627   5.357  1.3790 -1.7430  1.1748
 3595SOL     OW22246   2.413   1.752  15.782  0.0265  0.0241  0.6714
 3595SOL    HW122247   2.389   1.770  15.691 -0.0039  1.5330  0.9787
 3595SOL    HW222248   2.374   1.666  15.797  0.4213  0.0356  1.7637
 3596SOL     OW22249   4.478   2.093  11.600 -0.3607  0.5928  0.6884
 3596SOL    HW122250   4.458   2.083  11.507 -0.1407 -1.9521  0.9152
 3596SOL    HW222251   4.399   2.138  11.631 -1.4476 -1.6629  1.1615
 3597SOL     OW22252   4.263   1.102   4.925 -0.2686 -0.1808  0.6038
 3597SOL    HW122253   4.190   1.160   4.946 -0.7199 -0.7131  0.5180
 3597SOL    HW222254   4.330   1.126   4.990  0.0448  0.9135 -0.1351
 3598SOL     OW22255   3.712   1.575   9.816 -0.3795  0.4773  0.0238
 3598SOL    HW122256   3.760   1.658   9.809  2.8632 -1.6416 -2.8391
 3598SOL    HW222257   3.702   1.539   9.728  1.6877 -0.1861  0.0654
 3599SOL     OW22258   1.964   0.082   0.407  0.1393  0.0941  0.7989
 3599SOL    HW122259   1.986   0.171   0.381  0.0395 -0.2745 -0.5674
 3599SOL    HW222260   2.020   0.073   0.484 -0.9861 -0.2054  1.5737
 3600SOL     OW22261   0.093   0.098   7.557 -0.1957  0.0225  0.3830
 3600SOL    HW122262   0.019   0.049   7.521 -1.7072  0.3013  3.0923
 3600SOL    HW222263   0.079   0.082   7.650  1.5236  1.0644  0.8222
 3601SOL     OW22264   1.412   1.603   7.163  0.2596 -0.0225  0.3494
 3601SOL    HW122265   1.422   1.546   7.087 -0.3460  0.1712  0.1250
 3601SOL    HW222266   1.459   1.678   7.127 -1.9179  0.4661 -1.4800
 3602SOL     OW22267   0.302   1.049   8.300  0.1007  0.3278  0.2473
 3602SOL    HW122268   0.342   1.075   8.216  0.9917  0.9665  0.8691
 3602SOL    HW222269   0.363   1.091   8.361  0.0572  1.9029 -0.7943
 3603SOL     OW22270   0.706   1.931   1.154  0.5341  0.1396 -0.5087
 3603SOL    HW122271   0.745   1.852   1.119  0.1378  0.3702 -1.4597
 3603SOL    HW222272   0.746   1.993   1.093  0.2523  0.7566 -0.0714
 3604SOL     OW22273   2.065   3.475   7.416  0.2831  0.4862  0.5214
 3604SOL    HW122274   2.067   3.398   7.360 -2.3951 -0.0936  1.2561
 3604SOL    HW222275   1.996   3.526   7.373  1.6513  0.1747 -2.0386
 3605SOL     OW22276   1.171   1.474  14.216  0.6369  0.0229 -0.3531
 3605SOL    HW122277   1.093   1.499  14.265  0.6628 -2.0205  0.7264
 3605SOL    HW222278   1.240   1.476  14.282  1.1805 -1.5085 -0.8809
 3606SOL     OW22279   1.695   1.503   4.847 -0.1666 -0.2472 -0.0681
 3606SOL    HW122280   1.780   1.460   4.845 -0.3290 -0.5416 -0.5627
 3606SOL    HW222281   1.710   1.578   4.905 -0.6330  0.2562 -0.6042
 3607SOL     OW22282   1.337   2.723  11.865  0.2344 -0.3104 -0.0443
 3607SOL    HW122283   1.325   2.815  11.840  1.8455 -0.7158 -2.3168
 3607SOL    HW222284   1.379   2.686  11.787 -0.7177 -1.7201  0.1104
 3608SOL     OW22285   1.886   3.698   7.567 -0.2753 -0.2458 -0.1609
 3608SOL    HW122286   1.895   3.604   7.582  0.9042 -0.1274 -0.1040
 3608SOL    HW222287   1.792   3.713   7.580  0.0549 -0.1457  2.1145
 3609SOL     OW22288   1.513   0.614   5.080 -0.5505 -0.6972  0.1611
 3609SOL    HW122289   1.420   0.603   5.066 -0.6692  2.2814 -1.4229
 3609SOL    HW222290   1.515   0.704   5.047 -1.0932 -0.2333  1.3710
 3610SOL     OW22291   3.681   1.113  10.320  0.0322 -0.7912  0.1481
 3610SOL    HW122292   3.756   1.058  10.342  0.0722 -0.0438  1.8579
 3610SOL    HW222293   3.613   1.059  10.360  0.4245 -0.4958  1.2114
 3611SOL     OW22294   4.305   0.245   8.483  0.0173 -0.0629 -0.4732
 3611SOL    HW122295   4.237   0.287   8.536  0.0314 -1.1025  0.3455
 3611SOL    HW222296   4.255   0.195   8.419  0.8946 -1.3897 -0.1114
 3612SOL     OW22297   4.138   4.563   5.799 -0.1970 -0.2252 -0.1723
 3612SOL    HW122298   4.148   4.656   5.779 -3.5579  0.2248  0.1971
 3612SOL    HW222299   4.207   4.518   5.750 -0.2047 -1.3584  0.8793
 3613SOL     OW22300   3.631   3.766   2.978  0.0126  0.0728 -0.0393
 3613SOL    HW122301   3.699   3.699   2.972 -1.8000 -1.7371 -0.4522
 3613SOL    HW222302   3.565   3.734   2.917 -0.9956  1.2707  0.4127
 3614SOL     OW22303   1.234   1.370   8.101  0.2996 -0.1994  0.0535
 3614SOL    HW122304   1.204   1.344   8.014  0.2235  0.3328 -0.0805
 3614SOL    HW222305   1.157   1.404   8.148  0.2407 -1.2631  0.7124
 3615SOL     OW22306   0.928   3.844   0.432  0.4220 -0.5424  0.4744
 3615SOL    HW122307   0.935   3.892   0.515  1.5855 -0.6534  0.4393
 3615SOL    HW222308   0.961   3.756   0.450  0.9924 -0.1756  1.2226
 3616SOL     OW22309   3.978   3.782   3.236 -0.5486 -0.4432  0.4482
 3616SOL    HW122310   4.030   3.826   3.168  0.0259 -1.0118  0.5156
 3616SOL    HW222311   3.908   3.735   3.190 -1.5990  0.7882  0.7907
 3617SOL     OW22312   1.234   3.993  13.305  0.0396 -0.1413  0.3382
 3617SOL    HW122313   1.250   3.972  13.397  1.5865  1.6288  0.4738
 3617SOL    HW222314   1.139   4.004  13.309  0.3268  2.8912 -0.9717
 3618SOL     OW22315   4.147   3.604   9.177  0.4499 -0.0074  1.1695
 3618SOL    HW122316   4.156   3.531   9.237 -0.9849 -0.5408  0.7222
 3618SOL    HW222317   4.215   3.660   9.215  0.8914  1.0414 -1.1494
 3619SOL     OW22318   2.930   3.044   0.574  0.0550  0.6059 -0.0923
 3619SOL    HW122319   2.899   3.125   0.613 -0.9219  0.0123  0.3738
 3619SOL    HW222320   2.977   3.078   0.498 -0.3448 -0.5742 -0.8625
 3620SOL     OW22321   2.103   4.621   6.799  0.2561  0.2160  0.2762
 3620SOL    HW122322   2.146   4.629   6.713  0.2993  1.7099  0.4399
 3620SOL    HW222323   2.167   4.665   6.856  0.0231 -0.2008  0.8592
 3621SOL     OW22324   0.547   2.063   7.075  0.4820  0.0493 -0.4585
 3621SOL    HW122325   0.502   2.042   6.993  1.1405  0.4233 -0.9198
 3621SOL    HW222326   0.524   1.983   7.122 -1.0052 -0.8271 -2.6441
 3622SOL     OW22327   2.398   2.124  14.739 -0.1650  0.4932 -0.0177
 3622SOL    HW122328   2.381   2.206  14.694 -1.8767  1.2679  2.0108
 3622SOL    HW222329   2.483   2.143  14.777 -1.0265  1.6430  1.3344
 3623SOL     OW22330   3.859   2.764   4.996 -0.0726  0.1950  0.5012
 3623SOL    HW122331   3.926   2.777   5.063  1.2943  0.8225 -0.9626
 3623SOL    HW222332   3.812   2.688   5.029  0.9675 -0.6588  0.0389
 3624SOL     OW22333   0.676   1.226   9.221  0.0884  0.0259  0.7340
 3624SOL    HW122334   0.742   1.296   9.217  1.1670 -1.1249 -1.7142
 3624SOL    HW222335   0.727   1.148   9.243  1.8775  1.0850  0.4102
 3625SOL     OW22336   2.797   3.651  12.305 -0.4055  0.1165 -0.1226
 3625SOL    HW122337   2.793   3.739  12.342 -0.0812  0.1893 -0.2598
 3625SOL    HW222338   2.726   3.651  12.240  0.8522  0.4274 -1.4943
 3626SOL     OW22339   1.783   1.655   8.718 -0.0190  0.4129 -0.1768
 3626SOL    HW122340   1.808   1.695   8.802 -0.6238 -1.6295  0.9727
 3626SOL    HW222341   1.693   1.632   8.740  0.0201  2.5397  2.2741
 3627SOL     OW22342   1.086   4.724   2.861 -0.1071  0.5153  0.4127
 3627SOL    HW122343   1.090   4.629   2.848 -4.7760  0.2548  0.9947
 3627SOL    HW222344   1.176   0.020   2.837 -1.0924  1.6152 -2.2790
 3628SOL     OW22345   2.249   2.352   6.093 -0.6399 -0.7501 -0.0470
 3628SOL    HW122346   2.213   2.328   6.008 -3.7177  0.0258  1.0446
 3628SOL    HW222347   2.335   2.393   6.079 -1.0097  0.6172  1.6946
 3629SOL     OW22348   0.813   0.271  11.817  0.0848  0.0580 -0.3356
 3629SOL    HW122349   0.748   0.227  11.762 -2.0020  1.6436  0.8290
 3629SOL    HW222350   0.883   0.259  11.752 -0.0278 -0.0282 -0.4403
 3630SOL     OW22351   2.045   2.736   0.919 -0.1042  0.0891  0.0769
 3630SOL    HW122352   2.000   2.807   0.964 -0.2989  0.7523 -1.1591
 3630SOL    HW222353   2.013   2.757   0.831 -2.8742  1.0502  1.3273
 3631SOL     OW22354   1.488   2.536   7.770 -0.3205 -1.0444  1.3275
 3631SOL    HW122355   1.473   2.630   7.757  3.6276 -0.5842  0.2359
 3631SOL    HW222356   1.563   2.538   7.829  1.5128 -2.3925 -0.9811
 3632SOL     OW22357   3.884   3.939   8.356  0.5805  0.0781  0.1387
 3632SOL    HW122358   3.850   4.011   8.409 -0.1720 -2.0076  2.5243
 3632SOL    HW222359   3.795   3.911   8.334  0.5360 -2.2131  3.2065
 3633SOL     OW22360   4.433   0.940   4.670 -0.2832 -0.4101  0.0063
 3633SOL    HW122361   4.504   1.004   4.673 -0.5664 -0.1196  0.3642
 3633SOL    HW222362   4.374   1.012   4.688 -0.7259 -0.5365 -0.9714
 3634SOL     OW22363   1.525   3.638   9.034 -0.2038 -0.0571  0.2141
 3634SOL    HW122364   1.580   3.561   9.020  2.3062  1.7478  0.0275
 3634SOL    HW222365   1.586   3.707   9.009  0.4608 -0.5358  0.5096
 3635SOL     OW22366   1.707   1.961  11.386  0.2439  0.2034 -0.7014
 3635SOL    HW122367   1.633   1.912  11.423  0.9903 -0.2619  0.1652
 3635SOL    HW222368   1.757   1.986  11.464 -0.6243 -0.5936  0.1098
 3636SOL     OW22369   3.440   1.399   6.645  0.4833 -0.0717 -0.3406
 3636SOL    HW122370   3.422   1.308   6.619 -0.0077 -0.5679  1.7029
 3636SOL    HW222371   3.355   1.410   6.687  1.1502  0.8967  0.7438
 3637SOL     OW22372   4.663   2.792   2.837  0.3516 -0.3049 -0.4512
 3637SOL    HW122373   4.684   2.792   2.744 -0.3596 -0.3978 -0.6086
 3637SOL    HW222374   0.024   2.778   2.876 -1.0856 -2.0780  2.0877
 3638SOL     OW22375   4.416   0.283  16.783 -0.5136 -0.2758  0.4605
 3638SOL    HW122376   4.434   0.190  16.798  0.5484  0.2959  2.7600
 3638SOL    HW222377   4.330   0.286  16.825 -1.1705 -2.3436 -0.7282
 3639SOL     OW22378   4.417   0.690   7.090 -0.0993 -0.1862  0.2646
 3639SOL    HW122379   4.464   0.615   7.124 -1.5045 -0.3516  1.8604
 3639SOL    HW222380   4.493   0.732   7.049  0.6474 -2.3904 -0.5618
 3640SOL     OW22381   3.640   4.309   2.736  0.0268  0.2293  0.3399
 3640SOL    HW122382   3.713   4.367   2.714  2.7819 -2.6517  1.9534
 3640SOL    HW222383   3.685   4.248   2.795 -0.3034 -1.4277 -1.1512
 3641SOL     OW22384   0.955   1.580   2.565  0.2683 -0.4924  0.1047
 3641SOL    HW122385   0.917   1.500   2.528 -1.3516  0.3682 -0.1046
 3641SOL    HW222386   1.047   1.552   2.561  1.2202  2.6420 -0.0287
 3642SOL     OW22387   2.714   2.538   8.474  0.1950  0.3232  0.2447
 3642SOL    HW122388   2.721   2.556   8.568  0.8626  2.6651 -0.2587
 3642SOL    HW222389   2.701   2.444   8.489  0.2956  0.0244 -1.5305
 3643SOL     OW22390   2.986   2.917   5.782 -0.5137  0.2645  0.3528
 3643SOL    HW122391   3.017   2.885   5.867  1.2196  1.1138  0.0366
 3643SOL    HW222392   2.892   2.897   5.776 -0.4751  0.2762 -0.2819
 3644SOL     OW22393   0.552   2.609   9.303 -0.1114 -0.0122  0.4794
 3644SOL    HW122394   0.530   2.530   9.352  1.4600 -1.6781 -1.5363
 3644SOL    HW222395   0.470   2.645   9.268 -0.0765  0.6531  1.0694
 3645SOL     OW22396   1.239   2.292   8.434  0.5064 -0.1936 -0.8542
 3645SOL    HW122397   1.167   2.331   8.483 -1.6881 -2.7434 -2.0639
 3645SOL    HW222398   1.309   2.325   8.489  0.2225  1.3520 -1.3995
 3646SOL     OW22399   0.713   0.762   6.664 -0.2647 -0.0810 -0.3934
 3646SOL    HW122400   0.736   0.694   6.727 -2.8584  0.2979  0.9632
 3646SOL    HW222401   0.759   0.727   6.587 -1.1725 -0.5867 -0.7139
 3647SOL     OW22402   1.607   3.347   3.855  0.0458 -0.1572  0.1144
 3647SOL    HW122403   1.583   3.273   3.911  0.2187 -0.2949  0.0047
 3647SOL    HW222404   1.693   3.352   3.898 -1.1054  0.1921  2.3983
 3648SOL     OW22405   1.551   0.344   6.087  0.1678 -0.6102  0.2897
 3648SOL    HW122406   1.639   0.339   6.050 -0.5609 -2.1704 -1.2147
 3648SOL    HW222407   1.576   0.357   6.179 -1.3666 -0.5891  0.7123
 3649SOL     OW22408   0.325   1.535   6.773  0.4808  0.2036  0.6814
 3649SOL    HW122409   0.250   1.566   6.722 -0.0733 -2.0045  0.1685
 3649SOL    HW222410   0.395   1.523   6.709  0.3682  2.9458  0.0300
 3650SOL     OW22411   1.387   4.697   3.445  0.2077  0.4345  0.0442
 3650SOL    HW122412   1.426   0.058   3.436  1.2570 -0.1478 -1.0551
 3650SOL    HW222413   1.432   4.660   3.521 -1.4855  1.6468  1.6253
 3651SOL     OW22414   1.230   0.596   7.861 -0.3369  0.2528 -0.1936
 3651SOL    HW122415   1.237   0.564   7.771 -0.2700 -3.4639  1.1373
 3651SOL    HW222416   1.218   0.690   7.845 -2.3196  0.0610  0.1835
 3652SOL     OW22417   4.345   1.448   6.460 -0.2146  0.0317  0.2517
 3652SOL    HW122418   4.286   1.522   6.474 -0.0887  0.1183  0.3281
 3652SOL    HW222419   4.398   1.480   6.388 -0.3861  0.4014  0.2850
 3653SOL     OW22420   3.445   0.047   6.467 -0.0340 -0.0345 -0.3188
 3653SOL    HW122421   3.377   0.003   6.417 -0.2728 -1.2513  1.0826
 3653SOL    HW222422   3.522   4.714   6.472  0.0744 -0.1022 -2.7067
 3654SOL     OW22423   0.495   2.450   4.866 -1.0724  0.4475 -0.5167
 3654SOL    HW122424   0.579   2.444   4.910 -0.2298  1.3890 -1.9753
 3654SOL    HW222425   0.520   2.519   4.804  0.8211  1.3027  1.2168
 3655SOL     OW22426   3.569   2.664   9.875 -0.4658 -0.1511 -0.0104
 3655SOL    HW122427   3.543   2.642   9.964 -0.9316 -0.6341 -0.2695
 3655SOL    HW222428   3.572   2.760   9.875 -1.6036 -0.1016 -1.3057
 3656SOL     OW22429   3.832   3.963   6.120 -0.0199 -0.4395 -1.0427
 3656SOL    HW122430   3.892   3.891   6.103  0.1960 -0.5848  0.3487
 3656SOL    HW222431   3.889   4.038   6.134  1.0889 -2.0349  3.2130
 3657SOL     OW22432   2.877   2.996   4.698 -0.4275 -0.5968  0.1030
 3657SOL    HW122433   2.811   2.985   4.629  0.7807  1.7397 -1.4611
 3657SOL    HW222434   2.945   2.936   4.667 -0.8334  0.0267 -1.9899
 3658SOL     OW22435   0.544   1.327   7.980  0.5686 -0.4504  0.3344
 3658SOL    HW122436   0.536   1.402   8.038 -2.3887 -1.4312  1.2000
 3658SOL    HW222437   0.635   1.299   7.985  0.2740 -1.6334 -0.9743
 3659SOL     OW22438   1.660   1.112   3.270 -0.6518 -0.3468  0.0348
 3659SOL    HW122439   1.631   1.092   3.359  0.0734  1.5212  0.6853
 3659SOL    HW222440   1.722   1.182   3.289 -1.6497  1.1099 -2.0337
 3660SOL     OW22441   0.010   1.837   8.665  0.5849  0.0511  0.5541
 3660SOL    HW122442   0.094   1.791   8.670  0.7480  0.2287 -0.4612
 3660SOL    HW222443   4.709   1.845   8.757 -0.7001 -2.3979  0.4118
 3661SOL     OW22444   3.091   0.420  10.873  0.3367 -0.3389  0.1386
 3661SOL    HW122445   3.117   0.412  10.964 -0.0997  0.3325  0.3232
 3661SOL    HW222446   3.145   0.352  10.832  0.1034 -0.2316 -0.3495
 3662SOL     OW22447   2.881   0.758  16.717  0.0776  0.0715  0.5006
 3662SOL    HW122448   2.952   0.756  16.653 -0.8681  0.8722 -0.5761
 3662SOL    HW222449   2.933   0.752  16.797  0.5071  0.2533  0.2333
 3663SOL     OW22450   4.382   0.822   0.016 -0.0764  0.4772  0.0506
 3663SOL    HW122451   4.288   0.821   0.037 -0.0338  1.5756  0.2579
 3663SOL    HW222452   4.393   0.884  17.646 -1.0314 -2.3364 -2.5364
 3664SOL     OW22453   4.095   3.091   3.922 -0.0521  0.4811  0.1977
 3664SOL    HW122454   4.073   3.038   3.999  2.8191 -0.1269  0.6073
 3664SOL    HW222455   4.013   3.115   3.880  0.0019  1.6034  0.7359
 3665SOL     OW22456   4.237   0.026   4.802 -0.2236  0.0602  0.0430
 3665SOL    HW122457   4.285   4.678   4.764  0.4359 -0.0542  1.1105
 3665SOL    HW222458   4.284   0.102   4.767  1.7734 -1.0390  0.3563
 3666SOL     OW22459   2.207   2.382   4.141 -0.9317 -0.6893 -0.5407
 3666SOL    HW122460   2.178   2.329   4.067 -1.4896  0.2647 -1.0008
 3666SOL    HW222461   2.161   2.462   4.116  0.2760  0.2428  0.1920
 3667SOL     OW22462   1.960   3.134   2.465 -0.7697 -0.4303 -0.4730
 3667SOL    HW122463   1.885   3.109   2.411 -0.5253 -1.4806 -0.3250
 3667SOL    HW222464   2.023   3.084   2.412 -1.5910 -1.9718  0.0150
 3668SOL     OW22465   3.493   1.720  14.703  0.2227  0.6076 -0.8058
 3668SOL    HW122466   3.426   1.729  14.635  1.1354  1.4351 -1.5881
 3668SOL    HW222467   3.567   1.695  14.649  0.4465  1.4603 -0.8954
 3669SOL     OW22468   2.145   1.571   2.627  0.3234 -0.7806 -0.2321
 3669SOL    HW122469   2.114   1.482   2.610 -1.0798 -0.0803 -1.3468
 3669SOL    HW222470   2.224   1.561   2.575  0.6051  1.1006 -0.1630
 3670SOL     OW22471   0.583   4.538   7.432 -0.4302 -0.6019  0.1961
 3670SOL    HW122472   0.641   4.606   7.398  0.2931 -1.2316  0.1496
 3670SOL    HW222473   0.530   4.517   7.355  1.0885 -1.7410 -0.5573
 3671SOL     OW22474   2.728   0.688   6.790 -0.4617  0.1495 -0.5049
 3671SOL    HW122475   2.783   0.690   6.712 -1.3747 -2.4577 -1.2145
 3671SOL    HW222476   2.762   0.613   6.839  1.8749  1.6457  0.2060
 3672SOL     OW22477   2.005   1.743   5.942  0.2518  0.3025  0.2351
 3672SOL    HW122478   2.100   1.743   5.938  0.1762 -1.7507 -2.3567
 3672SOL    HW222479   1.979   1.819   5.890 -1.6776 -0.9960 -0.7289
 3673SOL     OW22480   0.419   4.221   6.690 -0.0846 -0.3639 -0.3128
 3673SOL    HW122481   0.330   4.203   6.660  0.0050 -0.7814 -0.3346
 3673SOL    HW222482   0.453   4.284   6.626 -1.2215 -0.5190 -1.0687
 3674SOL     OW22483   3.423   0.191   5.073 -0.0095 -0.0737 -0.4685
 3674SOL    HW122484   3.427   0.273   5.122 -0.7851 -0.6935  0.6334
 3674SOL    HW222485   3.452   0.229   4.990 -0.0067 -0.3146 -0.5754
 3675SOL     OW22486   0.517   3.465  11.176  0.1264  0.3322  0.6091
 3675SOL    HW122487   0.449   3.529  11.150 -0.6818 -0.2823  1.2057
 3675SOL    HW222488   0.492   3.396  11.115 -1.1492  2.4851 -1.3492
 3676SOL     OW22489   1.263   4.398  13.348  0.5136  0.2655  0.0285
 3676SOL    HW122490   1.217   4.482  13.344 -0.3313 -0.1634  0.6724
 3676SOL    HW222491   1.219   4.369  13.428 -0.6302 -2.4425 -1.5980
 3677SOL     OW22492   3.109   2.889   6.783  0.0668  0.4407 -0.1633
 3677SOL    HW122493   3.097   2.931   6.868 -0.2065 -0.8910  0.4523
 3677SOL    HW222494   3.119   2.964   6.724 -0.5206  1.1752  0.6880
 3678SOL     OW22495   3.317   0.580   2.981 -0.4720  0.3998 -0.1554
 3678SOL    HW122496   3.404   0.589   2.942  0.6473  0.4316  2.3404
 3678SOL    HW222497   3.281   0.515   2.921 -0.7452 -1.8661  2.4489
 3679SOL     OW22498   1.451   0.568   2.085 -0.5561 -0.1326 -0.2535
 3679SOL    HW122499   1.401   0.506   2.137 -1.8446  1.3042  0.2329
 3679SOL    HW222500   1.385   0.634   2.064  0.4927  1.0144  0.0403
 3680SOL     OW22501   1.735   2.158   6.337  0.3985  0.1222 -0.4601
 3680SOL    HW122502   1.716   2.074   6.379 -0.0529 -0.3167 -1.5539
 3680SOL    HW222503   1.678   2.210   6.394  0.0192  0.4798 -1.1728
 3681SOL     OW22504   1.983   4.226   6.402 -0.0822  0.6559 -0.2814
 3681SOL    HW122505   1.895   4.213   6.439 -1.5450 -2.1769 -4.7515
 3681SOL    HW222506   2.020   4.159   6.460  0.0998  0.9948 -0.0133
 3682SOL     OW22507   3.260   0.178  15.136  0.0443 -0.2247  0.4216
 3682SOL    HW122508   3.293   0.246  15.194  2.5023 -0.2589 -0.9533
 3682SOL    HW222509   3.212   0.135  15.207 -0.3818  0.9222  0.8343
 3683SOL     OW22510   1.097   2.586   4.015 -0.3579 -0.7017 -0.2807
 3683SOL    HW122511   1.016   2.630   4.039 -1.6335 -2.9619 -0.3712
 3683SOL    HW222512   1.160   2.657   4.024  0.2149 -1.6442  2.8804
 3684SOL     OW22513   0.300   0.233  16.834 -0.1644  0.4258 -0.4660
 3684SOL    HW122514   0.272   0.192  16.915  0.0222 -0.6037 -0.9257
 3684SOL    HW222515   0.248   0.312  16.821  0.3100  0.8106 -0.0244
 3685SOL     OW22516   1.316   3.843   9.906  0.1747  0.4063 -0.0086
 3685SOL    HW122517   1.286   3.753   9.921 -0.8991  0.2127 -3.2029
 3685SOL    HW222518   1.298   3.859   9.813 -0.5037  1.8135  0.3648
 3686SOL     OW22519   0.782   4.223   6.732 -0.4623 -0.3765  0.3532
 3686SOL    HW122520   0.733   4.304   6.714  0.3733 -0.4098 -2.0530
 3686SOL    HW222521   0.813   4.246   6.819  2.7723  0.8967 -1.1385
 3687SOL     OW22522   1.512   3.236   0.882 -0.2728  0.0926  0.2493
 3687SOL    HW122523   1.492   3.213   0.792  0.5725 -1.0288  0.3452
 3687SOL    HW222524   1.600   3.199   0.883 -0.4618 -0.3608  0.3128
 3688SOL     OW22525   3.250   2.637   0.501  0.0202  0.5827  0.4140
 3688SOL    HW122526   3.243   2.673   0.413  0.4413 -0.4278 -0.0367
 3688SOL    HW222527   3.155   2.637   0.510  0.1560 -1.9048  2.0145
 3689SOL     OW22528   0.513   2.703   6.622 -0.0479  0.6980 -0.1072
 3689SOL    HW122529   0.602   2.686   6.592 -0.8164 -1.5490 -1.0934
 3689SOL    HW222530   0.507   2.799   6.615 -3.1308  0.5325  0.0359
 3690SOL     OW22531   0.030   0.446   8.822  0.8014  0.6577 -0.3868
 3690SOL    HW122532   0.039   0.354   8.797  0.2595  0.3528  0.5435
 3690SOL    HW222533   4.692   0.480   8.760  0.4974  0.6111 -0.0999
 3691SOL     OW22534   1.346   3.718   3.765 -0.1442 -0.5289  0.5517
 3691SOL    HW122535   1.314   3.806   3.743  0.4251 -0.3044  0.6329
 3691SOL    HW222536   1.392   3.689   3.687 -0.1060 -0.6450  0.6173
 3692SOL     OW22537   2.270   1.230  13.623 -0.0636  0.2076  0.0529
 3692SOL    HW122538   2.259   1.252  13.716 -1.4125  0.3355 -0.1326
 3692SOL    HW222539   2.291   1.318  13.591  0.6089  0.0551  0.0923
 3693SOL     OW22540   3.025   1.731   3.271 -0.0921  0.3489 -0.2913
 3693SOL    HW122541   3.104   1.785   3.273  1.4466 -1.8643 -1.3412
 3693SOL    HW222542   2.966   1.786   3.323 -1.7831 -1.0479 -0.7192
 3694SOL     OW22543   1.100   4.537   3.156 -0.6034 -0.5978 -0.0823
 3694SOL    HW122544   1.059   4.487   3.227  1.9769 -0.6661  1.3371
 3694SOL    HW222545   1.115   4.461   3.101 -1.8897 -0.3579 -0.7622
 3695SOL     OW22546   3.404   4.231   5.464  0.0783 -0.2528 -0.5881
 3695SOL    HW122547   3.421   4.312   5.511 -2.1936  0.3325 -0.8202
 3695SOL    HW222548   3.325   4.243   5.412 -1.0539  2.8884  1.8794
 3696SOL     OW22549   2.358   0.645  15.223  0.2040 -0.0272  0.3770
 3696SOL    HW122550   2.448   0.673  15.206 -0.1450  0.2439 -0.9832
 3696SOL    HW222551   2.342   0.616  15.134 -2.2599  1.7743  0.2301
 3697SOL     OW22552   1.770   2.276  11.620  0.2301 -0.3795 -0.1823
 3697SOL    HW122553   1.722   2.300  11.700 -1.9069 -0.2696 -1.4861
 3697SOL    HW222554   1.825   2.207  11.656 -0.4111 -0.6000  0.3882
 3698SOL     OW22555   2.730   1.151   6.900  0.1199  0.1116  0.0298
 3698SOL    HW122556   2.748   1.116   6.988 -1.0831  1.3407  0.7587
 3698SOL    HW222557   2.661   1.213   6.921  0.2896  1.1514 -2.6126
 3699SOL     OW22558   2.597   0.129   8.990  0.1976  0.2038  0.1363
 3699SOL    HW122559   2.518   0.083   9.018  0.5089 -0.2718  0.2288
 3699SOL    HW222560   2.560   0.155   8.905  2.7391 -1.3586 -1.4703
 3700SOL     OW22561   0.667   1.660  10.651  0.5935  0.0694 -0.2534
 3700SOL    HW122562   0.722   1.688  10.725  0.3916  2.0635 -0.8407
 3700SOL    HW222563   0.614   1.591  10.690  1.1295 -0.5695 -0.6623
 3701SOL     OW22564   1.536   4.542  13.791  0.0007  0.3308 -0.2935
 3701SOL    HW122565   1.577   4.507  13.712  3.2721  2.3758  0.5079
 3701SOL    HW222566   1.442   4.536  13.774 -0.0978 -0.5423  0.5193
 3702SOL     OW22567   1.777   0.006   7.653  0.0045 -0.0158  0.0341
 3702SOL    HW122568   1.726   4.651   7.642  2.3829 -1.5593  0.3210
 3702SOL    HW222569   1.783   0.008   7.748 -1.4803 -0.1251  0.1394
 3703SOL     OW22570   1.875   0.897  15.457 -0.1555  0.2528  0.4030
 3703SOL    HW122571   1.810   0.837  15.420 -0.0410  0.0788  0.4859
 3703SOL    HW222572   1.843   0.987  15.443  2.3798  1.2987  1.3410
 3704SOL     OW22573   1.130   4.514   1.843  0.0540 -0.3326  0.4601
 3704SOL    HW122574   1.154   4.481   1.756  2.4094  1.3096  0.4867
 3704SOL    HW222575   1.200   4.475   1.895  0.3843 -3.0103 -1.9977
 3705SOL     OW22576   0.556   2.121   2.609 -0.3574 -0.0625 -0.0993
 3705SOL    HW122577   0.648   2.105   2.588 -0.0842  0.7825  0.4416
 3705SOL    HW222578   0.538   2.058   2.679  2.8656 -1.4244 -0.5074
 3706SOL     OW22579   3.506   3.996   0.813  0.4684 -0.5860 -0.0734
 3706SOL    HW122580   3.532   4.010   0.904  0.3548  1.4691 -0.3585
 3706SOL    HW222581   3.555   3.914   0.800  1.8321  0.2489 -0.2376
 3707SOL     OW22582   4.395   2.476   8.817  0.1424  0.0666  0.0237
 3707SOL    HW122583   4.319   2.422   8.795  0.1904  0.0413 -0.0806
 3707SOL    HW222584   4.403   2.463   8.912  0.4851  1.6237  0.2138
 3708SOL     OW22585   4.618   0.830   0.865  0.5958  0.5375  0.5539
 3708SOL    HW122586   4.626   0.738   0.893  1.3976  0.0615 -1.2471
 3708SOL    HW222587   4.701   0.850   0.821 -0.8525  0.0832 -2.3942
 3709SOL     OW22588   0.155   4.041   3.419  0.6626  0.0438  0.4317
 3709SOL    HW122589   0.146   3.958   3.466  0.0790  0.0735  0.3785
 3709SOL    HW222590   0.235   4.022   3.371  0.8022 -0.0133  0.6872
 3710SOL     OW22591   1.721   2.393   2.628 -0.0138 -0.3886  0.4636
 3710SOL    HW122592   1.709   2.384   2.534  2.0301  0.8012  0.0870
 3710SOL    HW222593   1.632   2.397   2.662 -1.5421  0.2528 -3.6904
 3711SOL     OW22594   4.299   2.107   7.301 -0.0413  0.2352 -0.0010
 3711SOL    HW122595   4.282   2.201   7.301 -1.0555  0.0442 -2.9220
 3711SOL    HW222596   4.309   2.089   7.395 -0.5011 -1.8226 -0.3438
 3712SOL     OW22597   0.196   1.833   6.984  0.2323 -0.1891 -0.0320
 3712SOL    HW122598   0.149   1.759   6.945  0.3484 -1.0010  1.3504
 3712SOL    HW222599   0.273   1.832   6.927  0.7735  0.3912  0.7014
 3713SOL     OW22600   2.949   3.016   1.343  0.3467  0.0635  0.8342
 3713SOL    HW122601   2.892   3.083   1.306  4.0512  1.6924 -1.9016
 3713SOL    HW222602   3.035   3.055   1.324  0.4982 -0.4097  0.5230
 3714SOL     OW22603   0.892   3.512   7.092 -0.1054 -0.6293  0.5773
 3714SOL    HW122604   0.968   3.542   7.142  0.7947  0.5421 -1.5436
 3714SOL    HW222605   0.852   3.597   7.073  1.7885  0.0747 -0.1878
 3715SOL     OW22606   2.593   0.474  15.574  0.0950  0.7527 -0.4219
 3715SOL    HW122607   2.565   0.384  15.559  1.1839  0.2345  0.7304
 3715SOL    HW222608   2.687   0.457  15.567 -0.2981 -1.7550  0.5728
 3716SOL     OW22609   0.348   1.305  14.238  0.1988  0.2645  0.2604
 3716SOL    HW122610   0.358   1.399  14.224 -3.0013  0.5827 -0.0788
 3716SOL    HW222611   0.406   1.281  14.166 -1.0357 -0.6224 -0.4596
 3717SOL     OW22612   2.491   0.622   7.772  0.1273  0.0905 -0.5897
 3717SOL    HW122613   2.463   0.554   7.833  0.3358  0.6042  0.0689
 3717SOL    HW222614   2.519   0.692   7.830  3.3106 -2.7799  1.2879
 3718SOL     OW22615   0.176   1.517   9.569  0.1145 -0.1679  0.0811
 3718SOL    HW122616   0.228   1.437   9.560  0.5461  0.2329 -0.9640
 3718SOL    HW222617   0.220   1.567   9.500 -2.1000  0.2663 -1.0301
 3719SOL     OW22618   4.048   4.617   9.098 -0.6426  0.0823 -0.3254
 3719SOL    HW122619   4.130   4.644   9.138 -0.2411 -1.5675 -0.0189
 3719SOL    HW222620   4.003   4.577   9.173 -0.3929 -0.7022 -0.5901
 3720SOL     OW22621   2.621   1.190  12.715 -0.3971 -0.3212  0.2456
 3720SOL    HW122622   2.676   1.222  12.643 -1.2515 -0.3041 -0.4071
 3720SOL    HW222623   2.537   1.203  12.670  1.5434  1.1994 -2.9406
 3721SOL     OW22624   1.961   0.488   2.265  0.4179 -0.4087 -0.1238
 3721SOL    HW122625   1.879   0.442   2.278  0.2541  0.2245  0.9973
 3721SOL    HW222626   1.962   0.481   2.169 -1.6113 -1.3817 -0.0547
 3722SOL     OW22627   4.039   0.748   8.215 -0.0767  0.2887  0.2032
 3722SOL    HW122628   4.060   0.687   8.286  0.2048 -0.0194 -0.1430
 3722SOL    HW222629   4.064   0.686   8.146 -0.0477 -0.5637  0.9716
 3723SOL     OW22630   4.096   2.609   4.289 -0.3756  0.6321 -0.1809
 3723SOL    HW122631   4.135   2.525   4.310 -0.2658  0.5146 -0.8634
 3723SOL    HW222632   4.054   2.591   4.204  0.5188  1.5114 -0.8162
 3724SOL     OW22633   0.568   1.126  13.132 -0.3238  0.5228  0.1770
 3724SOL    HW122634   0.636   1.059  13.138  0.8186  1.3627 -3.3889
 3724SOL    HW222635   0.624   1.193  13.092  0.0232  2.2117  3.4452
 3725SOL     OW22636   4.430   3.732   5.980  0.7331 -0.0970 -0.8000
 3725SOL    HW122637   4.341   3.700   5.965  0.0898  1.4179 -0.2317
 3725SOL    HW222638   4.432   3.822   5.946  1.3616  0.0125 -0.4583
 3726SOL     OW22639   2.705   2.440  15.863  0.2617 -0.2166  0.3972
 3726SOL    HW122640   2.661   2.522  15.885 -1.0472 -0.5503 -0.9714
 3726SOL    HW222641   2.790   2.476  15.840 -0.6655  1.8963  0.2625
 3727SOL     OW22642   3.860   3.535  15.099  0.0002  0.0828 -0.1961
 3727SOL    HW122643   3.901   3.509  15.016 -0.8934 -1.0253 -0.2760
 3727SOL    HW222644   3.814   3.457  15.128  0.7945 -0.7096 -1.0985
 3728SOL     OW22645   0.950   3.467   4.801 -0.7917  0.5061  0.2845
 3728SOL    HW122646   0.868   3.493   4.759 -0.8324  1.6852  1.1061
 3728SOL    HW222647   0.906   3.414   4.867  0.0937 -0.4571  0.1119
 3729SOL     OW22648   1.902   3.631  16.688 -0.5143  0.1891 -0.7493
 3729SOL    HW122649   1.824   3.576  16.679 -1.6857  1.9383 -1.3285
 3729SOL    HW222650   1.932   3.650  16.599 -0.1544 -0.5932 -0.7918
 3730SOL     OW22651   2.184   0.906  15.127  0.0528 -0.4037 -0.1735
 3730SOL    HW122652   2.214   0.996  15.121 -1.9135  0.2562  0.1438
 3730SOL    HW222653   2.226   0.878  15.045 -3.0499 -1.6621 -1.3122
 3731SOL     OW22654   4.445   3.439   6.143  0.4885  0.4342  0.3653
 3731SOL    HW122655   4.443   3.421   6.050 -0.1133 -1.6586  0.7948
 3731SOL    HW222656   4.498   3.365   6.172 -0.1470 -0.5592 -1.0524
 3732SOL     OW22657   2.859   3.205  12.331 -0.6885 -0.0123  0.7387
 3732SOL    HW122658   2.814   3.137  12.282  0.7561 -1.0336  0.8471
 3732SOL    HW222659   2.856   3.279  12.271  0.0922 -0.4589  0.1486
 3733SOL     OW22660   0.702   2.687   8.904  0.0344 -0.2204 -0.1345
 3733SOL    HW122661   0.775   2.716   8.849 -0.2159  1.1113  0.2607
 3733SOL    HW222662   0.669   2.610   8.857  0.8314 -0.3259 -0.5186
 3734SOL     OW22663   1.176   1.767   8.201  0.8007  0.0766  0.2116
 3734SOL    HW122664   1.259   1.811   8.215 -0.0725  2.5171 -2.2513
 3734SOL    HW222665   1.130   1.824   8.263 -1.1744 -2.7481  1.3405
 3735SOL     OW22666   0.693   3.544   5.856  0.1106 -0.3004  0.1188
 3735SOL    HW122667   0.704   3.639   5.860  1.2951 -0.5626  2.4990
 3735SOL    HW222668   0.699   3.523   5.762  2.5413 -1.1097  0.4469
 3736SOL     OW22669   3.307   3.205   7.103 -0.2871  0.8383  0.3913
 3736SOL    HW122670   3.322   3.272   7.036  1.9394  0.8288  0.8819
 3736SOL    HW222671   3.396   3.191   7.133 -0.3925  3.8545  2.1208
 3737SOL     OW22672   2.586   3.772   4.525  0.2747 -0.5690  0.4284
 3737SOL    HW122673   2.581   3.753   4.431  1.6227 -1.8324  0.6150
 3737SOL    HW222674   2.601   3.867   4.523  1.5768 -0.8024 -0.7293
 3738SOL     OW22675   4.094   3.995  15.164 -0.1177 -0.2785  0.2801
 3738SOL    HW122676   4.090   3.969  15.255  1.5882  1.0459  0.7364
 3738SOL    HW222677   4.146   4.075  15.173 -2.4025  0.8565  3.0525
 3739SOL     OW22678   1.175   1.220   5.242  0.0973  0.6127  0.0810
 3739SOL    HW122679   1.206   1.210   5.152 -1.5857  0.5334 -0.5058
 3739SOL    HW222680   1.252   1.259   5.283 -0.2646 -0.0465  1.4101
 3740SOL     OW22681   2.382   1.489  15.137 -0.1154 -0.9078  0.6449
 3740SOL    HW122682   2.431   1.429  15.081 -0.2942 -1.7266  1.3647
 3740SOL    HW222683   2.291   1.470  15.116  0.2249 -2.2441  0.4100
 3741SOL     OW22684   2.762   2.372   2.730  0.4720 -0.1006 -0.0569
 3741SOL    HW122685   2.771   2.375   2.635 -1.8840 -1.6339 -0.3135
 3741SOL    HW222686   2.824   2.440   2.757  1.3121 -2.1356  3.1385
 3742SOL     OW22687   0.241   1.063   5.788 -0.5497  0.2525 -0.2650
 3742SOL    HW122688   0.310   1.080   5.724  0.0837 -1.6425 -0.1009
 3742SOL    HW222689   0.173   1.026   5.733  0.2189  1.0250 -1.7267
 3743SOL     OW22690   1.872   1.839   7.302  0.5149 -0.1861  0.7650
 3743SOL    HW122691   1.851   1.829   7.394  0.8827  0.2022  0.8922
 3743SOL    HW222692   1.791   1.797   7.272 -0.3641  0.5972  2.0851
 3744SOL     OW22693   2.409   2.195   7.947 -0.1154 -0.1381 -0.2828
 3744SOL    HW122694   2.336   2.146   7.910  0.4111 -1.2101  0.1034
 3744SOL    HW222695   2.465   2.210   7.871  2.6884 -2.2932  1.3363
 3745SOL     OW22696   2.022   1.034  17.104  0.5059 -0.4700  0.4638
 3745SOL    HW122697   2.106   1.070  17.077  0.6719 -1.6496 -0.6344
 3745SOL    HW222698   1.999   0.981  17.027 -2.3079  1.1739  0.1757
 3746SOL     OW22699   3.369   1.162   6.549  0.3127 -0.0366 -0.1068
 3746SOL    HW122700   3.408   1.075   6.555 -1.4486 -0.6190  2.8587
 3746SOL    HW222701   3.274   1.148   6.547 -0.2003  3.2701  1.0736
 3747SOL     OW22702   2.330   0.343  17.097 -0.4746 -0.3919  0.0048
 3747SOL    HW122703   2.351   0.353  17.004  1.0404  1.9956  0.6084
 3747SOL    HW222704   2.253   0.286  17.092 -0.4051 -0.4396 -0.5457
 3748SOL     OW22705   2.704   1.640  16.010 -0.6083  0.0093  0.0933
 3748SOL    HW122706   2.798   1.651  16.025 -0.2071 -1.6138 -1.2322
 3748SOL    HW222707   2.663   1.641  16.097 -1.0110 -0.8033 -0.0852
 3749SOL     OW22708   1.530   1.780   1.803  0.2629 -0.3888  0.1203
 3749SOL    HW122709   1.450   1.756   1.848  0.1704  0.6775  0.5256
 3749SOL    HW222710   1.589   1.809   1.873 -0.4742  2.7364 -0.5642
 3750SOL     OW22711   4.574   1.491   7.059 -0.0501 -0.0549  0.0163
 3750SOL    HW122712   4.549   1.406   7.021 -0.9968  0.0370  0.4210
 3750SOL    HW222713   4.636   1.474   7.129  0.6645  1.5777 -0.2305
 3751SOL     OW22714   1.976   3.125   4.968 -0.4771  0.0734  0.6181
 3751SOL    HW122715   1.986   3.030   4.976  1.0593  0.1898  0.0388
 3751SOL    HW222716   1.896   3.139   5.018  0.4098  0.2832  1.9762
 3752SOL     OW22717   2.468   1.305   6.641  0.3179  0.5655  0.8243
 3752SOL    HW122718   2.421   1.258   6.572  0.9360  0.3835  0.5259
 3752SOL    HW222719   2.473   1.238   6.708 -2.1653  0.2134  0.6284
 3753SOL     OW22720   3.582   0.702  10.235 -0.4006  0.1784 -0.1373
 3753SOL    HW122721   3.570   0.633  10.300 -0.2920  0.3981  0.1177
 3753SOL    HW222722   3.496   0.699  10.195  0.2255 -2.2999 -1.3354
 3754SOL     OW22723   4.669   2.853  12.203 -0.4593  0.5271  0.2765
 3754SOL    HW122724   4.586   2.900  12.205 -1.6806 -1.5858 -1.5855
 3754SOL    HW222725   4.644   2.790  12.135 -0.5656  0.5279  0.3149
 3755SOL     OW22726   2.433   1.327   3.888  0.0603  0.5054 -0.1065
 3755SOL    HW122727   2.468   1.252   3.841  0.6960 -0.8385  2.5056
 3755SOL    HW222728   2.500   1.395   3.884  0.8198 -0.0946  2.7612
 3756SOL     OW22729   0.555   1.266   3.032 -0.0619  0.0734 -0.2026
 3756SOL    HW122730   0.641   1.233   3.057 -0.3493 -1.3844 -1.1153
 3756SOL    HW222731   0.556   1.256   2.937  0.7567 -0.5797 -0.1271
 3757SOL     OW22732   0.386   1.576  14.265 -0.5712  0.2519 -0.0052
 3757SOL    HW122733   0.339   1.658  14.279 -2.0951 -0.2182 -2.2773
 3757SOL    HW222734   0.422   1.578  14.176  1.3462 -2.5421  0.7197
 3758SOL     OW22735   0.056   1.761  10.179 -0.0873  0.1182 -0.0746
 3758SOL    HW122736   0.049   1.666  10.190  0.0385  0.3323  1.8441
 3758SOL    HW222737   0.149   1.778  10.164  0.6430 -1.9500  2.1391
 3759SOL     OW22738   0.262   2.867  14.390 -0.0260  0.2040  0.8112
 3759SOL    HW122739   0.248   2.955  14.424 -0.2573  0.6730 -0.4974
 3759SOL    HW222740   0.173   2.837  14.372 -0.2499  0.8843  0.7709
 3760SOL     OW22741   3.507   2.934  16.532 -0.5895  0.5477  0.0493
 3760SOL    HW122742   3.429   2.880  16.531 -0.8210  0.8806  0.0504
 3760SOL    HW222743   3.572   2.889  16.586 -0.7872 -0.6285 -0.6868
 3761SOL     OW22744   2.889   1.830  12.222 -0.6130  0.6697  0.3714
 3761SOL    HW122745   2.966   1.856  12.271 -1.3465  0.8434  1.4386
 3761SOL    HW222746   2.920   1.831  12.132 -1.8850  0.4405 -0.0733
 3762SOL     OW22747   4.198   1.607   3.595  0.0811  0.1887  0.2964
 3762SOL    HW122748   4.242   1.636   3.675 -1.2520 -1.5361  1.6527
 3762SOL    HW222749   4.229   1.517   3.588 -1.5465 -0.3487 -0.0803
 3763SOL     OW22750   2.098   4.221   4.521 -0.1329 -0.4022 -0.0472
 3763SOL    HW122751   2.064   4.301   4.483 -2.0406  0.0330  2.6460
 3763SOL    HW222752   2.110   4.162   4.446 -2.5440  0.8176 -1.3664
 3764SOL     OW22753   3.522   2.851   7.728  0.0975  0.5014  0.1864
 3764SOL    HW122754   3.524   2.946   7.736  0.6482  0.5177 -0.1341
 3764SOL    HW222755   3.468   2.860   7.649  0.8683  0.1202 -0.3861
 3765SOL     OW22756   3.074   4.069   4.732 -0.9140  0.0575 -0.3971
 3765SOL    HW122757   3.162   4.077   4.770 -0.9602  0.4782 -0.3700
 3765SOL    HW222758   3.093   4.032   4.645  1.1292  2.1513 -0.8575
 3766SOL     OW22759   0.005   1.826   5.295 -0.0182  0.2686  0.1340
 3766SOL    HW122760   0.031   1.782   5.376  0.3722  2.3962  1.1842
 3766SOL    HW222761   0.066   1.782   5.237 -2.1690 -2.6533  0.1305
 3767SOL     OW22762   3.665   4.583   8.836 -0.6317  0.2457  0.1504
 3767SOL    HW122763   3.626   4.664   8.871 -0.4538  0.9754 -1.3311
 3767SOL    HW222764   3.587   4.538   8.803  0.0004 -0.3949 -0.4701
 3768SOL     OW22765   1.340   0.760   8.545 -0.1012 -0.2401 -0.1106
 3768SOL    HW122766   1.387   0.783   8.464 -0.8194  0.2020 -0.4036
 3768SOL    HW222767   1.282   0.690   8.514 -1.2954  0.1233  1.3060
 3769SOL     OW22768   2.145   1.281  11.990  0.3621 -0.1452 -0.3604
 3769SOL    HW122769   2.126   1.191  12.016  0.8382  0.0371  0.6015
 3769SOL    HW222770   2.224   1.258  11.941 -0.3318 -1.0381 -1.0648
 3770SOL     OW22771   2.823   3.427   6.326 -0.5082  0.1790 -0.0859
 3770SOL    HW122772   2.813   3.356   6.388 -0.1695  0.6312  0.4845
 3770SOL    HW222773   2.738   3.434   6.282 -0.6464 -0.3836  0.0899
 3771SOL     OW22774   3.124   3.364   2.759  0.5867 -0.2506  0.0226
 3771SOL    HW122775   3.080   3.353   2.674  1.4422 -2.4276 -0.1412
 3771SOL    HW222776   3.203   3.406   2.724 -0.5280  0.7032 -1.3923
 3772SOL     OW22777   2.401   4.423   3.853 -0.0640  0.0566  0.6330
 3772SOL    HW122778   2.392   4.456   3.942  0.4915  0.9834  0.3474
 3772SOL    HW222779   2.477   4.474   3.825  0.6819 -0.7250  1.2082
 3773SOL     OW22780   4.116   2.105   9.506 -0.1520 -0.8095 -0.2488
 3773SOL    HW122781   4.114   2.197   9.532  1.5501 -1.5879  2.7445
 3773SOL    HW222782   4.200   2.075   9.542  0.3373  1.3340  0.4168
 3774SOL     OW22783   4.657   3.233  10.202  0.0801 -0.6974  0.0336
 3774SOL    HW122784   4.696   3.259  10.286  0.9132 -0.7881 -0.3329
 3774SOL    HW222785   4.716   3.285  10.147  0.9138 -0.8811  0.7527
 3775SOL     OW22786   2.599   4.557  14.240  0.4675  0.6288 -0.5019
 3775SOL    HW122787   2.602   4.532  14.332  0.6978 -3.0554 -1.5019
 3775SOL    HW222788   2.627   4.478  14.195  0.2134  1.1908 -1.6469
 3776SOL     OW22789   3.910   3.728  13.967  0.1635 -0.1521  0.5146
 3776SOL    HW122790   3.843   3.709  13.902  2.1747 -1.5181 -1.1858
 3776SOL    HW222791   3.984   3.689  13.920  2.2117  1.2811  2.5839
 3777SOL     OW22792   1.448   1.698   4.889  0.1772  0.6210  0.1774
 3777SOL    HW122793   1.492   1.680   4.972 -0.2357  1.8210  0.6538
 3777SOL    HW222794   1.509   1.761   4.851  0.2196 -0.1322 -1.0021
 3778SOL     OW22795   4.275   0.943  13.044  0.3779  0.1732  0.3166
 3778SOL    HW122796   4.363   0.911  13.065  0.6443 -1.2278 -2.8834
 3778SOL    HW222797   4.254   0.980  13.130 -2.4029  0.3960 -0.4625
 3779SOL     OW22798   2.958   4.069  11.010 -0.8467 -0.8781  0.2378
 3779SOL    HW122799   2.891   4.066  10.942 -1.2117 -0.4410  0.5773
 3779SOL    HW222800   2.965   3.980  11.045  2.6910 -1.0456 -0.8745
 3780SOL     OW22801   0.531   1.996   4.538 -0.7035 -0.7036  0.2858
 3780SOL    HW122802   0.566   2.020   4.452 -0.1612 -2.1944  0.0995
 3780SOL    HW222803   0.586   1.923   4.565 -1.1812 -1.2138 -0.1130
 3781SOL     OW22804   0.844   1.796   6.167 -0.6803  0.3929 -0.4078
 3781SOL    HW122805   0.829   1.889   6.151 -2.6133  0.0295 -0.7331
 3781SOL    HW222806   0.820   1.796   6.260 -0.1206 -2.8984 -0.2568
 3782SOL     OW22807   1.994   2.278   5.614  0.0995 -0.8250 -0.4071
 3782SOL    HW122808   1.964   2.237   5.695  0.9614  1.9972  1.3495
 3782SOL    HW222809   2.064   2.217   5.593 -0.1964 -1.1265 -0.5138
 3783SOL     OW22810   4.535   1.340   3.951 -0.5233  0.1272  0.0466
 3783SOL    HW122811   4.441   1.342   3.973 -0.7788  0.1636 -1.0219
 3783SOL    HW222812   4.561   1.432   3.958  1.7772 -0.4042 -1.7142
 3784SOL     OW22813   4.472   3.498   0.518  0.3462  0.5550 -0.2165
 3784SOL    HW122814   4.457   3.438   0.445 -1.1372  1.3895 -0.5874
 3784SOL    HW222815   4.512   3.440   0.583  0.2489 -1.7483 -2.2194
 3785SOL     OW22816   4.594   2.968   6.531  0.2308  0.1986 -0.4223
 3785SOL    HW122817   4.587   2.873   6.527 -0.2958  0.2271 -0.1411
 3785SOL    HW222818   4.502   2.994   6.538  1.0130  3.2227 -1.2647
 3786SOL     OW22819   2.022   2.201  10.873  0.1832  0.2544 -0.0163
 3786SOL    HW122820   2.105   2.234  10.908  0.5390 -0.7541  0.0943
 3786SOL    HW222821   2.032   2.112  10.909 -4.5483 -0.3757 -0.2469
 3787SOL     OW22822   4.289   2.309   6.713 -0.4073  0.0737  0.0246
 3787SOL    HW122823   4.253   2.363   6.783  1.3026 -1.8912  2.4285
 3787SOL    HW222824   4.302   2.228   6.762  1.7874  0.2009 -0.3508
 3788SOL     OW22825   2.548   3.441  17.287  0.0353  0.2508 -0.0056
 3788SOL    HW122826   2.573   3.350  17.269 -1.3006 -0.3949  1.4307
 3788SOL    HW222827   2.588   3.460  17.372  1.0657  0.5680 -0.5567
 3789SOL     OW22828   2.437   2.507   5.613 -0.2933  0.0731  0.4945
 3789SOL    HW122829   2.508   2.569   5.593  0.0485 -0.2241  0.7858
 3789SOL    HW222830   2.370   2.576   5.609 -0.6231 -0.2417  0.6218
 3790SOL     OW22831   3.041   0.715  10.619 -0.4437 -0.3403 -0.1507
 3790SOL    HW122832   3.025   0.621  10.618  0.2480 -0.4556  0.1384
 3790SOL    HW222833   2.953   0.749  10.636  0.0685 -0.0133  1.8406
 3791SOL     OW22834   3.234   1.976   6.467 -0.0382  0.4938 -0.1440
 3791SOL    HW122835   3.144   1.950   6.448  0.5473  0.4560 -2.8473
 3791SOL    HW222836   3.277   1.890   6.469  0.6639  0.8715  0.7514
 3792SOL     OW22837   4.109   0.962   4.192  0.0595  0.2169 -0.1670
 3792SOL    HW122838   4.195   0.991   4.224  0.3833 -0.5642 -0.3144
 3792SOL    HW222839   4.051   1.032   4.221 -1.7022 -0.6129 -1.6794
 3793SOL     OW22840   2.833   4.169  17.304 -0.5027  0.3789  0.1284
 3793SOL    HW122841   2.783   4.119  17.369 -2.9855  0.3721 -1.8193
 3793SOL    HW222842   2.866   4.100  17.247  2.4970  1.7947  0.1469
 3794SOL     OW22843   0.274   0.230   7.950  0.7521  0.2085  0.0342
 3794SOL    HW122844   0.345   0.286   7.919  0.5996  0.8689  0.8510
 3794SOL    HW222845   0.326   0.161   7.992  2.5311  0.9739 -0.9431
 3795SOL     OW22846   0.333   4.714   2.280  0.0723 -0.4626  0.1087
 3795SOL    HW122847   0.297   4.677   2.361  0.2904  0.0356  0.4321
 3795SOL    HW222848   0.425   4.724   2.305  0.1528 -2.1276  0.4994
 3796SOL     OW22849   0.239   1.220   2.320 -0.1921 -0.4718 -0.1770
 3796SOL    HW122850   0.189   1.222   2.238 -1.9103  2.6737  0.9537
 3796SOL    HW222851   0.192   1.147   2.359  0.2490 -1.0922 -0.8110
 3797SOL     OW22852   3.457   2.256   6.826  0.1761  0.1508 -0.2590
 3797SOL    HW122853   3.435   2.339   6.783 -1.1026 -0.2887 -0.4397
 3797SOL    HW222854   3.380   2.200   6.815 -1.7764  3.0309 -1.2349
 3798SOL     OW22855   0.687   2.164   5.883  0.4019  0.0790 -0.1686
 3798SOL    HW122856   0.743   2.146   5.959 -1.3247 -0.8182  0.9085
 3798SOL    HW222857   0.604   2.123   5.910  1.0062 -1.4356 -0.6246
 3799SOL     OW22858   4.623   1.207   2.350 -0.0076 -0.5149  0.2698
 3799SOL    HW122859   4.671   1.266   2.292 -0.8348 -0.7949 -0.6847
 3799SOL    HW222860   4.577   1.157   2.283 -1.5861  0.3376  0.7029
 3800SOL     OW22861   1.395   3.407   9.162 -0.1573  0.3016 -0.4652
 3800SOL    HW122862   1.434   3.493   9.147 -0.0397  0.5424  1.2528
 3800SOL    HW222863   1.473   3.353   9.168 -0.6681 -0.2612  0.9803
 3801SOL     OW22864   2.969   1.227   8.907  0.6972 -0.1149 -0.2042
 3801SOL    HW122865   2.954   1.310   8.861 -0.8985  0.1654  0.8130
 3801SOL    HW222866   3.031   1.178   8.853  0.0816  0.2905 -1.2960
 3802SOL     OW22867   4.422   3.715   6.283  0.5288 -0.0052  0.0099
 3802SOL    HW122868   4.421   3.641   6.222 -0.7875 -0.2246  0.2947
 3802SOL    HW222869   4.453   3.792   6.236  0.7400  0.5238  1.0123
 3803SOL     OW22870   3.953   2.259   7.330  0.6500  0.7058  0.3160
 3803SOL    HW122871   3.908   2.213   7.260  1.9744 -0.0538 -0.0444
 3803SOL    HW222872   3.966   2.183   7.387  0.0258  1.6727  1.7404
 3804SOL     OW22873   3.649   2.000  15.842  0.1733 -0.0807  0.4941
 3804SOL    HW122874   3.662   1.906  15.834 -1.2368 -0.1720 -0.8208
 3804SOL    HW222875   3.586   2.010  15.914  2.3260  2.5702  1.9859
 3805SOL     OW22876   3.218   3.809   7.096  0.2833 -0.3946  0.8217
 3805SOL    HW122877   3.142   3.809   7.038  2.3507 -0.7457 -1.8593
 3805SOL    HW222878   3.246   3.901   7.097  0.3119 -0.3640 -2.0929
 3806SOL     OW22879   0.787   3.546   0.345 -0.6004  0.4296  0.0043
 3806SOL    HW122880   0.869   3.570   0.388  0.2381 -2.1796 -0.1600
 3806SOL    HW222881   0.762   3.610   0.279 -0.2202 -0.2755 -0.8190
 3807SOL     OW22882   1.675   0.131   6.990 -0.2150  0.3485  0.4466
 3807SOL    HW122883   1.599   0.108   7.044 -0.8912 -1.0735 -1.1132
 3807SOL    HW222884   1.689   0.223   7.010  1.9729  0.6750 -2.6992
 3808SOL     OW22885   0.983   0.536   3.879 -0.0071 -0.1261 -0.1188
 3808SOL    HW122886   0.896   0.502   3.902 -0.4610 -1.0221 -3.2611
 3808SOL    HW222887   0.958   0.580   3.798  2.3541  0.3257 -0.6030
 3809SOL     OW22888   4.442   2.163   5.437 -0.1478 -0.4069 -0.4198
 3809SOL    HW122889   4.516   2.125   5.484 -1.5223 -2.4832  0.0434
 3809SOL    HW222890   4.441   2.254   5.469  1.2138 -0.8874  1.0121
 3810SOL     OW22891   0.956   1.043  10.782  0.7666 -0.2273  0.5371
 3810SOL    HW122892   0.961   0.998  10.867 -2.3554 -2.1137 -0.2690
 3810SOL    HW222893   0.994   1.128  10.803  1.6274 -0.2622 -0.8898
 3811SOL     OW22894   2.642   3.029   8.232 -0.3698  0.0712 -0.2449
 3811SOL    HW122895   2.626   2.939   8.261 -2.1637 -0.1443 -1.8639
 3811SOL    HW222896   2.674   3.059   8.316  0.2202 -1.6879  0.1596
 3812SOL     OW22897   1.475   2.431  14.257  0.1723  0.1032  0.9548
 3812SOL    HW122898   1.434   2.479  14.329  0.1515  0.7479  0.5055
 3812SOL    HW222899   1.488   2.346  14.300  2.1267 -0.3250 -0.4346
 3813SOL     OW22900   0.501   0.596   6.521  0.5157 -0.5999  0.2063
 3813SOL    HW122901   0.522   0.673   6.467  0.4759 -0.1410  0.8418
 3813SOL    HW222902   0.497   0.632   6.610  2.7548  1.2238 -0.4197
 3814SOL     OW22903   1.964   3.117   9.162  0.1212 -0.6457 -0.2085
 3814SOL    HW122904   1.953   3.061   9.085  1.2951 -0.8395 -0.2313
 3814SOL    HW222905   1.882   3.105   9.210 -1.6281  0.0358 -3.0180
 3815SOL     OW22906   4.085   1.681   8.686  0.1015 -0.2399  0.4824
 3815SOL    HW122907   4.044   1.767   8.681 -0.4156 -0.3996  2.0110
 3815SOL    HW222908   4.138   1.685   8.607  0.3957  1.6505  0.7740
 3816SOL     OW22909   4.266   1.049   2.889 -0.0861 -0.0899  0.1263
 3816SOL    HW122910   4.240   0.963   2.856 -0.3781  0.5156 -1.2268
 3816SOL    HW222911   4.349   1.022   2.929  0.3464 -1.2322 -1.5350
 3817SOL     OW22912   1.309   3.514  15.975  0.2193  0.2224  0.0805
 3817SOL    HW122913   1.334   3.481  15.889 -0.3309 -1.9996  0.7783
 3817SOL    HW222914   1.255   3.588  15.948  0.2055  0.9147  1.9761
 3818SOL     OW22915   2.051   1.623   8.662  0.2266  0.2859 -0.3616
 3818SOL    HW122916   1.957   1.638   8.666  0.8845  3.4112  2.8365
 3818SOL    HW222917   2.053   1.535   8.700  1.3073 -0.4775 -2.1308
 3819SOL     OW22918   2.197   4.222   2.812  0.2917 -0.9213 -0.9506
 3819SOL    HW122919   2.272   4.173   2.845  1.1791  0.9431 -0.1933
 3819SOL    HW222920   2.136   4.211   2.884 -0.4170 -0.2271 -1.4410
 3820SOL     OW22921   4.076   2.759  11.036  0.0765  0.3046 -0.8538
 3820SOL    HW122922   4.142   2.693  11.015 -0.6372 -0.8080  0.3708
 3820SOL    HW222923   4.025   2.777  10.957 -2.0058 -0.8282  0.2174
 3821SOL     OW22924   4.101   2.273   5.181  0.2923 -0.0789 -0.9336
 3821SOL    HW122925   4.173   2.220   5.213  1.1447  1.8075  0.2839
 3821SOL    HW222926   4.129   2.282   5.090  3.8597  2.5379  0.4292
 3822SOL     OW22927   2.968   1.146  11.258  0.2150 -0.4616  0.1586
 3822SOL    HW122928   2.936   1.203  11.188  1.0035 -0.3844 -0.1395
 3822SOL    HW222929   2.964   1.205  11.334  1.9023 -0.3244  0.1242
 3823SOL     OW22930   4.580   0.944   0.473 -0.5809  0.0189  0.3216
 3823SOL    HW122931   4.507   0.981   0.523 -0.0491 -0.5485  1.5220
 3823SOL    HW222932   4.646   0.934   0.541 -1.1289  2.3302  1.1979
 3824SOL     OW22933   2.355   0.880  11.360  0.1917 -0.2306  0.2712
 3824SOL    HW122934   2.424   0.874  11.294 -0.0346 -0.4678  0.0497
 3824SOL    HW222935   2.269   0.865  11.320  0.7881 -0.6262 -0.8619
 3825SOL     OW22936   4.345   3.218   9.147  0.4199 -0.5867 -0.1983
 3825SOL    HW122937   4.348   3.216   9.052 -1.5399 -3.2633 -0.1961
 3825SOL    HW222938   4.307   3.132   9.164  2.2201 -0.8306  2.6717
 3826SOL     OW22939   1.599   1.251   6.822 -0.3420  0.0706 -0.2557
 3826SOL    HW122940   1.548   1.215   6.750 -1.7999  0.6957  0.4576
 3826SOL    HW222941   1.662   1.307   6.777  0.5800 -0.8082 -0.0654
 3827SOL     OW22942   2.704   3.266   0.807 -0.1608 -0.5548 -0.0923
 3827SOL    HW122943   2.616   3.292   0.834  0.0742  1.3255 -1.1565
 3827SOL    HW222944   2.737   3.223   0.886  0.9425 -0.4634 -0.5100
 3828SOL     OW22945   2.987   4.357  15.122  0.2526  0.5907  0.3839
 3828SOL    HW122946   2.894   4.378  15.108  0.1862  0.1884  0.2136
 3828SOL    HW222947   3.003   4.283  15.064  0.8854  2.0779 -1.3622
 3829SOL     OW22948   2.146   3.698   2.230  0.1301 -0.8931  0.2381
 3829SOL    HW122949   2.080   3.637   2.264 -1.1550  0.9223  0.9546
 3829SOL    HW222950   2.097   3.739   2.158  0.2985 -1.4559 -0.2009
 3830SOL     OW22951   2.698   1.804  14.841 -0.0185  0.1178 -0.0120
 3830SOL    HW122952   2.736   1.885  14.806  0.5068  0.4818  1.3972
 3830SOL    HW222953   2.605   1.827  14.837 -0.5466 -1.8969  0.7071
 3831SOL     OW22954   4.277   3.254   6.356  0.2805 -0.5587 -0.5451
 3831SOL    HW122955   4.198   3.306   6.345 -0.0498 -0.9070  0.1945
 3831SOL    HW222956   4.325   3.265   6.273  1.7681 -0.0667  0.3813
 3832SOL     OW22957   0.866   1.950   6.974  0.0394  0.4862 -0.5407
 3832SOL    HW122958   0.802   1.905   6.919 -1.3517 -1.1008  2.4038
 3832SOL    HW222959   0.943   1.897   6.955  0.7454  0.7651  1.5645
 3833SOL     OW22960   4.007   1.449   8.296  0.9070 -0.2697  0.5781
 3833SOL    HW122961   4.030   1.366   8.254  0.6911 -0.5044  0.9131
 3833SOL    HW222962   4.013   1.423   8.388  0.4082  1.3703  1.0775
 3834SOL     OW22963   2.110   4.011   2.223  0.1469  0.1373  0.5943
 3834SOL    HW122964   2.182   4.036   2.166 -1.2387  0.7891 -0.8654
 3834SOL    HW222965   2.143   3.933   2.266 -3.2796 -1.1227  0.9556
 3835SOL     OW22966   2.902   1.310   0.301  0.1988  0.0832 -0.5345
 3835SOL    HW122967   2.873   1.401   0.313  1.7885  0.4355  0.5426
 3835SOL    HW222968   2.901   1.304   0.205 -1.0098  1.8983 -0.6376
 3836SOL     OW22969   4.091   0.105   2.432  0.3858  0.2764 -0.1494
 3836SOL    HW122970   4.153   0.090   2.360  1.8995  2.8409  0.6141
 3836SOL    HW222971   4.011   0.086   2.382  1.0318  0.5167 -1.2895
 3837SOL     OW22972   1.873   1.838   3.673  0.2299 -0.4569  0.0719
 3837SOL    HW122973   1.817   1.768   3.706 -1.7461  0.4947 -1.2477
 3837SOL    HW222974   1.858   1.908   3.737  1.0665 -0.4689  0.2833
 3838SOL     OW22975   0.813   0.009   8.463  0.1771  0.1379  0.0108
 3838SOL    HW122976   0.856   0.063   8.530  3.1815 -2.5112  0.1992
 3838SOL    HW222977   0.731   0.057   8.453  0.2294  0.5196  1.3348
 3839SOL     OW22978   2.301   3.786   9.118  0.0936  0.0660  0.3066
 3839SOL    HW122979   2.227   3.762   9.173  1.9730 -1.5247  2.1706
 3839SOL    HW222980   2.268   3.840   9.046  0.0283 -0.3616  0.0164
 3840SOL     OW22981   2.243   3.904   3.863 -0.1761  0.6851 -0.3062
 3840SOL    HW122982   2.157   3.870   3.838  0.5118 -1.8540  0.8031
 3840SOL    HW222983   2.301   3.835   3.831  0.7154  0.7653  1.1467
 3841SOL     OW22984   1.459   1.254  12.906 -0.4621 -0.1352 -0.0143
 3841SOL    HW122985   1.532   1.299  12.864  0.2527  0.6630  2.0863
 3841SOL    HW222986   1.410   1.333  12.928 -0.9402 -0.5499  0.4261
 3842SOL     OW22987   3.210   0.828  10.453  0.0842 -0.1596  0.2383
 3842SOL    HW122988   3.159   0.782  10.520  3.2301 -0.8937  2.1596
 3842SOL    HW222989   3.134   0.871  10.415 -1.5819 -1.2450  2.3379
 3843SOL     OW22990   4.569   2.442  10.660  0.5947 -0.7892 -0.0725
 3843SOL    HW122991   4.598   2.423  10.571  0.4279  0.5985 -0.4238
 3843SOL    HW222992   4.653   2.469  10.696  1.0181 -1.1904 -0.7580
 3844SOL     OW22993   3.137   2.733  10.811 -0.0320  0.6589  0.1701
 3844SOL    HW122994   3.042   2.735  10.827  0.1223  1.2614  0.9839
 3844SOL    HW222995   3.173   2.763  10.894  3.2780 -1.7206 -0.4086
 3845SOL     OW22996   1.708   3.774   7.261 -0.2341 -0.6611  0.4230
 3845SOL    HW122997   1.680   3.765   7.170  0.4435  0.5984  0.0889
 3845SOL    HW222998   1.755   3.692   7.275  0.7007  0.0453  1.4876
 3846SOL     OW22999   0.332   3.881   6.727 -0.0058  0.0368  0.1858
 3846SOL    HW123000   0.330   3.794   6.687 -0.8510 -0.0291  0.3624
 3846SOL    HW223001   0.411   3.919   6.689 -0.0579 -0.1964 -0.1590
 3847SOL     OW23002   2.095   2.674   7.621  0.1880  0.4909 -0.2250
 3847SOL    HW123003   2.163   2.661   7.554 -0.1719 -1.7320 -0.1535
 3847SOL    HW223004   2.031   2.611   7.589 -1.0486  0.5625  2.1206
 3848SOL     OW23005   4.323   0.934   8.715  0.1699 -0.3972  0.1712
 3848SOL    HW123006   4.285   0.890   8.791  1.2845  0.0574  0.9972
 3848SOL    HW223007   4.300   0.870   8.648 -0.1597  0.5995 -0.6646
 3849SOL     OW23008   4.139   1.408   5.273 -0.2426  0.3453  0.2507
 3849SOL    HW123009   4.144   1.503   5.264  0.4492  0.0366 -2.6661
 3849SOL    HW223010   4.060   1.403   5.327 -1.2948 -0.9413 -1.3813
 3850SOL     OW23011   2.748   3.313   8.585 -0.2441  0.4422 -0.5065
 3850SOL    HW123012   2.824   3.322   8.642 -0.8792  0.9269  0.2662
 3850SOL    HW223013   2.676   3.351   8.635 -0.7461 -2.8377  1.2994
 3851SOL     OW23014   1.268   1.878  15.937 -0.4703 -0.0649  0.3017
 3851SOL    HW123015   1.269   1.782  15.935 -2.8153 -0.1208  1.6950
 3851SOL    HW223016   1.195   1.886  15.998  0.4331  1.5228  1.1750
 3852SOL     OW23017   0.437   1.307   6.884  0.0017 -0.3829  0.1544
 3852SOL    HW123018   0.421   1.241   6.816 -0.2668 -0.3014  0.1393
 3852SOL    HW223019   0.368   1.373   6.878 -0.5537 -1.0429 -0.9451
 3853SOL     OW23020   4.428   1.807   9.624 -0.0954  0.3295  0.5330
 3853SOL    HW123021   4.519   1.835   9.630  0.0985 -0.2498  0.2865
 3853SOL    HW223022   4.432   1.712   9.616  0.0507  0.1941  2.1353
 3854SOL     OW23023   3.432   0.398   6.041  0.1459 -0.1076  0.1199
 3854SOL    HW123024   3.406   0.375   6.131 -0.8192 -1.0532 -0.3947
 3854SOL    HW223025   3.515   0.442   6.058 -0.9549  0.4687  4.0417
 3855SOL     OW23026   1.289   1.723   7.821 -0.3784 -0.0156  0.3553
 3855SOL    HW123027   1.206   1.743   7.865 -1.0338  0.3953 -1.0923
 3855SOL    HW223028   1.333   1.783   7.882 -0.6712 -0.8109  1.3536
 3856SOL     OW23029   1.293   4.344  14.442 -0.3039  0.4134  0.1245
 3856SOL    HW123030   1.286   4.334  14.537 -1.8131  1.0252  0.0746
 3856SOL    HW223031   1.351   4.420  14.435 -1.0017  0.8673 -0.6711
 3857SOL     OW23032   4.359   1.774  12.735 -0.2602  0.0500 -0.6855
 3857SOL    HW123033   4.365   1.719  12.658  0.7734 -2.6155  1.2953
 3857SOL    HW223034   4.431   1.837  12.738 -1.0835  0.9578  0.0081
 3858SOL     OW23035   4.420   4.463   6.098  0.2570 -0.2730 -0.0051
 3858SOL    HW123036   4.450   4.522   6.166 -2.1969  1.8909 -0.8182
 3858SOL    HW223037   4.411   4.522   6.023 -0.1092  0.8428  0.9356
 3859SOL     OW23038   0.172   1.616  17.512 -0.0681 -0.2811 -0.1927
 3859SOL    HW123039   0.238   1.558  17.551  0.3408 -0.4226 -1.0845
 3859SOL    HW223040   0.205   1.626  17.423 -1.8579  0.4785 -0.7655
 3860SOL     OW23041   3.861   1.943   8.260  0.0226  0.1012  0.1827
 3860SOL    HW123042   3.935   2.002   8.274  0.8791 -1.0784  0.5408
 3860SOL    HW223043   3.806   1.975   8.332  0.5986 -0.3705  0.8266
 3861SOL     OW23044   3.361   2.697   7.877 -0.1658 -0.2994 -0.2964
 3861SOL    HW123045   3.377   2.738   7.962 -2.1701  0.2831 -0.1932
 3861SOL    HW223046   3.414   2.750   7.818  0.2536  0.3447  0.6677
 3862SOL     OW23047   0.058   1.168  12.244  0.4153  0.5256  0.1566
 3862SOL    HW123048   0.028   1.201  12.328  0.6432 -0.4858  0.6415
 3862SOL    HW223049   4.710   1.108  12.230 -0.4097  1.5853  0.0132
 3863SOL     OW23050   0.718   4.053   8.219  0.4729  0.1918  0.0840
 3863SOL    HW123051   0.645   4.084   8.166  1.6511  1.9253 -0.5329
 3863SOL    HW223052   0.716   4.118   8.290 -3.2102  0.3596 -0.1582
 3864SOL     OW23053   4.027   4.411   8.368  0.0391  0.5115 -0.0048
 3864SOL    HW123054   4.036   4.334   8.424 -4.7950  1.3572  1.8880
 3864SOL    HW223055   4.079   4.486   8.398  0.3589  0.0355  0.6655
 3865SOL     OW23056   1.769   1.882   7.832  0.0861  0.2724 -0.4160
 3865SOL    HW123057   1.714   1.811   7.866  0.7765  0.7209  1.6213
 3865SOL    HW223058   1.831   1.895   7.904 -0.5836 -1.0421  0.4052
 3866SOL     OW23059   1.425   0.446   3.825  0.1547  0.3278 -0.0708
 3866SOL    HW123060   1.398   0.386   3.756 -1.4554  2.2256 -1.0773
 3866SOL    HW223061   1.423   0.532   3.783  2.1872  0.3057 -0.2489
 3867SOL     OW23062   4.440   4.564   7.218 -0.0069 -0.0850  0.6780
 3867SOL    HW123063   4.492   4.623   7.163 -0.1176  0.5503  1.2503
 3867SOL    HW223064   4.352   4.570   7.180 -0.0548  0.0960  0.8216
 3868SOL     OW23065   4.049   3.193  17.350  0.0361  0.0277  0.3146
 3868SOL    HW123066   4.057   3.221  17.258 -1.4682  1.5691  0.6555
 3868SOL    HW223067   3.976   3.132  17.347 -0.0320  0.2497 -2.6065
 3869SOL     OW23068   2.749   1.203  11.553  0.2643  0.1809  0.0479
 3869SOL    HW123069   2.750   1.128  11.493  0.0258 -1.3782  2.0024
 3869SOL    HW223070   2.756   1.276  11.491  0.1267 -0.9894 -1.3616
 3870SOL     OW23071   0.784   0.794  15.105  0.7957  0.3176  0.2449
 3870SOL    HW123072   0.754   0.802  15.014  1.0903 -1.1474  0.0042
 3870SOL    HW223073   0.710   0.745  15.142 -0.7006  1.9533 -0.6038
 3871SOL     OW23074   4.064   1.882  17.389  0.5724 -0.6209  0.3749
 3871SOL    HW123075   4.007   1.934  17.332  3.6884  2.3136 -0.0263
 3871SOL    HW223076   4.061   1.790  17.361  1.3676 -0.4776 -0.1894
 3872SOL     OW23077   1.180   0.437  17.245  0.0395  0.3180  0.2777
 3872SOL    HW123078   1.245   0.505  17.229  3.1439 -2.7538 -0.0619
 3872SOL    HW223079   1.204   0.364  17.188  0.0591 -1.0775  2.1014
 3873SOL     OW23080   4.525   4.191   3.073  0.0460 -0.5891 -0.2705
 3873SOL    HW123081   4.561   4.192   3.161  0.5782  2.0585 -0.5179
 3873SOL    HW223082   4.543   4.278   3.037  0.8591 -0.7560 -0.2654
 3874SOL     OW23083   3.837   1.564   6.170 -0.6932 -0.2960  0.4395
 3874SOL    HW123084   3.857   1.577   6.262  0.4337  1.4073 -0.0509
 3874SOL    HW223085   3.748   1.598   6.160 -1.0076 -1.0470  0.6383
 3875SOL     OW23086   1.499   3.369   2.964 -0.7694  0.4463 -0.1580
 3875SOL    HW123087   1.471   3.277   2.957  1.1562 -0.0196 -1.4608
 3875SOL    HW223088   1.569   3.368   2.899  0.3276  1.8878  1.0049
 3876SOL     OW23089   1.376   0.134   5.248 -0.3991 -0.3103  0.7635
 3876SOL    HW123090   1.444   0.114   5.183  1.1030  1.0480  1.9157
 3876SOL    HW223091   1.345   0.044   5.258 -1.7300  0.2241  1.4462
 3877SOL     OW23092   3.700   0.309   1.542 -0.0188  0.4971  0.8500
 3877SOL    HW123093   3.698   0.306   1.447  1.5623 -0.5548  0.8487
 3877SOL    HW223094   3.671   0.222   1.567 -0.9044  0.2207 -1.1623
 3878SOL     OW23095   3.148   4.440   7.538  0.2469  0.0908 -0.1747
 3878SOL    HW123096   3.062   4.425   7.579 -0.0463  0.8759 -0.5030
 3878SOL    HW223097   3.209   4.381   7.583  2.5936  0.1606 -3.3009
 3879SOL     OW23098   4.037   3.557   4.669  0.0245  0.5300  0.1950
 3879SOL    HW123099   3.982   3.558   4.747 -0.2664 -2.2620  0.0042
 3879SOL    HW223100   4.053   3.463   4.671 -0.4430  0.4266 -0.9338
 3880SOL     OW23101   3.758   1.579  10.399 -0.6162 -0.5395 -0.1406
 3880SOL    HW123102   3.804   1.498  10.377 -1.1982 -1.6326  2.5913
 3880SOL    HW223103   3.723   1.613  10.317 -1.9168  1.0535  1.0711
 3881SOL     OW23104   1.479   3.624   3.550  0.2082  0.0057 -0.3436
 3881SOL    HW123105   1.399   3.608   3.500 -0.0580 -1.8148  0.6711
 3881SOL    HW223106   1.514   3.535   3.557 -2.1470 -0.9179 -0.3737
 3882SOL     OW23107   2.450   3.651  16.149  0.3405 -0.3712  0.1602
 3882SOL    HW123108   2.520   3.688  16.095  0.6444 -0.2237  0.6530
 3882SOL    HW223109   2.494   3.585  16.203 -0.4635 -1.3022 -0.3160
 3883SOL     OW23110   4.675   4.601   7.914  0.0139  0.2784  0.1006
 3883SOL    HW123111   4.712   4.517   7.890  0.9875  0.9249 -0.6525
 3883SOL    HW223112   4.592   4.598   7.866 -0.7724 -0.7040  1.5197
 3884SOL     OW23113   2.497   1.649   3.642 -0.3810  0.3807 -0.2820
 3884SOL    HW123114   2.545   1.725   3.609  0.5288  0.2590  0.7463
 3884SOL    HW223115   2.563   1.604   3.695 -0.3092  0.6331 -0.1531
 3885SOL     OW23116   4.341   0.201   4.438 -0.0479  0.5506 -0.0856
 3885SOL    HW123117   4.414   0.246   4.395  1.6855 -1.4987  0.7351
 3885SOL    HW223118   4.351   0.225   4.530 -1.2583 -1.8747  0.6807
 3886SOL     OW23119   3.485   0.165  17.301 -0.2429  0.1672 -0.3615
 3886SOL    HW123120   3.580   0.161  17.313 -0.1286 -0.2720 -1.4264
 3886SOL    HW223121   3.474   0.240  17.243  0.3055  0.3070 -0.2823
 3887SOL     OW23122   3.010   3.456  11.183  0.3050  0.0235 -0.0565
 3887SOL    HW123123   2.967   3.373  11.163 -0.6955  0.9594 -1.8338
 3887SOL    HW223124   2.998   3.506  11.102 -1.2687  2.5035  1.6886
 3888SOL     OW23125   0.851   4.345   5.417 -0.7046  0.5111 -0.0536
 3888SOL    HW123126   0.835   4.320   5.508 -0.0155  1.3516  0.2939
 3888SOL    HW223127   0.925   4.405   5.415 -1.1142  1.0662  1.7661
 3889SOL     OW23128   0.752   1.845  14.879 -0.3483  0.5670 -1.0411
 3889SOL    HW123129   0.769   1.751  14.883 -2.0230  0.3363  0.9969
 3889SOL    HW223130   0.753   1.868  14.972  1.1520  1.7407 -1.3388
 3890SOL     OW23131   1.037   2.948   7.268  0.1564 -0.8314  0.3517
 3890SOL    HW123132   1.038   3.008   7.343  1.0480  0.0347 -0.3526
 3890SOL    HW223133   1.129   2.942   7.243  0.3420 -1.8579  1.2861
 3891SOL     OW23134   2.681   3.916   0.870 -0.0412  0.0860 -0.1853
 3891SOL    HW123135   2.608   3.918   0.932  0.3384  2.2788  0.1923
 3891SOL    HW223136   2.719   3.828   0.877 -1.2499 -0.6390 -2.7947
 3892SOL     OW23137   2.187   3.630   6.813 -0.1106  0.4635 -0.5855
 3892SOL    HW123138   2.163   3.633   6.905 -0.5475 -1.6386 -0.6270
 3892SOL    HW223139   2.269   3.680   6.813  0.5626 -0.6280 -1.3349
 3893SOL     OW23140   3.998   1.235   4.145 -0.2741  0.4110  0.5727
 3893SOL    HW123141   3.933   1.244   4.214  2.2055  0.8922  2.8662
 3893SOL    HW223142   3.946   1.206   4.071  1.5217  1.5650 -1.1360
 3894SOL     OW23143   0.289   3.461   4.315  0.7659 -0.1176  0.2080
 3894SOL    HW123144   0.248   3.449   4.229 -0.0674  0.0783  0.5762
 3894SOL    HW223145   0.336   3.544   4.303  0.6690 -0.0336  0.4088
 3895SOL     OW23146   3.511   4.124   3.610 -0.0808 -0.1192 -0.3394
 3895SOL    HW123147   3.562   4.045   3.594 -2.7628 -1.7917 -0.5096
 3895SOL    HW223148   3.571   4.183   3.656  0.3795 -1.0703  0.2754
 3896SOL     OW23149   3.486   1.626   9.594 -0.5044 -1.1192 -0.2246
 3896SOL    HW123150   3.470   1.580   9.511 -1.2053 -0.5999 -0.3756
 3896SOL    HW223151   3.555   1.683   9.560 -1.6133 -1.6250 -3.3952
 3897SOL     OW23152   0.866   1.957   4.347 -0.4646  0.3958  0.0796
 3897SOL    HW123153   0.857   2.047   4.379 -1.0683  0.3097  0.1340
 3897SOL    HW223154   0.818   1.967   4.265  0.6239  0.4490 -0.5591
 3898SOL     OW23155   4.643   3.599  17.022  0.1649  0.3365  0.0352
 3898SOL    HW123156   4.708   3.639  17.080 -0.2692  0.9683  0.0850
 3898SOL    HW223157   4.623   3.517  17.068  0.4791  0.8938  1.1605
 3899SOL     OW23158   4.636   3.635   4.670 -0.5731 -0.1019 -0.5845
 3899SOL    HW123159   4.557   3.587   4.694 -1.2700 -0.3283 -3.2867
 3899SOL    HW223160   4.652   3.625   4.576  2.1987 -2.5961  0.1738
 3900SOL     OW23161   3.831   0.492  15.879  0.2559  0.7042 -0.2411
 3900SOL    HW123162   3.773   0.417  15.865  0.5496  0.2623  0.9533
 3900SOL    HW223163   3.809   0.514  15.970 -0.4307  1.0957 -0.4956
 3901SOL     OW23164   2.046   4.224   1.465 -0.2597  0.0103  0.2181
 3901SOL    HW123165   1.976   4.162   1.484 -0.6663  0.3687 -0.1008
 3901SOL    HW223166   2.036   4.276   1.545  0.6356 -0.1484  0.4346
 3902SOL     OW23167   4.584   2.206  11.026 -0.2130  0.2735 -0.5396
 3902SOL    HW123168   4.552   2.117  11.017  1.9816 -0.7777  2.3096
 3902SOL    HW223169   4.635   2.205  10.945 -1.8739  2.7122 -1.6144
 3903SOL     OW23170   1.937   0.649   4.939  0.1455  0.5396  0.2309
 3903SOL    HW123171   2.017   0.686   4.974  0.4153  0.8471 -0.7070
 3903SOL    HW223172   1.877   0.684   5.006 -0.8604 -2.7449  1.0571
 3904SOL     OW23173   3.422   3.111   7.729  0.4135 -0.2453  0.1081
 3904SOL    HW123174   3.382   3.143   7.810  1.1069 -0.8797  0.7062
 3904SOL    HW223175   3.387   3.174   7.666 -2.3566 -0.1661  1.7726
 3905SOL     OW23176   1.582   3.778   8.139  0.0503 -0.2481 -0.0030
 3905SOL    HW123177   1.541   3.692   8.130  0.9748 -0.6559 -0.2997
 3905SOL    HW223178   1.628   3.797   8.058  0.5383 -2.3871 -0.2249
 3906SOL     OW23179   4.461   3.863   5.113 -0.2903 -0.3323 -0.4207
 3906SOL    HW123180   4.418   3.842   5.196  0.1665  0.7879  0.0946
 3906SOL    HW223181   4.380   3.882   5.065 -0.7629 -1.2114  0.0301
 3907SOL     OW23182   4.491   4.658   9.702  0.6879  0.6049 -0.1514
 3907SOL    HW123183   4.569   4.606   9.718  0.9745  1.1118  0.0824
 3907SOL    HW223184   4.513   4.702   9.620  1.0302 -1.0547 -0.9403
 3908SOL     OW23185   0.361   4.331   5.382 -0.3119  0.0215 -0.0818
 3908SOL    HW123186   0.304   4.258   5.405 -1.5026  0.4583 -1.6270
 3908SOL    HW223187   0.337   4.352   5.292 -3.2766 -1.7126  0.3144
 3909SOL     OW23188   1.327   0.258   4.364 -0.0253 -0.8866 -0.2351
 3909SOL    HW123189   1.381   0.183   4.387  1.0252 -0.9830 -3.0417
 3909SOL    HW223190   1.393   0.327   4.367 -0.3540 -0.5894  0.1285
 3910SOL     OW23191   3.690   1.726   4.873  0.1534 -0.3163 -0.2020
 3910SOL    HW123192   3.780   1.758   4.869  0.1323 -0.4418 -1.7202
 3910SOL    HW223193   3.681   1.693   4.963 -1.6586  2.6298  0.7051
 3911SOL     OW23194   0.091   4.046  13.426  0.5613 -0.1956  0.5392
 3911SOL    HW123195   0.009   3.999  13.416  1.0643 -1.1737  1.0289
 3911SOL    HW223196   0.157   3.981  13.402 -1.0740 -1.8131  0.4319
 3912SOL     OW23197   1.547   3.150   7.206 -0.2714 -0.2747  0.3029
 3912SOL    HW123198   1.594   3.213   7.151 -0.6799  1.4941  1.9951
 3912SOL    HW223199   1.623   3.096   7.227 -0.4274 -0.2442  0.9348
 3913SOL     OW23200   3.317   4.430   3.520 -0.3672  0.3244  0.0544
 3913SOL    HW123201   3.334   4.486   3.445 -1.1236 -0.2434 -0.5461
 3913SOL    HW223202   3.309   4.351   3.466  2.1537  0.1239 -0.0300
 3914SOL     OW23203   0.523   1.068   4.185 -0.6604 -0.0165 -0.0123
 3914SOL    HW123204   0.608   1.066   4.142 -0.5464 -1.1770  0.2647
 3914SOL    HW223205   0.500   1.160   4.192 -0.4698  0.0772 -0.5931
 3915SOL     OW23206   4.623   1.432   2.981  0.0151  0.1955 -0.2343
 3915SOL    HW123207   4.552   1.458   2.922 -0.3396  1.2201  0.6524
 3915SOL    HW223208   4.688   1.438   2.911 -0.6161 -1.2348 -0.9489
 3916SOL     OW23209   2.448   0.433  13.044  0.4678  0.2434  0.0868
 3916SOL    HW123210   2.360   0.417  13.080 -0.7395  0.2287 -2.9050
 3916SOL    HW223211   2.429   0.488  12.969  0.0263 -1.0686 -0.7534
 3917SOL     OW23212   1.854   3.114   4.687  0.0077  0.0491  0.4243
 3917SOL    HW123213   1.844   3.190   4.743  0.1905  0.6292 -0.3359
 3917SOL    HW223214   1.815   3.141   4.604 -2.5373  0.8098  1.8875
 3918SOL     OW23215   3.372   3.765   4.311 -0.1219 -0.0236 -0.3817
 3918SOL    HW123216   3.435   3.702   4.276  0.5935  0.0606  0.7603
 3918SOL    HW223217   3.428   3.836   4.341 -1.9256  0.4834  1.7905
 3919SOL     OW23218   4.678   2.392   7.698 -0.3104 -0.0741  0.0809
 3919SOL    HW123219   0.004   2.434   7.628 -0.8061  0.5007  0.0658
 3919SOL    HW223220   4.707   2.454   7.765 -1.6890 -0.8666  1.3996
 3920SOL     OW23221   2.399   4.306  11.148  0.2194 -0.5118  0.4274
 3920SOL    HW123222   2.381   4.262  11.065 -1.0583  0.7351  0.0321
 3920SOL    HW223223   2.331   4.374  11.152 -0.8194 -1.5545  0.4166
 3921SOL     OW23224   3.060   2.729   6.018 -0.2225 -0.3398  0.1625
 3921SOL    HW123225   3.097   2.770   6.097 -0.6254  0.3478 -0.0101
 3921SOL    HW223226   3.066   2.634   6.027  1.4060 -0.1334  1.3524
 3922SOL     OW23227   0.735   4.506  13.298  0.3937 -0.2239 -0.0493
 3922SOL    HW123228   0.649   4.525  13.336  0.2719 -1.4944  0.3008
 3922SOL    HW223229   0.740   4.411  13.291  0.7618 -0.2821  0.9411
 3923SOL     OW23230   2.207   0.180   9.084  0.0969  0.1662 -0.6903
 3923SOL    HW123231   2.241   0.093   9.064  2.1791  1.0298 -0.8613
 3923SOL    HW223232   2.153   0.149   9.158  0.9915 -0.5322 -0.3279
 3924SOL     OW23233   4.106   3.149   3.052 -0.3507  0.3485 -0.0487
 3924SOL    HW123234   4.183   3.118   3.099 -1.0948 -1.8438 -0.2895
 3924SOL    HW223235   4.144   3.186   2.973  0.1274 -1.3084 -0.5899
 3925SOL     OW23236   2.274   2.369   1.165 -0.1196  0.3556  0.5436
 3925SOL    HW123237   2.208   2.316   1.121 -0.6269  0.7003  0.9004
 3925SOL    HW223238   2.259   2.460   1.140  2.0808  0.8531  1.0242
 3926SOL     OW23239   1.646   0.016   2.374 -0.7718  0.3041 -0.1828
 3926SOL    HW123240   1.592   0.048   2.447  2.3593  0.6027  1.9786
 3926SOL    HW223241   1.627   4.647   2.370 -0.1742  0.3605 -4.5798
 3927SOL     OW23242   2.686   4.697   7.068 -0.2463  0.2603  0.2068
 3927SOL    HW123243   2.694   0.040   7.134  0.8961 -0.5463  0.9087
 3927SOL    HW223244   2.778   4.675   7.054 -0.6448 -0.8481 -0.6575
 3928SOL     OW23245   0.058   3.828   7.532 -0.3531 -0.3713  0.1208
 3928SOL    HW123246   0.133   3.841   7.475 -1.2844  0.7711 -0.8448
 3928SOL    HW223247   0.011   3.757   7.488 -0.3691 -0.1958 -0.1446
 3929SOL     OW23248   0.206   4.094   5.428 -0.2255  0.4413 -0.2999
 3929SOL    HW123249   0.190   4.130   5.516 -0.2672 -4.1529  1.5848
 3929SOL    HW223250   0.203   3.999   5.443  1.0253  0.0410 -2.6615
 3930SOL     OW23251   3.390   4.687   9.786 -0.1112  0.2121 -0.8058
 3930SOL    HW123252   3.359   0.040   9.831 -0.9599 -1.0940  0.9050
 3930SOL    HW223253   3.479   4.684   9.822 -0.4870 -2.3669 -0.0569
 3931SOL     OW23254   2.257   0.116   8.619 -0.1166 -0.0689  1.1095
 3931SOL    HW123255   2.226   0.163   8.541  3.4350  0.3140 -0.0805
 3931SOL    HW223256   2.170   0.084   8.643 -1.2614  1.6272 -0.8391
 3932SOL     OW23257   3.480   0.510  17.029  0.2668  0.2850  0.3538
 3932SOL    HW123258   3.497   0.423  16.992 -1.2712 -0.1988  0.7862
 3932SOL    HW223259   3.466   0.546  16.942  1.7314 -1.1308 -0.4744
 3933SOL     OW23260   2.953   2.386  17.078 -0.0772 -0.0095  0.3077
 3933SOL    HW123261   3.008   2.462  17.100  0.6249 -1.2286  2.8034
 3933SOL    HW223262   2.867   2.425  17.089 -0.5399 -0.4206 -1.9448
 3934SOL     OW23263   1.905   2.384   8.346 -0.0351 -0.0576 -0.5376
 3934SOL    HW123264   1.860   2.468   8.342 -0.2252 -0.1360  0.0069
 3934SOL    HW223265   1.949   2.395   8.430 -1.5515 -0.6141  0.3192
 3935SOL     OW23266   3.256   0.816   6.869 -0.5829  0.2139 -0.3540
 3935SOL    HW123267   3.228   0.754   6.937 -0.8081  1.4832  0.7032
 3935SOL    HW223268   3.271   0.887   6.931 -0.5909  1.9187 -2.3162
 3936SOL     OW23269   0.028   3.222   8.270 -0.2544  0.0826  0.0841
 3936SOL    HW123270   4.723   3.290   8.210  0.9120  1.1238  0.6862
 3936SOL    HW223271   0.120   3.245   8.285 -0.5903 -1.3259  4.1747
 3937SOL     OW23272   0.281   3.244  14.172 -0.6897  0.3240  0.3792
 3937SOL    HW123273   0.238   3.270  14.254 -1.5803 -2.4116  0.7920
 3937SOL    HW223274   0.221   3.285  14.109 -0.0725 -0.6501 -0.8306
 3938SOL     OW23275   4.562   3.612   5.383 -0.4276 -0.1697  0.0797
 3938SOL    HW123276   4.542   3.520   5.366 -3.5798  0.9457 -2.1305
 3938SOL    HW223277   4.509   3.614   5.462  0.1260  0.2645  0.4387
 3939SOL     OW23278   2.345   4.319   8.623 -0.4538 -0.6886  0.2347
 3939SOL    HW123279   2.317   4.373   8.698 -0.7294 -2.0155  1.0840
 3939SOL    HW223280   2.342   4.387   8.556  3.1094 -0.1870  0.5844
 3940SOL     OW23281   1.605   2.323   2.381 -0.1737 -0.1205 -0.0879
 3940SOL    HW123282   1.551   2.278   2.316 -2.1255 -1.6423  2.5790
 3940SOL    HW223283   1.568   2.410   2.367  0.5887  0.0984 -0.7319
 3941SOL     OW23284   1.155   0.954  10.278  0.6423  0.3280 -0.1234
 3941SOL    HW123285   1.095   0.945  10.352 -0.7771  1.0334 -1.1951
 3941SOL    HW223286   1.116   1.039  10.256 -2.9313 -1.6422 -1.4983
 3942SOL     OW23287   0.989   3.299   3.167  0.4920  0.7794 -0.4417
 3942SOL    HW123288   1.049   3.354   3.117  0.4368  1.2520  0.0093
 3942SOL    HW223289   0.991   3.218   3.116  2.7445  0.4908  0.1413
 3943SOL     OW23290   4.055   4.223   2.778 -0.7770 -0.2188 -0.1118
 3943SOL    HW123291   4.078   4.257   2.692  2.6304 -0.4685  0.7118
 3943SOL    HW223292   4.091   4.294   2.831 -0.9413 -0.0728 -0.1977
 3944SOL     OW23293   0.542   3.700   4.965 -0.2479 -0.2966  0.7849
 3944SOL    HW123294   0.449   3.709   4.947 -0.3976  0.2484  1.8073
 3944SOL    HW223295   0.581   3.709   4.878 -0.1520 -0.8042  0.7737
 3945SOL     OW23296   2.612   1.137   8.997 -0.0749 -0.1916 -0.2930
 3945SOL    HW123297   2.580   1.070   8.937  1.4718 -0.5188 -0.7566
 3945SOL    HW223298   2.598   1.098   9.084 -1.5461 -0.0339 -0.4666
 3946SOL     OW23299   2.189   4.244   3.194 -0.1004 -0.1481 -0.5563
 3946SOL    HW123300   2.156   4.170   3.246  1.5091 -1.3650 -1.2745
 3946SOL    HW223301   2.148   4.226   3.110  0.0055 -1.2959 -0.3715
 3947SOL     OW23302   0.139   4.473   3.421  0.1992 -0.0435 -0.2282
 3947SOL    HW123303   0.074   4.411   3.388  2.0450 -1.0448 -1.9843
 3947SOL    HW223304   0.208   4.462   3.354 -0.2431 -1.9727 -0.3639
 3948SOL     OW23305   0.724   3.672  17.590  0.9715  0.0970 -0.0778
 3948SOL    HW123306   0.698   3.687  17.681  0.5271 -0.6361 -0.0867
 3948SOL    HW223307   0.684   3.746  17.544  0.4263 -0.8547 -1.1116
 3949SOL     OW23308   0.487   3.132  13.928 -0.3264  0.3853  0.8022
 3949SOL    HW123309   0.577   3.107  13.950 -0.0678  1.7343  1.2496
 3949SOL    HW223310   0.444   3.106  14.009 -0.8004 -1.2796  0.0055
 3950SOL     OW23311   0.064   0.194   8.766  0.4180  0.0481  0.1330
 3950SOL    HW123312   0.001   0.197   8.694  0.2618 -1.9899  0.1849
 3950SOL    HW223313   0.124   0.131   8.726  2.5095  0.9271  1.8861
 3951SOL     OW23314   4.321   1.554   5.657 -0.2757 -0.1668 -0.1820
 3951SOL    HW123315   4.306   1.647   5.637  1.6307 -0.4521 -2.9396
 3951SOL    HW223316   4.234   1.519   5.673  0.6728 -1.7503  1.5925
 3952SOL     OW23317   2.377   1.563   6.393 -1.0002 -0.1805 -0.3770
 3952SOL    HW123318   2.285   1.572   6.418 -1.0099  0.1270 -0.5258
 3952SOL    HW223319   2.382   1.468   6.381 -0.1628 -0.0641 -0.9960
 3953SOL     OW23320   2.250   4.080   6.263 -0.4278  0.0406  1.0099
 3953SOL    HW123321   2.177   4.115   6.314 -2.0443 -1.0751 -0.5508
 3953SOL    HW223322   2.316   4.141   6.297  1.6039 -1.3553 -0.4872
 3954SOL     OW23323   4.298   2.941   9.266 -0.1424 -0.1956 -0.4777
 3954SOL    HW123324   4.311   2.877   9.337  0.7341  0.4032 -0.0923
 3954SOL    HW223325   4.211   2.964   9.297  0.2970 -1.1227  1.4674
 3955SOL     OW23326   3.111   4.240   7.303 -0.5119  0.6188  0.5873
 3955SOL    HW123327   3.157   4.319   7.275  0.2105  0.1793  0.5598
 3955SOL    HW223328   3.088   4.216   7.213 -2.8513  3.2551  0.4733
 3956SOL     OW23329   2.658   4.702   6.786 -0.4658  0.4328 -0.1817
 3956SOL    HW123330   2.675   0.071   6.774 -1.5008  0.7212  0.6018
 3956SOL    HW223331   2.637   4.685   6.877  1.8006  0.6283  0.3723
 3957SOL     OW23332   3.996   1.193   2.638  0.0450 -0.1116  0.5663
 3957SOL    HW123333   3.906   1.183   2.606 -0.1666  2.4196  0.4165
 3957SOL    HW223334   4.037   1.256   2.579 -0.6964  0.2093  0.4000
 3958SOL     OW23335   2.181   4.476   7.134 -0.9776  0.4436  0.9881
 3958SOL    HW123336   2.235   4.463   7.056 -0.3479 -0.7638  1.6187
 3958SOL    HW223337   2.205   4.408   7.198 -1.1473  0.9042  1.5418
 3959SOL     OW23338   3.501   1.426   3.258 -0.1379  0.2810 -0.0486
 3959SOL    HW123339   3.456   1.509   3.246 -0.9694 -0.1777 -0.0765
 3959SOL    HW223340   3.591   1.449   3.281  0.8287 -2.4962 -1.0426
 3960SOL     OW23341   3.855   3.865  14.478  0.2575 -0.0361 -0.3056
 3960SOL    HW123342   3.773   3.903  14.448  0.8894  3.2460  2.1688
 3960SOL    HW223343   3.920   3.900  14.417  0.3618 -0.8498 -0.6692
 3961SOL     OW23344   1.797   0.629  13.830 -0.6698 -0.0416 -0.2616
 3961SOL    HW123345   1.878   0.654  13.784  0.6001 -3.3385  0.1950
 3961SOL    HW223346   1.763   0.569  13.764 -0.2251  0.1556 -0.6736
 3962SOL     OW23347   1.689   0.393   2.250 -0.6104 -0.4499  0.3745
 3962SOL    HW123348   1.654   0.441   2.325 -3.8784 -1.7274 -0.3534
 3962SOL    HW223349   1.642   0.311   2.262 -0.0994 -0.3979  2.6929
 3963SOL     OW23350   0.185   2.664   9.813  0.3477 -0.6113 -0.1833
 3963SOL    HW123351   0.252   2.663   9.745  0.6383 -0.7085  0.1027
 3963SOL    HW223352   0.203   2.587   9.868  0.0930  2.2520  3.9081
 3964SOL     OW23353   3.868   1.489   7.996  0.0581 -0.1331 -0.1286
 3964SOL    HW123354   3.861   1.569   8.047 -1.7451  0.3213 -1.1104
 3964SOL    HW223355   3.961   1.467   8.008  0.0845 -0.3594 -0.7361
 3965SOL     OW23356   4.625   1.655   3.786  0.1412  0.4642 -0.4320
 3965SOL    HW123357   4.536   1.635   3.759  0.4234  0.2071 -1.1852
 3965SOL    HW223358   4.609   1.646   3.880 -1.2806  1.3246 -0.5929
 3966SOL     OW23359   3.513   1.422   2.388 -0.0803 -0.4008  0.2976
 3966SOL    HW123360   3.455   1.430   2.464  0.8941  0.9565  0.8943
 3966SOL    HW223361   3.496   1.503   2.341  0.2155  0.6502  1.9956
 3967SOL     OW23362   1.191   4.621  13.514 -0.1164 -0.7535 -0.0233
 3967SOL    HW123363   1.236   4.705  13.500  2.2751 -2.0383  0.0322
 3967SOL    HW223364   1.251   4.580  13.576  0.2246 -0.4457 -0.1482
 3968SOL     OW23365   4.517   2.248  16.435  0.1618 -0.0404  0.5769
 3968SOL    HW123366   4.523   2.342  16.450 -0.5867  0.0727  0.1882
 3968SOL    HW223367   4.492   2.240  16.343  0.9135 -0.5154  0.4123
 3969SOL     OW23368   1.195   3.574   9.815  0.1858  0.3724 -1.1578
 3969SOL    HW123369   1.122   3.534   9.862  1.2622 -0.7972 -0.4870
 3969SOL    HW223370   1.154   3.622   9.743  1.2744  0.9497 -1.3795
 3970SOL     OW23371   2.507   2.375   4.143 -0.1059 -0.2596  0.3945
 3970SOL    HW123372   2.440   2.443   4.157 -1.1406 -1.7960  2.9893
 3970SOL    HW223373   2.451   2.317   4.093 -0.0301 -0.9343  1.0886
 3971SOL     OW23374   1.917   2.190   3.292  0.1262  0.3610  0.2728
 3971SOL    HW123375   1.961   2.115   3.333  3.6795  2.6399  0.6453
 3971SOL    HW223376   1.935   2.163   3.201 -0.3018  1.8038 -0.2393
 3972SOL     OW23377   0.795   3.927  12.645 -0.6404 -0.1267 -0.1698
 3972SOL    HW123378   0.873   3.953  12.595 -0.5086  2.6138  1.4667
 3972SOL    HW223379   0.830   3.852  12.693  0.9848  1.5476  1.2650
 3973SOL     OW23380   4.595   0.702   3.759  0.6969 -0.5680 -0.1256
 3973SOL    HW123381   4.666   0.673   3.701  0.8098  3.2754 -1.9063
 3973SOL    HW223382   4.645   0.760   3.816  1.3358 -0.3733 -0.8795
 3974SOL     OW23383   2.285   3.979   5.767 -0.2858  0.6527  0.0219
 3974SOL    HW123384   2.309   4.051   5.825  0.1749 -0.3279  1.0502
 3974SOL    HW223385   2.190   3.972   5.779 -0.3763  1.4474 -0.2428
 3975SOL     OW23386   4.145   4.414   6.496 -0.1237 -0.3184  0.6522
 3975SOL    HW123387   4.126   4.506   6.475 -0.3094 -0.3109  0.8441
 3975SOL    HW223388   4.226   4.420   6.546  1.9333  0.2406 -2.7290
 3976SOL     OW23389   0.824   4.385   1.733  0.2627  0.3970 -0.3329
 3976SOL    HW123390   0.892   4.344   1.787  0.1234 -3.1902 -2.8938
 3976SOL    HW223391   0.870   4.451   1.681  0.9991  0.5594  0.5144
 3977SOL     OW23392   3.222   3.590   3.159  0.2508 -0.0377 -0.0707
 3977SOL    HW123393   3.179   3.572   3.075 -1.7703  0.0306  0.9515
 3977SOL    HW223394   3.162   3.657   3.191 -0.0313 -0.8179  1.0431
 3978SOL     OW23395   2.870   0.252  17.084 -0.0557  0.0399  0.3773
 3978SOL    HW123396   2.777   0.239  17.106 -0.0970  0.9802  0.7305
 3978SOL    HW223397   2.857   0.310  17.009 -0.1040  0.0863  0.4220
 3979SOL     OW23398   2.363   2.539   0.180  0.0116 -0.3952  0.3148
 3979SOL    HW123399   2.457   2.525   0.195  0.2900  0.8592 -0.2538
 3979SOL    HW223400   2.351   2.505   0.092 -1.4066 -2.4953  1.3195
 3980SOL     OW23401   0.031   3.965   2.979 -0.1916  0.1664  0.3641
 3980SOL    HW123402   4.666   3.986   2.953 -0.0574  0.7537  0.3670
 3980SOL    HW223403   0.056   4.048   3.021 -0.5614 -0.2440  1.3992
 3981SOL     OW23404   1.240   1.958  17.207 -0.9347 -0.7080  0.0593
 3981SOL    HW123405   1.262   1.992  17.294  0.2530 -0.9065 -0.1561
 3981SOL    HW223406   1.241   2.042  17.162 -1.1496 -0.8812 -0.2717
 3982SOL     OW23407   4.342   0.260  15.810  0.3226  0.0232 -0.5264
 3982SOL    HW123408   4.259   0.226  15.844  0.3013 -0.3660 -0.9646
 3982SOL    HW223409   4.317   0.343  15.769 -1.0945 -0.7006 -1.1397
 3983SOL     OW23410   3.183   1.139   8.760  0.0319  0.3048 -0.7824
 3983SOL    HW123411   3.199   1.230   8.735  0.7900  0.5149  0.4617
 3983SOL    HW223412   3.155   1.119   8.670 -0.6586 -1.5518 -0.1572
 3984SOL     OW23413   1.903   1.965   5.771  0.5919  0.0916  0.1096
 3984SOL    HW123414   1.881   2.055   5.796  0.0969  0.0063 -0.0288
 3984SOL    HW223415   1.838   1.947   5.703  2.2613  0.9221 -1.6992
 3985SOL     OW23416   2.698   1.850  15.204  0.7194  0.1668 -0.4954
 3985SOL    HW123417   2.733   1.890  15.283  1.1541  2.1127 -1.6508
 3985SOL    HW223418   2.635   1.912  15.167  0.5255  0.7731  0.8729
 3986SOL     OW23419   4.149   3.879   7.024 -0.0326 -0.3714  0.4726
 3986SOL    HW123420   4.239   3.850   7.010 -0.2597 -1.4497  1.1786
 3986SOL    HW223421   4.139   3.836   7.109 -0.6433  0.5557  0.8679
 3987SOL     OW23422   0.839   2.214   6.816  0.1595  0.2215 -0.6435
 3987SOL    HW123423   0.905   2.283   6.817  0.0695  0.3377 -2.2221
 3987SOL    HW223424   0.861   2.157   6.890  2.3409  1.2133 -0.5398
 3988SOL     OW23425   3.759   0.103  15.310  0.2844 -0.2773 -0.1728
 3988SOL    HW123426   3.733   0.014  15.290  0.5319 -0.0970 -1.3021
 3988SOL    HW223427   3.834   0.117  15.251  0.6201  1.1037  0.5803
 3989SOL     OW23428   3.964   0.553   0.131 -0.3801  0.1736  0.5178
 3989SOL    HW123429   3.970   0.459   0.149  1.0079  0.1352 -0.1293
 3989SOL    HW223430   3.914   0.551   0.049 -0.7459 -0.1644  0.7526
 3990SOL     OW23431   3.829   1.593   5.799  0.0701  0.2960 -0.3830
 3990SOL    HW123432   3.741   1.616   5.770 -0.3758 -1.6790 -0.6215
 3990SOL    HW223433   3.800   1.545   5.876 -1.9781 -1.5357 -2.2820
 3991SOL     OW23434   0.513   3.716   2.793  0.1499  0.0723 -0.1345
 3991SOL    HW123435   0.524   3.660   2.717 -3.6658  1.6685 -1.8889
 3991SOL    HW223436   0.448   3.784   2.773 -0.2301  0.1400  1.3251
 3992SOL     OW23437   2.818   1.815   4.971 -0.0858 -0.1215 -0.1282
 3992SOL    HW123438   2.860   1.900   4.984  3.9511 -2.3820  1.3081
 3992SOL    HW223439   2.773   1.811   5.056 -1.1026 -1.5417 -0.7282
 3993SOL     OW23440   2.076   0.120   6.983 -0.6379  0.1373  0.6161
 3993SOL    HW123441   2.012   0.061   7.021 -1.5749  0.6664 -0.1232
 3993SOL    HW223442   2.160   0.098   7.022 -1.9855 -3.8971  1.1747
 3994SOL     OW23443   4.558   1.360  15.134 -0.1207  0.3977  0.1781
 3994SOL    HW123444   4.592   1.380  15.047  0.3575 -0.2981  0.2122
 3994SOL    HW223445   4.591   1.271  15.144 -2.4844 -0.2726  1.9858
 3995SOL     OW23446   4.676   0.204   8.266  0.2148  0.3930  0.4268
 3995SOL    HW123447   4.621   0.152   8.325  1.6971 -2.4959 -0.7278
 3995SOL    HW223448   0.004   0.138   8.222 -1.7441  0.0811 -1.4717
 3996SOL     OW23449   3.069   2.491   7.868 -0.0568 -0.0352 -0.1012
 3996SOL    HW123450   3.080   2.583   7.893  0.6214  0.1273 -1.0180
 3996SOL    HW223451   3.036   2.506   7.779 -2.5488  3.4706  1.3627
 3997SOL     OW23452   4.435   2.507   4.268 -0.0637  0.2961  0.4604
 3997SOL    HW123453   4.394   2.564   4.203 -1.1840 -1.1216 -0.0602
 3997SOL    HW223454   4.452   2.563   4.343  0.8669  1.8665 -0.9211
 3998SOL     OW23455   0.249   1.303   2.616  0.6153  0.0925  0.2572
 3998SOL    HW123456   0.200   1.270   2.541 -2.3565 -0.7795  2.5827
 3998SOL    HW223457   0.322   1.241   2.621 -1.3241 -2.2399 -0.6317
 3999SOL     OW23458   1.464   0.790   5.697 -0.5252  0.6684 -0.1437
 3999SOL    HW123459   1.441   0.815   5.786 -1.3075  3.3848 -1.1028
 3999SOL    HW223460   1.376   0.775   5.661 -0.5065  1.6788 -0.6107
 4000SOL     OW23461   0.185   4.308  11.845  0.0560  0.0679 -0.2879
 4000SOL    HW123462   0.165   4.399  11.823  0.4628  0.9418  2.8610
 4000SOL    HW223463   0.190   4.321  11.940 -1.6623 -0.1361 -0.1725
 4001SOL     OW23464   1.843   2.071  15.917  0.0377  0.2163 -0.0241
 4001SOL    HW123465   1.863   1.977  15.919  2.4672  0.7212 -0.5083
 4001SOL    HW223466   1.749   2.060  15.899 -0.0188  0.1302  0.3367
 4002SOL     OW23467   1.651   0.794  16.725  0.0675  0.0525  0.0521
 4002SOL    HW123468   1.691   0.881  16.722 -0.3179  0.2580  0.8496
 4002SOL    HW223469   1.669   0.769  16.816 -0.1187  2.5388  0.7834
 4003SOL     OW23470   4.215   3.659   8.327 -0.5124 -0.3076  0.4941
 4003SOL    HW123471   4.149   3.700   8.383 -1.3287 -0.8345 -0.0778
 4003SOL    HW223472   4.219   3.722   8.255 -0.5682  1.0580  1.6895
 4004SOL     OW23473   0.527   3.677  12.900  0.4311 -0.1467 -0.0976
 4004SOL    HW123474   0.522   3.718  12.814 -1.2118  2.2913  1.1747
 4004SOL    HW223475   0.464   3.727  12.951  1.6230  1.8052 -0.5510
 4005SOL     OW23476   3.423   4.173   1.567 -0.0525  0.0923  0.1939
 4005SOL    HW123477   3.411   4.139   1.478  2.4673 -0.0161 -0.1029
 4005SOL    HW223478   3.517   4.160   1.579  0.2287 -0.0004 -2.1169
 4006SOL     OW23479   0.642   4.653   3.713  0.1456  0.6456 -0.6107
 4006SOL    HW123480   0.653   0.018   3.684  4.3762  0.5330  0.6194
 4006SOL    HW223481   0.567   4.624   3.660 -0.0820  1.5744 -0.8042
 4007SOL     OW23482   1.571   1.271   6.255  0.8660 -0.2402  0.2415
 4007SOL    HW123483   1.476   1.273   6.255  0.8918  0.9098  0.3728
 4007SOL    HW223484   1.598   1.356   6.218  0.2816  0.1020  0.6218
 4008SOL     OW23485   3.602   1.735   2.523  0.0996  0.7420  0.0710
 4008SOL    HW123486   3.600   1.677   2.599  0.4984  0.5021 -0.0974
 4008SOL    HW223487   3.575   1.674   2.454 -1.6145 -0.2628  1.6586
 4009SOL     OW23488   4.016   4.588   4.900  0.1842 -0.1333 -0.2019
 4009SOL    HW123489   4.031   4.587   4.995 -0.3829 -0.4433 -0.1090
 4009SOL    HW223490   4.090   4.643   4.876  1.1981 -1.3881  0.0359
 4010SOL     OW23491   2.429   2.421   3.842  0.8614  0.8962 -0.4930
 4010SOL    HW123492   2.516   2.434   3.804  0.5359 -0.2421 -1.6294
 4010SOL    HW223493   2.419   2.328   3.820  3.5392  0.5830 -0.3199
 4011SOL     OW23494   3.473   2.769  14.787  0.4042 -0.2624  0.5790
 4011SOL    HW123495   3.383   2.788  14.759 -0.2343  1.7944  3.9721
 4011SOL    HW223496   3.467   2.819  14.868 -0.8812 -3.8025  2.7009
 4012SOL     OW23497   1.109   2.151  16.172  0.0593  0.1488  0.1888
 4012SOL    HW123498   1.093   2.065  16.133  0.9009  0.7810 -1.5687
 4012SOL    HW223499   1.073   2.205  16.102  2.1927  1.8617  0.4062
 4013SOL     OW23500   3.710   4.470   6.881 -0.0449 -0.0698 -0.1234
 4013SOL    HW123501   3.685   4.482   6.972  0.8102  0.1182  0.0875
 4013SOL    HW223502   3.637   4.502   6.828 -0.7710  3.9169  3.3079
 4014SOL     OW23503   1.770   3.363   3.122  0.0699 -0.2892 -0.6382
 4014SOL    HW123504   1.675   3.354   3.127  0.1793 -0.2431  1.5883
 4014SOL    HW223505   1.772   3.307   3.045 -1.9812 -1.4204  0.1231
 4015SOL     OW23506   2.766   1.067   1.289 -0.0681  0.9313  0.2932
 4015SOL    HW123507   2.768   1.104   1.378  0.2458  0.8548  0.3166
 4015SOL    HW223508   2.860   1.064   1.271 -0.3935 -0.3667 -1.1719
 4016SOL     OW23509   0.246   0.780   5.535 -0.0358  0.1062 -0.1368
 4016SOL    HW123510   0.293   0.734   5.466  0.5379  1.8529 -0.9211
 4016SOL    HW223511   0.310   0.847   5.559 -0.4784  0.8019 -0.8760
 4017SOL     OW23512   2.066   0.428  12.104 -0.2753  0.0564  0.0564
 4017SOL    HW123513   2.011   0.389  12.173 -0.2739  1.3168  0.7619
 4017SOL    HW223514   2.053   0.368  12.030 -1.7036  1.2531 -0.6454
 4018SOL     OW23515   2.541   1.347   4.142 -0.1205 -0.0493  0.3092
 4018SOL    HW123516   2.488   1.342   4.062  1.8165  0.4520 -1.0065
 4018SOL    HW223517   2.477   1.378   4.207 -0.2124 -0.0137  0.2028
 4019SOL     OW23518   3.346   2.273  11.895 -0.0393 -0.3561  0.1857
 4019SOL    HW123519   3.384   2.341  11.840  0.1175  1.8120  2.9519
 4019SOL    HW223520   3.405   2.271  11.970 -0.3937 -1.9759  0.4191
 4020SOL     OW23521   0.094   1.329   6.606  0.2289 -0.4642  0.0344
 4020SOL    HW123522   0.098   1.425   6.613 -2.4788 -0.3503  0.1252
 4020SOL    HW223523   4.725   1.315   6.605  0.1284  0.1530  0.6267
 4021SOL     OW23524   1.592   4.088   8.484 -0.4305  0.2948 -0.4826
 4021SOL    HW123525   1.554   4.057   8.402 -0.1872  0.2847 -0.5937
 4021SOL    HW223526   1.519   4.060   8.538 -0.7599 -1.9908 -2.1207
 4022SOL     OW23527   1.246   2.377   4.749  0.4427  0.1159 -0.3907
 4022SOL    HW123528   1.325   2.340   4.710  0.0164  1.9562 -2.9640
 4022SOL    HW223529   1.177   2.319   4.715 -0.1697 -0.8811  2.5479
 4023SOL     OW23530   2.865   1.104   9.905  0.1729  0.1033  0.0671
 4023SOL    HW123531   2.789   1.163   9.908  1.0731  1.2333  0.6190
 4023SOL    HW223532   2.931   1.150   9.957  0.2044 -0.6618  0.6871
 4024SOL     OW23533   1.287   0.796   4.041 -0.5188 -0.5665  0.1949
 4024SOL    HW123534   1.297   0.702   4.033  0.1924 -0.5243  0.6335
 4024SOL    HW223535   1.379   0.823   4.041 -1.2853  2.1520 -1.8192
 4025SOL     OW23536   3.001   0.473   0.403 -0.5348 -0.6908  0.8671
 4025SOL    HW123537   2.972   0.421   0.329  2.3626 -1.6864  0.4106
 4025SOL    HW223538   2.947   0.552   0.392  0.6253  0.2746  2.0339
 4026SOL     OW23539   2.715   2.248   7.493  0.4525  0.4789 -0.7829
 4026SOL    HW123540   2.797   2.232   7.539  0.2945 -0.1365 -0.7197
 4026SOL    HW223541   2.740   2.277   7.406 -0.9095  2.4251 -0.5379
 4027SOL     OW23542   0.182   4.585   0.407  0.1969 -0.4777 -0.0158
 4027SOL    HW123543   0.230   4.652   0.359  1.0474 -1.0072  0.0929
 4027SOL    HW223544   0.234   4.568   0.485  0.1086  1.3297  0.4154
 4028SOL     OW23545   3.257   1.300   5.232 -0.7031  0.5250 -0.5430
 4028SOL    HW123546   3.170   1.261   5.227  0.5913 -2.1175 -2.2096
 4028SOL    HW223547   3.290   1.269   5.148  0.6508 -1.8220  0.8646
 4029SOL     OW23548   3.885   2.045   0.175  0.0677 -0.2622  0.2420
 4029SOL    HW123549   3.947   1.983   0.214 -1.6872 -1.9816  0.2935
 4029SOL    HW223550   3.889   2.004   0.088  1.6479 -2.3167  1.2624
 4030SOL     OW23551   2.617   2.725  14.453  0.3017  0.4975 -0.3409
 4030SOL    HW123552   2.570   2.682  14.524 -0.7670  1.2835 -0.5644
 4030SOL    HW223553   2.587   2.694  14.367  3.8068 -0.5975 -1.1281
 4031SOL     OW23554   3.532   2.109   5.540 -0.4134  0.1306  0.4922
 4031SOL    HW123555   3.618   2.119   5.580 -0.4642 -0.4686  0.7527
 4031SOL    HW223556   3.529   2.015   5.524 -1.4390 -0.1875  2.5588
 4032SOL     OW23557   0.549   3.884   7.863  0.4113  0.3611 -0.0477
 4032SOL    HW123558   0.486   3.884   7.935  0.5340  0.8339  0.0633
 4032SOL    HW223559   0.546   3.974   7.829  0.2140 -0.9761 -3.6345
 4033SOL     OW23560   0.230   1.451   5.175  0.0127 -0.0174 -0.1169
 4033SOL    HW123561   0.241   1.532   5.225  0.7317  0.3206 -0.8363
 4033SOL    HW223562   0.185   1.398   5.241 -0.0073  1.4341  1.0104
 4034SOL     OW23563   4.647   3.892   3.577  0.0029 -1.0152 -0.6106
 4034SOL    HW123564   4.657   3.889   3.482 -0.5691 -2.7573 -0.6130
 4034SOL    HW223565   4.578   3.955   3.593  0.3112 -0.7376 -0.3669
 4035SOL     OW23566   3.738   2.940  14.656 -0.2334  0.2023  0.1384
 4035SOL    HW123567   3.786   2.857  14.650 -3.4003 -1.6325  0.3762
 4035SOL    HW223568   3.687   2.942  14.575  0.1981 -1.0660 -0.1686
 4036SOL     OW23569   2.977   0.192   0.792  0.1075  0.3053  0.8657
 4036SOL    HW123570   2.962   0.286   0.800 -0.8111  0.2737 -0.4887
 4036SOL    HW223571   2.973   0.185   0.696 -3.4181  1.0114  0.9717
 4037SOL     OW23572   2.509   1.973   5.820  0.8117 -0.2541 -0.0481
 4037SOL    HW123573   2.453   1.902   5.791  0.2770  0.2003 -0.1299
 4037SOL    HW223574   2.470   1.990   5.905  1.2103  2.2250 -0.3375
 4038SOL     OW23575   1.714   1.888   4.524 -0.5667 -0.6194  0.6640
 4038SOL    HW123576   1.716   1.917   4.433 -0.6842 -1.6672  0.3255
 4038SOL    HW223577   1.746   1.799   4.510  4.3319  0.8628  2.3331
 4039SOL     OW23578   3.669   1.979   3.612  0.0372 -0.0444  0.1407
 4039SOL    HW123579   3.764   1.981   3.602  0.1369  0.7527  1.1729
 4039SOL    HW223580   3.659   1.969   3.707 -0.9866 -1.0872 -0.0753
 4040SOL     OW23581   3.740   1.335   6.477 -0.0861  0.2187 -0.3006
 4040SOL    HW123582   3.780   1.417   6.448  0.5282 -0.3078 -0.9308
 4040SOL    HW223583   3.664   1.371   6.522 -0.6294 -1.4971  0.1639
 4041SOL     OW23584   0.703   0.094  17.572 -0.4793 -0.0278 -0.0312
 4041SOL    HW123585   0.778   0.146  17.600  0.0570 -0.9622  0.2804
 4041SOL    HW223586   0.690   0.021  17.632 -0.2247  0.2020  0.3032
 4042SOL     OW23587   3.393   1.421  14.570  0.3034 -0.3023 -0.0192
 4042SOL    HW123588   3.337   1.495  14.592 -0.0679 -0.3015 -0.9759
 4042SOL    HW223589   3.434   1.439  14.485  1.4483  0.5961  0.7205
 4043SOL     OW23590   1.740   1.721  16.068 -0.3291 -0.3913 -0.2522
 4043SOL    HW123591   1.673   1.745  16.005  0.2051 -1.6770 -1.2922
 4043SOL    HW223592   1.822   1.756  16.033 -1.1754  1.7234 -0.1500
 4044SOL     OW23593   0.230   3.833   2.869  0.0148  0.2360  0.4147
 4044SOL    HW123594   0.182   3.779   2.806 -2.0848  0.0852  2.1519
 4044SOL    HW223595   0.159   3.879   2.914 -0.2807  1.5022 -1.2920
 4045SOL     OW23596   4.400   1.773   7.350 -0.2400 -0.4174 -0.1708
 4045SOL    HW123597   4.324   1.829   7.365  0.6268  0.4826  0.8687
 4045SOL    HW223598   4.441   1.824   7.280 -0.0866 -2.4634 -1.5655
 4046SOL     OW23599   1.571   2.751  14.015 -0.0580  0.0284 -0.1311
 4046SOL    HW123600   1.504   2.684  14.027 -1.7501  1.7567  0.0283
 4046SOL    HW223601   1.591   2.766  14.107  1.4943 -0.0670 -0.4496
 4047SOL     OW23602   1.044   0.709   0.236  0.0006  0.5464  0.0988
 4047SOL    HW123603   0.993   0.787   0.215 -1.4867 -0.4642 -0.0186
 4047SOL    HW223604   1.108   0.716   0.165 -0.8479 -1.2052 -0.8660
 4048SOL     OW23605   3.221   2.339   5.226  0.0797  0.0763 -0.1678
 4048SOL    HW123606   3.225   2.428   5.261  0.3461  0.3316 -0.8416
 4048SOL    HW223607   3.310   2.316   5.251 -1.3912 -1.8852  3.2522
 4049SOL     OW23608   4.364   2.342   3.764  0.0485  0.4264 -0.1655
 4049SOL    HW123609   4.388   2.249   3.766 -0.2356  0.3271 -1.7859
 4049SOL    HW223610   4.373   2.371   3.673  1.0684  0.8486  0.0670
 4050SOL     OW23611   0.992   4.249   7.441 -0.2729  0.6721  0.0643
 4050SOL    HW123612   0.937   4.174   7.466  0.9396  0.1747  1.2874
 4050SOL    HW223613   1.071   4.214   7.482 -1.2241 -1.0623  0.4307
 4051SOL     OW23614   1.030   3.679   6.063 -0.1595 -0.1514  0.4429
 4051SOL    HW123615   0.966   3.614   6.093  0.4471 -0.4713  1.0514
 4051SOL    HW223616   1.110   3.629   6.081 -1.2060 -2.8671 -2.4043
 4052SOL     OW23617   2.312   2.798   8.200 -0.7340 -0.1407 -0.0414
 4052SOL    HW123618   2.257   2.721   8.183  1.6128 -0.9332 -4.0387
 4052SOL    HW223619   2.262   2.869   8.159 -2.1756 -0.0021  1.9551
 4053SOL     OW23620   3.334   1.480  13.339 -0.5599  0.1825  0.3029
 4053SOL    HW123621   3.376   1.472  13.254  2.6168 -2.6311  2.1320
 4053SOL    HW223622   3.252   1.431  13.333  0.5037 -1.8417  2.1677
 4054SOL     OW23623   0.066   1.395   8.800 -0.2331  0.3931 -0.2311
 4054SOL    HW123624   0.068   1.338   8.877 -0.1284 -1.3553 -1.5302
 4054SOL    HW223625   0.053   1.476   8.850  0.2324 -0.6887  1.6675
 4055SOL     OW23626   2.559   2.796   7.228  0.6888  0.1908 -0.1427
 4055SOL    HW123627   2.551   2.803   7.324  1.0554  0.6602 -0.1453
 4055SOL    HW223628   2.582   2.705   7.214  1.5418  0.9132 -3.2919
 4056SOL     OW23629   0.328   1.713  13.010  0.1606  0.5728  0.3813
 4056SOL    HW123630   0.235   1.729  12.991 -0.1079 -0.5361  0.7462
 4056SOL    HW223631   0.360   1.802  13.027 -1.9799  0.8298  2.9783
 4057SOL     OW23632   1.996   4.632   1.114 -0.0050  0.5051  0.3465
 4057SOL    HW123633   1.939   4.708   1.122 -1.4097 -0.5232  0.0320
 4057SOL    HW223634   2.069   4.688   1.087  0.3976  0.0654  0.5139
 4058SOL     OW23635   1.651   2.205   4.372 -0.0216 -0.1263 -0.2285
 4058SOL    HW123636   1.634   2.147   4.446 -1.6185 -1.0144 -1.2748
 4058SOL    HW223637   1.740   2.184   4.343 -0.0134 -0.1141 -0.2122
 4059SOL     OW23638   4.448   4.026   6.452 -0.0714 -0.1471  0.1164
 4059SOL    HW123639   4.406   4.103   6.489 -1.5926 -0.7382 -0.3872
 4059SOL    HW223640   4.431   3.954   6.513  0.8857 -2.0460 -1.8104
 4060SOL     OW23641   0.531   1.711  16.213 -0.0848 -0.5933 -0.4134
 4060SOL    HW123642   0.524   1.622  16.247  2.1058 -0.5790  0.0859
 4060SOL    HW223643   0.456   1.746  16.261 -0.4693 -0.5095 -1.0781
 4061SOL     OW23644   0.443   2.430   4.506 -0.2179 -0.0431  0.4924
 4061SOL    HW123645   0.492   2.380   4.440  0.9719  1.1219  0.4825
 4061SOL    HW223646   0.474   2.520   4.493 -1.0897  0.0864 -0.6960
 4062SOL     OW23647   4.258   3.004   3.734  0.4278 -0.2534  0.1235
 4062SOL    HW123648   4.287   2.913   3.740 -0.4072 -0.5106  0.1768
 4062SOL    HW223649   4.222   3.016   3.822 -0.6160 -0.9122 -0.2217
 4063SOL     OW23650   1.163   3.855   4.667  0.3311  0.1931  0.5413
 4063SOL    HW123651   1.102   3.923   4.637  1.3397  2.2589  3.2606
 4063SOL    HW223652   1.125   3.822   4.748 -1.1321  0.9064  0.1665
 4064SOL     OW23653   4.265   0.763   9.932 -0.1714 -0.3372  0.2375
 4064SOL    HW123654   4.262   0.842   9.878 -2.9372 -1.4551 -1.2490
 4064SOL    HW223655   4.359   0.752   9.945 -0.8664 -2.7571  3.2331
 4065SOL     OW23656   0.268   0.228   5.902 -0.4194 -0.1822 -0.0670
 4065SOL    HW123657   0.240   0.224   5.994 -0.5659  0.9470 -0.0609
 4065SOL    HW223658   0.350   0.179   5.903 -0.1167  0.3246 -0.6239
 4066SOL     OW23659   1.593   2.575   2.032  0.1690 -0.2010 -0.2583
 4066SOL    HW123660   1.572   2.499   1.979 -0.1926 -0.1795 -0.1468
 4066SOL    HW223661   1.662   2.616   1.980 -0.3682  2.8884  1.4503
 4067SOL     OW23662   2.597   1.708   8.190 -0.0635 -0.1122  0.1627
 4067SOL    HW123663   2.515   1.713   8.140 -0.3573 -2.6105  0.3568
 4067SOL    HW223664   2.558   1.703   8.277  0.7168  2.1982  0.6349
 4068SOL     OW23665   2.056   2.960   7.610  0.4048  0.1282 -0.1087
 4068SOL    HW123666   2.141   3.005   7.607  0.3327  0.3703  1.6108
 4068SOL    HW223667   2.085   2.870   7.620 -0.0422  0.0698  0.6379
 4069SOL     OW23668   1.367   0.699   3.731 -0.0858 -0.3549  0.0265
 4069SOL    HW123669   1.315   0.767   3.775  1.7364 -0.2609  2.0340
 4069SOL    HW223670   1.353   0.719   3.638  0.2469  0.4726  0.1450
 4070SOL     OW23671   1.576   4.698  13.980 -0.7450  0.0804  0.2132
 4070SOL    HW123672   1.590   4.640  13.905  0.8715 -0.4568  0.9112
 4070SOL    HW223673   1.513   0.035  13.944 -0.4918 -0.9207 -1.9236
 4071SOL     OW23674   0.537   3.288   4.796 -0.3485  0.0782  0.2362
 4071SOL    HW123675   0.450   3.320   4.774  0.3122  1.1233 -0.8474
 4071SOL    HW223676   0.525   3.201   4.757 -2.5350  0.4937 -0.0219
 4072SOL     OW23677   4.704   1.470   4.724  0.1929  0.0589 -0.4321
 4072SOL    HW123678   4.719   1.562   4.747  2.1324 -0.6433  1.0107
 4072SOL    HW223679   4.636   1.431   4.778  0.4279  0.2247 -0.0235
 4073SOL     OW23680   2.349   3.325   6.811 -0.1239 -0.2756 -0.2359
 4073SOL    HW123681   2.304   3.402   6.776  0.3297  1.3915  2.8486
 4073SOL    HW223682   2.305   3.246   6.782  1.6120 -1.9467  1.7232
 4074SOL     OW23683   3.759   2.894   8.158  0.1890  0.1056 -0.6065
 4074SOL    HW123684   3.792   2.967   8.105 -2.0212  1.5683  0.0592
 4074SOL    HW223685   3.685   2.940   8.197 -0.3680  0.7250 -2.4414
 4075SOL     OW23686   0.682   1.193   8.945 -0.7445 -0.1613 -0.6784
 4075SOL    HW123687   0.652   1.181   9.035  0.2689 -0.5507 -0.3977
 4075SOL    HW223688   0.756   1.252   8.965  0.8416 -1.8551 -1.6297
 4076SOL     OW23689   1.322   1.467   1.704  0.4373  0.3925 -0.2117
 4076SOL    HW123690   1.347   1.376   1.687  0.0963  0.0825  0.9219
 4076SOL    HW223691   1.236   1.453   1.745  0.5335 -3.1555 -1.1671
 4077SOL     OW23692   3.629   3.346   3.640  0.1720  0.0806 -0.1926
 4077SOL    HW123693   3.537   3.330   3.661  0.5068 -0.8604  0.5715
 4077SOL    HW223694   3.615   3.437   3.614 -0.0313  1.3562  4.3620
 4078SOL     OW23695   1.078   2.601  16.583 -0.3636 -0.1846 -0.4282
 4078SOL    HW123696   1.142   2.624  16.516 -2.2081  0.0655 -2.0777
 4078SOL    HW223697   1.012   2.560  16.527 -0.6213 -1.6002  0.9092
 4079SOL     OW23698   0.496   1.272   7.136  0.0209 -0.7790 -0.2601
 4079SOL    HW123699   0.421   1.277   7.195 -0.0430 -0.2178 -0.3899
 4079SOL    HW223700   0.460   1.305   7.054  2.7526  1.4188 -0.5886
 4080SOL     OW23701   4.586   1.110   8.966 -0.1930  0.0087  0.5108
 4080SOL    HW123702   4.643   1.065   8.904 -1.7156 -1.5713  0.2550
 4080SOL    HW223703   4.634   1.178   9.014  0.0500  0.1455  0.0720
 4081SOL     OW23704   0.525   2.160  12.919  0.1693  0.5220  0.0526
 4081SOL    HW123705   0.558   2.201  12.839  2.1999  0.1305  0.7162
 4081SOL    HW223706   0.597   2.190  12.974  1.3910 -1.4611 -0.4464
 4082SOL     OW23707   2.001   0.297   5.288 -0.5797 -0.1642 -0.7674
 4082SOL    HW123708   1.908   0.296   5.312 -0.0544  1.6139  1.3101
 4082SOL    HW223709   1.998   0.291   5.193  1.9507 -1.3072 -0.7843
 4083SOL     OW23710   1.844   4.696   5.302  0.1832  0.2420 -0.1452
 4083SOL    HW123711   1.875   4.712   5.212 -0.2452 -0.0657 -0.3482
 4083SOL    HW223712   1.761   4.650   5.290  0.1360 -0.1254  1.6264
 4084SOL     OW23713   4.016   2.524   3.513 -0.1937  0.3854  0.0768
 4084SOL    HW123714   4.048   2.612   3.492  2.6919 -0.3160  1.5025
 4084SOL    HW223715   3.924   2.535   3.535  0.3707  2.4504  1.4062
 4085SOL     OW23716   0.128   0.908  15.718  0.1979  0.4038 -0.1830
 4085SOL    HW123717   0.114   0.985  15.662 -0.7254  0.0410 -0.4518
 4085SOL    HW223718   0.185   0.852  15.664 -0.5316  0.1596 -0.6912
 4086SOL     OW23719   1.438   2.638  10.288  0.1737 -0.2081  0.5307
 4086SOL    HW123720   1.408   2.714  10.238 -0.0725 -1.1876 -0.8340
 4086SOL    HW223721   1.533   2.647  10.295  0.0705  0.8153  0.6107
 4087SOL     OW23722   3.573   0.415   0.787 -0.2140 -0.6284  0.1285
 4087SOL    HW123723   3.550   0.498   0.747 -2.8388 -1.5416 -0.2022
 4087SOL    HW223724   3.608   0.444   0.872 -2.0036 -0.6927  0.8883
 4088SOL     OW23725   3.857   1.928   0.710  0.1535  0.3599 -0.2955
 4088SOL    HW123726   3.870   1.855   0.649  1.9725  0.1159  0.3778
 4088SOL    HW223727   3.940   1.976   0.705  1.9596 -2.8208 -0.4367
 4089SOL     OW23728   0.921   2.806   5.976 -0.6495 -0.1210 -0.4836
 4089SOL    HW123729   0.933   2.741   6.045  0.6019  0.7006  0.0763
 4089SOL    HW223730   0.829   2.794   5.952 -1.0825  1.8528  0.1858
 4090SOL     OW23731   4.045   1.570   5.637 -0.1706  0.7276  0.2394
 4090SOL    HW123732   3.980   1.588   5.706  0.4715 -0.7985  1.2538
 4090SOL    HW223733   4.013   1.480   5.627  1.2881  0.0476  1.5358
 4091SOL     OW23734   2.249   2.336   7.457 -0.1640 -0.1316  0.4869
 4091SOL    HW123735   2.309   2.304   7.524  0.5301 -0.0032 -0.0824
 4091SOL    HW223736   2.178   2.347   7.521  2.2420 -1.0722  3.3045
 4092SOL     OW23737   0.224   4.666  16.825 -0.1066 -0.3555 -0.3942
 4092SOL    HW123738   0.290   4.637  16.762 -0.3927 -2.0633  0.0895
 4092SOL    HW223739   0.217   0.035  16.809  0.5390 -0.2456 -0.0317
 4093SOL     OW23740   2.808   0.301   4.635 -0.4355  0.5648  0.5231
 4093SOL    HW123741   2.791   0.219   4.588 -1.3606  1.6107 -0.9960
 4093SOL    HW223742   2.877   0.331   4.576  1.2100  1.5083  2.9403
 4094SOL     OW23743   3.105   1.965  10.264  0.3354 -0.3934  0.2776
 4094SOL    HW123744   3.075   1.994  10.350 -1.9588  0.0362 -0.6716
 4094SOL    HW223745   3.039   1.896  10.256 -0.9036  0.7171  0.8791
 4095SOL     OW23746   1.688   3.404   2.788 -0.2437  0.0041  0.3931
 4095SOL    HW123747   1.687   3.449   2.704 -0.5646 -1.7201 -0.5368
 4095SOL    HW223748   1.783   3.398   2.798 -0.2511 -0.6604  0.0948
 4096SOL     OW23749   1.634   2.345   7.317  0.2755  0.8388  0.5562
 4096SOL    HW123750   1.599   2.345   7.406  1.5613  1.1686  1.0657
 4096SOL    HW223751   1.702   2.413   7.311  0.0255  0.9364 -1.1539
 4097SOL     OW23752   0.046   0.129   7.860  0.1814 -0.6110  0.8795
 4097SOL    HW123753   0.043   0.046   7.908  2.6168 -0.5423  1.1176
 4097SOL    HW223754   0.130   0.160   7.894  0.6100 -1.0424  0.2106
 4098SOL     OW23755   4.090   0.480  13.349  0.2856  0.1872  0.5245
 4098SOL    HW123756   4.161   0.415  13.353 -0.7080 -0.9731 -0.4130
 4098SOL    HW223757   4.017   0.424  13.321  0.3604  0.4912 -0.2803
 4099SOL     OW23758   1.866   3.804   6.463 -0.2245 -0.0008 -0.2034
 4099SOL    HW123759   1.923   3.856   6.406 -1.7053  1.4003 -0.3814
 4099SOL    HW223760   1.934   3.785   6.528  1.9800 -0.1590 -2.5783
 4100SOL     OW23761   3.807   1.293   3.578 -0.7078  0.2121  0.2317
 4100SOL    HW123762   3.802   1.363   3.642 -1.1976  0.2955  0.1005
 4100SOL    HW223763   3.823   1.345   3.499 -0.3245  0.7487  0.6660
 4101SOL     OW23764   4.249   1.721   2.939 -0.0460  0.5649  0.2285
 4101SOL    HW123765   4.251   1.806   2.896 -1.9604  0.2487 -0.4987
 4101SOL    HW223766   4.291   1.752   3.019  1.3857 -1.8930  0.4292
 4102SOL     OW23767   3.681   0.947   4.068 -0.2031 -0.8386 -0.1460
 4102SOL    HW123768   3.659   0.915   3.981 -0.8214 -0.4472 -0.1326
 4102SOL    HW223769   3.595   0.952   4.109 -0.6543  1.1436 -1.3598
 4103SOL     OW23770   1.482   1.006  12.980 -0.1030 -0.0345 -0.1088
 4103SOL    HW123771   1.465   1.090  12.937 -0.1969 -1.4280 -2.7970
 4103SOL    HW223772   1.576   1.023  12.981  0.0206 -0.7558  0.4412
 4104SOL     OW23773   0.516   2.740  16.031  0.4165  0.0473 -0.0669
 4104SOL    HW123774   0.447   2.752  15.966  0.2654 -1.7721 -0.2460
 4104SOL    HW223775   0.596   2.717  15.984  1.5123  0.7727  1.4262
 4105SOL     OW23776   3.251   3.840   3.661 -0.4678 -0.6363  0.4764
 4105SOL    HW123777   3.208   3.921   3.632 -0.0401 -0.5850 -0.0315
 4105SOL    HW223778   3.342   3.871   3.660 -0.0742 -1.8236  0.6695
 4106SOL     OW23779   3.249   3.856   0.473 -0.5711  0.4589 -0.4987
 4106SOL    HW123780   3.241   3.779   0.417  1.9045  0.8647 -1.4118
 4106SOL    HW223781   3.342   3.872   0.485 -0.4272 -1.0300  0.2955
 4107SOL     OW23782   0.179   1.320  11.025 -0.4003 -0.0729 -0.1503
 4107SOL    HW123783   0.209   1.271  11.101  2.3254  2.9765  0.7322
 4107SOL    HW223784   0.239   1.395  11.027  1.4875 -1.5683 -1.0434
 4108SOL     OW23785   3.619   4.080   3.954  0.3465 -0.8062  0.4981
 4108SOL    HW123786   3.548   4.101   4.015  0.7116  0.5195  0.4620
 4108SOL    HW223787   3.621   4.154   3.894  2.2415 -0.7006  0.7034
 4109SOL     OW23788   2.810   4.401   8.654  0.2180 -0.5833  0.2100
 4109SOL    HW123789   2.837   4.370   8.740  1.0234  0.6769  0.4147
 4109SOL    HW223790   2.734   4.456   8.674 -0.0512  0.6302 -4.0115
 4110SOL     OW23791   0.289   0.141   4.345 -0.1556  0.0936 -0.1058
 4110SOL    HW123792   0.296   0.156   4.440  0.8595 -1.8521  0.1228
 4110SOL    HW223793   0.280   0.229   4.309  1.2675  0.4545  0.3958
 4111SOL     OW23794   3.069   2.243   2.724 -0.3743  0.1198 -0.3973
 4111SOL    HW123795   3.075   2.321   2.780  3.8925 -0.5342  0.1157
 4111SOL    HW223796   3.046   2.285   2.642 -3.2445 -1.5820 -0.4671
 4112SOL     OW23797   1.041   2.745   1.034  1.0618  0.5547 -0.2187
 4112SOL    HW123798   1.025   2.780   1.122  1.9890 -1.1778  0.6612
 4112SOL    HW223799   1.073   2.657   1.055 -0.0492  0.4928  1.2124
 4113SOL     OW23800   1.953   1.729   1.801  0.0183 -0.1530 -0.7408
 4113SOL    HW123801   2.008   1.698   1.873 -2.4193 -0.5162  0.9564
 4113SOL    HW223802   1.980   1.820   1.798  1.9003 -0.5181  4.7817
 4114SOL     OW23803   0.506   1.131   1.069 -0.4048 -0.1040  0.3259
 4114SOL    HW123804   0.444   1.073   1.113 -0.0665  0.4899  1.5902
 4114SOL    HW223805   0.579   1.074   1.048 -1.0361 -0.6533 -0.3705
 4115SOL     OW23806   4.017   0.876   2.253  0.2066 -0.2735 -0.5182
 4115SOL    HW123807   4.085   0.930   2.293 -1.4275  0.4786  1.2483
 4115SOL    HW223808   3.986   0.936   2.186 -0.6213 -1.0883 -0.8663
 4116SOL     OW23809   2.032   1.683  17.544 -0.7019 -0.3774 -0.1373
 4116SOL    HW123810   1.979   1.623  17.596  2.2588 -2.7188  0.2268
 4116SOL    HW223811   2.035   1.640  17.459 -1.6294  1.6375 -1.1844
 4117SOL     OW23812   3.511   2.518   4.269  0.3578 -1.0164  0.0522
 4117SOL    HW123813   3.599   2.550   4.289  0.9264 -2.0788 -0.7468
 4117SOL    HW223814   3.528   2.426   4.252  1.2759 -1.1807  1.8207
 4118SOL     OW23815   3.822   1.233   4.729 -0.4361 -0.2156 -0.0507
 4118SOL    HW123816   3.814   1.319   4.688 -0.5374 -0.5010 -0.6133
 4118SOL    HW223817   3.899   1.250   4.783  0.0848  2.3425 -1.6373
 4119SOL     OW23818   3.667   2.268   3.454 -0.2720  0.2008 -0.5076
 4119SOL    HW123819   3.660   2.186   3.503 -0.9688 -0.6398 -1.9891
 4119SOL    HW223820   3.717   2.239   3.377  1.1795  0.9168  0.1518
 4120SOL     OW23821   0.397   1.115  10.127 -0.4083 -0.3412 -0.0280
 4120SOL    HW123822   0.445   1.129  10.209  0.9363  3.0095 -1.3946
 4120SOL    HW223823   0.419   1.022  10.116  1.3056 -0.0159  0.7038
 4121SOL     OW23824   0.769   2.749   3.605 -0.2543 -0.2613 -0.4870
 4121SOL    HW123825   0.708   2.780   3.672 -0.0466 -0.2990 -0.2779
 4121SOL    HW223826   0.831   2.822   3.603 -0.7508  0.1315 -1.5683
 4122SOL     OW23827   0.149   3.527   3.272  0.6169 -0.1125 -0.1572
 4122SOL    HW123828   0.128   3.618   3.292  2.1924  0.1860  0.1496
 4122SOL    HW223829   0.077   3.503   3.214  2.3835 -0.9043 -2.0389
 4123SOL     OW23830   0.156   4.352  15.234  0.0679 -0.5737 -0.5679
 4123SOL    HW123831   0.123   4.401  15.309 -2.4082 -0.0836 -1.9844
 4123SOL    HW223832   0.075   4.332  15.188 -1.7949 -0.0616  2.4940
 4124SOL     OW23833   1.271   2.038   1.050  0.0528 -0.4154  0.0902
 4124SOL    HW123834   1.361   2.039   1.080  0.5156 -0.5066 -1.2917
 4124SOL    HW223835   1.286   1.994   0.966  1.3305 -0.1708  0.1961
 4125SOL     OW23836   0.157   1.889   9.829 -0.0674  0.0797 -0.3340
 4125SOL    HW123837   0.109   1.855   9.754 -1.6993  2.5294 -0.4061
 4125SOL    HW223838   0.087   1.873   9.893  0.4945 -0.0764  0.2384
 4126SOL     OW23839   2.664   0.842   1.423  0.1847 -0.4770  0.3458
 4126SOL    HW123840   2.711   0.905   1.368  2.6432 -1.2280  1.6093
 4126SOL    HW223841   2.639   0.769   1.366  0.4029  0.0068 -0.3705
 4127SOL     OW23842   4.106   3.377   7.912  0.3639 -0.8008 -0.5950
 4127SOL    HW123843   4.146   3.298   7.876 -3.3065 -2.7693 -0.3564
 4127SOL    HW223844   4.152   3.437   7.853 -1.1741 -0.2915 -1.2747
 4128SOL     OW23845   3.855   2.178   3.292 -0.1466 -0.4463 -0.1574
 4128SOL    HW123846   3.872   2.272   3.288  1.0646 -0.7315 -1.7814
 4128SOL    HW223847   3.835   2.171   3.198  1.1971 -0.2570 -0.4597
 4129SOL     OW23848   3.622   0.430  14.981  0.3420 -0.0165  0.0381
 4129SOL    HW123849   3.593   0.470  14.899 -1.5583  1.7349  1.5397
 4129SOL    HW223850   3.701   0.481  14.999  0.2786  0.4597 -1.0439
 4130SOL     OW23851   1.489   4.702   1.070 -0.2851 -0.5197 -0.5493
 4130SOL    HW123852   1.438   0.058   1.062  0.7809  0.3997  2.0333
 4130SOL    HW223853   1.521   4.704   1.160  1.6193  2.8994 -1.2767
 4131SOL     OW23854   3.593   1.325  16.139 -0.0104 -0.1632  0.3535
 4131SOL    HW123855   3.626   1.369  16.061 -0.5990  0.3976  0.4206
 4131SOL    HW223856   3.520   1.271  16.109 -1.5770  0.9944  2.1216
 4132SOL     OW23857   2.746   0.108   8.566  0.5776  0.4945  0.0942
 4132SOL    HW123858   2.690   0.058   8.624 -0.2778 -0.8543 -1.9075
 4132SOL    HW223859   2.828   0.112   8.615  0.7901 -0.6533 -0.1729
 4133SOL     OW23860   3.131   2.992  14.863  0.5408 -0.6466  0.0743
 4133SOL    HW123861   3.213   3.040  14.873 -1.4238  2.2175  2.6016
 4133SOL    HW223862   3.161   2.920  14.808 -0.6052 -0.4297 -0.8496
 4134SOL     OW23863   1.192   1.550  12.713  0.0267 -0.0612 -0.1227
 4134SOL    HW123864   1.176   1.484  12.780 -0.8170 -2.0200 -2.2774
 4134SOL    HW223865   1.253   1.607  12.759 -1.6653  1.1395  0.6094
 4135SOL     OW23866   1.564   2.746   9.085  0.3301 -0.1432  0.1393
 4135SOL    HW123867   1.560   2.798   9.005 -3.4239  2.2846  1.9071
 4135SOL    HW223868   1.474   2.720   9.103  0.0371 -0.0594 -1.1594
 4136SOL     OW23869   0.625   3.987   2.720  0.2723  0.5041 -0.1983
 4136SOL    HW123870   0.704   3.959   2.766 -1.3345 -0.3687  2.0589
 4136SOL    HW223871   0.644   3.947   2.635  1.3239 -1.3295  0.9076
 4137SOL     OW23872   3.585   3.225   1.384 -0.1874  0.5668  0.4319
 4137SOL    HW123873   3.582   3.233   1.289 -0.3075  2.5622  0.6117
 4137SOL    HW223874   3.527   3.299   1.401  1.4707  2.7396 -3.4390
 4138SOL     OW23875   1.023   2.710  14.933 -0.2159 -0.1098  0.4042
 4138SOL    HW123876   1.107   2.724  14.975  1.3362 -2.3064 -1.9734
 4138SOL    HW223877   1.015   2.618  14.906  0.0311  0.5803 -2.0576
 4139SOL     OW23878   1.044   3.936  15.682  0.8851 -0.5057 -0.3138
 4139SOL    HW123879   0.986   3.986  15.625  0.9997 -1.8254 -1.5848
 4139SOL    HW223880   1.112   3.908  15.622  1.4006 -2.7347  1.3039
 4140SOL     OW23881   4.345   3.326  13.787  0.0145  0.2037 -0.9175
 4140SOL    HW123882   4.276   3.346  13.851  0.8644 -0.3881  0.1902
 4140SOL    HW223883   4.285   3.330  13.712 -0.3710 -2.6592 -0.7572
 4141SOL     OW23884   2.409   1.852   0.998  0.1994 -0.0033  0.5037
 4141SOL    HW123885   2.400   1.756   0.998 -0.4803  0.0589  0.3352
 4141SOL    HW223886   2.332   1.875   1.051 -2.2680 -0.5120 -2.8671
 4142SOL     OW23887   1.009   3.139   9.745 -0.3404  0.1463  0.3550
 4142SOL    HW123888   1.000   3.049   9.713 -1.1530 -0.1535  1.3960
 4142SOL    HW223889   0.922   3.179   9.755 -0.5295  0.4050 -2.2789
 4143SOL     OW23890   1.967   3.198   4.218 -0.6600 -0.2573 -0.5361
 4143SOL    HW123891   1.999   3.285   4.241 -2.8395 -0.4467  3.0682
 4143SOL    HW223892   2.023   3.135   4.263  1.9084  1.8621 -0.7795
 4144SOL     OW23893   2.968   2.338  13.928  0.2392  0.5621 -0.6360
 4144SOL    HW123894   2.943   2.249  13.905 -0.0699 -0.2618  2.9534
 4144SOL    HW223895   2.895   2.388  13.965 -0.6081  0.2871 -1.9562
 4145SOL     OW23896   1.743   4.691   4.938 -0.4387  0.4121 -0.2463
 4145SOL    HW123897   1.753   0.007   4.852  0.2366 -1.0569 -0.8829
 4145SOL    HW223898   1.833   4.700   4.970 -0.7233 -1.4535  1.0492
 4146SOL     OW23899   4.549   0.895  11.417 -0.1232 -0.3244  0.2915
 4146SOL    HW123900   4.626   0.926  11.370  1.8039 -4.2423  0.8884
 4146SOL    HW223901   4.485   0.963  11.395 -0.7093  0.3103  3.8425
 4147SOL     OW23902   3.630   1.748   5.288  0.2724 -0.1678 -0.1778
 4147SOL    HW123903   3.604   1.745   5.380  1.1730 -0.6970  0.0584
 4147SOL    HW223904   3.712   1.796   5.282  0.7884 -0.9629  0.4898
 4148SOL     OW23905   2.967   2.032   1.235  0.6130 -0.4138  0.0539
 4148SOL    HW123906   2.913   2.075   1.302  2.8648  0.2325  1.4627
 4148SOL    HW223907   2.999   2.115   1.198  3.3732 -0.3286  2.6870
 4149SOL     OW23908   1.908   2.821   3.167 -0.4325 -0.2915 -0.1632
 4149SOL    HW123909   1.885   2.733   3.137 -0.8280 -0.1841 -0.1773
 4149SOL    HW223910   1.828   2.873   3.157 -0.4375 -0.0896  1.0117
 4150SOL     OW23911   1.626   3.843   8.868 -0.0233 -0.0760  0.4101
 4150SOL    HW123912   1.551   3.892   8.836  0.3876 -0.2355 -0.7944
 4150SOL    HW223913   1.643   3.778   8.800 -2.4287 -1.8997  1.5336
 4151SOL     OW23914   2.244   1.099   6.231 -0.2683  0.2798 -0.1861
 4151SOL    HW123915   2.160   1.094   6.185  0.1342 -0.1747 -0.8688
 4151SOL    HW223916   2.289   1.023   6.195 -0.6044  0.1758 -0.3854
 4152SOL     OW23917   0.829   4.043   3.052  0.2562 -0.4893  0.3168
 4152SOL    HW123918   0.909   4.023   3.004 -0.1751 -2.6079  0.5237
 4152SOL    HW223919   0.783   3.960   3.052 -2.8451  1.2201 -1.1917
 4153SOL     OW23920   1.129   0.219   6.197 -0.2769  0.7141  0.0903
 4153SOL    HW123921   1.058   0.256   6.144  1.1234  0.5589 -1.8917
 4153SOL    HW223922   1.100   0.232   6.287 -0.4115 -0.5942  0.2381
 4154SOL     OW23923   3.496   4.600   3.120 -0.1996 -0.2746 -0.5236
 4154SOL    HW123924   3.449   4.625   3.200  0.5683 -1.4427  0.2920
 4154SOL    HW223925   3.559   4.540   3.160 -0.0013  1.0735  1.1692
 4155SOL     OW23926   1.462   2.937   6.845  0.0307  0.2213  0.2441
 4155SOL    HW123927   1.520   2.880   6.895  0.2433  0.5638  0.3894
 4155SOL    HW223928   1.512   2.956   6.765 -0.6994  0.6587 -0.1112
 4156SOL     OW23929   3.097   3.069  17.071 -0.3236 -0.0212 -0.1191
 4156SOL    HW123930   3.072   3.160  17.087  0.8918 -0.1358  2.3634
 4156SOL    HW223931   3.146   3.083  16.990  0.1394 -0.3643  0.1021
 4157SOL     OW23932   2.257   0.756   4.904 -0.6678 -0.2629  0.1421
 4157SOL    HW123933   2.277   0.843   4.870 -0.7620  0.4921  2.0439
 4157SOL    HW223934   2.334   0.705   4.879 -0.2235  1.6593 -2.4171
 4158SOL     OW23935   3.446   1.445   7.969 -0.2624 -0.2869  0.0954
 4158SOL    HW123936   3.483   1.526   8.003  2.1619 -0.9607 -0.9688
 4158SOL    HW223937   3.358   1.457   8.005 -0.7538  1.1150 -1.5568
 4159SOL     OW23938   3.802   0.561   7.317  0.3058  0.4007  0.1056
 4159SOL    HW123939   3.848   0.584   7.397  0.4800 -1.3377  0.5129
 4159SOL    HW223940   3.793   0.469   7.341 -1.8844  0.4947 -0.3650
 4160SOL     OW23941   3.902   2.660  13.946 -0.1378 -0.1166  0.0801
 4160SOL    HW123942   3.822   2.711  13.934  0.6582  0.6397 -2.0905
 4160SOL    HW223943   3.967   2.731  13.944  1.2065 -1.3329  0.4570
 4161SOL     OW23944   4.626   1.915  11.384  0.0726  0.0311  0.4258
 4161SOL    HW123945   4.651   1.983  11.446  1.9630  1.6398 -2.0757
 4161SOL    HW223946   4.568   1.971  11.332  0.8081 -0.7788 -1.2585
 4162SOL     OW23947   1.332   2.811   3.087  0.3463  0.2706 -0.1198
 4162SOL    HW123948   1.285   2.729   3.073  0.1706  0.4719 -0.7214
 4162SOL    HW223949   1.342   2.830   2.994  1.5132 -0.8770 -0.2227
 4163SOL     OW23950   1.847   0.857   6.095 -0.6731 -0.1461  0.0926
 4163SOL    HW123951   1.768   0.839   6.145 -0.0591 -0.2879  1.0057
 4163SOL    HW223952   1.912   0.826   6.158  1.2319 -0.9765 -2.2599
 4164SOL     OW23953   1.382   4.312   0.764 -0.4262  0.3871  0.1051
 4164SOL    HW123954   1.407   4.339   0.852  0.4034 -0.9149  0.2659
 4164SOL    HW223955   1.359   4.395   0.721 -0.0612  0.8657  0.8347
 4165SOL     OW23956   3.800   0.462   8.589 -0.2704 -0.1059 -0.0213
 4165SOL    HW123957   3.880   0.410   8.582  1.4304  2.5167 -0.1126
 4165SOL    HW223958   3.776   0.436   8.678  2.4532  3.5695  1.7849
 4166SOL     OW23959   0.730   2.312   9.923 -0.1329  0.6914  0.1649
 4166SOL    HW123960   0.729   2.238   9.984  1.2038  0.2903 -0.2939
 4166SOL    HW223961   0.794   2.364   9.971  0.8901 -0.7355  0.3817
 4167SOL     OW23962   4.112   3.728  14.277  0.0870 -0.1067  0.0266
 4167SOL    HW123963   4.167   3.772  14.342  1.3067 -0.0720 -1.0336
 4167SOL    HW223964   4.132   3.783  14.201 -0.6305 -0.7466 -0.6318
 4168SOL     OW23965   4.275   1.562  15.383  0.3721  0.0012  0.3951
 4168SOL    HW123966   4.349   1.504  15.365 -0.4243 -1.0757  0.5982
 4168SOL    HW223967   4.257   1.606  15.300  1.4995  1.4034  0.8950
 4169SOL     OW23968   0.386   3.119   7.602 -0.2639 -0.4610  0.1691
 4169SOL    HW123969   0.430   3.202   7.582 -1.5494 -0.0058 -0.8084
 4169SOL    HW223970   0.459   3.059   7.592 -0.8998 -1.0368 -0.9935
 4170SOL     OW23971   4.118   3.967  13.477 -0.0202 -0.7177 -0.1819
 4170SOL    HW123972   4.171   3.910  13.533  0.3749 -0.3051 -0.1335
 4170SOL    HW223973   4.142   3.927  13.394  0.2168  0.2566 -0.5835
 4171SOL     OW23974   3.552   3.825  16.900 -0.1012  0.3178  0.2108
 4171SOL    HW123975   3.532   3.768  16.973  1.6988 -0.2686  0.2437
 4171SOL    HW223976   3.631   3.873  16.927  0.2873  1.2154 -2.4368
 4172SOL     OW23977   2.256   3.119   9.233  0.2359  0.4781 -0.2187
 4172SOL    HW123978   2.278   3.175   9.159  2.1357 -0.2796 -0.2305
 4172SOL    HW223979   2.161   3.114   9.220  0.3101  2.5013 -1.5356
 4173SOL     OW23980   1.476   4.585   2.962 -0.4539  0.0287  0.3689
 4173SOL    HW123981   1.464   4.495   2.932 -1.1785 -0.1144  1.0945
 4173SOL    HW223982   1.421   4.595   3.040 -0.9224  0.4189 -0.0073
 4174SOL     OW23983   2.866   0.892   4.108  0.9798  0.5074  0.0533
 4174SOL    HW123984   2.913   0.822   4.062 -1.4237 -0.7588 -0.5293
 4174SOL    HW223985   2.805   0.927   4.043  2.3143  3.2142  0.2760
 4175SOL     OW23986   4.154   3.780   8.926  0.4608 -0.2075 -0.0420
 4175SOL    HW123987   4.224   3.756   8.866  0.6370 -0.4272  0.2536
 4175SOL    HW223988   4.164   3.721   9.001  0.2039  0.7003  0.7118
 4176SOL     OW23989   3.418   4.573  11.555  0.2906  0.4737  0.3363
 4176SOL    HW123990   3.368   4.553  11.476  1.9287  0.8945 -0.8104
 4176SOL    HW223991   3.463   4.653  11.528  0.8334 -1.0071 -3.0586
 4177SOL     OW23992   1.100   1.855   2.950 -0.3452  0.2977  0.8564
 4177SOL    HW123993   1.123   1.855   2.857  0.2496 -1.1271  0.9971
 4177SOL    HW223994   1.005   1.850   2.947 -0.3085  0.5279 -0.5350
 4178SOL     OW23995   0.510   1.667   3.090  0.3657 -0.4809 -0.5667
 4178SOL    HW123996   0.429   1.615   3.088 -0.6828  1.0687  1.5597
 4178SOL    HW223997   0.498   1.683   2.996  0.2785 -0.5486 -0.5672
 4179SOL     OW23998   0.161   0.473   2.895 -0.5770 -0.6653 -0.4503
 4179SOL    HW123999   0.093   0.495   2.958  0.4992 -0.7491  0.7413
 4179SOL    HW224000   0.120   0.497   2.811  1.8087 -0.0327 -1.4340
 4180SOL     OW24001   4.076   4.414   9.979  0.3312 -0.1341  0.0340
 4180SOL    HW124002   4.113   4.362  10.051 -0.1569  1.8980  1.7591
 4180SOL    HW224003   4.155   4.418   9.926  1.1050 -1.9445  1.0615
 4181SOL     OW24004   2.517   3.022   1.558  0.4312  0.6640 -0.1219
 4181SOL    HW124005   2.436   3.064   1.531  0.7437  1.2032 -0.2091
 4181SOL    HW224006   2.534   2.995   1.468 -0.9071 -1.7467  0.3521
 4182SOL     OW24007   1.729   1.047   2.628  0.0951  0.6330 -0.0458
 4182SOL    HW124008   1.819   1.050   2.597 -0.9104  1.0447 -2.9949
 4182SOL    HW224009   1.731   1.081   2.717 -1.7582 -0.0036  0.2330
 4183SOL     OW24010   3.949   1.920   8.612  0.1838 -0.4290 -0.5374
 4183SOL    HW124011   4.007   1.909   8.536 -2.9146 -0.3654 -2.8770
 4183SOL    HW224012   3.871   1.956   8.570  0.4796  1.2980  0.3896
 4184SOL     OW24013   1.409   0.852   7.955 -0.3086  0.2479 -0.1271
 4184SOL    HW124014   1.430   0.940   7.986  1.4004  1.0010 -3.4849
 4184SOL    HW224015   1.316   0.871   7.940 -0.3179  0.0570 -0.3121
 4185SOL     OW24016   1.651   4.720   0.803 -0.7100  0.2009 -0.4006
 4185SOL    HW124017   1.628   4.687   0.890  1.5599 -1.6459 -0.4955
 4185SOL    HW224018   1.742   0.020   0.820 -0.2917 -0.3236 -1.8160
 4186SOL     OW24019   3.700   1.123  14.493  0.0204 -0.0877  0.1977
 4186SOL    HW124020   3.791   1.149  14.475  0.3650  0.6632  3.1013
 4186SOL    HW224021   3.705   1.029  14.508 -3.6117 -0.5247 -1.4472
 4187SOL     OW24022   3.985   0.644  12.717 -0.3820  0.1099  0.4830
 4187SOL    HW124023   4.045   0.686  12.656  0.2370  0.0251  1.0343
 4187SOL    HW224024   4.042   0.620  12.790 -0.0041 -1.6419 -0.3828
 4188SOL     OW24025   2.848   0.355   6.402 -0.3260 -0.0903 -0.2002
 4188SOL    HW124026   2.932   0.383   6.439 -1.2924  0.6692  1.4226
 4188SOL    HW224027   2.856   0.326   6.311 -0.8870  1.2137 -0.6630
 4189SOL     OW24028   0.212   2.213   2.700 -0.2053  0.0246  0.8086
 4189SOL    HW124029   0.124   2.249   2.698 -1.0644 -2.2011 -1.0018
 4189SOL    HW224030   0.198   2.153   2.772  1.9973 -0.4641  0.8267
 4190SOL     OW24031   1.313   4.696   3.173  0.2501  0.1794  0.4034
 4190SOL    HW124032   1.232   4.649   3.151  1.4135 -2.2534  1.3188
 4190SOL    HW224033   1.311   4.678   3.267  4.0949 -0.6378  0.3032
 4191SOL     OW24034   3.049   0.951  16.959 -0.0910  0.7510 -0.3343
 4191SOL    HW124035   3.033   0.986  17.047 -0.0790 -0.6267  0.2248
 4191SOL    HW224036   3.018   1.028  16.912 -1.0711  1.4537  1.4656
 4192SOL     OW24037   0.498   3.781   7.472 -0.5295  0.4415  0.2338
 4192SOL    HW124038   0.509   3.876   7.471 -0.4572  0.4329  0.0860
 4192SOL    HW224039   0.411   3.774   7.434 -0.8388  1.9768  0.6688
 4193SOL     OW24040   2.570   2.473   6.489  0.5088 -0.2312 -0.0102
 4193SOL    HW124041   2.555   2.417   6.565 -1.9406  2.4558  1.4485
 4193SOL    HW224042   2.626   2.413   6.439 -0.3583 -0.2979 -0.8981
 4194SOL     OW24043   0.455   4.047  13.132 -0.2233 -0.2894  0.4710
 4194SOL    HW124044   0.442   4.047  13.037  2.9129 -0.8502  0.0602
 4194SOL    HW224045   0.529   3.988  13.143 -0.8882 -0.6112  3.3648
 4195SOL     OW24046   2.983   0.508   8.581  0.4222  0.5479 -0.3429
 4195SOL    HW124047   2.978   0.443   8.511 -2.2006  0.7313 -0.3394
 4195SOL    HW224048   2.936   0.460   8.650 -0.8307  1.6726 -0.4117
 4196SOL     OW24049   3.649   3.332   4.895 -0.0235 -0.3648 -0.0054
 4196SOL    HW124050   3.721   3.334   4.959  2.7967  1.4629 -3.2500
 4196SOL    HW224051   3.596   3.407   4.920  0.8838  1.1827 -2.7876
 4197SOL     OW24052   3.498   2.514   9.123 -0.2199  0.3302 -0.0840
 4197SOL    HW124053   3.558   2.472   9.185 -0.9459  0.8982  1.0063
 4197SOL    HW224054   3.453   2.437   9.086  0.3569  0.8720 -1.9078
 4198SOL     OW24055   3.221   2.203   4.829 -0.2653  0.5084  0.1212
 4198SOL    HW124056   3.183   2.254   4.900 -0.5295  1.8549 -0.9964
 4198SOL    HW224057   3.139   2.170   4.791 -0.3448 -0.4128  1.0985
 4199SOL     OW24058   0.216   2.355   8.285 -0.2992 -0.0667 -0.1293
 4199SOL    HW124059   0.178   2.303   8.356 -0.7987 -1.9665 -1.7868
 4199SOL    HW224060   0.297   2.395   8.315 -0.9966  0.7935  0.6074
 4200SOL     OW24061   3.569   1.194   2.046 -0.1671  0.1087  0.2037
 4200SOL    HW124062   3.564   1.233   2.133 -0.4838 -0.8390  0.6168
 4200SOL    HW224063   3.576   1.272   1.990  0.0644 -1.0324 -1.3722
 4201SOL     OW24064   3.059   4.095   0.995  0.2634  0.1501 -0.7041
 4201SOL    HW124065   3.072   4.106   0.900 -2.0472 -0.8755 -1.1412
 4201SOL    HW224066   3.143   4.085   1.039 -0.0887  1.5628  0.2733
 4202SOL     OW24067   3.343   2.157  15.321  0.3447 -0.9098  0.1082
 4202SOL    HW124068   3.421   2.102  15.329  0.7815 -0.1403  1.1837
 4202SOL    HW224069   3.272   2.094  15.335 -0.6561  0.0280 -0.6957
 4203SOL     OW24070   0.659   4.660  16.898 -0.1752 -0.0066 -0.0451
 4203SOL    HW124071   0.597   4.699  16.960 -0.1367 -1.1253  0.7016
 4203SOL    HW224072   0.698   0.018  16.871 -0.5636 -0.1919 -1.1542
 4204SOL     OW24073   4.481   1.141   1.480  0.4868  0.1038 -0.4765
 4204SOL    HW124074   4.513   1.227   1.508  2.4020 -0.9465  0.5530
 4204SOL    HW224075   4.390   1.161   1.458  0.7188  0.0646 -1.4890
 4205SOL     OW24076   0.982   0.976  17.376  0.1393 -0.0839  0.8086
 4205SOL    HW124077   0.916   0.915  17.344  0.5371 -0.6539  1.0805
 4205SOL    HW224078   0.932   1.029  17.440 -1.0217 -0.4466  0.2016
 4206SOL     OW24079   3.175   2.334   1.270  0.4785  0.5184  0.1050
 4206SOL    HW124080   3.210   2.422   1.281  0.4603  0.5456 -0.0524
 4206SOL    HW224081   3.096   2.349   1.217  0.8241  1.6498 -0.0887
 4207SOL     OW24082   0.071   0.612   8.553 -0.7247 -0.0256 -0.0437
 4207SOL    HW124083   4.720   0.578   8.506 -1.7232  0.7209  1.0161
 4207SOL    HW224084   0.135   0.592   8.486 -0.2491 -0.6235  0.5852
 4208SOL     OW24085   0.569   1.693   2.392 -0.1559 -0.3825  0.7599
 4208SOL    HW124086   0.615   1.730   2.468 -0.2510 -0.7748  1.0071
 4208SOL    HW224087   0.488   1.741   2.407 -1.3426 -2.4338  0.8472
 4209SOL     OW24088   3.517   2.231   8.379 -0.2028  0.3049 -0.1729
 4209SOL    HW124089   3.523   2.272   8.465 -2.3440 -1.2564  0.7180
 4209SOL    HW224090   3.462   2.291   8.329  0.8343  1.8297  0.5254
 4210SOL     OW24091   4.673   2.718   6.921  0.6070  0.0671 -0.4894
 4210SOL    HW124092   4.609   2.689   6.855  0.1198  0.8555 -0.3767
 4210SOL    HW224093   4.652   2.669   7.000 -1.3752 -0.3991 -1.2989
 4211SOL     OW24094   2.555   2.822   9.145  0.1288  0.0924  0.3879
 4211SOL    HW124095   2.618   2.878   9.191  0.8948 -0.6870  0.2874
 4211SOL    HW224096   2.479   2.843   9.198 -0.2451  1.7140 -0.7717
 4212SOL     OW24097   3.841   1.128  17.389 -0.5421  0.0867 -0.3568
 4212SOL    HW124098   3.766   1.154  17.443 -0.9029  0.5207 -1.0473
 4212SOL    HW224099   3.807   1.124  17.299  1.2246 -1.3460 -0.9533
 4213SOL     OW24100   1.349   4.361   4.731  0.0819 -0.0523 -0.1488
 4213SOL    HW124101   1.352   4.356   4.826  1.0920 -2.7266 -0.3150
 4213SOL    HW224102   1.353   4.266   4.720  1.3422 -0.0025 -0.1818
 4214SOL     OW24103   0.007   2.605   7.880 -0.2968 -0.4035 -0.1202
 4214SOL    HW124104   0.097   2.590   7.910 -0.1188  0.0351 -0.4371
 4214SOL    HW224105   0.012   2.694   7.847  0.9898  0.5078  2.4611
 4215SOL     OW24106   4.645   2.226   7.943  0.5366  0.1073  0.0998
 4215SOL    HW124107   4.588   2.298   7.970 -2.2191 -1.7902 -0.6994
 4215SOL    HW224108   4.680   2.263   7.862  1.0097 -0.8951 -0.1550
 4216SOL     OW24109   4.193   0.678  14.242 -0.1654  0.6327  0.3471
 4216SOL    HW124110   4.140   0.644  14.170  0.3428 -0.5264  0.5245
 4216SOL    HW224111   4.280   0.682  14.200  0.1296  3.5182  1.2772
 4217SOL     OW24112   0.348   2.534   2.916 -0.0595 -0.3161 -0.2800
 4217SOL    HW124113   0.336   2.455   2.969  2.0156 -0.7853 -0.5092
 4217SOL    HW224114   0.442   2.527   2.899  0.2687 -1.2769  1.8996
 4218SOL     OW24115   0.816   1.961  16.442  0.3932 -0.0201 -0.8204
 4218SOL    HW124116   0.853   1.921  16.521  2.9257  1.8154 -1.0896
 4218SOL    HW224117   0.878   2.030  16.419 -0.4089  0.8889 -0.3030
 4219SOL     OW24118   1.459   2.544   6.764 -0.1391  0.2651  0.0244
 4219SOL    HW124119   1.399   2.608   6.801 -1.1451 -0.2021 -0.8226
 4219SOL    HW224120   1.543   2.590   6.754  0.4051 -0.8549 -0.5572
 4220SOL     OW24121   1.948   2.138   0.821 -0.2549  0.3225 -0.3002
 4220SOL    HW124122   2.018   2.188   0.779  0.5767  0.4957  1.2927
 4220SOL    HW224123   1.903   2.103   0.744 -0.7919 -0.9074  0.5687
 4221SOL     OW24124   3.560   4.073  14.014  0.2543  0.0742 -0.6135
 4221SOL    HW124125   3.504   4.148  14.035  1.3324  0.5604  0.4814
 4221SOL    HW224126   3.508   3.998  13.985 -1.7439 -0.1089  3.3210
 4222SOL     OW24127   1.479   1.864   7.121  0.2734  0.0037  0.4393
 4222SOL    HW124128   1.483   1.955   7.153 -1.3135 -1.1157  3.8053
 4222SOL    HW224129   1.502   1.892   7.033 -2.1015 -1.2362 -0.5809
 4223SOL     OW24130   3.070   1.414  13.319  0.0805  0.0918  0.2679
 4223SOL    HW124131   2.995   1.355  13.309  0.5104 -0.2406 -1.0123
 4223SOL    HW224132   3.023   1.497  13.312 -0.4032 -0.3284 -1.4804
 4224SOL     OW24133   3.935   1.466   4.969 -0.9054  0.2142 -0.1607
 4224SOL    HW124134   3.850   1.508   4.982 -0.3809  1.2852 -0.1942
 4224SOL    HW224135   3.976   1.548   4.942 -2.3005  1.8072  2.5688
 4225SOL     OW24136   2.187   4.610   9.175 -0.3846  0.1767 -1.1467
 4225SOL    HW124137   2.268   4.564   9.156 -1.5399 -1.9724 -0.8109
 4225SOL    HW224138   2.211   4.634   9.265 -0.1651 -0.0948 -1.1333
 4226SOL     OW24139   4.624   3.285   1.635 -0.9795  0.1033 -0.0156
 4226SOL    HW124140   4.538   3.324   1.655 -1.9387 -2.3988  0.7759
 4226SOL    HW224141   4.677   3.345   1.687  0.4590 -1.4061  0.2384
 4227SOL     OW24142   0.681   4.026  17.099 -0.4337 -0.0257 -0.1102
 4227SOL    HW124143   0.676   4.105  17.152  0.5636  1.3178 -1.9787
 4227SOL    HW224144   0.744   3.973  17.148  0.5750  1.4840  0.2518
 4228SOL     OW24145   0.738   1.245   9.925 -0.0585  0.1791  0.2514
 4228SOL    HW124146   0.730   1.251  10.020 -0.1975  4.1046  0.0126
 4228SOL    HW224147   0.657   1.212   9.888 -0.6641 -0.8573  2.5191
 4229SOL     OW24148   0.425   3.634   3.563 -0.3603  0.0968  0.3647
 4229SOL    HW124149   0.472   3.632   3.646  2.0189 -2.5496 -1.0333
 4229SOL    HW224150   0.410   3.540   3.550 -2.1518  0.4257  0.1328
 4230SOL     OW24151   3.803   4.222   6.832 -0.0457  0.0580  0.2165
 4230SOL    HW124152   3.829   4.172   6.909 -0.8799  1.1411  1.1925
 4230SOL    HW224153   3.801   4.309   6.870  0.3244  0.5304 -0.8255
 4231SOL     OW24154   1.890   0.614   6.921 -0.2421 -0.2626  0.4244
 4231SOL    HW124155   1.959   0.668   6.881 -1.4010  0.4088 -0.6819
 4231SOL    HW224156   1.857   0.559   6.850  1.6356  0.3217 -0.9088
 4232SOL     OW24157   0.220   1.887   1.840  0.3424  0.1231 -0.2139
 4232SOL    HW124158   0.315   1.874   1.845  0.7249  2.3725 -1.6256
 4232SOL    HW224159   0.217   1.980   1.861 -0.6337 -0.0623  0.4318
 4233SOL     OW24160   2.753   3.827   1.200 -0.6001  0.5959  0.0635
 4233SOL    HW124161   2.676   3.805   1.149 -0.9583  2.1431 -0.0767
 4233SOL    HW224162   2.776   3.913   1.165  0.5137 -0.0161 -0.7043
 4234SOL     OW24163   3.006   4.425   2.545  0.4525  0.7679 -0.0257
 4234SOL    HW124164   2.961   4.357   2.595  0.4729  0.8496  0.1037
 4234SOL    HW224165   2.939   4.489   2.524 -3.1816 -3.0963 -0.1242
 4235SOL     OW24166   2.437   3.985   6.077  0.1948  0.0514  0.2716
 4235SOL    HW124167   2.385   4.010   6.152  0.8916  1.6778  0.2042
 4235SOL    HW224168   2.432   4.064   6.023  4.5335 -0.5874 -1.1479
 4236SOL     OW24169   4.572   3.120  12.515 -0.1722  0.5659  0.4921
 4236SOL    HW124170   4.514   3.159  12.449  1.0450  2.1215  0.3435
 4236SOL    HW224171   4.641   3.185  12.525  1.3101 -1.0524  0.7556
 4237SOL     OW24172   1.252   1.332   5.585  0.4799  0.3184 -0.5222
 4237SOL    HW124173   1.220   1.349   5.674  0.3870 -2.0636 -0.1159
 4237SOL    HW224174   1.328   1.285   5.619 -0.3810 -1.0601 -0.5044
 4238SOL     OW24175   2.380   4.003   0.573 -0.1910 -0.2105  0.2914
 4238SOL    HW124176   2.456   3.953   0.603  0.0583 -0.4044 -0.6634
 4238SOL    HW224177   2.384   3.999   0.478  0.2692  1.3833  0.2460
 4239SOL     OW24178   4.553   3.609   3.786 -1.0640  0.1813 -0.1695
 4239SOL    HW124179   4.534   3.547   3.716  1.5348 -2.2594  1.2810
 4239SOL    HW224180   4.513   3.690   3.754 -2.0022  0.0099  0.5916
 4240SOL     OW24181   1.160   0.101   5.889  0.0209 -0.0597 -0.3254
 4240SOL    HW124182   1.234   0.096   5.951 -1.9158 -1.2294  1.8964
 4240SOL    HW224183   1.208   0.098   5.807  0.4111  2.6231 -0.2163
 4241SOL     OW24184   4.513   1.061   3.440 -0.6597 -0.3535  0.3407
 4241SOL    HW124185   4.598   1.052   3.398  0.1853  1.0798  1.7678
 4241SOL    HW224186   4.526   1.149   3.475  0.0816  0.6797 -2.4982
 4242SOL     OW24187   4.535   3.253   4.193  0.5164  0.2042 -0.0196
 4242SOL    HW124188   4.463   3.298   4.238  1.9586  0.9078  1.5734
 4242SOL    HW224189   4.547   3.310   4.117  1.4561  0.2026  0.1278
 4243SOL     OW24190   0.052   0.002   3.339  0.2334  0.0761 -0.1108
 4243SOL    HW124191   0.100   4.723   3.256  0.1693  1.7456 -0.2415
 4243SOL    HW224192   0.076   4.650   3.390 -0.1190 -0.4534 -0.7487
 4244SOL     OW24193   1.765   2.053   1.425 -0.4888  0.2246  0.1124
 4244SOL    HW124194   1.711   2.130   1.445  0.5913  0.2778  2.7593
 4244SOL    HW224195   1.845   2.092   1.390 -0.0318 -0.1821  0.7064
 4245SOL     OW24196   4.616   4.381   8.204 -0.7499 -0.0770  0.3602
 4245SOL    HW124197   4.572   4.296   8.215  0.4096 -0.4799  1.9363
 4245SOL    HW224198   4.611   4.423   8.290  0.1994  0.5842  0.0888
 4246SOL     OW24199   1.264   2.638   4.695 -0.2125 -0.2326 -0.0289
 4246SOL    HW124200   1.259   2.544   4.716  2.1889 -0.4917 -0.6670
 4246SOL    HW224201   1.348   2.643   4.651  1.0229  1.3320  2.5163
 4247SOL     OW24202   2.889   2.967  14.754 -0.2638  0.0136 -0.0750
 4247SOL    HW124203   2.921   2.913  14.681  1.4885  1.3735 -0.3120
 4247SOL    HW224204   2.977   2.986  14.787 -0.9729  1.8520  0.7247
 4248SOL     OW24205   2.306   1.012   2.113  0.0753 -0.4966  0.1301
 4248SOL    HW124206   2.212   0.992   2.111  0.0524 -0.1192 -2.3921
 4248SOL    HW224207   2.311   1.106   2.131  0.4234 -0.4324 -0.3109
 4249SOL     OW24208   2.390   4.083  17.374  0.0600 -0.5882  0.0020
 4249SOL    HW124209   2.454   4.014  17.357 -0.3140 -0.4301 -2.0007
 4249SOL    HW224210   2.398   4.124  17.288 -1.9290  0.8246  0.4973
 4250SOL     OW24211   1.396   0.816   6.503 -0.2957 -0.1780 -0.3069
 4250SOL    HW124212   1.325   0.762   6.538  1.0486 -1.8503 -0.2110
 4250SOL    HW224213   1.342   0.870   6.445 -0.7069  1.5401  1.6302
 4251SOL     OW24214   0.621   1.418   3.286 -0.4155 -0.5988 -0.4940
 4251SOL    HW124215   0.597   1.402   3.194  2.7267 -0.8251 -1.2815
 4251SOL    HW224216   0.698   1.472   3.267  0.5457 -2.5921 -2.2883
 4252SOL     OW24217   4.284   3.609  14.046  0.0873 -0.1454 -0.4405
 4252SOL    HW124218   4.293   3.529  14.097 -0.3817 -0.2871 -0.5743
 4252SOL    HW224219   4.357   3.666  14.071 -0.2193  0.5664 -1.1458
 4253SOL     OW24220   2.047   4.387   0.990  0.0690  0.4456 -0.4531
 4253SOL    HW124221   2.034   4.459   0.929 -1.0560  1.2983  0.8098
 4253SOL    HW224222   2.054   4.445   1.066 -0.3663 -1.5480  1.1392
 4254SOL     OW24223   2.041   2.304  12.875  0.7384  0.4878 -0.0819
 4254SOL    HW124224   2.089   2.229  12.908 -0.0940 -0.3630 -0.7967
 4254SOL    HW224225   1.955   2.263  12.873  2.2041 -2.5937  0.9739
 4255SOL     OW24226   0.652   0.022   6.570 -0.1017 -0.5504 -0.1744
 4255SOL    HW124227   0.701   0.061   6.642 -0.1117 -2.1467  0.6973
 4255SOL    HW224228   0.727   4.697   6.536  0.5900  1.8858 -2.2835
 4256SOL     OW24229   3.448   4.473   3.792  0.4099  0.0145 -0.5052
 4256SOL    HW124230   3.509   4.402   3.809  0.6155  0.2641 -0.1757
 4256SOL    HW224231   3.471   4.501   3.704  0.2746  2.4880  0.2185
 4257SOL     OW24232   2.381   4.090   3.453 -0.1626  0.1763  0.7795
 4257SOL    HW124233   2.362   4.175   3.493  2.2256  1.5021 -0.9426
 4257SOL    HW224234   2.442   4.099   3.381 -0.4993 -0.3302  0.4326
 4258SOL     OW24235   2.118   3.817   9.430 -0.3059  0.1044  0.0806
 4258SOL    HW124236   2.059   3.757   9.383  1.1898 -0.6814 -0.7876
 4258SOL    HW224237   2.155   3.760   9.498  2.7924  1.7273 -0.2910
 4259SOL     OW24238   1.550   4.559  13.295  0.0493 -0.0737  0.0549
 4259SOL    HW124239   1.499   4.624  13.248  0.2687  0.9283  1.2166
 4259SOL    HW224240   1.566   4.600  13.380  0.9658 -2.0220  0.8240
 4260SOL     OW24241   1.822   3.550   1.674 -0.0777 -0.1863 -0.3396
 4260SOL    HW124242   1.912   3.521   1.661 -1.2063 -3.0726 -1.6352
 4260SOL    HW224243   1.803   3.502   1.754  0.5549  0.3499  0.1247
 4261SOL     OW24244   4.392   1.355   8.841 -0.3816  0.4894 -0.3663
 4261SOL    HW124245   4.446   1.306   8.780 -1.4504 -0.7016 -0.3786
 4261SOL    HW224246   4.358   1.422   8.783 -0.2305  2.4767  1.8356
 4262SOL     OW24247   3.307   1.297   3.020  0.1880 -0.5554 -0.2250
 4262SOL    HW124248   3.248   1.241   3.070 -0.8079  0.7111  0.0176
 4262SOL    HW224249   3.263   1.382   3.009 -0.2369 -0.9491 -1.6089
 4263SOL     OW24250   0.127   0.605   9.324 -0.1916 -0.3377 -0.0821
 4263SOL    HW124251   0.057   0.669   9.339  1.3585  1.7122 -1.5273
 4263SOL    HW224252   0.180   0.637   9.398 -0.0958  1.4252 -0.9010
 4264SOL     OW24253   4.420   0.714   6.178 -0.3937 -0.0767 -0.5376
 4264SOL    HW124254   4.333   0.747   6.200 -0.4191 -0.3342 -0.2447
 4264SOL    HW224255   4.466   0.783   6.226 -1.6742  0.0300  0.5185
 4265SOL     OW24256   1.533   0.729   0.607  0.1226  0.5337 -0.6203
 4265SOL    HW124257   1.461   0.693   0.659  1.3253  0.9619  1.3646
 4265SOL    HW224258   1.513   0.818   0.637  0.7189  0.3315  0.3698
 4266SOL     OW24259   0.764   3.949  13.614 -0.5742  0.0585 -0.1567
 4266SOL    HW124260   0.847   3.929  13.572 -1.1191  0.2075 -1.2990
 4266SOL    HW224261   0.708   3.970  13.539  1.1680 -0.2080 -1.5218
 4267SOL     OW24262   2.161   0.910   3.174  0.0565  0.2861 -0.2298
 4267SOL    HW124263   2.135   0.964   3.249 -0.8300 -0.7268  0.1948
 4267SOL    HW224264   2.090   0.936   3.116  1.1508  1.6173 -0.9894
 4268SOL     OW24265   3.169   1.423   3.956 -0.2889  0.3578 -0.2388
 4268SOL    HW124266   3.160   1.519   3.957  3.4329  0.7029  0.3098
 4268SOL    HW224267   3.225   1.409   3.880  1.4167 -2.1775  1.5067
 4269SOL     OW24268   4.207   1.336  14.499  0.4793  0.4573  0.1484
 4269SOL    HW124269   4.222   1.388  14.421  0.2296 -0.5023 -0.5360
 4269SOL    HW224270   4.245   1.398  14.562 -0.0111 -1.3478  2.2452
 4270SOL     OW24271   2.256   3.203   6.150 -0.0668 -0.2089  0.7987
 4270SOL    HW124272   2.275   3.217   6.057 -0.0490 -1.0929  0.6639
 4270SOL    HW224273   2.326   3.144   6.179  0.0948  0.4151  1.6837
 4271SOL     OW24274   1.735   1.053  16.748 -0.3092 -0.7115  0.2395
 4271SOL    HW124275   1.673   1.096  16.690 -0.2124 -1.0902 -0.1443
 4271SOL    HW224276   1.800   1.124  16.751 -2.9105  1.6706  0.3973
 4272SOL     OW24277   2.044   1.503   1.264 -0.8016  0.0525  0.0114
 4272SOL    HW124278   1.990   1.576   1.292 -0.2913 -0.4576  2.3169
 4272SOL    HW224279   2.016   1.423   1.310  0.9883 -0.4811  0.1711
 4273SOL     OW24280   1.747   2.301   6.092 -0.3679 -0.2392 -0.6739
 4273SOL    HW124281   1.733   2.287   6.185  1.8055 -1.0806 -0.4556
 4273SOL    HW224282   1.804   2.377   6.098 -3.3022  1.7519  1.8373
 4274SOL     OW24283   4.197   3.739   4.061 -0.3407  0.0559  0.5499
 4274SOL    HW124284   4.184   3.783   4.145 -0.2086 -2.5251  1.9338
 4274SOL    HW224285   4.119   3.685   4.047  0.2992 -0.6873 -0.1509
 4275SOL     OW24286   3.871   1.047   8.726 -0.0308 -0.1219  0.3800
 4275SOL    HW124287   3.868   1.075   8.635  0.6494 -0.8566  0.1280
 4275SOL    HW224288   3.783   1.011   8.740  0.0107 -0.4593 -0.2214
 4276SOL     OW24289   0.074   2.203   8.464 -0.7723  0.3775 -0.0970
 4276SOL    HW124290   0.004   2.262   8.438  2.2719  3.1805 -1.9439
 4276SOL    HW224291   0.029   2.120   8.483 -0.6345  0.6939  1.6329
 4277SOL     OW24292   0.811   2.183   4.756 -0.0577 -0.1751  0.0633
 4277SOL    HW124293   0.797   2.235   4.677 -0.8571  1.7721  1.4837
 4277SOL    HW224294   0.866   2.113   4.721 -0.1122 -1.8321  3.3192
 4278SOL     OW24295   1.550   0.086   5.507 -0.1888  0.3279  0.0197
 4278SOL    HW124296   1.583   0.156   5.451 -0.9265 -0.3517 -1.2745
 4278SOL    HW224297   1.486   0.127   5.565  1.2779  1.2616  0.9600
 4279SOL     OW24298   0.134   3.545   4.923 -0.0970  0.1242 -0.7170
 4279SOL    HW124299   0.048   3.578   4.949 -0.5864 -3.0259  1.6134
 4279SOL    HW224300   0.186   3.622   4.946 -1.0465  0.7202 -0.5320
 4280SOL     OW24301   2.758   2.999  14.982 -0.0271  0.1459 -0.3436
 4280SOL    HW124302   2.803   2.988  14.897 -0.1272  1.6199 -0.5768
 4280SOL    HW224303   2.707   2.920  14.998  0.0269  0.2886  0.5365
 4281SOL     OW24304   3.458   4.475   8.163  0.3994 -0.2544  0.1849
 4281SOL    HW124305   3.547   4.483   8.131  0.1660  0.6003 -0.2273
 4281SOL    HW224306   3.419   4.553   8.126 -0.2245 -0.8060 -0.3228
 4282SOL     OW24307   0.601   4.301   7.560 -0.6413  0.3889  0.0615
 4282SOL    HW124308   0.575   4.374   7.503  0.8527  1.8851  1.2968
 4282SOL    HW224309   0.697   4.304   7.555 -0.6610  0.8101 -0.1139
 4283SOL     OW24310   1.726   4.068   3.064  0.3145  0.2609 -0.1294
 4283SOL    HW124311   1.754   4.112   3.145 -0.2178 -0.1789  0.2874
 4283SOL    HW224312   1.761   4.131   3.001  0.1144 -0.0454 -0.5424
 4284SOL     OW24313   1.646   2.351   1.131 -0.9139  0.6379 -0.3692
 4284SOL    HW124314   1.668   2.296   1.055 -1.3375 -1.5586  1.1161
 4284SOL    HW224315   1.654   2.436   1.087  1.3632  0.2630 -0.6723
 4285SOL     OW24316   4.332   0.798  13.423 -0.2973 -0.0717 -0.2027
 4285SOL    HW124317   4.424   0.811  13.402  0.3263  1.5995  3.4077
 4285SOL    HW224318   4.330   0.851  13.503  0.3979  0.2845 -0.4208
 4286SOL     OW24319   2.965   2.998  15.816  0.5490 -0.2979 -0.4479
 4286SOL    HW124320   2.957   3.061  15.887 -2.2412  1.7666 -2.6348
 4286SOL    HW224321   2.915   2.924  15.851 -0.0953  0.0721 -0.6033
 4287SOL     OW24322   0.104   0.421   0.840 -0.9952  0.5472 -0.1070
 4287SOL    HW124323   0.121   0.485   0.770  0.1074  0.3381 -0.0289
 4287SOL    HW224324   0.019   0.455   0.871 -1.2571 -0.0857 -0.1392
 4288SOL     OW24325   3.217   2.127   2.928 -0.4017  0.0241 -0.1708
 4288SOL    HW124326   3.197   2.155   2.838  0.8872 -1.4377 -0.9122
 4288SOL    HW224327   3.244   2.212   2.965  0.8816  0.2915 -1.7177
 4289SOL     OW24328   3.699   1.271   2.554 -0.2031 -0.1850 -0.0969
 4289SOL    HW124329   3.704   1.176   2.544  0.1693 -0.1799  0.0122
 4289SOL    HW224330   3.654   1.301   2.475 -1.9642 -1.7788  0.3105
 4290SOL     OW24331   3.278   4.382   7.959  0.2859 -0.2844 -0.3236
 4290SOL    HW124332   3.323   4.399   8.041  0.1588  1.1050 -0.5389
 4290SOL    HW224333   3.188   4.392   7.990 -0.0481 -2.1872 -0.6571
 4291SOL     OW24334   2.972   3.263   6.574  0.6094  0.4458 -0.4580
 4291SOL    HW124335   2.906   3.260   6.644 -1.4009 -0.7567 -2.3982
 4291SOL    HW224336   2.941   3.205   6.504  0.4534  0.6500 -0.5589
 4292SOL     OW24337   3.772   1.112   6.612  0.0668 -0.5175 -0.0323
 4292SOL    HW124338   3.853   1.124   6.661 -0.0820  0.0475  0.0702
 4292SOL    HW224339   3.772   1.190   6.557  0.8959 -0.7091 -0.3031
 4293SOL     OW24340   2.330   2.947   2.522  0.2510  0.1800 -0.0224
 4293SOL    HW124341   2.315   2.993   2.440 -1.5745  0.6338  0.5614
 4293SOL    HW224342   2.288   2.868   2.487 -0.0346  0.3443 -0.0483
 4294SOL     OW24343   2.021   2.228   8.146  0.0517  0.2904  0.4433
 4294SOL    HW124344   2.099   2.283   8.143  0.0284  0.3377  0.8062
 4294SOL    HW224345   1.956   2.281   8.192 -0.7149 -1.3294  1.2166
 4295SOL     OW24346   1.401   1.027   2.176  0.1927  0.1259  0.6854
 4295SOL    HW124347   1.459   1.097   2.149 -0.0155  0.4277  1.0284
 4295SOL    HW224348   1.436   1.005   2.262  0.0099 -0.9057  0.5012
 4296SOL     OW24349   1.301   1.726  14.272 -0.0597  0.1748  0.4011
 4296SOL    HW124350   1.338   1.639  14.289 -0.3163 -0.6248 -3.2691
 4296SOL    HW224351   1.379   1.781  14.275  1.0643 -1.4162  0.7249
 4297SOL     OW24352   1.307   1.159   7.308  0.2623 -0.4818 -0.0711
 4297SOL    HW124353   1.352   1.205   7.379 -1.3315  0.4217  0.3459
 4297SOL    HW224354   1.354   1.189   7.230  0.5119  1.1897  0.7285
 4298SOL     OW24355   1.522   1.934   5.357  0.3050  0.1126  0.2127
 4298SOL    HW124356   1.477   1.873   5.298  1.3554 -0.4536  0.0013
 4298SOL    HW224357   1.556   1.993   5.290 -1.3003  0.1315 -0.5856
 4299SOL     OW24358   3.453   3.458   1.416  0.5042  0.0816 -0.3539
 4299SOL    HW124359   3.464   3.519   1.344  0.1412  0.3806 -0.1573
 4299SOL    HW224360   3.516   3.498   1.475 -1.4792  2.4756  0.1672
 4300SOL     OW24361   1.810   4.070   1.546 -0.1078 -0.4779 -0.3008
 4300SOL    HW124362   1.751   4.137   1.579  0.7139  0.9017 -1.6210
 4300SOL    HW224363   1.771   3.990   1.580  0.9089 -0.1505  1.5929
 4301SOL     OW24364   4.066   0.046   7.660 -0.6038  0.1700 -0.0269
 4301SOL    HW124365   4.004   0.118   7.674 -0.2334  0.3628  0.6022
 4301SOL    HW224366   4.032   4.709   7.725  0.4319 -0.3209  0.0426
 4302SOL     OW24367   2.076   3.504  12.588  0.1582  0.2484  0.7611
 4302SOL    HW124368   2.140   3.539  12.650 -0.4191  1.0859  0.8880
 4302SOL    HW224369   2.075   3.565  12.514 -0.1013  0.6499  1.0962
 4303SOL     OW24370   1.204   1.934  12.902  0.2417  0.8698  0.5722
 4303SOL    HW124371   1.204   2.003  12.836  1.9058  0.9392  0.6535
 4303SOL    HW224372   1.138   1.877  12.863  1.0481 -0.2819  0.8934
 4304SOL     OW24373   4.127   0.554   3.612  0.6771 -0.0965 -0.4032
 4304SOL    HW124374   4.119   0.503   3.693 -0.2529  0.8535  0.1005
 4304SOL    HW224375   4.222   0.563   3.605  0.5083  0.6712 -1.6691
 4305SOL     OW24376   2.705   3.550   5.341  0.2678 -0.1090  0.1249
 4305SOL    HW124377   2.657   3.633   5.340 -0.4361 -0.4552  4.0913
 4305SOL    HW224378   2.706   3.536   5.436  1.7020 -0.3780  0.0634
 4306SOL     OW24379   3.080   4.430   9.452  0.3440 -0.6013 -0.4277
 4306SOL    HW124380   3.068   4.512   9.500  0.1574 -0.4657 -0.7063
 4306SOL    HW224381   3.041   4.366   9.511  0.2223  1.0532  1.2824
 4307SOL     OW24382   4.696   1.705   6.458  0.4631  0.3056  0.2095
 4307SOL    HW124383   4.683   1.793   6.422  0.3152  0.2740  0.1842
 4307SOL    HW224384   4.663   1.652   6.386  2.7895 -1.5268  0.4753
 4308SOL     OW24385   3.228   4.191  14.241  0.3605  0.4143  0.2490
 4308SOL    HW124386   3.138   4.205  14.271 -0.0985 -0.4750 -0.7275
 4308SOL    HW224387   3.261   4.118  14.293 -0.4337 -0.5260 -0.5553
 4309SOL     OW24388   4.568   1.749   2.843 -0.4335  0.1514  0.3054
 4309SOL    HW124389   4.564   1.770   2.750  0.5115  1.3376  0.5404
 4309SOL    HW224390   4.478   1.769   2.868 -0.2435  0.7999  0.4582
 4310SOL     OW24391   1.374   0.022  16.938 -0.2809 -0.2101  0.0252
 4310SOL    HW124392   1.452   4.712  16.895  0.3102  0.3996  0.6034
 4310SOL    HW224393   1.325   0.042  16.858  1.0377 -1.2027 -1.0311
 4311SOL     OW24394   0.390   1.784   6.834  0.4875 -0.4770  0.1485
 4311SOL    HW124395   0.383   1.843   6.759  0.7277  0.6125  0.9821
 4311SOL    HW224396   0.405   1.697   6.796 -0.0558  0.0087 -1.2097
 4312SOL     OW24397   2.704   3.804   0.042 -0.5945 -0.1365  0.9746
 4312SOL    HW124398   2.717   3.872   0.109 -0.5360 -0.0114  0.8350
 4312SOL    HW224399   2.612   3.781   0.056 -1.5332  2.4979 -0.7616
 4313SOL     OW24400   4.618   0.765   3.111  0.1895 -0.5600 -0.1840
 4313SOL    HW124401   4.648   0.679   3.082 -0.1019 -0.5553 -0.4994
 4313SOL    HW224402   4.691   0.794   3.164  0.0533  0.4221 -0.5453
 4314SOL     OW24403   0.376   3.935   4.530 -0.4282  0.8706  0.3474
 4314SOL    HW124404   0.442   4.003   4.515  1.4407 -1.3962 -1.8949
 4314SOL    HW224405   0.330   3.925   4.446  0.5245  2.0568 -0.3144
 4315SOL     OW24406   0.641   0.494   3.613 -0.3232  0.1822  0.3025
 4315SOL    HW124407   0.619   0.507   3.705  1.4638 -0.1841  0.7923
 4315SOL    HW224408   0.597   0.567   3.571 -1.8138 -0.8749  0.0179
 4316SOL     OW24409   2.490   0.604  11.407  0.3717  0.2307 -0.5751
 4316SOL    HW124410   2.526   0.690  11.427  0.2700 -0.2600  1.6649
 4316SOL    HW224411   2.566   0.546  11.398  1.2521  1.6877 -2.5934
 4317SOL     OW24412   2.642   1.245  11.795 -0.0153 -0.3492  0.1056
 4317SOL    HW124413   2.695   1.226  11.717  0.8850  0.3471  0.5481
 4317SOL    HW224414   2.610   1.328  11.759  1.9369 -0.0737 -1.0075
 4318SOL     OW24415   3.705   0.848   3.808  0.3909  0.1767  0.5955
 4318SOL    HW124416   3.658   0.765   3.809  0.4576  0.0849 -1.8674
 4318SOL    HW224417   3.789   0.808   3.788 -1.0737 -2.7589  0.2731
 4319SOL     OW24418   1.031   4.198   7.804  0.4392 -0.2228  0.2989
 4319SOL    HW124419   1.023   4.255   7.881  2.3381 -0.2005  0.4705
 4319SOL    HW224420   0.969   4.247   7.749 -0.5708 -0.8070  0.9060
 4320SOL     OW24421   1.913   0.682   0.819 -0.2375  0.0064 -0.1454
 4320SOL    HW124422   2.005   0.708   0.825 -0.9728  2.3492  0.9716
 4320SOL    HW224423   1.901   0.671   0.724  1.8023  0.1206 -0.4129
 4321SOL     OW24424   4.218   3.413   9.326 -0.3550  0.5228 -0.0669
 4321SOL    HW124425   4.162   3.345   9.289  1.2636  0.0113 -1.5839
 4321SOL    HW224426   4.303   3.378   9.299 -0.4798 -0.1570  0.4416
 4322SOL     OW24427   1.096   3.633   8.834  0.2354  0.2882  0.3779
 4322SOL    HW124428   1.164   3.645   8.767 -0.1693 -0.7452 -0.2306
 4322SOL    HW224429   1.141   3.669   8.910 -2.5124 -0.7101  2.4575
 4323SOL     OW24430   1.321   3.921   8.557 -0.0657 -0.0337 -0.4427
 4323SOL    HW124431   1.329   3.912   8.462 -1.8885  1.2531 -0.6969
 4323SOL    HW224432   1.229   3.899   8.567 -0.4845  1.9065  0.0108
 4324SOL     OW24433   3.592   4.044   8.854  0.2062 -0.3294 -0.0435
 4324SOL    HW124434   3.517   3.996   8.819  0.1882 -1.6748  1.7908
 4324SOL    HW224435   3.635   3.965   8.888 -0.7596 -1.4186 -1.3545
 4325SOL     OW24436   2.383   4.460   6.014  0.1807 -0.1824 -0.5089
 4325SOL    HW124437   2.452   4.518   5.980  0.6904 -0.9486 -0.7899
 4325SOL    HW224438   2.429   4.459   6.098  0.0100 -0.2009 -0.4160
 4326SOL     OW24439   0.854   4.677   7.336  0.3416  0.4094  0.2140
 4326SOL    HW124440   0.934   4.625   7.338  0.5486  0.5570 -3.6846
 4326SOL    HW224441   0.876   0.041   7.361 -3.0727  1.3969 -0.2584
 4327SOL     OW24442   3.346   1.088  10.134 -0.1644  0.4282 -0.0224
 4327SOL    HW124443   3.414   1.042  10.086  1.0430  1.2481  0.8972
 4327SOL    HW224444   3.381   1.168  10.172 -1.0857  0.7404  0.1862
 4328SOL     OW24445   1.569   0.425   4.475  0.1714 -0.4442  0.3937
 4328SOL    HW124446   1.664   0.434   4.479  0.2728  0.1478 -2.9394
 4328SOL    HW224447   1.544   0.467   4.557  2.4826  0.5649  0.5871
 4329SOL     OW24448   3.549   2.258  12.082  0.2074  0.2136 -0.5204
 4329SOL    HW124449   3.577   2.328  12.140 -1.8404  1.5154 -1.1013
 4329SOL    HW224450   3.624   2.201  12.096 -0.3688 -0.4929 -0.3195
 4330SOL     OW24451   0.988   1.711   6.986 -0.2283  0.0120  0.0755
 4330SOL    HW124452   1.024   1.724   7.073  0.5406 -0.7639 -0.1255
 4330SOL    HW224453   0.902   1.674   7.007 -0.0300 -0.4588  0.0585
 4331SOL     OW24454   2.182   0.086   1.030 -0.1875 -0.2031 -0.0922
 4331SOL    HW124455   2.189   0.175   0.996 -1.2657  0.2041  0.7290
 4331SOL    HW224456   2.251   0.080   1.096 -0.6300 -2.9362  0.1305
 4332SOL     OW24457   4.592   2.704   9.919  0.1164 -0.3103 -0.4409
 4332SOL    HW124458   4.551   2.622   9.948  0.3867 -0.5568 -0.7469
 4332SOL    HW224459   4.529   2.753   9.867 -0.0155  0.8935  0.8512
 4333SOL     OW24460   3.477   2.220   5.312  0.2743 -0.7275  0.1983
 4333SOL    HW124461   3.475   2.159   5.386  0.3092 -0.8263  0.1170
 4333SOL    HW224462   3.568   2.247   5.304 -0.2750  0.3954 -2.1017
 4334SOL     OW24463   2.505   0.738   4.784 -0.0231 -0.6472 -0.0620
 4334SOL    HW124464   2.576   0.748   4.847 -2.3132  1.8483  2.1325
 4334SOL    HW224465   2.562   0.703   4.716  1.3288  0.6964  0.3834
 4335SOL     OW24466   0.370   4.120  17.143 -0.4787  0.0263 -0.5079
 4335SOL    HW124467   0.410   4.054  17.200  0.4291 -0.8478 -2.1486
 4335SOL    HW224468   0.370   4.065  17.064 -2.8195 -1.5576  0.6097
 4336SOL     OW24469   0.101   3.677   8.566 -0.3630 -0.3072 -0.6687
 4336SOL    HW124470   0.132   3.767   8.570 -0.0761 -0.4277 -0.1944
 4336SOL    HW224471   0.050   3.674   8.647 -0.5487 -0.5708 -0.7939
 4337SOL     OW24472   3.102   4.076  12.182  0.3592 -0.2491  0.1759
 4337SOL    HW124473   3.161   4.109  12.113 -1.3105  1.9632 -0.2052
 4337SOL    HW224474   3.152   4.046  12.258 -1.2898  0.6653  1.6207
 4338SOL     OW24475   0.833   3.661  15.102  0.2189  0.4019 -0.6114
 4338SOL    HW124476   0.764   3.603  15.133 -2.1463  3.4074 -0.2109
 4338SOL    HW224477   0.777   3.739  15.108 -1.1470 -0.5673 -0.6188
 4339SOL     OW24478   3.736   0.777   8.585 -0.0177  0.6012 -0.5698
 4339SOL    HW124479   3.761   0.686   8.573  0.0599  0.7011 -1.1941
 4339SOL    HW224480   3.716   0.801   8.494  0.7886  1.3313 -0.5604
 4340SOL     OW24481   0.775   1.380  15.543 -0.1902 -0.7378 -0.0463
 4340SOL    HW124482   0.830   1.406  15.470  0.2760 -2.2380 -0.2167
 4340SOL    HW224483   0.798   1.288  15.557 -2.1701 -1.0199  1.2972
 4341SOL     OW24484   0.596   2.066   5.415 -0.6114 -0.2467  0.1317
 4341SOL    HW124485   0.637   2.054   5.329 -0.4188 -1.8412  0.4426
 4341SOL    HW224486   0.666   2.109   5.464  0.3400 -1.8285  0.1558
 4342SOL     OW24487   3.943   2.613  12.521  0.0846 -0.1891  0.1447
 4342SOL    HW124488   4.008   2.674  12.557 -0.9429  0.1904  1.3632
 4342SOL    HW224489   3.943   2.633  12.428 -1.5401 -1.1728 -0.0684
 4343SOL     OW24490   4.586   0.927   4.179  0.2467 -1.0963 -0.0474
 4343SOL    HW124491   4.518   0.924   4.246 -2.4035  1.1662 -2.6213
 4343SOL    HW224492   4.583   1.008   4.128 -1.7520 -1.1322  0.0369
 4344SOL     OW24493   3.647   0.278  15.818  0.0354  0.4170  0.1229
 4344SOL    HW124494   3.583   0.337  15.778  0.0677  0.0432 -0.4827
 4344SOL    HW224495   3.698   0.234  15.750  2.4785  2.8605  0.4071
 4345SOL     OW24496   1.382   3.779   7.805  0.2990 -0.3757  0.4255
 4345SOL    HW124497   1.323   3.747   7.736 -0.1772 -0.5036  0.8911
 4345SOL    HW224498   1.416   3.693   7.830  0.2021 -1.2973 -2.5388
 4346SOL     OW24499   2.324   1.591   5.310 -0.6383  0.3777 -0.1552
 4346SOL    HW124500   2.399   1.573   5.253  0.8862 -0.2377  2.0358
 4346SOL    HW224501   2.357   1.569   5.397 -0.7199  1.5473  0.1748
 4347SOL     OW24502   1.251   1.674  11.198  0.2056  0.0894 -0.0409
 4347SOL    HW124503   1.212   1.731  11.132  1.8682  1.2579 -0.0248
 4347SOL    HW224504   1.313   1.738  11.234 -2.1371  1.7059  1.1586
 4348SOL     OW24505   1.681   2.617   3.066 -0.1194 -0.2450 -0.2820
 4348SOL    HW124506   1.604   2.560   3.060 -0.1351  0.1193 -3.7735
 4348SOL    HW224507   1.745   2.575   3.008  1.1487  0.5652  0.5550
 4349SOL     OW24508   1.581   4.154   9.187  0.0568  0.7366 -0.5392
 4349SOL    HW124509   1.631   4.213   9.130  0.5461 -0.8466 -1.7372
 4349SOL    HW224510   1.648   4.141   9.254 -2.1491 -1.5442  1.2163
 4350SOL     OW24511   4.258   1.297   4.013 -0.1175 -0.3445  0.3681
 4350SOL    HW124512   4.246   1.244   3.934  0.3168 -1.6822  1.2038
 4350SOL    HW224513   4.177   1.278   4.061  1.4016 -2.2859  2.1271
 4351SOL     OW24514   3.717   2.357   5.332  0.1555 -0.1627 -0.2105
 4351SOL    HW124515   3.771   2.434   5.314  0.6630  0.2960  3.1778
 4351SOL    HW224516   3.734   2.364   5.426 -0.8933  0.7267 -0.0844
 4352SOL     OW24517   4.340   1.094   8.383 -0.5823 -0.7540 -0.5493
 4352SOL    HW124518   4.355   1.000   8.369  1.3549 -0.5377  0.0433
 4352SOL    HW224519   4.434   1.114   8.390 -0.6420 -1.1843  1.3896
 4353SOL     OW24520   2.758   2.270   7.223  0.3556  0.4463  0.1392
 4353SOL    HW124521   2.752   2.228   7.137 -0.1610 -0.0004  0.3957
 4353SOL    HW224522   2.846   2.244   7.249 -0.2694 -4.0655 -2.2208
 4354SOL     OW24523   0.326   0.893   9.378  0.2381 -0.4386  0.1347
 4354SOL    HW124524   0.407   0.940   9.395 -0.0159 -0.9446  2.6958
 4354SOL    HW224525   0.282   0.890   9.463 -2.5830  0.5273 -1.2685
 4355SOL     OW24526   1.375   1.768  16.887  0.3270 -0.1765 -0.0998
 4355SOL    HW124527   1.401   1.747  16.977  0.7185 -1.0544 -0.4250
 4355SOL    HW224528   1.280   1.775  16.894  0.5853  2.8795  0.3761
 4356SOL     OW24529   4.075   3.224  14.945 -0.1945  0.7102 -0.3721
 4356SOL    HW124530   4.018   3.214  14.869 -0.1052 -2.8237  0.0317
 4356SOL    HW224531   4.127   3.303  14.928 -1.4239  1.7272  0.5846
 4357SOL     OW24532   4.175   1.127  12.910  0.1250  0.1497 -0.0027
 4357SOL    HW124533   4.204   1.099  12.823 -0.6751 -0.4604 -0.0741
 4357SOL    HW224534   4.218   1.059  12.962 -1.8417 -0.8781  0.2725
 4358SOL     OW24535   1.021   2.071   1.152  0.3228  0.6474  0.2384
 4358SOL    HW124536   1.111   2.047   1.127 -0.6534 -0.8436 -1.8270
 4358SOL    HW224537   0.976   2.073   1.068 -2.2138  0.4284  1.6116
 4359SOL     OW24538   4.017   2.696   7.567  0.5083 -0.1517  0.0448
 4359SOL    HW124539   3.932   2.737   7.581  1.5891  1.4968  1.8797
 4359SOL    HW224540   3.997   2.631   7.500  1.2544 -0.1944 -0.1364
 4360SOL     OW24541   0.686   0.426   9.814  0.0869 -0.1359  0.0315
 4360SOL    HW124542   0.629   0.470   9.751 -2.7701 -0.9143  2.0733
 4360SOL    HW224543   0.773   0.450   9.780  0.1984 -2.4604 -1.3007
 4361SOL     OW24544   1.880   0.339   4.224  0.4850  0.4049 -0.1175
 4361SOL    HW124545   1.949   0.286   4.183 -0.0605 -0.0149 -0.4971
 4361SOL    HW224546   1.860   0.392   4.147 -0.8226  1.1162  0.7233
 4362SOL     OW24547   2.186   1.454   5.842 -0.4912  0.1156  0.3410
 4362SOL    HW124548   2.171   1.409   5.925  1.0137  0.1623  0.6419
 4362SOL    HW224549   2.222   1.537   5.873  0.3442 -0.3304  0.5602
 4363SOL     OW24550   3.316   0.092   4.610 -0.0977 -0.0154  0.1581
 4363SOL    HW124551   3.408   0.107   4.632 -0.6457  1.3298  1.5595
 4363SOL    HW224552   3.311   4.722   4.604 -1.1963 -0.1198  2.6385
 4364SOL     OW24553   4.268   2.643  14.040  0.6226  0.1170  0.4146
 4364SOL    HW124554   4.340   2.652  13.977 -0.4398  2.1027 -0.5367
 4364SOL    HW224555   4.199   2.694  13.996  1.3550  0.6903 -0.0758
 4365SOL     OW24556   4.376   1.719   4.566  0.2633  0.4854  0.0444
 4365SOL    HW124557   4.329   1.657   4.622  1.3742 -0.3253  0.0916
 4365SOL    HW224558   4.423   1.771   4.632  2.4730 -1.7457  0.2195
 4366SOL     OW24559   2.501   1.075  16.761 -0.4054 -0.6101 -0.5176
 4366SOL    HW124560   2.580   1.127  16.772 -1.3516  0.4075  1.3560
 4366SOL    HW224561   2.531   0.989  16.791 -0.2645 -1.4023 -2.9369
 4367SOL     OW24562   2.565   4.117   9.837 -0.5901 -0.6403  0.3106
 4367SOL    HW124563   2.588   4.095   9.746  1.1415 -0.7058  0.7679
 4367SOL    HW224564   2.505   4.191   9.825 -0.4254 -0.5453  0.0646
 4368SOL     OW24565   2.384   4.338   7.749  0.2858  0.6730  0.0170
 4368SOL    HW124566   2.302   4.381   7.723  1.6538  0.6205 -4.5278
 4368SOL    HW224567   2.365   4.254   7.706 -3.1670  0.9456  1.0356
 4369SOL     OW24568   3.522   1.156   8.264  0.0162 -0.1633 -0.4507
 4369SOL    HW124569   3.543   1.220   8.196  2.6623 -1.2071 -0.6234
 4369SOL    HW224570   3.516   1.213   8.341  0.7166 -1.4315  0.5417
 4370SOL     OW24571   3.720   0.320   1.246 -0.2101  0.1304 -0.3871
 4370SOL    HW124572   3.732   0.347   1.155  1.7822  2.1616  0.4814
 4370SOL    HW224573   3.671   0.239   1.228  0.7935 -0.5857  0.0607
 4371SOL     OW24574   1.117   0.511   9.296 -0.0776 -0.1397  0.1961
 4371SOL    HW124575   1.128   0.418   9.281  1.7535  0.1387 -0.2159
 4371SOL    HW224576   1.023   0.516   9.281 -0.1752 -0.9520  0.5599
 4372SOL     OW24577   2.319   1.647   8.141  0.1295  0.1766  0.1577
 4372SOL    HW124578   2.258   1.633   8.213  1.7665  1.1549  1.7251
 4372SOL    HW224579   2.299   1.571   8.086  2.1512 -0.8308  0.7966
 4373SOL     OW24580   0.895   4.000   7.494 -0.1605  0.1974 -1.2111
 4373SOL    HW124581   0.927   3.947   7.567  0.4385 -0.6823 -2.1153
 4373SOL    HW224582   0.871   3.933   7.430 -0.1470 -0.9667  0.0074
 4374SOL     OW24583   1.206   4.151   5.130 -0.4744  0.0508 -0.0917
 4374SOL    HW124584   1.132   4.093   5.112  1.0776 -1.5854 -1.1811
 4374SOL    HW224585   1.206   4.129   5.223  0.3847  1.2390  0.1874
 4375SOL     OW24586   1.908   2.962   7.056 -0.0672  0.6542  0.1721
 4375SOL    HW124587   1.829   2.910   7.070 -0.2115  0.8269  0.0015
 4375SOL    HW224588   1.936   2.981   7.145  0.4571  0.6741  0.0031
 4376SOL     OW24589   2.870   2.736   4.404  0.2595 -0.6662 -0.2084
 4376SOL    HW124590   2.806   2.788   4.451 -0.7190 -0.2589 -1.9900
 4376SOL    HW224591   2.920   2.807   4.364 -0.1591 -0.3887 -0.2401
 4377SOL     OW24592   0.111   0.108   9.012 -0.5362  0.3402 -0.1189
 4377SOL    HW124593   0.072   0.172   8.952  2.1884  2.6322  0.5354
 4377SOL    HW224594   0.129   0.162   9.089  2.3293  0.3760 -0.7942
 4378SOL     OW24595   4.560   3.927   8.340  0.3212 -0.3962 -0.0122
 4378SOL    HW124596   4.527   3.837   8.339  0.4372 -0.4401  0.1532
 4378SOL    HW224597   4.609   3.927   8.422 -0.7885  0.5074  0.6415
 4379SOL     OW24598   1.769   3.341   4.843 -0.4872 -0.4623  0.0323
 4379SOL    HW124599   1.851   3.371   4.882 -0.0578  0.0795 -1.2727
 4379SOL    HW224600   1.704   3.353   4.913 -0.5220  2.8854 -0.5796
 4380SOL     OW24601   0.404   0.097   8.268 -0.5865  0.4862 -0.9623
 4380SOL    HW124602   0.403   0.024   8.330  1.0568  0.5497 -0.8523
 4380SOL    HW224603   0.382   0.054   8.186 -2.6551  0.4862 -0.4068
 4381SOL     OW24604   3.398   3.358  11.334 -0.2973 -0.4280 -0.5441
 4381SOL    HW124605   3.317   3.308  11.344 -1.1170  0.7230 -1.5655
 4381SOL    HW224606   3.446   3.335  11.414 -0.0876 -0.0059 -0.5478
 4382SOL     OW24607   3.206   2.587   3.852 -0.0048  0.0145  0.3181
 4382SOL    HW124608   3.270   2.601   3.782 -0.5001 -2.0223 -0.5397
 4382SOL    HW224609   3.192   2.680   3.870  1.0667  0.5384 -1.5209
 4383SOL     OW24610   0.037   1.042   7.817 -0.7678  0.2810  0.2243
 4383SOL    HW124611   0.108   1.078   7.764 -1.0199  0.3172 -0.0926
 4383SOL    HW224612   0.036   0.949   7.794  2.6331  0.0334  1.1820
 4384SOL     OW24613   3.475   4.436  10.206  0.2163 -0.0790 -0.1445
 4384SOL    HW124614   3.422   4.432  10.286 -1.6603  2.1256 -1.2589
 4384SOL    HW224615   3.446   4.522  10.175  1.6729  0.4346 -0.0532
 4385SOL     OW24616   2.424   0.156  14.517 -0.2306  0.2658  0.0372
 4385SOL    HW124617   2.416   0.138  14.423  1.8557 -1.9303  0.2781
 4385SOL    HW224618   2.335   0.151  14.553 -1.3395  1.1579 -2.6201
 4386SOL     OW24619   3.780   4.591  14.325  0.1082  0.0716  0.3250
 4386SOL    HW124620   3.808   4.554  14.409  2.1922  0.4253 -0.2075
 4386SOL    HW224621   3.779   4.686  14.341  2.5298  0.2335 -0.4417
 4387SOL     OW24622   4.654   1.644  14.310  0.4796 -0.1240  0.1723
 4387SOL    HW124623   4.647   1.645  14.214 -0.7567  2.4643  0.2957
 4387SOL    HW224624   4.626   1.735  14.324  1.1442  0.1124 -0.0672
 4388SOL     OW24625   3.111   4.022   8.795 -0.1017 -0.2624  0.4896
 4388SOL    HW124626   3.072   3.949   8.844  0.4973  0.6592  2.2864
 4388SOL    HW224627   3.042   4.024   8.727 -0.0923 -3.8077  0.3345
 4389SOL     OW24628   4.695   2.183  15.903 -0.6843 -0.0507  0.6811
 4389SOL    HW124629   0.011   2.135  15.975  2.5639  3.3491  1.0878
 4389SOL    HW224630   4.618   2.216  15.949 -0.7305 -0.1906  0.7036
 4390SOL     OW24631   2.212   0.321  14.354  0.1586 -0.1386  0.0753
 4390SOL    HW124632   2.173   0.406  14.373  1.2424  0.5758 -0.9349
 4390SOL    HW224633   2.302   0.330  14.385 -0.7435  1.5091  2.2339
 4391SOL     OW24634   4.133   0.804  12.596 -0.0429  0.4495  0.4610
 4391SOL    HW124635   4.175   0.850  12.668  0.8517  1.3472 -0.6379
 4391SOL    HW224636   4.112   0.873  12.532  0.1804  2.4895  2.5982
 4392SOL     OW24637   3.511   0.550  11.686  0.2105 -0.2034 -0.2889
 4392SOL    HW124638   3.422   0.515  11.695 -0.0414  0.7461  0.9355
 4392SOL    HW224639   3.539   0.510  11.604  1.2905 -1.5485  0.7185
 4393SOL     OW24640   3.975   2.016  11.705 -0.7633  0.2037  0.3814
 4393SOL    HW124641   3.943   1.998  11.616  1.9721  1.9735 -0.9727
 4393SOL    HW224642   4.029   1.939  11.722 -1.7404 -0.5587  0.0429
 4394SOL     OW24643   0.291   0.077   3.461  0.1048  0.2788 -0.2308
 4394SOL    HW124644   0.293   0.151   3.401 -1.8537  0.7147  0.2500
 4394SOL    HW224645   0.201   0.054   3.440  0.6943 -1.9028 -0.4354
 4395SOL     OW24646   2.609   3.332   9.283  0.0246 -0.0570  0.0917
 4395SOL    HW124647   2.549   3.407   9.283  0.7652  0.5416 -1.5062
 4395SOL    HW224648   2.551   3.258   9.303  0.2471 -0.0308  0.8131
 4396SOL     OW24649   1.145   2.290   7.970 -0.8229 -0.1408 -0.8284
 4396SOL    HW124650   1.208   2.321   7.905  0.4309 -1.0961 -0.0781
 4396SOL    HW224651   1.089   2.224   7.930 -0.7856  0.2413 -1.5102
 4397SOL     OW24652   4.264   2.292  10.302 -1.2858  0.0882 -0.4159
 4397SOL    HW124653   4.173   2.265  10.313 -0.8934 -1.7076 -1.5267
 4397SOL    HW224654   4.294   2.302  10.392  1.0055  2.1303 -1.4061
 4398SOL     OW24655   3.501   0.288   4.157 -0.0435  0.1511  0.4669
 4398SOL    HW124656   3.439   0.277   4.229  0.9980  0.1683  1.3703
 4398SOL    HW224657   3.584   0.303   4.203  0.1558 -0.6049  0.3551
 4399SOL     OW24658   0.617   2.767   2.859  0.1273 -0.0459 -0.3454
 4399SOL    HW124659   0.592   2.675   2.862 -0.7004  0.1842 -0.0531
 4399SOL    HW224660   0.661   2.776   2.944 -0.9085 -1.1252  0.2998
 4400SOL     OW24661   0.165   3.067  15.474  0.1990 -0.0495  0.0258
 4400SOL    HW124662   0.166   3.076  15.378  0.6743  2.1877  0.2348
 4400SOL    HW224663   0.259   3.071  15.490  0.2403 -2.4101  0.3684
 4401SOL     OW24664   3.122   1.890   2.866  0.9095  0.4859 -0.1108
 4401SOL    HW124665   3.170   1.965   2.901  0.8793  1.3325 -1.8829
 4401SOL    HW224666   3.187   1.820   2.857 -0.7632 -1.3679  2.0299
 4402SOL     OW24667   1.899   0.081  17.277 -0.1697 -0.0274 -0.0311
 4402SOL    HW124668   1.930   4.715  17.276 -2.5195 -0.8471  1.3997
 4402SOL    HW224669   1.875   0.098  17.368  0.8300 -0.7699  0.3699
 4403SOL     OW24670   1.241   2.900   3.467 -0.0851 -0.4352 -0.4731
 4403SOL    HW124671   1.226   2.993   3.486  1.3332 -0.8464  2.7383
 4403SOL    HW224672   1.243   2.876   3.560 -1.5547 -0.9160 -0.5586
 4404SOL     OW24673   1.817   3.073   6.266 -0.1951 -0.1594  0.6432
 4404SOL    HW124674   1.896   3.037   6.225 -1.1063 -0.5588 -0.7608
 4404SOL    HW224675   1.863   3.136   6.320 -2.1566  0.9319  1.0436
 4405SOL     OW24676   4.554   0.320   2.569 -0.2835 -0.8123 -0.0926
 4405SOL    HW124677   4.464   0.295   2.546 -0.0284 -1.2247 -0.6468
 4405SOL    HW224678   4.573   0.229   2.592 -3.7099 -2.2252 -2.8004
 4406SOL     OW24679   1.169   3.593  11.740  0.1080 -0.0144 -0.0454
 4406SOL    HW124680   1.243   3.601  11.800  0.1058 -1.2845  0.1291
 4406SOL    HW224681   1.113   3.668  11.762  0.1106 -0.3323  1.0491
 4407SOL     OW24682   2.301   0.504  12.511  0.4573  0.1400  0.1551
 4407SOL    HW124683   2.385   0.463  12.529 -0.5440 -1.8029  0.3631
 4407SOL    HW224684   2.275   0.533  12.599  0.5095 -1.6820  0.7749
 4408SOL     OW24685   2.154   1.060  10.809  0.1833  0.0569 -0.0597
 4408SOL    HW124686   2.070   1.103  10.819 -0.1171 -1.2459  2.8619
 4408SOL    HW224687   2.169   1.025  10.897 -0.8784 -1.5076 -0.5216
 4409SOL     OW24688   1.351   1.951   9.201 -0.0604 -0.3859 -0.4470
 4409SOL    HW124689   1.292   1.906   9.261  0.4093 -0.2350  0.1347
 4409SOL    HW224690   1.310   2.036   9.183 -0.4332 -0.5341 -0.2922
 4410SOL     OW24691   3.197   0.168   8.939 -0.0457  0.1226 -0.2976
 4410SOL    HW124692   3.264   0.107   8.967 -0.2146 -0.4267 -1.0883
 4410SOL    HW224693   3.238   0.253   8.957  1.2165 -0.9686  1.9855
 4411SOL     OW24694   3.959   4.649  14.115 -0.2018  0.3455  0.0968
 4411SOL    HW124695   4.013   4.701  14.175 -2.3791  1.2898  1.2554
 4411SOL    HW224696   3.904   4.618  14.187  0.2843 -0.5648  0.0664
 4412SOL     OW24697   1.159   1.731   5.391 -0.1709 -0.3549 -0.1251
 4412SOL    HW124698   1.139   1.638   5.403  0.0325 -0.3730  0.0823
 4412SOL    HW224699   1.203   1.751   5.473 -2.6039  2.4507  0.5035
 4413SOL     OW24700   2.375   4.723  11.057  0.1324  0.0713 -0.3704
 4413SOL    HW124701   2.346   4.648  11.110  1.3379 -0.0514  0.1385
 4413SOL    HW224702   2.324   4.716  10.977  0.6457 -0.5504 -0.6452
 4414SOL     OW24703   0.713   4.444   3.951 -0.7100 -0.6569 -0.2119
 4414SOL    HW124704   0.623   4.436   3.918  0.0587 -1.4023 -2.0909
 4414SOL    HW224705   0.724   4.378   4.019 -0.2505 -1.7336 -1.3312
 4415SOL     OW24706   4.065   0.073  14.317  0.1761 -1.0754  0.1692
 4415SOL    HW124707   4.151   0.113  14.324 -0.3772  0.1229  0.1187
 4415SOL    HW224708   4.030   0.079  14.406  0.1671 -1.9946  0.2284
 4416SOL     OW24709   0.438   2.368   2.611 -0.7359 -0.8622  0.1725
 4416SOL    HW124710   0.478   2.281   2.604  2.7261  0.8865 -1.7206
 4416SOL    HW224711   0.353   2.331   2.637 -1.1445 -1.1914 -1.5673
 4417SOL     OW24712   2.053   3.661  11.559 -0.0813 -0.6615  0.2037
 4417SOL    HW124713   2.046   3.632  11.468 -1.6469 -0.1444  0.1600
 4417SOL    HW224714   1.973   3.623  11.594 -0.5139  1.1718  1.1955
 4418SOL     OW24715   3.155   1.718  12.026  0.5411 -0.0369  0.7719
 4418SOL    HW124716   3.238   1.733  11.980  0.7773 -0.8176  0.9402
 4418SOL    HW224717   3.097   1.778  11.980  0.8651 -0.9480 -0.8306
 4419SOL     OW24718   4.619   0.218  11.454  0.4357 -0.5319 -0.4321
 4419SOL    HW124719   4.682   0.287  11.473 -0.3878  0.0269  0.2464
 4419SOL    HW224720   4.630   0.154  11.524  1.6004  0.3010  0.1366
 4420SOL     OW24721   3.963   2.635  10.593 -0.5181 -0.3777  0.3968
 4420SOL    HW124722   3.992   2.643  10.502 -1.9787 -0.2598 -0.0576
 4420SOL    HW224723   4.026   2.575  10.633 -0.6403  1.6018  3.6376
 4421SOL     OW24724   0.066   0.925   7.193 -0.0438 -0.4446  0.2371
 4421SOL    HW124725   0.002   0.888   7.254  1.6047 -0.7470  1.7987
 4421SOL    HW224726   0.074   0.851   7.133  0.8152 -0.0404 -0.1409
 4422SOL     OW24727   0.473   3.402   5.611  0.0258  0.3816  0.1829
 4422SOL    HW124728   0.502   3.456   5.537  1.7283 -2.2054 -1.0350
 4422SOL    HW224729   0.380   3.395   5.591 -0.4665  1.5961  2.0881
 4423SOL     OW24730   1.587   1.850   1.267 -0.2739 -0.6183 -0.7223
 4423SOL    HW124731   1.668   1.895   1.289 -1.5673  1.1290  0.4691
 4423SOL    HW224732   1.549   1.903   1.197 -0.4218  1.4597  0.9450
 4424SOL     OW24733   2.707   2.842   7.805  0.1966  0.6231 -0.1960
 4424SOL    HW124734   2.775   2.881   7.860  0.1301 -0.8043  0.8780
 4424SOL    HW224735   2.638   2.852   7.871 -2.1059  0.9572 -2.6256
 4425SOL     OW24736   2.016   3.895   1.687  0.1693 -0.0893  0.6328
 4425SOL    HW124737   2.105   3.864   1.669 -0.3357 -0.0037 -1.9155
 4425SOL    HW224738   2.042   3.979   1.724  2.5969 -0.5546  0.0064
 4426SOL     OW24739   4.444   1.683   5.936  0.2348  0.6718  0.1995
 4426SOL    HW124740   4.497   1.639   5.869  0.3478  2.9077 -1.1728
 4426SOL    HW224741   4.421   1.617   6.002  0.9153  0.3069  0.0762
 4427SOL     OW24742   2.598   1.409   2.555  0.3797 -0.2192 -0.0586
 4427SOL    HW124743   2.622   1.433   2.644  0.5107 -1.4303  0.2374
 4427SOL    HW224744   2.549   1.326   2.552 -0.1045  0.1029 -1.1241
 4428SOL     OW24745   4.330   0.517  12.712  0.1738 -0.0208  0.4812
 4428SOL    HW124746   4.343   0.449  12.778  3.3137  0.2266  0.1528
 4428SOL    HW224747   4.310   0.593  12.766 -2.0455  1.7839 -2.9016
 4429SOL     OW24748   3.960   0.798   3.727 -0.2943 -0.2437  0.0444
 4429SOL    HW124749   3.945   0.889   3.702  1.8186  0.7295  2.2950
 4429SOL    HW224750   4.021   0.770   3.659 -0.7995 -1.7819  0.2200
 4430SOL     OW24751   2.476   0.462  14.454  0.1681 -0.1609 -0.2202
 4430SOL    HW124752   2.523   0.457  14.370  0.3957 -1.2247 -0.0276
 4430SOL    HW224753   2.506   0.389  14.507  1.2297  0.4877  0.0842
 4431SOL     OW24754   0.610   3.818   5.217 -0.1001  0.3896  0.0194
 4431SOL    HW124755   0.593   3.770   5.135 -1.2658 -0.4194  0.7467
 4431SOL    HW224756   0.536   3.878   5.214 -0.2812  0.1782  0.3057
 4432SOL     OW24757   2.752   1.777   3.744  0.2603 -0.2557  0.1486
 4432SOL    HW124758   2.796   1.812   3.821  0.1073 -0.3125  0.2613
 4432SOL    HW224759   2.810   1.706   3.718 -1.4238 -1.2759 -0.8245
 4433SOL     OW24760   1.819   4.211   6.885  0.3143  0.4582 -0.8818
 4433SOL    HW124761   1.854   4.300   6.885 -2.5140  1.5686  0.6346
 4433SOL    HW224762   1.728   4.227   6.911  0.3846 -0.8180  0.1593
 4434SOL     OW24763   3.562   3.884   6.326 -0.5951 -0.4049  0.0264
 4434SOL    HW124764   3.471   3.854   6.325 -0.1094 -1.8961  0.6743
 4434SOL    HW224765   3.565   3.939   6.247  2.5177 -0.6541 -0.0147
 4435SOL     OW24766   4.579   4.197   3.685  0.4253  0.3235 -0.2940
 4435SOL    HW124767   4.539   4.282   3.664 -2.4345 -0.4461  1.9484
 4435SOL    HW224768   4.666   4.203   3.647  0.2303  0.0763 -0.7754
 4436SOL     OW24769   3.105   1.898   4.916  0.2001 -0.0847  0.2289
 4436SOL    HW124770   3.193   1.935   4.916  0.3725 -0.4804  1.4561
 4436SOL    HW224771   3.047   1.961   4.873 -1.0580 -1.1820  0.2931
 4437SOL     OW24772   3.694   3.090   4.318  0.3802  0.4656  0.7599
 4437SOL    HW124773   3.688   3.077   4.412  0.4545  1.7609  0.9449
 4437SOL    HW224774   3.786   3.068   4.301  0.0483 -1.2112  1.1062
 4438SOL     OW24775   3.440   1.381   8.775 -0.9801 -0.5663 -0.5484
 4438SOL    HW124776   3.508   1.447   8.766  0.9523 -2.7079 -1.5967
 4438SOL    HW224777   3.365   1.437   8.795 -2.5628 -2.9537  0.2076
 4439SOL     OW24778   3.476   3.002   3.207 -0.1102 -1.0922 -0.6740
 4439SOL    HW124779   3.399   3.014   3.262  1.5669 -1.4640  1.7209
 4439SOL    HW224780   3.507   3.092   3.196 -0.0048 -1.0722 -0.1861
 4440SOL     OW24781   1.884   1.801   5.137 -0.1454  0.4521  0.3481
 4440SOL    HW124782   1.937   1.749   5.198  0.4553  1.1924  0.4553
 4440SOL    HW224783   1.944   1.875   5.128 -1.2412  0.9682 -2.7378
 4441SOL     OW24784   0.301   3.381   7.918 -0.4039 -0.0827  0.2464
 4441SOL    HW124785   0.261   3.468   7.923 -0.7748 -0.1535 -1.4173
 4441SOL    HW224786   0.395   3.394   7.928 -0.2776 -1.1081  0.3258
 4442SOL     OW24787   1.607   0.934   8.797  0.1179  0.2713  0.1559
 4442SOL    HW124788   1.584   0.977   8.879 -1.0074  0.4783 -0.2682
 4442SOL    HW224789   1.577   0.845   8.814  1.8849 -0.3559 -0.0157
 4443SOL     OW24790   2.679   4.099   5.427 -0.1895 -0.2964 -0.1323
 4443SOL    HW124791   2.647   4.057   5.507  0.9726  1.4436  1.2393
 4443SOL    HW224792   2.596   4.114   5.382 -0.1240  0.2182 -0.0852
 4444SOL     OW24793   0.274   1.839   7.442  0.0451 -0.4598 -0.2073
 4444SOL    HW124794   0.325   1.898   7.497 -0.7535 -0.7931  0.8892
 4444SOL    HW224795   0.273   1.887   7.358 -0.1070 -0.0071  0.0496
 4445SOL     OW24796   4.529   1.201  12.752  0.1575 -0.2564 -0.3119
 4445SOL    HW124797   4.573   1.287  12.749  0.9327 -0.6057  1.0794
 4445SOL    HW224798   4.556   1.183  12.842  0.1654  4.0048  0.5323
 4446SOL     OW24799   2.672   2.802   2.073 -0.4185 -0.3988 -0.1053
 4446SOL    HW124800   2.729   2.875   2.047 -0.7505 -0.7580 -1.7837
 4446SOL    HW224801   2.632   2.833   2.154 -2.2270 -0.0929 -1.1137
 4447SOL     OW24802   1.971   2.563  16.669  0.9078 -0.1971  0.0182
 4447SOL    HW124803   1.880   2.554  16.698  0.9293 -0.0691  0.1237
 4447SOL    HW224804   2.016   2.499  16.725  0.5113 -1.2039 -0.8231
 4448SOL     OW24805   2.475   4.161   3.873  0.6973 -0.3175  0.3182
 4448SOL    HW124806   2.461   4.255   3.873 -1.3023 -0.6145 -0.9667
 4448SOL    HW224807   2.479   4.142   3.779 -1.4211 -0.5825  0.2869
 4449SOL     OW24808   2.348   2.634  16.069  0.0719 -0.3269  0.2434
 4449SOL    HW124809   2.337   2.589  16.153 -2.1620 -0.9755 -0.3894
 4449SOL    HW224810   2.287   2.584  16.014 -1.3013  1.2886  0.2867
 4450SOL     OW24811   3.344   0.578  10.493 -0.0957 -0.1224 -0.3914
 4450SOL    HW124812   3.254   0.549  10.508 -0.4199  0.1207 -1.8323
 4450SOL    HW224813   3.328   0.671  10.474  0.4190  0.2733  1.1610
 4451SOL     OW24814   2.823   4.154  11.326  0.9745  0.3367  0.2056
 4451SOL    HW124815   2.828   4.140  11.232 -1.0964  2.2702 -0.2055
 4451SOL    HW224816   2.823   4.061  11.350  1.9136  0.7849  1.9251
 4452SOL     OW24817   3.936   2.069   3.695  0.0684 -0.4097 -0.0628
 4452SOL    HW124818   4.018   2.023   3.712  0.4871 -0.0871 -1.1930
 4452SOL    HW224819   3.968   2.159   3.684 -0.3770 -0.0370  1.6746
 4453SOL     OW24820   1.459   1.221   7.084 -0.1086  0.6927  0.2850
 4453SOL    HW124821   1.516   1.161   7.132  0.6307  1.2245  0.0650
 4453SOL    HW224822   1.512   1.227   7.005  0.7816  0.9249  0.9023
 4454SOL     OW24823   4.240   1.228   3.094  0.2429  0.2511 -0.1177
 4454SOL    HW124824   4.266   1.159   3.033 -0.8501  0.2848 -0.6225
 4454SOL    HW224825   4.235   1.310   3.045  1.0567  0.7959  0.7201
 4455SOL     OW24826   3.895   4.092   7.057 -0.3567 -0.0423 -0.2457
 4455SOL    HW124827   3.902   4.124   7.147 -2.1165  1.5728 -0.6578
 4455SOL    HW224828   3.882   3.998   7.070  1.9763 -0.3199 -0.0003
 4456SOL     OW24829   0.120   1.941   2.231  0.0322  0.4523 -0.1753
 4456SOL    HW124830   0.173   1.864   2.209  0.1775  0.6660 -0.5728
 4456SOL    HW224831   0.159   1.982   2.308 -0.5541  1.0006 -0.1718
 4457SOL     OW24832   0.601   0.168   3.583  0.3612  0.2536 -0.5733
 4457SOL    HW124833   0.545   0.149   3.508  1.1674 -0.9351 -0.8645
 4457SOL    HW224834   0.674   0.213   3.541  0.0593 -0.0757 -1.4364
 4458SOL     OW24835   2.166   2.202  12.000 -0.7057 -0.3063  0.0601
 4458SOL    HW124836   2.076   2.225  11.977  0.5212  2.9509 -1.5312
 4458SOL    HW224837   2.148   2.109  12.013 -1.3524 -0.0993  0.6492
 4459SOL     OW24838   1.383   3.117   2.995 -0.3580  0.4016  0.0153
 4459SOL    HW124839   1.325   3.110   2.919 -1.2771  0.7469  0.6852
 4459SOL    HW224840   1.435   3.037   2.992  1.4016  1.5347  1.0608
 4460SOL     OW24841   2.141   2.045   1.953 -0.4628  0.1646 -0.0842
 4460SOL    HW124842   2.149   2.055   1.859 -1.2673 -1.6946 -0.3386
 4460SOL    HW224843   2.046   2.050   1.970 -0.2459 -2.4097  1.8878
 4461SOL     OW24844   0.193   4.153  16.821  0.3197 -0.7425 -0.0087
 4461SOL    HW124845   0.279   4.123  16.793  1.4211  1.7301  0.7713
 4461SOL    HW224846   0.195   4.247  16.801  0.8114 -0.2504  2.4470
 4462SOL     OW24847   2.020   4.394   1.662 -0.4653  0.0950 -0.2451
 4462SOL    HW124848   1.965   4.380   1.739 -0.3631  0.2157 -0.1503
 4462SOL    HW224849   2.094   4.437   1.704 -1.1142  2.4334 -1.4734
 4463SOL     OW24850   2.053   2.310  15.587  0.0256 -0.1930  0.0209
 4463SOL    HW124851   2.066   2.267  15.671 -0.2721  0.4264  0.3822
 4463SOL    HW224852   2.135   2.358  15.573 -0.4867  0.5270 -0.5526
 4464SOL     OW24853   1.392   1.660   8.972 -0.0455 -0.1279 -0.1034
 4464SOL    HW124854   1.364   1.672   9.063 -1.4547 -0.4821 -0.4868
 4464SOL    HW224855   1.456   1.730   8.967 -3.2761  2.8428 -0.0049
 4465SOL     OW24856   0.826   3.300  14.730  0.0718  0.1450 -0.6839
 4465SOL    HW124857   0.732   3.285  14.743  0.6738 -2.9224  0.1146
 4465SOL    HW224858   0.863   3.249  14.803  0.1228 -2.2650 -2.3892
 4466SOL     OW24859   3.144   3.782   6.014  0.4799 -0.0403 -0.3688
 4466SOL    HW124860   3.072   3.720   6.021  2.8188 -2.6495  0.3920
 4466SOL    HW224861   3.103   3.856   6.059 -2.0606 -1.5187 -0.2461
 4467SOL     OW24862   3.278   4.237   3.729  0.4447 -0.3494 -0.6211
 4467SOL    HW124863   3.354   4.202   3.683 -0.4900 -0.5003 -2.0482
 4467SOL    HW224864   3.275   4.328   3.699 -0.1886 -0.3080 -0.4273
 4468SOL     OW24865   4.342   0.965   4.372 -0.2067  0.1402 -0.4778
 4468SOL    HW124866   4.364   0.971   4.464 -2.1425  0.2767 -0.0284
 4468SOL    HW224867   4.316   1.055   4.351  0.1676  0.2340 -0.5318
 4469SOL     OW24868   0.134   1.220  10.270 -0.5838  0.2876 -0.2064
 4469SOL    HW124869   0.222   1.204  10.237 -1.7798 -3.1351 -1.7988
 4469SOL    HW224870   0.148   1.214  10.365 -1.2354 -1.3740 -0.2097
 4470SOL     OW24871   1.664   2.120   7.760 -0.2789 -0.1481  0.0829
 4470SOL    HW124872   1.713   2.042   7.786 -2.2133 -2.3499 -2.8480
 4470SOL    HW224873   1.662   2.180   7.835 -2.7670  0.3413 -0.3658
 4471SOL     OW24874   0.252   3.027  13.321  0.2975 -0.1689  0.0905
 4471SOL    HW124875   0.318   3.020  13.252 -0.0425 -1.3276 -0.1239
 4471SOL    HW224876   0.213   2.940  13.321 -0.9707  0.3941 -0.2475
 4472SOL     OW24877   0.971   3.944   7.842  0.1514  0.2771  0.3292
 4472SOL    HW124878   1.048   3.887   7.837 -1.1416 -1.4116 -0.3283
 4472SOL    HW224879   1.008   4.031   7.827 -2.2492  1.3136  0.4290
 4473SOL     OW24880   4.299   3.277   4.886 -0.0122  0.5642 -0.2546
 4473SOL    HW124881   4.205   3.292   4.878 -0.2822 -1.8224 -1.6565
 4473SOL    HW224882   4.303   3.191   4.929 -2.0700 -0.1598 -1.4892
 4474SOL     OW24883   3.445   3.312   6.730 -0.0486  0.4893 -0.1105
 4474SOL    HW124884   3.399   3.365   6.795 -1.3221 -2.2669  1.2590
 4474SOL    HW224885   3.447   3.367   6.652 -0.4424  0.4696 -0.1324
 4475SOL     OW24886   4.600   1.408   1.590  0.3641  0.5367 -0.0488
 4475SOL    HW124887   4.670   1.413   1.524  2.6555  0.4496  2.3824
 4475SOL    HW224888   4.639   1.435   1.673 -1.2908 -3.3968  2.0219
 4476SOL     OW24889   0.464   0.959   5.622 -0.2751  0.0156 -0.7735
 4476SOL    HW124890   0.542   0.917   5.585 -1.0247 -2.0973  0.0415
 4476SOL    HW224891   0.475   1.036   5.567 -0.7874 -0.6699 -1.8225
 4477SOL     OW24892   0.455   3.507  12.652 -0.5826  0.1279 -0.7312
 4477SOL    HW124893   0.445   3.588  12.702 -0.3829  1.1572 -2.3579
 4477SOL    HW224894   0.419   3.541  12.570 -2.3495  0.5942  0.2245
 4478SOL     OW24895   2.541   2.445  15.455  0.1673  0.0545  0.1540
 4478SOL    HW124896   2.518   2.535  15.431  0.2491 -0.3802 -1.5689
 4478SOL    HW224897   2.631   2.449  15.424  0.8415 -0.0279  2.1792
 4479SOL     OW24898   4.100   4.108  11.967  0.0229 -0.5692 -0.4666
 4479SOL    HW124899   4.011   4.140  11.950  0.1133  0.6536  1.3171
 4479SOL    HW224900   4.139   4.157  11.895 -1.8975  0.4912 -0.7795
 4480SOL     OW24901   3.699   3.855   7.111 -0.1692 -0.3118  0.3086
 4480SOL    HW124902   3.677   3.761   7.113  0.8610 -0.5448  0.6647
 4480SOL    HW224903   3.642   3.891   7.179  1.6738 -0.1971  1.7733
 4481SOL     OW24904   4.689   1.707   7.958 -0.1104 -0.4572 -0.6441
 4481SOL    HW124905   4.665   1.797   7.979 -0.6890 -0.3032 -1.9190
 4481SOL    HW224906   0.001   1.670   8.038  1.2363 -0.8045 -1.4378
 4482SOL     OW24907   1.129   0.750  17.388 -0.1049 -0.3381  0.0545
 4482SOL    HW124908   1.084   0.835  17.389  1.1372  0.3044  0.7836
 4482SOL    HW224909   1.060   0.707  17.337 -2.2411  1.4062  1.4435
 4483SOL     OW24910   3.684   1.655  13.544 -0.2505 -0.1875 -0.7953
 4483SOL    HW124911   3.660   1.710  13.469  4.1671 -0.7541 -2.6662
 4483SOL    HW224912   3.780   1.657  13.540 -0.1373  0.6959  2.5353
 4484SOL     OW24913   2.575   2.748   3.153 -0.1116  0.0332  0.1976
 4484SOL    HW124914   2.560   2.682   3.221  0.2902 -1.1435 -0.8600
 4484SOL    HW224915   2.645   2.704   3.105 -0.8796  0.1833 -1.0767
 4485SOL     OW24916   3.623   3.662   6.011 -0.5872 -0.1707  0.2483
 4485SOL    HW124917   3.638   3.744   5.965  0.5200  0.5240  1.8231
 4485SOL    HW224918   3.528   3.665   6.001 -0.6398  0.3604  0.8434
 4486SOL     OW24919   1.645   0.220   1.731 -0.5309 -0.0620  0.2190
 4486SOL    HW124920   1.654   0.284   1.802  2.4710  0.7097 -0.8832
 4486SOL    HW224921   1.736   0.195   1.740 -0.0050  1.6025 -0.4746
 4487SOL     OW24922   2.412   4.681   0.843  0.0225  0.3491  0.0853
 4487SOL    HW124923   2.403   0.024   0.777 -0.3731  1.7890  1.6336
 4487SOL    HW224924   2.508   4.683   0.852 -0.0442 -0.0220  0.8675
 4488SOL     OW24925   4.656   1.748   9.919  0.7102 -0.4518 -0.0868
 4488SOL    HW124926   4.658   1.728  10.012  0.2099  0.7614  0.1910
 4488SOL    HW224927   4.696   1.673   9.875  0.7918  0.6856 -1.9916
 4489SOL     OW24928   0.303   1.502   3.060 -0.0117 -0.0973 -0.2035
 4489SOL    HW124929   0.268   1.426   3.014  0.4400  0.0070 -0.7224
 4489SOL    HW224930   0.240   1.505   3.132 -0.2274  0.9632 -0.4348
 4490SOL     OW24931   0.907   0.853  14.464  0.0867 -0.0098 -0.7959
 4490SOL    HW124932   0.984   0.805  14.435 -0.1498  0.8313 -2.8035
 4490SOL    HW224933   0.861   0.775  14.494 -0.3332  0.5289 -0.0342
 4491SOL     OW24934   0.920   4.658   5.114 -0.5497 -0.0205 -0.1154
 4491SOL    HW124935   0.973   4.725   5.071 -2.2554  1.3299 -0.1425
 4491SOL    HW224936   0.982   4.632   5.182 -0.6785  1.5683  0.6030
 4492SOL     OW24937   4.230   2.260  15.182 -0.1646 -0.0190  0.8510
 4492SOL    HW124938   4.169   2.297  15.119  0.2517  0.7609  0.9087
 4492SOL    HW224939   4.303   2.322  15.182 -1.1679  1.1464  0.6854
 4493SOL     OW24940   0.445   4.355  12.783  0.1107  0.3238 -0.3941
 4493SOL    HW124941   0.518   4.373  12.842  1.6996 -2.6942 -1.4342
 4493SOL    HW224942   0.381   4.342  12.853  0.0635 -1.3252 -0.7345
 4494SOL     OW24943   4.413   2.722   1.647  0.0903 -0.1403  0.5844
 4494SOL    HW124944   4.327   2.739   1.608 -0.8350 -1.2975  2.0933
 4494SOL    HW224945   4.462   2.783   1.591  1.7113 -4.3661 -2.5550
 4495SOL     OW24946   3.043   4.349   8.283  0.1384 -0.5887  0.7713
 4495SOL    HW124947   3.046   4.437   8.245  0.1346 -1.2091 -0.6876
 4495SOL    HW224948   3.019   4.296   8.207 -0.2635  1.2814 -0.3873
 4496SOL     OW24949   2.605   1.026   9.236 -0.1965  0.2297 -0.2091
 4496SOL    HW124950   2.521   0.986   9.259  0.3731 -0.4960  0.5801
 4496SOL    HW224951   2.657   0.952   9.265  0.3445  0.8624  0.4336
 4497SOL     OW24952   0.421   4.043  12.861  0.0111 -0.3763  0.4243
 4497SOL    HW124953   0.471   4.076  12.787  1.3673  1.6707  2.2382
 4497SOL    HW224954   0.339   4.082  12.830 -1.3858 -0.6066  3.8214
 4498SOL     OW24955   0.561   3.848   4.067 -0.4362  0.5228 -0.2199
 4498SOL    HW124956   0.508   3.895   4.003 -1.4751  0.9242  0.9364
 4498SOL    HW224957   0.640   3.902   4.072  1.2374 -2.1201  2.1332
 4499SOL     OW24958   1.939   0.345   0.335 -0.0614 -0.2025 -0.0539
 4499SOL    HW124959   1.931   0.424   0.387  0.1335  1.5398 -2.6540
 4499SOL    HW224960   1.866   0.352   0.273 -1.4892  0.4513  1.7090
 4500SOL     OW24961   3.004   0.692  12.884  0.1157 -0.3067 -0.3434
 4500SOL    HW124962   3.055   0.638  12.945  4.1446  2.0674 -1.6222
 4500SOL    HW224963   2.920   0.695  12.930  0.0475  1.2258 -0.5768
 4501SOL     OW24964   4.361   2.997  15.286  0.1495 -0.3379 -0.8981
 4501SOL    HW124965   4.291   3.056  15.260  0.2506 -0.8557 -2.3310
 4501SOL    HW224966   4.316   2.916  15.261  0.5118 -0.2968 -1.6874
 4502SOL     OW24967   3.443   0.458   7.935  0.0818 -0.4811  0.2360
 4502SOL    HW124968   3.473   0.542   7.970 -1.1873  1.0810 -2.3751
 4502SOL    HW224969   3.384   0.488   7.866  1.4927 -1.4578 -1.4125
 4503SOL     OW24970   1.494   1.886  13.122  0.2469 -0.4698 -0.1750
 4503SOL    HW124971   1.467   1.976  13.102 -3.2707 -1.3960  0.3684
 4503SOL    HW224972   1.566   1.885  13.060  0.4396  3.1481 -0.0025
 4504SOL     OW24973   2.311   2.192  11.767  0.6768  0.0415  0.2044
 4504SOL    HW124974   2.401   2.208  11.793  1.1047 -1.9875  0.0247
 4504SOL    HW224975   2.271   2.227  11.846  0.0064  2.2503 -1.1146
 4505SOL     OW24976   1.288   1.949   5.007  0.3622  0.0606  0.3708
 4505SOL    HW124977   1.294   1.891   4.932  0.3330 -1.5577  1.6128
 4505SOL    HW224978   1.312   1.894   5.082 -0.3648  2.1646  2.1734
 4506SOL     OW24979   0.339   2.329  14.791 -0.1291  0.5696  0.1974
 4506SOL    HW124980   0.336   2.233  14.797  4.5879  0.4084  0.1071
 4506SOL    HW224981   0.261   2.357  14.838 -1.7798 -1.0638 -1.5552
 4507SOL     OW24982   2.805   2.157   1.444 -0.1259 -0.2043  0.2234
 4507SOL    HW124983   2.849   2.235   1.478  2.7616 -0.4980 -2.7983
 4507SOL    HW224984   2.729   2.198   1.403 -0.6695  1.3697  2.7921
 4508SOL     OW24985   2.191   2.508   4.711 -0.0721 -0.0874 -0.1804
 4508SOL    HW124986   2.236   2.588   4.685  0.4404 -0.3856 -0.2030
 4508SOL    HW224987   2.133   2.546   4.777 -0.6482 -2.1098  0.4775
 4509SOL     OW24988   4.608   4.483   3.021 -0.1485 -0.0825  0.4445
 4509SOL    HW124989   4.564   4.567   3.032  0.5402  0.5964 -1.9864
 4509SOL    HW224990   4.648   4.494   2.935  2.0144 -0.3480  1.4241
 4510SOL     OW24991   3.318   1.915  16.234  0.2286 -0.7124 -0.0098
 4510SOL    HW124992   3.360   1.877  16.156 -0.4643 -1.6273  0.0563
 4510SOL    HW224993   3.233   1.932  16.192 -0.1470  0.3176  1.1921
 4511SOL     OW24994   0.149   2.835  12.547  0.1077 -0.6799 -0.2503
 4511SOL    HW124995   0.171   2.907  12.487  1.5749  0.7066  1.9641
 4511SOL    HW224996   0.174   2.758  12.496  0.0453 -1.3554  0.7436
 4512SOL     OW24997   4.693   2.589   8.218 -0.4620 -0.3620 -0.1250
 4512SOL    HW124998   0.057   2.578   8.186 -0.3224  0.1782  0.0769
 4512SOL    HW224999   4.702   2.633   8.303  0.6122 -0.7724 -0.0249
 4513SOL     OW25000   1.433   2.018  12.594 -0.4286 -0.1746  0.4817
 4513SOL    HW125001   1.394   1.960  12.528  0.8294  0.0809 -0.4951
 4513SOL    HW225002   1.355   2.064  12.625  1.0994  2.0824  0.9817
 4514SOL     OW25003   4.624   1.413   1.887 -0.3092  0.5330  0.4337
 4514SOL    HW125004   4.630   1.502   1.854 -0.8481 -0.2848 -1.9153
 4514SOL    HW225005   4.566   1.432   1.961 -0.0751 -0.9277  1.0050
 4515SOL     OW25006   2.695   1.710   0.140 -0.1591  0.1593 -0.2050
 4515SOL    HW125007   2.666   1.620   0.128  3.1372 -1.0008  0.4893
 4515SOL    HW225008   2.712   1.741   0.051 -0.5831  0.0163 -0.3340
 4516SOL     OW25009   3.733   4.316  15.869  0.4621  0.1623 -1.3342
 4516SOL    HW125010   3.646   4.284  15.893  0.8128 -0.8517 -1.4144
 4516SOL    HW225011   3.714   4.410  15.866 -0.6097  0.0019  0.6014
 4517SOL     OW25012   2.737   3.193  16.882 -0.3245 -0.1438 -0.5683
 4517SOL    HW125013   2.644   3.208  16.865 -0.4391  0.8074  0.8519
 4517SOL    HW225014   2.769   3.205  16.793 -1.8614  0.0271 -1.0983
 4518SOL     OW25015   4.115   0.966  10.348 -0.4689  0.0207  0.0382
 4518SOL    HW125016   4.170   0.967  10.426  0.1850 -0.7363 -0.4081
 4518SOL    HW225017   4.027   0.968  10.384 -0.8515  0.1407 -0.8964
 4519SOL     OW25018   1.231   1.064   3.266 -0.0525  0.1279  0.1105
 4519SOL    HW125019   1.219   1.122   3.342  0.7029 -0.6456  0.8101
 4519SOL    HW225020   1.318   1.099   3.247 -0.7786  0.5658 -2.3429
 4520SOL     OW25021   1.760   4.321   7.332  0.2571 -0.0091 -0.2631
 4520SOL    HW125022   1.697   4.352   7.266 -0.6515  0.2592  0.7204
 4520SOL    HW225023   1.746   4.226   7.337 -0.0996 -0.0038 -1.0878
 4521SOL     OW25024   0.664   1.623   9.269 -0.1023  0.6392  0.0796
 4521SOL    HW125025   0.613   1.671   9.334 -1.2527  1.0943 -1.1622
 4521SOL    HW225026   0.616   1.654   9.192  1.2182  1.1470 -0.5317
 4522SOL     OW25027   3.806   1.899  14.620  0.1382 -0.5049 -0.3694
 4522SOL    HW125028   3.894   1.904  14.582 -0.0185 -2.2760 -0.9924
 4522SOL    HW225029   3.773   1.813  14.593  0.1655 -0.4876 -0.4557
 4523SOL     OW25030   2.320   3.749   5.196  0.3339 -0.5078  0.5718
 4523SOL    HW125031   2.391   3.714   5.143  0.7141  0.1089  0.6762
 4523SOL    HW225032   2.321   3.842   5.173  0.1196 -0.6143  0.1358
 4524SOL     OW25033   1.484   0.675  13.600 -0.3416  0.0534 -0.9312
 4524SOL    HW125034   1.421   0.697  13.669 -0.7155 -2.7217 -0.3891
 4524SOL    HW225035   1.436   0.620  13.538 -2.1615 -2.1404  2.4537
 4525SOL     OW25036   4.120   3.760  14.979  0.1442 -0.2263 -0.1823
 4525SOL    HW125037   4.110   3.839  15.032 -0.3081 -0.4156  0.0127
 4525SOL    HW225038   4.100   3.787  14.890  1.7500 -0.9882 -0.7682
 4526SOL     OW25039   0.957   3.204   9.070 -0.0406  0.3309  0.2623
 4526SOL    HW125040   1.018   3.269   9.035  0.5597 -0.6076 -0.4513
 4526SOL    HW225041   1.014   3.134   9.101  2.5448  1.6104 -1.5666
 4527SOL     OW25042   2.124   4.440   7.696  0.2462  0.7198 -0.1947
 4527SOL    HW125043   2.160   4.526   7.676  1.4395  0.5557  1.2426
 4527SOL    HW225044   2.047   4.435   7.640  0.2371 -2.1456  0.0500
 4528SOL     OW25045   3.650   0.803   6.704  0.1300  0.2497 -0.1964
 4528SOL    HW125046   3.600   0.835   6.779  0.9898 -1.4699  1.0822
 4528SOL    HW225047   3.718   0.870   6.705  0.6484 -0.2921  0.6426
 4529SOL     OW25048   4.268   4.359   5.107  0.1612  0.1558 -0.0351
 4529SOL    HW125049   4.208   4.433   5.102 -0.1233  0.0150  1.2389
 4529SOL    HW225050   4.274   4.359   5.203 -1.6164 -1.4673  0.0883
 4530SOL     OW25051   0.044   0.712   4.854 -0.2773  0.2735  0.1566
 4530SOL    HW125052   0.069   0.651   4.784  0.7462  1.1197 -0.2206
 4530SOL    HW225053   0.133   0.734   4.882  0.0368  0.5670 -1.0862
 4531SOL     OW25054   3.284   3.380   4.351  0.0697  0.0282 -0.1186
 4531SOL    HW125055   3.278   3.422   4.436 -1.9967 -0.4778 -0.0058
 4531SOL    HW225056   3.353   3.429   4.307  0.0786 -1.5370 -1.8793
 4532SOL     OW25057   2.014   0.206   0.667 -0.2143 -0.4863  0.5076
 4532SOL    HW125058   2.065   0.287   0.676  1.6225 -1.6617  0.6943
 4532SOL    HW225059   1.928   0.248   0.668 -0.9618 -2.0001  0.2699
 4533SOL     OW25060   3.853   1.343   0.020 -0.4000  0.1190  0.1952
 4533SOL    HW125061   3.949   1.337   0.015 -0.5867 -1.6552 -1.0411
 4533SOL    HW225062   3.826   1.251   0.017 -1.6859  0.4125  2.9491
 4534SOL     OW25063   2.503   0.836   5.786 -0.2182  0.3153  0.4423
 4534SOL    HW125064   2.436   0.893   5.822  0.7317  2.4255 -1.1420
 4534SOL    HW225065   2.452   0.763   5.750  0.0956  0.3155 -0.0176
 4535SOL     OW25066   0.015   3.795  17.410 -0.4517  0.2658 -0.4952
 4535SOL    HW125067   4.708   3.859  17.473  0.2095 -1.4700  1.6178
 4535SOL    HW225068   0.006   3.842  17.327  0.6628 -0.3239 -0.9575
 4536SOL     OW25069   3.621   3.121   8.273 -0.4014 -0.3684 -0.4779
 4536SOL    HW125070   3.706   3.157   8.298 -0.6558  0.5450 -0.9384
 4536SOL    HW225071   3.558   3.184   8.308 -0.4407 -1.4636  1.3961
 4537SOL     OW25072   0.078   3.934   3.824  0.5669  0.1183 -0.2705
 4537SOL    HW125073   0.037   3.919   3.738 -3.3618  0.8866  1.4387
 4537SOL    HW225074   0.126   4.015   3.807 -0.5397  0.9330  0.4913
 4538SOL     OW25075   4.277   4.106   3.073  0.1053 -0.1734  0.0802
 4538SOL    HW125076   4.352   4.161   3.097 -0.6287  0.4797  0.8828
 4538SOL    HW225077   4.227   4.165   3.017  0.9589  0.8966  0.4247
 4539SOL     OW25078   3.156   4.681  10.382  0.4264  0.1117  0.0470
 4539SOL    HW125079   3.097   4.678  10.307  1.0820  2.2374 -0.5443
 4539SOL    HW225080   3.215   4.609  10.360 -2.2087 -1.7189 -1.0602
 4540SOL     OW25081   0.870   0.652   4.857  0.6774 -0.5649  0.0333
 4540SOL    HW125082   0.783   0.675   4.825  1.0972  1.1578  0.1499
 4540SOL    HW225083   0.917   0.734   4.846 -0.0306  0.2065  2.9174
 4541SOL     OW25084   1.712   2.833   8.095 -0.0212 -0.1215  0.6537
 4541SOL    HW125085   1.652   2.907   8.104  1.9046  1.4286  1.0299
 4541SOL    HW225086   1.789   2.890   8.096  1.7599 -2.5336  1.3635
 4542SOL     OW25087   3.554   2.901   2.553  0.2493  0.0891 -0.0017
 4542SOL    HW125088   3.494   2.968   2.586 -0.2829  0.4103 -1.6374
 4542SOL    HW225089   3.508   2.823   2.583  0.9425  0.3278  1.7023
 4543SOL     OW25090   3.801   3.471  15.515  0.0010  0.3663 -0.6465
 4543SOL    HW125091   3.801   3.423  15.598  3.2287  1.6569  0.1012
 4543SOL    HW225092   3.751   3.549  15.536 -0.2180  0.6966 -2.4238
 4544SOL     OW25093   1.340   0.144   1.429  0.8928 -0.0628 -0.6923
 4544SOL    HW125094   1.400   0.210   1.465  2.6055 -2.2338  0.4195
 4544SOL    HW225095   1.399   0.070   1.415  1.9557  0.6153  0.1504
 4545SOL     OW25096   1.601   2.963   8.521  0.1149  0.0929  0.2218
 4545SOL    HW125097   1.686   3.000   8.500  1.1640 -1.7072  1.2841
 4545SOL    HW225098   1.634   2.919   8.599  1.9714  0.4625 -0.3695
 4546SOL     OW25099   0.249   3.795   3.206  0.1601 -0.0331 -0.3441
 4546SOL    HW125100   0.267   3.792   3.111 -0.0811 -3.2986 -0.2851
 4546SOL    HW225101   0.314   3.739   3.248  2.3738  1.5931 -1.5274
 4547SOL     OW25102   1.817   3.108   7.526  0.7305  0.8031  0.1265
 4547SOL    HW125103   1.884   3.053   7.567 -1.4450 -1.8403  0.1358
 4547SOL    HW225104   1.770   3.121   7.608  0.8201 -1.9359  0.6224
 4548SOL     OW25105   2.458   1.587   1.081  0.4827 -0.9117 -0.7847
 4548SOL    HW125106   2.488   1.541   1.160 -1.1156 -1.1205 -0.3073
 4548SOL    HW225107   2.491   1.526   1.015  1.0896 -0.9543 -0.4496
 4549SOL     OW25108   0.558   2.251   3.822  0.1394  0.0158 -0.1549
 4549SOL    HW125109   0.473   2.234   3.863  1.1406  0.3713  2.1058
 4549SOL    HW225110   0.527   2.290   3.740 -0.3671  0.0781  0.0661
 4550SOL     OW25111   0.923   0.967   9.007  0.8538  0.8675  0.3281
 4550SOL    HW125112   0.904   1.049   8.962  2.0655  0.4660 -0.9036
 4550SOL    HW225113   0.864   0.911   8.956 -0.2172  1.5966  0.7685
 4551SOL     OW25114   1.581   1.902  10.432 -0.1327  0.0342  0.4027
 4551SOL    HW125115   1.555   1.908  10.340  0.2057  1.0188  0.3700
 4551SOL    HW225116   1.587   1.808  10.449 -2.2090 -0.3533 -0.9782
 4552SOL     OW25117   0.539   3.781  13.920 -0.2973 -0.0977  0.2187
 4552SOL    HW125118   0.567   3.704  13.871  1.5332  1.7918 -1.6612
 4552SOL    HW225119   0.623   3.823  13.903 -0.8672  0.8316 -0.3297
 4553SOL     OW25120   2.985   3.709   2.410  0.0862 -0.4830 -0.2450
 4553SOL    HW125121   2.998   3.798   2.377 -1.1143 -0.2821 -0.1544
 4553SOL    HW225122   2.891   3.699   2.395 -0.5601  2.6975  1.6458
 4554SOL     OW25123   4.567   1.948  12.708 -0.5480 -0.0577  0.2269
 4554SOL    HW125124   4.592   2.038  12.728  0.1196 -1.0051  3.7053
 4554SOL    HW225125   4.585   1.931  12.616  1.7262  0.7571  0.5332
 4555SOL     OW25126   0.788   4.646   6.912  0.3984  0.3967  0.7908
 4555SOL    HW125127   0.766   0.011   6.887  0.2226  0.1027 -0.1463
 4555SOL    HW225128   0.883   4.651   6.907  0.4520 -2.4102 -0.9444
 4556SOL     OW25129   0.200   4.699  13.441  0.5198  0.5071 -0.0978
 4556SOL    HW125130   0.257   4.630  13.477  2.0493  2.4687  1.2881
 4556SOL    HW225131   0.196   0.037  13.513 -1.1439  0.0634  0.1933
 4557SOL     OW25132   0.334   2.351   4.212 -0.0865 -0.1992  0.3150
 4557SOL    HW125133   0.342   2.311   4.125 -0.5675  0.4645 -0.0332
 4557SOL    HW225134   0.316   2.443   4.192  1.0497 -0.1363 -0.4214
 4558SOL     OW25135   4.294   0.731   4.264 -0.3925 -0.0545 -0.3385
 4558SOL    HW125136   4.323   0.812   4.306  1.3501 -0.8151 -0.0558
 4558SOL    HW225137   4.201   0.729   4.289 -0.3202  0.7890 -0.0243
 4559SOL     OW25138   2.783   3.091   2.117  0.2139  0.5175 -0.2262
 4559SOL    HW125139   2.713   3.120   2.060  0.1843  2.0521  0.5931
 4559SOL    HW225140   2.779   3.171   2.170  0.6511 -0.1989  0.8888
 4560SOL     OW25141   1.227   4.560   0.722 -0.5735  0.2387 -0.0986
 4560SOL    HW125142   1.267   4.647   0.715  0.0263  0.0382  0.9240
 4560SOL    HW225143   1.149   4.578   0.774 -1.8261 -1.4014 -1.4085
 4561SOL     OW25144   0.997   3.593  11.325  0.0728 -0.0676  0.1093
 4561SOL    HW125145   1.029   3.505  11.344  1.2789 -0.3571 -3.2400
 4561SOL    HW225146   0.925   3.595  11.389  2.0248 -2.2842  2.3502
 4562SOL     OW25147   0.546   0.212   2.090 -0.1147  0.1744 -0.0451
 4562SOL    HW125148   0.591   0.138   2.050 -1.1968 -0.2182 -0.5199
 4562SOL    HW225149   0.480   0.172   2.147 -0.3302 -2.3186 -2.0637
 4563SOL     OW25150   1.270   2.816   4.911 -0.2593  0.0620 -0.1415
 4563SOL    HW125151   1.218   2.771   4.977 -1.2279 -1.8005 -2.1411
 4563SOL    HW225152   1.244   2.769   4.831  0.1349  1.5351 -1.1387
 4564SOL     OW25153   4.302   2.734   3.788  0.2349 -0.1151 -0.0533
 4564SOL    HW125154   4.337   2.695   3.868  1.8356 -1.2418 -1.3145
 4564SOL    HW225155   4.322   2.668   3.722  0.6537  1.1034 -1.1572
 4565SOL     OW25156   0.136   0.914   2.846 -0.4611  0.1202 -0.0562
 4565SOL    HW125157   0.095   1.000   2.858 -3.3082 -1.0651 -1.2748
 4565SOL    HW225158   0.172   0.892   2.931  1.2663  1.0317 -0.5418
 4566SOL     OW25159   1.529   2.239   3.647  0.3427  0.4982 -0.0889
 4566SOL    HW125160   1.494   2.283   3.569  0.8698  1.7057  0.3519
 4566SOL    HW225161   1.478   2.280   3.717 -1.1614  0.1211 -0.9670
 4567SOL     OW25162   2.632   4.591  11.467 -0.3362  0.5981  0.5339
 4567SOL    HW125163   2.555   4.541  11.441 -0.3724  1.5761 -1.2302
 4567SOL    HW225164   2.659   4.613  11.378  1.3165 -0.5911  0.7479
 4568SOL     OW25165   2.775   3.146   1.177 -0.5879 -0.2008 -0.3529
 4568SOL    HW125166   2.788   3.107   1.090  0.1956 -0.2199 -0.2312
 4568SOL    HW225167   2.683   3.173   1.177 -0.2241  1.0295 -0.5891
 4569SOL     OW25168   4.011   2.709   3.746 -0.0448  0.4169 -0.1071
 4569SOL    HW125169   4.090   2.705   3.693  0.2897 -1.8838  0.5883
 4569SOL    HW225170   4.018   2.624   3.788 -1.2464 -0.3515 -1.4687
 4570SOL     OW25171   2.605   2.028   1.672 -0.0761 -0.5511  0.4303
 4570SOL    HW125172   2.696   2.014   1.646  0.7390  1.7354  2.0634
 4570SOL    HW225173   2.619   2.075   1.754  2.5428 -0.4655 -0.0684
 4571SOL     OW25174   3.100   0.747   8.615 -0.4659  0.1060 -0.2532
 4571SOL    HW125175   3.062   0.659   8.611  1.1456 -0.6931  1.5770
 4571SOL    HW225176   3.025   0.789   8.658  0.4085  0.7338  0.6595
 4572SOL     OW25177   2.144   0.855  15.415  0.2305 -0.1801 -0.4546
 4572SOL    HW125178   2.048   0.864  15.416  0.1671 -0.6090 -1.8303
 4572SOL    HW225179   2.159   0.880  15.323 -0.3247 -0.4313 -0.6177
 4573SOL     OW25180   2.478   2.073   6.277 -0.6406  0.1267 -0.3972
 4573SOL    HW125181   2.442   1.992   6.313 -0.2640  1.2751  2.5892
 4573SOL    HW225182   2.438   2.085   6.191 -0.6596 -1.2303 -0.5788
 4574SOL     OW25183   2.788   4.070   1.055  0.0081  0.4215 -0.2102
 4574SOL    HW125184   2.877   4.078   1.022 -0.5470  2.0506 -1.3298
 4574SOL    HW225185   2.747   4.031   0.977  0.1003  0.6971 -0.3987
 4575SOL     OW25186   4.298   2.297   4.104 -0.6775 -0.0884 -0.3522
 4575SOL    HW125187   4.273   2.226   4.163 -0.0210 -0.6941 -0.7840
 4575SOL    HW225188   4.323   2.365   4.166 -0.6947  0.8695 -1.4001
 4576SOL     OW25189   3.617   0.154   8.755  0.2616  0.4577  0.4041
 4576SOL    HW125190   3.708   0.178   8.772 -0.0632 -0.2968  3.1757
 4576SOL    HW225191   3.572   0.239   8.761 -1.6352 -0.4995 -0.3179
 4577SOL     OW25192   4.318   3.878  11.525 -0.5222 -0.1686  0.4431
 4577SOL    HW125193   4.237   3.912  11.564 -0.5821  0.5610 -0.3210
 4577SOL    HW225194   4.391   3.911  11.577 -1.3747  1.0776  0.8420
 4578SOL     OW25195   4.625   4.637   8.353 -0.6029  0.4169 -0.1170
 4578SOL    HW125196   4.670   4.655   8.435  0.5727 -0.1299 -0.6332
 4578SOL    HW225197   4.693   4.661   8.289 -0.3757 -3.0674 -1.1821
 4579SOL     OW25198   1.201   2.069  15.276 -0.0741 -0.0438  0.6778
 4579SOL    HW125199   1.163   1.981  15.289  0.4476 -0.4432 -0.5514
 4579SOL    HW225200   1.121   2.120  15.291  0.8413  1.6063 -0.1042
 4580SOL     OW25201   4.037   0.278   6.012 -0.4352  0.4791 -0.1833
 4580SOL    HW125202   3.976   0.301   6.082  1.0216  2.6991  0.3688
 4580SOL    HW225203   4.091   0.358   6.007  0.4842 -0.1564 -0.3877
 4581SOL     OW25204   2.831   1.452   3.088 -0.4519 -0.4474  0.1689
 4581SOL    HW125205   2.875   1.421   3.009 -0.0040 -1.2698  0.7504
 4581SOL    HW225206   2.757   1.392   3.090 -0.5846 -0.2920 -0.0190
 4582SOL     OW25207   3.620   3.951   9.424 -0.1232  0.3874 -0.6286
 4582SOL    HW125208   3.562   3.945   9.500  0.1254 -0.6119 -0.5225
 4582SOL    HW225209   3.601   4.041   9.396 -2.0899  0.3126  0.4013
 4583SOL     OW25210   1.101   2.548   2.097  0.4708 -0.1602 -0.3722
 4583SOL    HW125211   1.148   2.466   2.088  1.0785  0.0614  0.7965
 4583SOL    HW225212   1.010   2.530   2.073  0.6115 -0.7329 -0.4823
 4584SOL     OW25213   4.498   0.236   9.499 -0.3002 -0.5354  0.4866
 4584SOL    HW125214   4.563   0.286   9.449 -2.5946  2.7265  0.7510
 4584SOL    HW225215   4.513   0.147   9.470  0.0151 -0.0646 -0.7824
 4585SOL     OW25216   1.558   0.725   5.446 -0.5898 -0.4000 -0.6637
 4585SOL    HW125217   1.481   0.671   5.427  0.9846 -2.3557 -1.4061
 4585SOL    HW225218   1.538   0.755   5.534  0.0694  0.6852 -0.8868
 4586SOL     OW25219   0.063   0.770  12.924 -0.0324  0.3342  0.0556
 4586SOL    HW125220   0.122   0.824  12.978 -0.1820  1.5680 -1.0186
 4586SOL    HW225221   0.085   0.689  12.970  1.2424  0.3878 -0.4632
 4587SOL     OW25222   4.259   0.124   6.214 -0.1195  0.1591 -0.0707
 4587SOL    HW125223   4.228   0.144   6.302  2.9114  1.6604  0.6375
 4587SOL    HW225224   4.175   0.089   6.182 -0.5416  1.0378  0.0854
 4588SOL     OW25225   3.351   4.068  17.098 -0.7790 -0.0699 -0.1683
 4588SOL    HW125226   3.287   4.075  17.028 -0.3541 -1.2780 -0.6646
 4588SOL    HW225227   3.348   4.160  17.125 -0.9834 -0.2392  0.3863
 4589SOL     OW25228   1.325   4.498   9.801  0.0664  0.0493  0.3494
 4589SOL    HW125229   1.355   4.409   9.784 -1.7674  0.0457 -2.7338
 4589SOL    HW225230   1.372   4.545   9.732  1.1582  0.0103  1.0629
 4590SOL     OW25231   1.370   1.977   1.434 -0.4147 -0.1166  0.0033
 4590SOL    HW125232   1.450   1.957   1.385 -0.3219 -0.9904  0.5124
 4590SOL    HW225233   1.332   1.892   1.456 -2.4942  0.6777 -0.4740
 4591SOL     OW25234   2.306   2.422  17.628 -0.5975  0.6217 -0.1445
 4591SOL    HW125235   2.301   2.483  17.554 -1.4558  0.5761 -0.1252
 4591SOL    HW225236   2.218   2.401  17.658 -0.8235  0.4812 -0.9081
 4592SOL     OW25237   3.682   3.932   3.517 -0.4188  0.1581  0.1253
 4592SOL    HW125238   3.635   3.904   3.439 -0.5048 -0.2574  0.3266
 4592SOL    HW225239   3.752   3.868   3.507 -0.9517 -0.3322 -0.4053
 4593SOL     OW25240   2.167   3.960   7.208 -0.1479  0.7395 -0.0628
 4593SOL    HW125241   2.081   3.995   7.188  0.1350  1.5477  0.1516
 4593SOL    HW225242   2.143   3.916   7.290 -0.9820 -2.1623 -1.8683
 4594SOL     OW25243   0.295   3.437   1.598  0.3459 -0.1791  0.4414
 4594SOL    HW125244   0.269   3.415   1.687 -0.7641  1.6306  0.5778
 4594SOL    HW225245   0.220   3.487   1.565  1.2676  1.0451  0.1638
 4595SOL     OW25246   3.128   2.582   1.597  0.0569  0.5167  0.6234
 4595SOL    HW125247   3.120   2.588   1.501 -0.4587 -0.2067  0.6139
 4595SOL    HW225248   3.219   2.609   1.599  0.7353 -1.5105 -2.1629
 4596SOL     OW25249   4.358   1.885   5.494  0.5071 -0.5175 -0.4418
 4596SOL    HW125250   4.396   1.974   5.497 -0.2714 -0.2456  1.0155
 4596SOL    HW225251   4.280   1.901   5.441  0.3829 -1.2536 -0.4783
 4597SOL     OW25252   3.904   0.097  16.126  0.7869 -0.3123  0.0284
 4597SOL    HW125253   3.809   0.111  16.126  0.6103 -1.4761  0.3003
 4597SOL    HW225254   3.915   0.065  16.216  0.5844 -0.5646 -0.0355
 4598SOL     OW25255   2.837   2.625   5.078  0.1171 -0.7118  0.0832
 4598SOL    HW125256   2.837   2.691   5.147  0.7884  0.4097 -0.9863
 4598SOL    HW225257   2.829   2.542   5.126  1.8979 -0.4900  0.7622
 4599SOL     OW25258   2.999   3.151   6.227 -0.8300  0.1374  0.3207
 4599SOL    HW125259   3.050   3.230   6.242  3.3156 -2.3472 -0.6048
 4599SOL    HW225260   2.913   3.169   6.263 -0.5608 -0.8236  1.4434
 4600SOL     OW25261   2.321   2.524   9.238  0.2312  0.1470 -0.3193
 4600SOL    HW125262   2.316   2.617   9.263 -2.0418 -0.3525  1.0857
 4600SOL    HW225263   2.268   2.484   9.307 -0.8233  0.7236 -0.8059
 4601SOL     OW25264   2.327   3.642   2.981  0.3228 -0.0390  0.1057
 4601SOL    HW125265   2.390   3.701   3.022  0.5733  2.0318 -3.2933
 4601SOL    HW225266   2.372   3.577   2.928 -0.9716 -0.9474  0.1079
 4602SOL     OW25267   2.010   0.449   4.433 -0.4369  0.4486  0.4921
 4602SOL    HW125268   1.968   0.391   4.369 -2.2338  0.2396  1.8711
 4602SOL    HW225269   2.074   0.479   4.369  1.3598  0.5748  2.3746
 4603SOL     OW25270   2.381   4.663   0.067  0.3294  0.4294 -0.2168
 4603SOL    HW125271   2.363   0.023   0.026 -0.8614  0.3494  0.1445
 4603SOL    HW225272   2.476   4.673   0.077  0.3014 -0.5456  1.0512
 4604SOL     OW25273   1.578   1.524   6.491 -0.1549  0.1520 -0.6858
 4604SOL    HW125274   1.635   1.580   6.543  1.7830 -0.3722 -2.2509
 4604SOL    HW225275   1.530   1.592   6.444 -1.1481 -0.9013 -1.2043
 4605SOL     OW25276   1.367   0.000   8.737 -0.3893 -0.2972  0.7372
 4605SOL    HW125277   1.408   0.037   8.815 -0.2761  0.9087  0.1081
 4605SOL    HW225278   1.276   0.002   8.766  0.0000  0.4449  1.9040
 4606SOL     OW25279   0.917   3.755  14.036  0.6938 -0.2080  0.4719
 4606SOL    HW125280   0.993   3.762  14.094  0.1025  2.2492  0.9580
 4606SOL    HW225281   0.923   3.666  14.001 -0.5748 -0.2389  0.3469
 4607SOL     OW25282   4.273   4.145   6.281 -0.5317 -0.4137 -0.3726
 4607SOL    HW125283   4.181   4.128   6.300 -0.6389  1.1260  0.4979
 4607SOL    HW225284   4.314   4.093   6.350 -0.2126  1.9530  1.2202
 4608SOL     OW25285   0.851   1.292   8.594 -0.8220  0.4133  0.5749
 4608SOL    HW125286   0.938   1.331   8.599 -0.6843 -0.0709  1.8816
 4608SOL    HW225287   0.872   1.237   8.518 -2.4317 -0.5591  0.8394
 4609SOL     OW25288   3.879   3.033   6.874  0.6925 -0.1726  0.3661
 4609SOL    HW125289   3.799   3.051   6.825  0.6928  2.9535  1.4870
 4609SOL    HW225290   3.849   3.065   6.959 -0.6282 -2.3947  0.7482
 4610SOL     OW25291   4.468   2.522   3.933 -0.4228  0.2814  0.0579
 4610SOL    HW125292   4.457   2.481   4.019  2.1116  1.3989  0.9306
 4610SOL    HW225293   4.431   2.452   3.879  0.0199  1.2776 -1.5544
 4611SOL     OW25294   3.536   1.035   9.164 -0.0433  0.0519  0.3474
 4611SOL    HW125295   3.619   1.046   9.117 -0.6518 -1.7841 -1.1679
 4611SOL    HW225296   3.481   1.043   9.086 -0.1489 -0.7673  0.3369
 4612SOL     OW25297   3.437   3.411   5.785  0.1431 -0.1353 -0.4041
 4612SOL    HW125298   3.434   3.431   5.692  0.9342 -1.7373 -0.7625
 4612SOL    HW225299   3.405   3.499   5.806  1.1702  0.5875 -1.8667
 4613SOL     OW25300   3.203   0.258  15.406  0.2592 -0.3536  0.1224
 4613SOL    HW125301   3.157   0.278  15.487  1.1276 -2.3908  1.1020
 4613SOL    HW225302   3.286   0.307  15.412 -1.0814  1.9032  0.2932
 4614SOL     OW25303   2.563   0.994   0.814 -0.0904  0.1578 -0.9904
 4614SOL    HW125304   2.554   1.087   0.793 -0.5911  0.0588 -1.2264
 4614SOL    HW225305   2.564   0.995   0.910 -1.5643  0.4760 -0.9799
 4615SOL     OW25306   1.678   4.498  12.550 -0.4135 -0.0380  0.0590
 4615SOL    HW125307   1.731   4.486  12.628  0.1213 -1.1801 -0.4753
 4615SOL    HW225308   1.728   4.571  12.514  0.0518  0.1430  1.0688
 4616SOL     OW25309   2.764   1.084   7.170 -0.2941  0.3918  0.2692
 4616SOL    HW125310   2.700   1.145   7.206 -1.3113 -0.6520  0.2300
 4616SOL    HW225311   2.707   1.007   7.176 -1.9453  1.6978  1.3277
 4617SOL     OW25312   1.890   0.474   7.188  0.0265  0.2321  0.3496
 4617SOL    HW125313   1.887   0.526   7.108 -0.7694  0.2779  0.4075
 4617SOL    HW225314   1.809   0.423   7.185 -0.4703  1.1184 -1.0660
 4618SOL     OW25315   2.836   1.700   1.593  0.2906 -0.2841  0.0914
 4618SOL    HW125316   2.832   1.709   1.498  0.2958 -0.4479  0.0763
 4618SOL    HW225317   2.877   1.782   1.619 -3.2515  0.8526  2.1204
 4619SOL     OW25318   1.818   1.121   2.885 -0.5216 -0.5608 -0.4986
 4619SOL    HW125319   1.742   1.175   2.907  0.7216  0.4230  1.4245
 4619SOL    HW225320   1.885   1.166   2.936  0.1000 -1.4235 -0.5504
 4620SOL     OW25321   0.285   1.171   3.101 -0.2003  0.3948  0.0105
 4620SOL    HW125322   0.356   1.194   3.040  0.2011  0.7823  0.6271
 4620SOL    HW225323   0.317   1.201   3.186 -0.2557  2.0625 -0.5555
 4621SOL     OW25324   1.949   3.382   6.000  0.4840 -0.2161 -0.1300
 4621SOL    HW125325   1.869   3.359   6.048 -0.7615  0.8369 -1.6983
 4621SOL    HW225326   1.942   3.477   5.994 -2.2146 -0.3852  0.3888
 4622SOL     OW25327   0.426   2.580   5.755  0.1960 -0.2079  0.0245
 4622SOL    HW125328   0.404   2.529   5.833  0.4051 -2.8555 -1.6708
 4622SOL    HW225329   0.416   2.665   5.798  0.2711 -0.8419  1.3059
 4623SOL     OW25330   1.394   1.454  14.368 -0.0955  0.0208  0.0841
 4623SOL    HW125331   1.484   1.454  14.337  1.0592  1.8028  3.3614
 4623SOL    HW225332   1.406   1.451  14.463 -0.4790 -0.9013  0.1072
 4624SOL     OW25333   2.624   4.585  11.194  0.8091 -0.0559  0.2759
 4624SOL    HW125334   2.568   4.643  11.142  0.1978  0.0453  1.0607
 4624SOL    HW225335   2.636   4.525  11.120 -0.0343 -0.3320  0.3660
 4625SOL     OW25336   0.342   3.483   4.768  0.1113  0.2814  0.0330
 4625SOL    HW125337   0.341   3.549   4.698  0.2926  0.1472 -0.0985
 4625SOL    HW225338   0.268   3.504   4.825 -0.8897 -1.6753 -0.5399
 4626SOL     OW25339   4.208   3.502   3.131 -0.2285 -0.4974 -0.0484
 4626SOL    HW125340   4.289   3.488   3.082 -2.1685 -0.3570 -3.3083
 4626SOL    HW225341   4.189   3.592   3.104  0.4881 -1.2224 -3.0310
 4627SOL     OW25342   4.512   0.378   6.017 -0.4328  0.3589  0.4766
 4627SOL    HW125343   4.526   0.464   5.976  0.9167 -0.5566 -0.9930
 4627SOL    HW225344   4.546   0.392   6.105 -2.1126  0.2290  1.1418
 4628SOL     OW25345   2.992   1.435  12.399  0.9541  0.0507 -0.2703
 4628SOL    HW125346   3.060   1.492  12.364 -0.9671  2.9894  0.7936
 4628SOL    HW225347   2.969   1.490  12.474  1.7311 -0.4048  0.3035
 4629SOL     OW25348   4.083   4.684   6.469  0.1363 -0.0175  0.1461
 4629SOL    HW125349   4.002   4.715   6.511 -0.0306 -0.8020  0.4152
 4629SOL    HW225350   4.155   0.007   6.510 -0.7902  1.0479  0.5593
 4630SOL     OW25351   0.508   2.546   0.660  0.3931  0.3519  0.1260
 4630SOL    HW125352   0.600   2.562   0.639  0.0146  1.5502 -0.6656
 4630SOL    HW225353   0.504   2.585   0.747  0.8392 -2.6505  1.4820
 4631SOL     OW25354   0.096   1.808   2.630 -0.6245  0.5115 -0.0937
 4631SOL    HW125355   0.050   1.806   2.714 -2.2169 -2.4217 -1.0150
 4631SOL    HW225356   0.029   1.783   2.565  0.2118  1.2889 -1.2585
 4632SOL     OW25357   1.215   1.374   1.103  0.1656 -0.0743 -0.0740
 4632SOL    HW125358   1.146   1.379   1.168  0.1636 -0.1387 -0.0713
 4632SOL    HW225359   1.254   1.290   1.127  2.1353  0.6892 -0.6126
 4633SOL     OW25360   3.876   2.518   8.491  0.0739 -0.4033  0.4285
 4633SOL    HW125361   3.966   2.544   8.473 -0.2969  2.5262  2.8482
 4633SOL    HW225362   3.857   2.476   8.407  1.8452  2.7754 -1.5617
 4634SOL     OW25363   0.125   3.506   6.391 -0.6971 -0.0612  0.1955
 4634SOL    HW125364   0.058   3.453   6.436 -0.6960 -0.0805  0.1746
 4634SOL    HW225365   0.096   3.589   6.428 -0.0873 -0.7804  2.2667
 4635SOL     OW25366   3.108   2.837   8.604 -0.7359 -0.0793 -0.0150
 4635SOL    HW125367   3.061   2.920   8.602  0.3533  0.5608  0.6753
 4635SOL    HW225368   3.113   2.813   8.511 -2.1401  1.1400 -0.4039
 4636SOL     OW25369   3.859   1.100   9.287 -0.1830 -0.1088  0.3083
 4636SOL    HW125370   3.857   1.190   9.254 -1.3317 -0.0798  0.4526
 4636SOL    HW225371   3.816   1.105   9.373  1.0419  1.4166  0.8485
 4637SOL     OW25372   1.624   0.140  17.091 -0.4429  0.6035 -0.1795
 4637SOL    HW125373   1.680   0.129  17.014  0.1637  1.5637  0.1261
 4637SOL    HW225374   1.564   0.207  17.059  0.7331  1.0670 -1.4314
 4638SOL     OW25375   2.084   3.496   2.897 -0.4975 -0.4578  0.3209
 4638SOL    HW125376   2.089   3.426   2.962 -1.7740  1.2383  2.2298
 4638SOL    HW225377   2.174   3.526   2.904 -0.3300 -0.6783 -0.8865
 4639SOL     OW25378   1.499   2.322  10.501  0.3046 -0.7686 -0.0513
 4639SOL    HW125379   1.568   2.311  10.567  0.6648  1.2723 -0.0674
 4639SOL    HW225380   1.447   2.247  10.527 -0.8087 -0.1088 -0.3859
 4640SOL     OW25381   3.863   1.534   8.707 -0.3083  0.4264  0.2963
 4640SOL    HW125382   3.904   1.464   8.657  3.7384  2.3461  0.9305
 4640SOL    HW225383   3.941   1.590   8.703  0.8280 -1.1391  0.3003
 4641SOL     OW25384   0.999   3.678   5.777  0.2815 -0.5705 -0.5390
 4641SOL    HW125385   0.916   3.724   5.791  1.9072  1.7429  1.4815
 4641SOL    HW225386   1.018   3.656   5.868 -3.0867 -0.9673  0.0886
 4642SOL     OW25387   3.315   3.660   9.937 -0.5047  0.0425  0.2600
 4642SOL    HW125388   3.408   3.653   9.920 -0.5695  0.5544 -0.2980
 4642SOL    HW225389   3.275   3.672   9.851 -2.0106 -1.6958  0.7107
 4643SOL     OW25390   2.036   3.848   0.407 -0.4939  0.3703  0.1493
 4643SOL    HW125391   1.951   3.869   0.445  0.9206  2.0432  2.3410
 4643SOL    HW225392   2.014   3.876   0.318 -1.4362 -0.4365  0.1258
 4644SOL     OW25393   0.776   2.967   8.487 -0.4002 -0.6260 -0.8788
 4644SOL    HW125394   0.854   3.000   8.441 -0.7165  1.7849  0.3253
 4644SOL    HW225395   0.731   3.051   8.499  0.2327 -0.3613 -0.3710
 4645SOL     OW25396   3.703   1.666   7.457  0.1187  0.2705 -0.2608
 4645SOL    HW125397   3.786   1.628   7.484  0.5412  2.3507  1.3899
 4645SOL    HW225398   3.723   1.759   7.457  0.3076  0.2329  0.5753
 4646SOL     OW25399   0.623   2.893   9.600 -0.0586  0.0520  0.2306
 4646SOL    HW125400   0.649   2.924   9.687 -0.7682  0.5315  0.2663
 4646SOL    HW225401   0.532   2.918   9.588 -0.2630 -0.4047  0.8320
 4647SOL     OW25402   4.017   3.614   8.032  0.3900  0.0207  0.4328
 4647SOL    HW125403   4.046   3.537   7.984  0.2227  1.0024 -1.2211
 4647SOL    HW225404   4.104   3.645   8.056  0.7553 -0.8591  0.2343
 4648SOL     OW25405   3.962   3.524  14.186 -0.1246  0.0311 -0.7394
 4648SOL    HW125406   3.923   3.609  14.165  0.8369  0.9836  1.2944
 4648SOL    HW225407   4.041   3.549  14.234  0.7768 -2.8015 -0.7786
 4649SOL     OW25408   4.653   1.943  11.766  0.3447  0.1285  0.3283
 4649SOL    HW125409   0.014   1.983  11.776  0.5213 -0.6499  1.8948
 4649SOL    HW225410   4.599   2.018  11.741  0.5273  0.0961 -0.1546
 4650SOL     OW25411   0.963   2.138   2.821  0.0270 -0.3165 -0.2503
 4650SOL    HW125412   0.929   2.071   2.880 -1.0608  2.0030  1.7444
 4650SOL    HW225413   1.035   2.163   2.878 -1.0564  1.5269  0.2922
 4651SOL     OW25414   4.560   1.002   8.601  0.2584  0.6179 -0.1241
 4651SOL    HW125415   4.548   0.952   8.520  2.3573 -0.1576  0.0680
 4651SOL    HW225416   4.479   0.988   8.651 -0.8406  2.0366 -1.4940
 4652SOL     OW25417   4.628   1.318  14.863  0.1546  0.0298  0.3344
 4652SOL    HW125418   4.585   1.235  14.883 -4.6163  2.0480 -1.3697
 4652SOL    HW225419   4.697   1.295  14.801  0.0411 -2.6149  1.1886
 4653SOL     OW25420   3.072   2.958   9.163  0.0155  0.2448 -0.3118
 4653SOL    HW125421   3.073   2.862   9.173 -0.2060  0.1700 -1.0152
 4653SOL    HW225422   3.074   2.966   9.068  1.0454  0.0777 -0.3081
 4654SOL     OW25423   4.336   0.424   8.767 -0.0751 -0.0701 -0.6591
 4654SOL    HW125424   4.284   0.481   8.824 -0.7855  0.2681 -1.6559
 4654SOL    HW225425   4.282   0.348   8.788 -0.8068  1.0690  1.6191
 4655SOL     OW25426   4.205   4.447   0.684  0.0168  0.5577 -0.0705
 4655SOL    HW125427   4.260   4.478   0.756  0.0821  0.4242 -0.0630
 4655SOL    HW225428   4.258   4.476   0.611  2.6600 -0.2740  1.5328
 4656SOL     OW25429   1.942   2.986   8.112  0.6250 -0.4596 -0.0953
 4656SOL    HW125430   1.952   3.059   8.051 -4.0363 -1.2976 -1.8962
 4656SOL    HW225431   2.022   2.936   8.095  0.8146 -0.6064  1.2236
 4657SOL     OW25432   4.578   1.608   4.081  0.3645 -0.7421  0.3681
 4657SOL    HW125433   4.510   1.611   4.149 -1.5974  1.5317 -1.6773
 4657SOL    HW225434   4.656   1.622   4.134  1.0324 -1.2665 -0.4915
 4658SOL     OW25435   2.032   0.791   5.766 -0.0457  0.3878  0.4114
 4658SOL    HW125436   1.950   0.836   5.789 -1.4727 -1.6224 -0.7736
 4658SOL    HW225437   2.081   0.861   5.723 -0.2267 -0.2587 -0.8725
 4659SOL     OW25438   1.500   1.910   8.903 -0.6094  0.0403 -0.2894
 4659SOL    HW125439   1.469   1.966   8.973  1.4414 -1.2733  1.6389
 4659SOL    HW225440   1.443   1.941   8.832 -0.1239 -1.0518 -1.1632
 4660SOL     OW25441   1.921   1.321  10.417  0.0243  0.2707  0.5151
 4660SOL    HW125442   1.921   1.233  10.456  0.6423  0.2727  0.5148
 4660SOL    HW225443   1.949   1.294  10.330  1.5254  0.6726  0.8821
 4661SOL     OW25444   0.248   1.692   2.300  0.1468  0.0083  0.4776
 4661SOL    HW125445   0.215   1.649   2.378  0.6485 -0.4049  0.4603
 4661SOL    HW225446   0.334   1.722   2.329  1.0466 -1.7233 -0.3654
 4662SOL     OW25447   1.003   4.254   8.607  0.3709 -0.6130 -0.5255
 4662SOL    HW125448   0.929   4.247   8.667  0.4950 -1.6892 -0.5020
 4662SOL    HW225449   0.966   4.239   8.520 -0.1249 -0.7222 -0.2984
 4663SOL     OW25450   0.513   0.583  13.769 -0.4491 -0.7901 -0.3051
 4663SOL    HW125451   0.585   0.644  13.785 -1.7979  1.2151 -1.9121
 4663SOL    HW225452   0.445   0.625  13.821  0.3167 -2.4661  2.0953
 4664SOL     OW25453   0.063   1.015   8.784  0.0602  0.3338  0.9149
 4664SOL    HW125454   0.002   1.012   8.710 -0.7094 -3.6189  1.6641
 4664SOL    HW225455   0.122   1.088   8.769  2.1707 -1.2258  1.5851
 4665SOL     OW25456   0.767   2.080   5.176 -0.3502  0.0548  0.2038
 4665SOL    HW125457   0.860   2.091   5.160 -0.0246 -0.8511  1.5572
 4665SOL    HW225458   0.731   2.076   5.087 -2.3747 -0.3224  1.0419
 4666SOL     OW25459   2.961   4.023   7.168  0.0102 -0.2723 -0.1540
 4666SOL    HW125460   2.945   3.931   7.190  0.3601  0.4266  2.9417
 4666SOL    HW225461   2.870   4.051   7.178  0.6073  1.4503  0.4270
 4667SOL     OW25462   3.404   1.728   1.184 -0.0734 -0.0765 -0.4642
 4667SOL    HW125463   3.339   1.767   1.126 -0.5887 -1.6973 -0.9845
 4667SOL    HW225464   3.396   1.793   1.255  0.7094  1.3376 -1.6815
 4668SOL     OW25465   1.225   0.293   7.412 -0.7668 -0.3782 -0.0139
 4668SOL    HW125466   1.298   0.321   7.357 -0.3099  0.9359  1.2528
 4668SOL    HW225467   1.183   0.232   7.352 -0.9252  0.5343 -0.8206
 4669SOL     OW25468   0.528   0.773   5.823 -0.1034  0.2005  0.2357
 4669SOL    HW125469   0.473   0.796   5.898 -0.1844  0.0720  0.2159
 4669SOL    HW225470   0.509   0.843   5.761 -1.3927 -0.9159 -0.6431
 4670SOL     OW25471   2.968   3.722   3.864 -1.1803  0.3146  0.0181
 4670SOL    HW125472   2.898   3.691   3.922  0.2520 -1.6389  0.7034
 4670SOL    HW225473   2.981   3.813   3.889  0.1934  0.9047 -2.8469
 4671SOL     OW25474   1.739   3.529  16.018 -0.1925  0.1025  0.4485
 4671SOL    HW125475   1.815   3.554  16.071 -0.1318 -0.8031  0.7917
 4671SOL    HW225476   1.785   3.502  15.939 -0.5826 -0.4437  0.4061
 4672SOL     OW25477   1.781   4.307   3.322  0.2733 -0.1148 -0.2300
 4672SOL    HW125478   1.759   4.400   3.318  0.9624  0.0919  0.7179
 4672SOL    HW225479   1.870   4.323   3.355  0.0910  0.2729  0.0850
 4673SOL     OW25480   4.010   1.919   5.766  0.3222 -1.0241  0.1958
 4673SOL    HW125481   4.103   1.909   5.785  0.2610  0.4822  1.2495
 4673SOL    HW225482   4.005   1.923   5.670 -0.3982 -1.5684  0.2062
 4674SOL     OW25483   3.027   1.993   2.630  0.0991 -0.2479  0.0043
 4674SOL    HW125484   3.043   1.938   2.706 -1.2369 -1.5478 -0.6572
 4674SOL    HW225485   3.030   2.080   2.670 -0.2428 -0.7492  1.1037
 4675SOL     OW25486   0.246   4.204   8.680  0.3648  0.1140  0.1492
 4675SOL    HW125487   0.242   4.137   8.748 -0.2295  0.8851  0.8768
 4675SOL    HW225488   0.317   4.178   8.622  0.4361  1.3196 -0.3038
 4676SOL     OW25489   4.588   4.273   6.436 -0.0385  0.1926 -0.3450
 4676SOL    HW125490   4.624   4.326   6.366  0.4072 -1.6319 -1.4926
 4676SOL    HW225491   4.559   4.195   6.389 -3.2239  1.5451 -0.6173
 4677SOL     OW25492   3.430   2.186   3.998 -0.1515  0.1350  0.7335
 4677SOL    HW125493   3.510   2.220   3.958 -1.1947 -0.2587 -1.6579
 4677SOL    HW225494   3.459   2.134   4.073  1.9650  0.0178 -0.1507
 4678SOL     OW25495   2.993   0.767   8.059  0.2348 -0.1566  0.2915
 4678SOL    HW125496   2.946   0.848   8.043  0.9006  0.0734 -0.5123
 4678SOL    HW225497   3.025   0.780   8.148  1.9810  1.5486 -0.5622
 4679SOL     OW25498   3.098   4.691   6.785 -0.1416  0.0135 -0.5867
 4679SOL    HW125499   3.028   0.012   6.739  0.1666  2.1030  0.9940
 4679SOL    HW225500   3.166   0.034   6.788 -0.4945  0.2608  1.9348
 4680SOL     OW25501   2.647   0.612  16.589 -0.1294 -0.3926 -0.5557
 4680SOL    HW125502   2.640   0.598  16.495 -0.8355 -2.0546 -0.2461
 4680SOL    HW225503   2.720   0.673  16.601  0.0884 -1.1077  1.8063
 4681SOL     OW25504   0.241   1.414   3.489  0.3613 -0.1411  0.0801
 4681SOL    HW125505   0.217   1.446   3.576  0.3660  1.6856 -0.5851
 4681SOL    HW225506   0.325   1.457   3.482  0.9493 -1.0024  2.0820
 4682SOL     OW25507   3.102   3.021  12.946  0.4603 -0.5349 -0.3568
 4682SOL    HW125508   3.101   3.022  13.042 -0.3985  2.8376 -0.4179
 4682SOL    HW225509   3.013   3.050  12.925  1.3791  1.4822 -1.3868
 4683SOL     OW25510   3.474   1.160   3.831  0.7501  0.0027 -0.5528
 4683SOL    HW125511   3.432   1.079   3.858 -0.8343  0.8134 -0.6034
 4683SOL    HW225512   3.541   1.131   3.769 -1.2857  0.3834 -2.9447
 4684SOL     OW25513   3.684   4.189   0.670 -0.9503  0.2424 -0.5279
 4684SOL    HW125514   3.687   4.273   0.717 -3.7732  0.9436 -1.5641
 4684SOL    HW225515   3.599   4.149   0.689  0.2282 -2.0737 -0.2311
 4685SOL     OW25516   2.396   2.486   2.455 -0.6791  0.2806 -0.0371
 4685SOL    HW125517   2.408   2.400   2.415  0.0848  0.1297  0.5156
 4685SOL    HW225518   2.405   2.471   2.549 -0.7538  0.3719 -0.0162
 4686SOL     OW25519   3.563   1.682   8.443  0.0032  0.2878  0.3440
 4686SOL    HW125520   3.478   1.665   8.403  0.0440 -1.9485  1.2045
 4686SOL    HW225521   3.617   1.611   8.406  1.7121 -0.2496  3.8077
 4687SOL     OW25522   3.502   3.711   2.717  0.2625 -0.2231  0.0733
 4687SOL    HW125523   3.452   3.656   2.657  2.5606 -2.6202  0.2997
 4687SOL    HW225524   3.588   3.697   2.676 -0.7747 -0.8057 -1.9091
 4688SOL     OW25525   4.099   0.435   2.953 -0.0503  0.4340 -0.2582
 4688SOL    HW125526   4.118   0.488   2.875 -1.5977  0.4676 -0.6003
 4688SOL    HW225527   4.134   0.485   3.027  0.6113  0.2176 -0.4192
 4689SOL     OW25528   1.268   1.076   5.933  0.1464  0.0092 -0.2905
 4689SOL    HW125529   1.231   1.153   5.977 -0.7213 -0.3999 -0.3069
 4689SOL    HW225530   1.339   1.117   5.884  0.4193 -0.3584 -0.1992
 4690SOL     OW25531   2.814   0.237   0.345 -0.0321  0.1942  0.0670
 4690SOL    HW125532   2.879   0.169   0.326 -0.0036 -0.1642  1.4231
 4690SOL    HW225533   2.771   0.251   0.260  0.5952  1.5363 -0.0293
 4691SOL     OW25534   0.367   2.815  14.040 -0.0163 -0.1197  0.0081
 4691SOL    HW125535   0.316   2.897  14.042 -0.4730 -0.4094  0.1984
 4691SOL    HW225536   0.358   2.790  13.949  0.5155 -0.1069 -0.0447
 4692SOL     OW25537   1.055   1.414   5.420 -0.2521  0.0977  0.1343
 4692SOL    HW125538   1.071   1.380   5.332 -0.1856 -0.7637  0.4798
 4692SOL    HW225539   1.113   1.361   5.475  0.0304 -2.6074 -2.7102
 4693SOL     OW25540   3.832   1.341  10.266 -0.5356 -0.2175 -0.7115
 4693SOL    HW125541   3.775   1.267  10.286  1.4356 -1.7280 -0.6604
 4693SOL    HW225542   3.807   1.360  10.176  2.5989 -0.4479 -1.6362
 4694SOL     OW25543   2.010   1.112   0.517  0.0491 -0.2810 -0.7695
 4694SOL    HW125544   2.098   1.147   0.500 -0.6295  1.8474  0.0606
 4694SOL    HW225545   1.992   1.164   0.595  0.7135 -1.7535  0.3565
 4695SOL     OW25546   2.950   1.526   8.860 -0.7624 -0.5667  0.0587
 4695SOL    HW125547   2.869   1.480   8.883 -2.1373  1.7096 -0.3175
 4695SOL    HW225548   2.915   1.611   8.836  1.3416  0.3224  0.1416
 4696SOL     OW25549   1.403   1.315   3.601  0.0375 -0.5136 -0.0820
 4696SOL    HW125550   1.315   1.315   3.563 -0.9895 -0.3722  2.2967
 4696SOL    HW225551   1.447   1.363   3.531 -1.0505 -1.4120 -1.3929
 4697SOL     OW25552   1.891   4.657   1.941  0.1912 -0.5822  0.8250
 4697SOL    HW125553   1.868   4.706   2.020 -1.7298  1.3586 -0.9641
 4697SOL    HW225554   1.985   4.643   1.953  0.4623 -1.3075 -2.1582
 4698SOL     OW25555   2.565   4.004   7.737  0.2197  0.2622  0.1918
 4698SOL    HW125556   2.475   4.022   7.708  0.2898  1.1488  0.5346
 4698SOL    HW225557   2.580   3.911   7.722  0.3012  0.4509 -0.9529
 4699SOL     OW25558   3.769   2.384   6.097 -0.0498 -0.7823  0.3616
 4699SOL    HW125559   3.759   2.289   6.100  1.3380 -0.9753 -0.7822
 4699SOL    HW225560   3.680   2.410   6.119  0.5005  0.9281  0.5298
 4700SOL     OW25561   0.992   0.834  13.774 -0.1773 -0.4552 -0.2695
 4700SOL    HW125562   1.021   0.854  13.685  0.0347 -1.7892 -0.5049
 4700SOL    HW225563   1.070   0.852  13.828 -0.1115  2.1321 -1.2632
 4701SOL     OW25564   4.518   0.105   0.617  0.2795  0.5196  0.9141
 4701SOL    HW125565   4.492   0.128   0.706 -0.7486  0.9842  0.5012
 4701SOL    HW225566   4.604   0.147   0.609 -0.4533  1.7251 -0.8566
 4702SOL     OW25567   3.552   1.457   4.873 -0.0277 -0.3618 -0.0493
 4702SOL    HW125568   3.466   1.488   4.902  0.6117  0.7085  0.7391
 4702SOL    HW225569   3.607   1.480   4.949 -0.1210 -1.0569  0.2280
 4703SOL     OW25570   1.862   1.291  11.698  0.0956 -0.0447  0.7264
 4703SOL    HW125571   1.837   1.307  11.607  0.0102  0.0485  0.7669
 4703SOL    HW225572   1.956   1.274  11.700 -0.0945 -0.9697  2.1061
 4704SOL     OW25573   2.870   3.354   5.257 -0.2797 -0.4192  0.6049
 4704SOL    HW125574   2.895   3.398   5.176  1.2831  1.4514  2.0992
 4704SOL    HW225575   2.809   3.418   5.293  2.6014  2.0717  1.0229
 4705SOL     OW25576   0.343   1.399  16.786 -0.0994 -0.1479 -0.5148
 4705SOL    HW125577   0.288   1.468  16.822  1.5220  0.9229 -0.0850
 4705SOL    HW225578   0.305   1.322  16.828 -1.0514 -0.2938 -1.6620
 4706SOL     OW25579   3.676   0.954   6.922  0.1183  1.2801 -0.2379
 4706SOL    HW125580   3.670   0.954   7.017 -0.5830  2.7297 -0.2803
 4706SOL    HW225581   3.655   1.040   6.887  0.4035  0.2571 -2.9850
 4707SOL     OW25582   1.341   2.761   9.331  0.0469 -0.0206  0.2004
 4707SOL    HW125583   1.265   2.803   9.372  0.5800 -1.7051  2.8909
 4707SOL    HW225584   1.315   2.741   9.241  0.6496 -1.6046  0.3860
 4708SOL     OW25585   4.260   3.510  12.127  0.2236  0.6353 -0.2732
 4708SOL    HW125586   4.345   3.495  12.168  0.9673  1.4454 -1.5616
 4708SOL    HW225587   4.271   3.592  12.080  0.2005  1.2006  0.7012
 4709SOL     OW25588   1.042   0.915  10.524 -1.0155  0.1531 -0.0293
 4709SOL    HW125589   0.998   0.834  10.550 -0.4873 -0.0174  0.3129
 4709SOL    HW225590   1.010   0.965  10.599 -1.7004 -2.4595  1.3985
 4710SOL     OW25591   2.238   3.854   4.149 -0.4205  0.1846  0.0014
 4710SOL    HW125592   2.248   3.848   4.055  1.3323 -0.1485  0.2149
 4710SOL    HW225593   2.263   3.764   4.169 -0.0113  0.3853  0.4001
 4711SOL     OW25594   0.132   3.442   7.535  0.1489 -0.4423  0.6468
 4711SOL    HW125595   0.215   3.425   7.490  0.2476 -0.5226  0.8551
 4711SOL    HW225596   0.152   3.411   7.623  1.1225 -0.4135  0.4380
 4712SOL     OW25597   3.855   3.741  14.726  0.2555  0.2239 -0.1026
 4712SOL    HW125598   3.935   3.771  14.683  0.0898  0.0063 -0.5603
 4712SOL    HW225599   3.787   3.773  14.667  2.6466  1.2567 -2.2915
 4713SOL     OW25600   1.615   0.651   5.891  0.8254  0.2357  0.4192
 4713SOL    HW125601   1.532   0.620   5.928  0.7926 -0.0936  0.0697
 4713SOL    HW225602   1.591   0.687   5.805  1.0692  0.2009  0.3365
 4714SOL     OW25603   3.998   0.785   8.754 -0.0962  0.5360  0.1902
 4714SOL    HW125604   4.063   0.805   8.687  0.7860 -0.2653  0.8095
 4714SOL    HW225605   3.935   0.857   8.743 -1.0124 -0.1725  0.8311
 4715SOL     OW25606   2.953   1.447   2.453 -0.2135  0.1103 -0.0784
 4715SOL    HW125607   2.863   1.465   2.480 -0.3791  0.2625 -0.7313
 4715SOL    HW225608   2.989   1.530   2.482 -0.6043  1.0022 -2.1208
 4716SOL     OW25609   1.186   2.345   9.407  0.2697 -0.2483  0.1375
 4716SOL    HW125610   1.280   2.361   9.396  0.3928 -1.0640  0.0073
 4716SOL    HW225611   1.201   2.265   9.458  0.0446  0.5569  1.4572
 4717SOL     OW25612   3.075   2.608  17.189 -0.0656  0.1611  0.3222
 4717SOL    HW125613   3.108   2.698  17.198  0.6612  0.0932 -1.5809
 4717SOL    HW225614   3.136   2.566  17.250 -0.6562 -2.7780 -1.1098
 4718SOL     OW25615   0.976   0.445   3.155 -0.1018  0.6958  0.2523
 4718SOL    HW125616   0.975   0.350   3.152 -2.1696  0.7509 -0.8050
 4718SOL    HW225617   0.888   0.456   3.116  0.5965  0.2498 -1.4650
 4719SOL     OW25618   2.516   3.042   3.751  0.4945 -0.0262 -0.3576
 4719SOL    HW125619   2.515   3.136   3.769  1.0245 -0.2403  0.8099
 4719SOL    HW225620   2.602   3.019   3.787  1.7827  2.0391 -2.1142
 4720SOL     OW25621   0.464   2.581   8.314 -0.0664  0.3790 -0.2549
 4720SOL    HW125622   0.551   2.619   8.327  0.3099 -1.4944  2.6098
 4720SOL    HW225623   0.416   2.663   8.302  0.5496  0.4500 -2.2939
 4721SOL     OW25624   4.047   1.118   6.723  0.7407 -0.0847  0.0272
 4721SOL    HW125625   4.138   1.111   6.693  1.0445 -1.3608  1.2271
 4721SOL    HW225626   4.034   1.036   6.772 -1.6452 -0.7735 -1.8029
 4722SOL     OW25627   4.102   1.267   5.044  0.2128  0.5680 -0.1886
 4722SOL    HW125628   4.040   1.311   4.985 -2.0206 -1.9429  0.2913
 4722SOL    HW225629   4.097   1.316   5.125 -0.0990 -1.6981  1.1738
 4723SOL     OW25630   3.839   0.834   6.257  0.2477  0.0614  0.1991
 4723SOL    HW125631   3.880   0.832   6.344 -3.4835 -2.1576  1.9421
 4723SOL    HW225632   3.770   0.767   6.258  0.0306  0.2919  0.8955
 4724SOL     OW25633   4.699   0.407   7.501  0.0104  0.6319 -0.5350
 4724SOL    HW125634   4.648   0.326   7.499 -0.6286  1.0766 -2.1139
 4724SOL    HW225635   0.057   0.378   7.463  0.3263  0.1493  0.5027
 4725SOL     OW25636   4.095   0.800   0.559 -0.0989  0.0482  0.8433
 4725SOL    HW125637   4.115   0.763   0.472  1.1594 -2.5076  2.2169
 4725SOL    HW225638   4.010   0.759   0.577 -0.0296 -0.6988 -0.5057
 4726SOL     OW25639   2.105   0.791  16.672 -0.0413 -0.9300  0.0906
 4726SOL    HW125640   2.023   0.825  16.638  0.9216  1.0082 -0.3214
 4726SOL    HW225641   2.136   0.734  16.602 -2.2161  1.4711 -2.8200
 4727SOL     OW25642   0.174   3.372   0.583 -0.5234  0.3563 -0.1424
 4727SOL    HW125643   0.218   3.449   0.547 -3.1834  1.0987 -1.7822
 4727SOL    HW225644   0.091   3.412   0.608 -0.0135 -0.7365  3.2319
 4728SOL     OW25645   0.010   2.424   8.861  0.9010 -0.1832 -0.4228
 4728SOL    HW125646   0.009   2.452   8.770 -0.2686  0.2680 -0.2732
 4728SOL    HW225647   4.676   2.349   8.864 -0.5136  0.8698 -1.7730
 4729SOL     OW25648   1.598   4.465   4.512 -0.1652 -0.0322 -0.4521
 4729SOL    HW125649   1.690   4.447   4.529  0.2152  1.6452 -0.7572
 4729SOL    HW225650   1.560   4.413   4.583  0.5277 -0.2222 -0.2252
 4730SOL     OW25651   0.192   4.185   3.054 -0.2541  0.3764  0.1148
 4730SOL    HW125652   0.269   4.129   3.044 -1.0068 -1.0249  2.3699
 4730SOL    HW225653   0.232   4.264   3.016 -1.3798  0.5217 -0.7817
 4731SOL     OW25654   2.802   4.517   4.616  0.0466  0.1715 -0.1483
 4731SOL    HW125655   2.868   4.449   4.631 -2.5786 -2.0933  0.9013
 4731SOL    HW225656   2.740   4.476   4.555 -2.5816 -1.9088  3.9503
 4732SOL     OW25657   1.489   3.338   4.534  0.3517  0.7942  0.2275
 4732SOL    HW125658   1.426   3.348   4.462  0.6224 -3.7167 -0.6501
 4732SOL    HW225659   1.429   3.296   4.596  2.6356 -0.2015  1.7685
 4733SOL     OW25660   0.916   1.129  11.618  0.5438 -0.2205  0.1137
 4733SOL    HW125661   0.985   1.064  11.631 -1.3835 -1.9803  1.4828
 4733SOL    HW225662   0.941   1.181  11.694  3.7923  0.8307 -1.6604
 4734SOL     OW25663   0.952   4.190   4.036  0.5783  0.0303 -0.2075
 4734SOL    HW125664   1.030   4.142   4.008  0.4622  0.1659 -0.7644
 4734SOL    HW225665   0.894   4.115   4.044  0.3417 -0.1680 -3.5556
 4735SOL     OW25666   3.759   1.073   7.930 -0.0146  0.2986 -0.3776
 4735SOL    HW125667   3.680   1.070   7.875  0.8440 -1.0348 -1.5306
 4735SOL    HW225668   3.814   1.037   7.860  1.7889  0.0624  1.1628
 4736SOL     OW25669   3.601   0.492   8.379 -0.0397  0.7171 -0.1991
 4736SOL    HW125670   3.635   0.576   8.346  0.9866  0.4714  0.2365
 4736SOL    HW225671   3.648   0.488   8.462  0.1909  0.6809 -0.3278
 4737SOL     OW25672   2.620   0.284  17.635 -0.3707 -0.5128  0.3750
 4737SOL    HW125673   2.552   0.259  17.572 -0.1229 -0.2265 -0.0084
 4737SOL    HW225674   2.657   0.353  17.580  1.3824  0.0814  2.3093
 4738SOL     OW25675   0.042   4.705   6.367 -0.2462 -0.1086 -0.2221
 4738SOL    HW125676   0.066   0.061   6.412  0.1397 -0.0413 -0.5464
 4738SOL    HW225677   0.088   4.709   6.283  0.8366 -1.2488  0.3061
 4739SOL     OW25678   3.357   1.153   1.783  0.3350  0.0308 -0.5254
 4739SOL    HW125679   3.443   1.169   1.743 -0.2263  0.3321 -1.6037
 4739SOL    HW225680   3.370   1.223   1.848  0.9525  1.6920 -2.4209
 4740SOL     OW25681   1.431   3.530  10.445  0.6317  0.3827  0.3009
 4740SOL    HW125682   1.451   3.440  10.420  0.8863  0.3705  0.5425
 4740SOL    HW225683   1.511   3.559  10.489  0.4440 -1.2537  1.7326
 4741SOL     OW25684   0.717   0.580   5.959  0.4110 -0.2611  0.0688
 4741SOL    HW125685   0.674   0.649   5.910  1.2332  0.3289  0.1753
 4741SOL    HW225686   0.756   0.524   5.892  1.9816  2.7412 -1.4843
 4742SOL     OW25687   1.237   2.550   8.093  0.4844  0.0926 -0.4150
 4742SOL    HW125688   1.185   2.477   8.060  0.0853  1.2593 -2.3032
 4742SOL    HW225689   1.208   2.536   8.183  0.9405  3.3879  0.2456
 4743SOL     OW25690   3.965   3.034   4.243  0.1032 -1.0567  0.1988
 4743SOL    HW125691   3.927   3.001   4.161 -1.2242  0.1375  0.3295
 4743SOL    HW225692   4.033   2.972   4.268  0.3475 -1.1266 -0.6318
 4744SOL     OW25693   3.559   1.490   5.993  0.0693 -0.1823 -0.0434
 4744SOL    HW125694   3.553   1.449   5.906  1.0382 -2.9845  1.1913
 4744SOL    HW225695   3.469   1.520   6.008 -0.5288 -2.0280  0.1452
 4745SOL     OW25696   4.407   1.243   5.823 -0.2032  0.6675  0.4697
 4745SOL    HW125697   4.367   1.162   5.855  0.8675 -0.4522 -0.9980
 4745SOL    HW225698   4.335   1.272   5.768 -1.4322 -0.6265  1.3964
 4746SOL     OW25699   1.429   4.167   7.661 -0.3785  0.0359 -0.6841
 4746SOL    HW125700   1.525   4.171   7.662 -0.3962  0.3088  1.1812
 4746SOL    HW225701   1.408   4.157   7.754  1.2348 -0.6791 -0.3953
 4747SOL     OW25702   1.337   2.325   3.451 -0.3330  0.1207 -0.0891
 4747SOL    HW125703   1.366   2.392   3.388 -2.2077  0.5886 -0.4518
 4747SOL    HW225704   1.264   2.370   3.492  0.0923 -0.0304  0.8379
 4748SOL     OW25705   1.596   0.257  10.259 -0.3951 -0.4762 -0.2192
 4748SOL    HW125706   1.671   0.305  10.225 -0.7314 -1.0682 -1.8337
 4748SOL    HW225707   1.590   0.289  10.349  0.4832  0.4152 -0.4846
 4749SOL     OW25708   2.552   1.847   4.479  0.1197  0.4083  0.1308
 4749SOL    HW125709   2.590   1.764   4.447 -0.9424  0.8189 -2.2128
 4749SOL    HW225710   2.551   1.900   4.399  1.8692  0.8334  0.3946
 4750SOL     OW25711   1.671   2.767  12.831  0.0426 -0.4272  0.5773
 4750SOL    HW125712   1.712   2.700  12.776 -1.1459  0.3764 -1.2752
 4750SOL    HW225713   1.579   2.761  12.805 -0.3404 -0.6321  1.9504
 4751SOL     OW25714   0.085   0.723  14.987  0.1371  0.0838  0.7528
 4751SOL    HW125715   0.130   0.645  15.020 -0.9699 -0.4838  0.9362
 4751SOL    HW225716   0.158   0.755  14.935 -1.5559  0.5313 -1.3446
 4752SOL     OW25717   3.236   4.090   2.535  0.0737  0.7904 -0.0135
 4752SOL    HW125718   3.275   4.122   2.454  2.4417  1.5883  1.4306
 4752SOL    HW225719   3.308   4.055   2.588 -0.1942  1.1835  0.6103
 4753SOL     OW25720   2.635   0.865  16.855 -0.0710  0.2997  0.0762
 4753SOL    HW125721   2.687   0.938  16.889 -1.6548  1.3495  0.2497
 4753SOL    HW225722   2.698   0.827  16.793 -2.6398  0.6204 -2.7290
 4754SOL     OW25723   2.404   0.443  16.839 -0.7449 -0.5382 -0.5692
 4754SOL    HW125724   2.368   0.443  16.751 -0.8915 -0.5708 -0.5090
 4754SOL    HW225725   2.402   0.538  16.851 -1.7438 -0.9869  2.8504
 4755SOL     OW25726   0.097   2.373  11.700 -0.7133 -0.7302  0.1809
 4755SOL    HW125727   0.173   2.403  11.651 -0.3211 -0.5346  0.9084
 4755SOL    HW225728   0.123   2.395  11.790  0.3119  1.9928 -0.7960
 4756SOL     OW25729   2.296   1.495   6.667  0.2287  0.4021 -0.1803
 4756SOL    HW125730   2.358   1.433   6.628  0.3179  1.1874 -1.3039
 4756SOL    HW225731   2.359   1.549   6.715 -0.2766  2.1582 -1.4827
 4757SOL     OW25732   3.724   3.708   4.192  0.1377 -0.0289  0.2469
 4757SOL    HW125733   3.765   3.792   4.213  0.3926 -0.1232  0.1292
 4757SOL    HW225734   3.644   3.740   4.152  0.5462 -0.0407 -0.5699
 4758SOL     OW25735   4.130   0.809   0.130 -0.0111  0.3183  0.3249
 4758SOL    HW125736   4.051   0.862   0.120 -0.4226 -0.2108  0.7505
 4758SOL    HW225737   4.094   0.722   0.112  1.6601 -0.1266 -0.8635
 4759SOL     OW25738   2.185   0.601   8.836  0.0550  0.2744  0.2162
 4759SOL    HW125739   2.197   0.506   8.834  0.1052  0.2458  1.6082
 4759SOL    HW225740   2.116   0.611   8.902  0.3650  0.3117  0.5339
 4760SOL     OW25741   2.378   2.656   5.292  0.5549 -0.4792  0.0839
 4760SOL    HW125742   2.459   2.696   5.262  0.0349  0.7262  0.2784
 4760SOL    HW225743   2.371   2.691   5.381 -2.3906  0.3840 -0.4858
 4761SOL     OW25744   2.188   4.100   9.860 -0.9026 -0.2106 -0.1981
 4761SOL    HW125745   2.202   4.034   9.927 -3.5816 -0.3492  0.2337
 4761SOL    HW225746   2.105   4.067   9.825 -0.0203 -0.8894 -1.6332
 4762SOL     OW25747   0.583   3.019   2.520 -0.3150  0.1630 -0.1874
 4762SOL    HW125748   0.605   3.112   2.530  0.1908 -0.1752  1.7271
 4762SOL    HW225749   0.538   3.021   2.435 -0.0002  2.1230 -0.3094
 4763SOL     OW25750   2.499   2.850   5.154  0.2235 -0.4457  0.6962
 4763SOL    HW125751   2.468   2.941   5.159  0.3748 -0.2935 -1.3645
 4763SOL    HW225752   2.446   2.811   5.085  1.9240  1.3745 -1.6412
 4764SOL     OW25753   3.020   1.897   7.912 -0.4593 -0.3963 -1.1333
 4764SOL    HW125754   3.090   1.959   7.933 -0.4248 -0.5613 -0.7598
 4764SOL    HW225755   3.062   1.841   7.846  0.7852  0.4673 -1.0845
 4765SOL     OW25756   2.453   1.494   5.557 -0.1967 -0.1625 -0.6895
 4765SOL    HW125757   2.544   1.523   5.565 -0.2657 -0.4137  1.0438
 4765SOL    HW225758   2.450   1.424   5.622 -3.4221 -0.2260 -0.9256
 4766SOL     OW25759   0.570   2.703  14.225 -0.4646  0.1645  0.3388
 4766SOL    HW125760   0.498   2.760  14.198  0.9611  0.7649 -2.2057
 4766SOL    HW225761   0.623   2.757  14.284  3.3920 -1.0449 -2.0397
 4767SOL     OW25762   0.823   2.938   4.728 -0.0425 -0.0846 -0.2274
 4767SOL    HW125763   0.824   2.945   4.633 -1.1833  1.6940 -0.1069
 4767SOL    HW225764   0.821   2.843   4.743  0.5320  0.1035  1.0085
 4768SOL     OW25765   2.281   4.016   0.336  0.2547  0.6860 -0.1214
 4768SOL    HW125766   2.218   4.021   0.264  1.8957  1.2414 -1.5080
 4768SOL    HW225767   2.223   3.972   0.399  0.9616 -1.5491 -1.0335
 4769SOL     OW25768   3.810   0.468   3.160 -0.5537 -0.0235  0.5266
 4769SOL    HW125769   3.832   0.415   3.083  1.1189  0.3868  0.7398
 4769SOL    HW225770   3.768   0.541   3.114 -1.0411  0.3372  1.5320
 4770SOL     OW25771   0.570   0.179   6.842 -0.3926 -0.1380 -0.1010
 4770SOL    HW125772   0.596   0.238   6.771  0.2223 -0.7370 -0.3822
 4770SOL    HW225773   0.523   0.234   6.904 -0.2424 -2.1810  1.8392
 4771SOL     OW25774   1.218   2.724   8.506 -0.3876 -0.1644  0.1165
 4771SOL    HW125775   1.310   2.729   8.479  0.2590  1.9971  2.6824
 4771SOL    HW225776   1.243   2.706   8.596 -2.4253  1.1468  0.9364
 4772SOL     OW25777   2.742   1.814   4.725  0.1829  0.4476 -0.3390
 4772SOL    HW125778   2.766   1.813   4.818 -1.0289  0.9356 -0.0125
 4772SOL    HW225779   2.824   1.784   4.686 -0.4162 -0.2215 -1.0834
 4773SOL     OW25780   1.183   3.986   1.063  0.0211  0.1517 -0.3255
 4773SOL    HW125781   1.191   3.996   1.158  0.9239 -0.4485 -0.3427
 4773SOL    HW225782   1.273   3.966   1.041  0.1371 -0.8320  1.0176
 4774SOL     OW25783   4.016   0.484   8.082 -0.4891 -0.3397  0.3741
 4774SOL    HW125784   3.951   0.460   8.148 -1.7961  0.8563 -0.4707
 4774SOL    HW225785   3.947   0.520   8.026  1.2005  0.4452 -1.2272
 4775SOL     OW25786   2.027   2.042   4.639  0.0552 -0.2579 -0.0409
 4775SOL    HW125787   2.073   2.125   4.651  1.0134 -0.5195 -1.9749
 4775SOL    HW225788   2.066   2.007   4.559  0.2021  1.2642 -0.6393
 4776SOL     OW25789   0.459   0.787   9.087  0.2398  0.2810  0.4746
 4776SOL    HW125790   0.499   0.710   9.047 -1.4628  0.8728 -2.3404
 4776SOL    HW225791   0.434   0.759   9.175  2.2196 -0.8924  0.6791
 4777SOL     OW25792   4.522   3.331   2.197 -0.2797  0.1300  0.0856
 4777SOL    HW125793   4.518   3.296   2.108 -0.3426 -1.7137  0.8231
 4777SOL    HW225794   4.617   3.335   2.207 -0.1659 -1.3305 -0.4670
 4778SOL     OW25795   1.162   2.078   6.920  0.3030 -0.2537  0.2510
 4778SOL    HW125796   1.225   2.038   6.979 -1.7917 -1.5880  1.5888
 4778SOL    HW225797   1.109   2.132   6.978 -0.1106 -0.3600 -0.0271
 4779SOL     OW25798   1.233   1.056   0.009  0.1961  0.1316  0.2613
 4779SOL    HW125799   1.216   0.966   0.039 -0.6413 -0.0264 -0.6838
 4779SOL    HW225800   1.180   1.071  17.633 -0.6696 -0.0049  0.8131
 4780SOL     OW25801   3.047   3.618   3.588  0.0663 -0.2890  0.8557
 4780SOL    HW125802   3.133   3.592   3.553 -0.2225 -1.3697  0.9306
 4780SOL    HW225803   3.081   3.646   3.672 -0.6022  1.0543  0.6734
 4781SOL     OW25804   1.922   0.349   5.037  0.2224 -0.0731 -0.0311
 4781SOL    HW125805   2.006   0.368   4.995 -0.3904  3.6242  0.4804
 4781SOL    HW225806   1.885   0.436   5.048 -1.8401 -1.2245  2.1196
 4782SOL     OW25807   0.250   1.884   9.040  0.0128 -0.5623 -0.3360
 4782SOL    HW125808   0.183   1.940   9.001  0.1707 -0.3159 -0.2501
 4782SOL    HW225809   0.236   1.800   8.996 -0.4956 -0.3288 -0.6183
 4783SOL     OW25810   4.360   3.772   9.275  0.1429  0.1777  0.5816
 4783SOL    HW125811   4.363   3.867   9.266  0.5620  0.3233  2.3237
 4783SOL    HW225812   4.377   3.754   9.367  2.8498 -1.5496 -0.2501
 4784SOL     OW25813   2.505   0.049   5.657 -0.0213  0.2068 -0.5094
 4784SOL    HW125814   2.500   0.083   5.567 -1.3419  0.1163 -0.4660
 4784SOL    HW225815   2.415   0.019   5.661  0.9982 -2.9249 -0.7978
 4785SOL     OW25816   2.891   0.447   5.526  0.4359  0.6321 -0.0927
 4785SOL    HW125817   2.842   0.499   5.463 -4.8101  0.4477  3.8697
 4785SOL    HW225818   2.985   0.456   5.507  0.2634 -1.2895 -1.8165
 4786SOL     OW25819   1.760   4.639   0.353  0.4330  0.9785  0.2665
 4786SOL    HW125820   1.692   4.673   0.411 -0.8800 -1.5360  0.2205
 4786SOL    HW225821   1.833   4.696   0.374  0.5619  1.4606 -1.4757
 4787SOL     OW25822   2.307   4.486  14.485 -0.2291 -0.7311 -0.4543
 4787SOL    HW125823   2.239   4.418  14.493 -0.3981 -0.3527  1.2208
 4787SOL    HW225824   2.288   4.510  14.394  1.0103  0.7321 -0.3197
 4788SOL     OW25825   2.771   0.001   8.291 -0.7601 -0.9319  0.2129
 4788SOL    HW125826   2.737   4.698   8.376 -0.3546  0.3430  0.7914
 4788SOL    HW225827   2.818   0.084   8.294  0.3565 -1.5606  0.2663
 4789SOL     OW25828   0.682   4.484   8.686  0.1242  0.3531 -0.0927
 4789SOL    HW125829   0.723   4.400   8.709 -0.9888 -0.5708 -1.4773
 4789SOL    HW225830   0.736   4.542   8.739 -0.7872  0.9188  0.2230
 4790SOL     OW25831   1.634   1.017   7.725  0.4335 -0.3201  0.4445
 4790SOL    HW125832   1.629   0.990   7.817  1.1363 -0.7654  0.3574
 4790SOL    HW225833   1.665   0.933   7.692 -1.7612  0.6950 -4.1800
 4791SOL     OW25834   1.115   3.756   6.425  0.4648 -0.2270 -0.1108
 4791SOL    HW125835   1.062   3.829   6.456 -2.0418 -2.0173 -0.1615
 4791SOL    HW225836   1.093   3.702   6.501  3.6488 -1.3595  0.0219
 4792SOL     OW25837   1.956   2.484   6.538 -0.3955  0.0863 -0.3066
 4792SOL    HW125838   2.006   2.457   6.461  1.7325  1.5128  0.5843
 4792SOL    HW225839   1.973   2.578   6.540 -1.8039  0.2950  1.8376
 4793SOL     OW25840   1.451   3.211   1.139 -0.1766  0.2388 -0.1689
 4793SOL    HW125841   1.482   3.217   1.048  0.3679 -2.5989 -0.1699
 4793SOL    HW225842   1.502   3.283   1.176 -0.4785  0.4791 -0.2185
 4794SOL     OW25843   1.802   3.610   3.468  0.2846 -0.5336  0.4425
 4794SOL    HW125844   1.747   3.620   3.391 -1.3708  0.7598  1.7715
 4794SOL    HW225845   1.840   3.523   3.454  1.6178  0.4809 -2.1434
 4795SOL     OW25846   4.644   4.218   9.344 -0.4262  0.4297  0.1456
 4795SOL    HW125847   4.691   4.298   9.321  1.7287 -0.8729  0.0122
 4795SOL    HW225848   4.716   4.163   9.372 -0.9986  0.5984  1.9456
 4796SOL     OW25849   2.826   3.752   2.691 -0.2521 -0.0532  0.1396
 4796SOL    HW125850   2.915   3.788   2.689 -0.9829  1.7660  1.1697
 4796SOL    HW225851   2.843   3.657   2.689 -1.5937 -0.3377  3.2097
 4797SOL     OW25852   0.532   2.342   7.172 -0.2982 -0.0945 -0.2754
 4797SOL    HW125853   0.464   2.353   7.105 -1.5030  1.6531  1.2262
 4797SOL    HW225854   0.541   2.247   7.158  1.2741 -0.0436  0.3599
 4798SOL     OW25855   0.377   0.373  14.753 -0.2195 -0.6329 -0.6180
 4798SOL    HW125856   0.370   0.468  14.743  1.2596 -0.4133  0.4402
 4798SOL    HW225857   0.295   0.332  14.725  0.0125 -1.7078  0.2582
 4799SOL     OW25858   2.758   2.496   4.434  0.4566  0.1013  0.2173
 4799SOL    HW125859   2.797   2.579   4.408  0.5142  0.7688  2.3958
 4799SOL    HW225860   2.837   2.449   4.462  0.4484  1.4323  2.5097
 4800SOL     OW25861   2.061   0.208   3.278  0.4957 -0.0923 -0.0799
 4800SOL    HW125862   1.973   0.222   3.313  1.1080 -0.6203  1.6641
 4800SOL    HW225863   2.063   0.262   3.199  0.8952 -1.0071 -0.6944
 4801SOL     OW25864   0.509   3.520   5.357 -0.4610 -0.1067  0.2393
 4801SOL    HW125865   0.580   3.542   5.296 -1.0581  2.2847  0.4035
 4801SOL    HW225866   0.429   3.539   5.309 -0.0082  1.0288 -0.0569
 4802SOL     OW25867   0.056   2.649   3.225 -0.5702  0.3158 -0.6815
 4802SOL    HW125868   0.048   2.619   3.135  0.6965 -0.9397 -0.3654
 4802SOL    HW225869   0.139   2.615   3.260 -0.3759 -0.7792 -2.2111
 4803SOL     OW25870   1.358   4.377   8.404  0.5388  0.0272  0.7338
 4803SOL    HW125871   1.323   4.402   8.490 -0.9365  2.2431 -0.5172
 4803SOL    HW225872   1.313   4.293   8.396  0.7549  0.2300 -2.6416
 4804SOL     OW25873   0.743   1.042  15.942  0.1003 -0.2660  0.1636
 4804SOL    HW125874   0.833   1.074  15.949  0.1169 -0.9118  2.6905
 4804SOL    HW225875   0.726   1.034  16.036 -1.4975 -0.2738 -0.1191
 4805SOL     OW25876   4.203   1.914   8.355  0.3913  0.5696  0.0689
 4805SOL    HW125877   4.252   1.981   8.403  0.2876 -0.7547  2.0236
 4805SOL    HW225878   4.213   1.946   8.266  1.4410  1.2722  0.4271
 4806SOL     OW25879   2.480   4.073  11.271 -0.0188 -0.1842 -0.0582
 4806SOL    HW125880   2.454   4.151  11.222  1.5583 -0.4386 -1.2914
 4806SOL    HW225881   2.516   4.012  11.206 -0.1717  0.5536 -0.8427
 4807SOL     OW25882   2.415   0.484  16.573 -0.2882 -0.2384 -0.3156
 4807SOL    HW125883   2.501   0.516  16.598  1.0915 -4.1314 -0.1275
 4807SOL    HW225884   2.445   0.445  16.492 -2.1939 -0.8968 -0.7118
 4808SOL     OW25885   1.008   3.764   4.242 -0.1984 -0.0825  0.2261
 4808SOL    HW125886   0.981   3.726   4.326 -0.6013 -0.6831 -0.1737
 4808SOL    HW225887   1.054   3.687   4.206 -2.0039 -0.7694 -0.6230
 4809SOL     OW25888   4.097   2.559   5.281  0.4404  0.4335 -0.4035
 4809SOL    HW125889   4.096   2.466   5.257 -0.2861  0.2126  0.5073
 4809SOL    HW225890   4.189   2.581   5.263  0.7161 -0.9231 -0.6283
 4810SOL     OW25891   0.099   1.236  11.897  0.5690 -0.4721 -0.6318
 4810SOL    HW125892   0.134   1.148  11.904 -1.1529 -1.2883 -2.1347
 4810SOL    HW225893   0.128   1.265  11.983 -2.1846 -0.1432  0.1730
 4811SOL     OW25894   1.348   1.760   5.193  0.2271  0.2762  0.3335
 4811SOL    HW125895   1.294   1.763   5.272  1.0494  1.1111  0.8536
 4811SOL    HW225896   1.354   1.669   5.163  0.0768 -0.3088  2.1298
 4812SOL     OW25897   3.421   1.637   7.532  0.6851 -0.1630 -0.0796
 4812SOL    HW125898   3.414   1.714   7.588  3.0439 -0.7066  0.9516
 4812SOL    HW225899   3.515   1.636   7.513  0.8618 -0.0122  0.8002
 4813SOL     OW25900   2.719   0.184   3.705 -0.1297  0.7028 -0.1428
 4813SOL    HW125901   2.781   0.256   3.701 -1.7599  2.0898 -0.3028
 4813SOL    HW225902   2.645   0.201   3.647  1.2823  1.4837 -1.7106
 4814SOL     OW25903   4.723   4.325   8.999 -0.0487 -0.0391  0.1035
 4814SOL    HW125904   4.674   4.369   9.068  1.9007 -0.8607  1.9891
 4814SOL    HW225905   0.042   4.254   9.045 -2.3150 -1.3497  0.2613
 4815SOL     OW25906   1.295   3.780   9.624  0.0912  0.6208  0.1662
 4815SOL    HW125907   1.203   3.758   9.611 -0.2100  1.9692  0.0287
 4815SOL    HW225908   1.336   3.694   9.616 -1.5621 -0.1321 -0.0793
 4816SOL     OW25909   2.675   0.251   0.775 -0.4930 -0.4464  0.2712
 4816SOL    HW125910   2.597   0.305   0.763  0.6388  1.2663  0.7200
 4816SOL    HW225911   2.731   0.284   0.705  0.9994 -1.3654  1.0227
 4817SOL     OW25912   2.049   4.612   1.496  0.6223  0.1397  0.7407
 4817SOL    HW125913   2.021   4.536   1.546  1.7016 -0.2864  0.6970
 4817SOL    HW225914   2.144   4.601   1.493  0.8688  2.2830  0.9588
 4818SOL     OW25915   0.623   1.274   5.703 -0.0116 -0.3462 -0.0659
 4818SOL    HW125916   0.595   1.274   5.612  1.2304  2.0453 -0.4470
 4818SOL    HW225917   0.712   1.297   5.678 -0.5606 -0.2446 -1.9057
 4819SOL     OW25918   0.148   1.556   5.725  0.1520  0.3770  0.5273
 4819SOL    HW125919   0.233   1.524   5.754  0.0429  0.9513  1.4908
 4819SOL    HW225920   0.084   1.529   5.791  0.5826 -0.2502  0.6846
 4820SOL     OW25921   1.698   1.797  12.235  0.4412  0.2906 -0.1950
 4820SOL    HW125922   1.766   1.752  12.285 -0.7386 -2.6861 -1.2468
 4820SOL    HW225923   1.728   1.888  12.236  0.8705  0.1171  2.9467
 4821SOL     OW25924   0.455   0.236   7.520 -0.2693 -0.1180 -0.3077
 4821SOL    HW125925   0.430   0.157   7.567 -0.1589  0.8183  1.3284
 4821SOL    HW225926   0.546   0.247   7.547 -0.7918 -0.6673  1.6720
 4822SOL     OW25927   3.990   3.276   3.493  0.1256 -0.2259 -0.4329
 4822SOL    HW125928   3.919   3.213   3.503 -1.4904  1.9292  1.3255
 4822SOL    HW225929   4.055   3.218   3.453 -0.9549 -1.8959  0.2393
 4823SOL     OW25930   3.725   2.668   3.479 -0.2788  0.4125 -0.2531
 4823SOL    HW125931   3.700   2.625   3.397  1.3781  1.1576 -1.1389
 4823SOL    HW225932   3.727   2.760   3.453 -0.0488  1.3649  3.1676
 4824SOL     OW25933   1.488   2.846   3.315  0.3091  0.5582  0.4023
 4824SOL    HW125934   1.409   2.883   3.356 -1.6320  0.1826 -3.0112
 4824SOL    HW225935   1.464   2.831   3.224  2.1170 -0.6551  0.1305
 4825SOL     OW25936   1.953   3.733   7.842  0.1713  0.7840  0.0379
 4825SOL    HW125937   2.046   3.711   7.840  0.2399  1.1742 -1.1903
 4825SOL    HW225938   1.934   3.733   7.748  0.9231  0.9800 -0.1109
 4826SOL     OW25939   2.950   0.076   2.794 -0.4304 -0.0668 -0.2177
 4826SOL    HW125940   2.891   0.020   2.744 -1.0842  1.5879 -1.3085
 4826SOL    HW225941   3.014   0.009   2.818  0.0010  1.5717  3.2373
 4827SOL     OW25942   4.614   0.328   5.359 -0.3182 -0.7274  0.2356
 4827SOL    HW125943   4.704   0.303   5.377  0.2993  1.7663  0.5145
 4827SOL    HW225944   4.572   0.321   5.445 -0.0916 -2.0708  0.2365
 4828SOL     OW25945   0.800   2.951   4.456  0.0064  0.4676  0.3808
 4828SOL    HW125946   0.740   3.016   4.420 -0.7027 -0.5314 -0.2398
 4828SOL    HW225947   0.814   2.885   4.388 -1.0948  0.4108  0.2191
 4829SOL     OW25948   0.151   1.726   1.289 -0.2019  0.0568 -0.5281
 4829SOL    HW125949   0.056   1.726   1.295 -0.1366 -0.5794  0.3285
 4829SOL    HW225950   0.170   1.661   1.221  3.1080  1.5395 -1.0523
 4830SOL     OW25951   4.065   0.023  14.632 -0.0690 -0.2693  0.3595
 4830SOL    HW125952   4.038   0.103  14.678  1.4562  0.3772  0.1443
 4830SOL    HW225953   4.146   0.063  14.600  0.4234  0.5993  2.7003
 4831SOL     OW25954   3.069   2.378   3.712  0.0083  0.3142  0.2945
 4831SOL    HW125955   3.114   2.447   3.762  0.0191 -1.9264  3.4292
 4831SOL    HW225956   2.983   2.388   3.753 -0.9861  0.8587 -1.9843
 4832SOL     OW25957   2.682   0.172   7.264 -0.5549 -0.3407 -0.1793
 4832SOL    HW125958   2.767   0.209   7.238  1.6235 -3.6890  2.0813
 4832SOL    HW225959   2.695   0.169   7.359  0.7512  0.5703 -0.3238
 4833SOL     OW25960   2.053   3.750   1.967  0.0143  0.1817 -0.3912
 4833SOL    HW125961   2.146   3.747   1.946  0.3505 -1.9154  1.3968
 4833SOL    HW225962   2.021   3.818   1.907  0.6356  1.4568  0.7288
 4834SOL     OW25963   2.148   1.963  10.885 -0.2329 -0.3393  0.2202
 4834SOL    HW125964   2.218   1.908  10.921 -0.7953 -1.6081 -0.6534
 4834SOL    HW225965   2.130   1.925  10.800 -2.1251  0.5598  0.2141
 4835SOL     OW25966   3.715   1.732   4.421  0.4364  0.0689 -0.4306
 4835SOL    HW125967   3.689   1.769   4.506  1.5054 -0.8663  0.2959
 4835SOL    HW225968   3.634   1.699   4.382  0.2287  0.4223 -0.3036
 4836SOL     OW25969   0.180   2.724   2.947 -0.0972  0.5839  0.3989
 4836SOL    HW125970   0.220   2.799   2.991 -0.5173  1.6777 -1.0597
 4836SOL    HW225971   0.253   2.679   2.905  0.8612  1.3074  1.3045
 4837SOL     OW25972   0.427   3.297   1.164 -0.2133  0.0384 -0.5224
 4837SOL    HW125973   0.456   3.343   1.242 -1.9169  0.5479 -0.1860
 4837SOL    HW225974   0.475   3.347   1.097  1.7298 -1.2114 -0.0565
 4838SOL     OW25975   4.292   0.734  16.832 -0.5176  0.1911  0.0288
 4838SOL    HW125976   4.308   0.770  16.919 -0.9314 -0.0313  0.2017
 4838SOL    HW225977   4.378   0.709  16.798 -0.3191 -0.1734  0.8005
 4839SOL     OW25978   2.908   4.462   3.383 -0.3126 -0.1752  0.1161
 4839SOL    HW125979   2.944   4.546   3.354  0.1706 -0.3750  0.1519
 4839SOL    HW225980   2.956   4.406   3.323 -1.4882  0.1013 -1.0960
 4840SOL     OW25981   2.116   0.401   7.039  0.5179  0.1453  0.6527
 4840SOL    HW125982   2.097   0.314   7.004  0.2874  1.5021 -2.5115
 4840SOL    HW225983   2.039   0.410   7.096  0.1811  0.7392  0.1016
 4841SOL     OW25984   0.047   2.109   5.788  0.4198 -0.6939  0.2047
 4841SOL    HW125985   0.075   2.040   5.848 -1.7285 -2.2666 -0.6122
 4841SOL    HW225986   0.127   2.121   5.738  1.0937  0.4108  1.5484
 4842SOL     OW25987   2.357   2.807   6.135  0.2462 -0.0975 -0.0805
 4842SOL    HW125988   2.321   2.765   6.056 -0.3699 -1.6386  1.0147
 4842SOL    HW225989   2.368   2.735   6.197 -0.8671  0.9085  1.2885
 4843SOL     OW25990   3.262   3.178   5.578  0.1356 -0.9897  0.0089
 4843SOL    HW125991   3.343   3.196   5.531 -0.1689 -0.7333 -0.4153
 4843SOL    HW225992   3.200   3.242   5.544  0.6477 -0.1907  0.5884
 4844SOL     OW25993   1.407   4.001   8.833 -0.2770  0.8391  0.2532
 4844SOL    HW125994   1.373   3.996   8.744 -0.7796 -1.1710  0.5518
 4844SOL    HW225995   1.429   4.094   8.838  3.2426 -0.1510  3.1287
 4845SOL     OW25996   0.224   2.533   8.066 -0.3637  0.2885 -0.3925
 4845SOL    HW125997   0.304   2.534   8.014  1.2497  2.3539  2.1113
 4845SOL    HW225998   0.244   2.470   8.135  1.6384 -0.8049 -1.9749
 4846SOL     OW25999   3.450   3.289   2.713  0.7170 -0.3685  0.7584
 4846SOL    HW126000   3.542   3.266   2.727  0.9837  1.6553  2.3754
 4846SOL    HW226001   3.423   3.200   2.692  0.7914  0.0673 -1.1927
 4847SOL     OW26002   3.206   0.125   7.002  0.0197  0.5354  0.3787
 4847SOL    HW126003   3.297   0.124   6.973  0.2307  1.4206  0.9902
 4847SOL    HW226004   3.205   0.134   7.097 -1.1952 -2.5219  0.6388
 4848SOL     OW26005   1.832   4.261   2.890 -0.2124 -0.3673 -0.0225
 4848SOL    HW126006   1.789   4.317   2.826 -0.0907  0.1864  0.3762
 4848SOL    HW226007   1.860   4.333   2.947 -0.6469  0.0572 -0.3452
 4849SOL     OW26008   4.442   0.386   0.155 -0.1356 -0.0516 -0.0896
 4849SOL    HW126009   4.431   0.399   0.061 -1.1993  1.8727  0.3078
 4849SOL    HW226010   4.444   0.290   0.154 -1.1803 -0.0790  0.5660
 4850SOL     OW26011   1.980   0.381   6.557 -0.7232  0.2797  0.2923
 4850SOL    HW126012   1.929   0.435   6.617 -0.3431  1.1695 -0.1851
 4850SOL    HW226013   1.972   0.294   6.596 -0.7307  0.7857  1.4190
 4851SOL     OW26014   0.209   2.812   5.303  0.2359  0.3525  0.2610
 4851SOL    HW126015   0.137   2.842   5.248 -0.0833 -2.5839 -0.9027
 4851SOL    HW226016   0.182   2.736   5.355 -0.0127 -1.5135 -2.5996
 4852SOL     OW26017   1.045   3.347  11.459  0.1557  0.4452  0.5056
 4852SOL    HW126018   1.092   3.274  11.417  0.6439 -0.1325  2.0635
 4852SOL    HW226019   1.124   3.390  11.493 -0.3719  1.8689 -0.0750
 4853SOL     OW26020   1.747   4.017   0.098  0.1188  0.1006 -0.0236
 4853SOL    HW126021   1.672   4.042   0.153  0.3663  0.4010  0.1815
 4853SOL    HW226022   1.708   4.015   0.011  0.5818  2.2835 -0.2940
 4854SOL     OW26023   1.785   0.358   0.693  0.1263  0.0982 -0.0813
 4854SOL    HW126024   1.708   0.314   0.731  0.8558 -2.0437 -1.0650
 4854SOL    HW226025   1.747   0.406   0.620 -1.5790  0.1955  0.8741
 4855SOL     OW26026   2.981   2.130   5.590 -0.1775  0.8401 -0.2154
 4855SOL    HW126027   2.920   2.073   5.636  0.1432  1.8096  1.4039
 4855SOL    HW226028   3.064   2.101   5.628 -0.3291 -0.8958 -1.2338
 4856SOL     OW26029   1.878   4.283   7.856 -0.2878 -0.2757 -0.1161
 4856SOL    HW126030   1.948   4.301   7.919  0.3785 -1.4484 -0.5239
 4856SOL    HW226031   1.932   4.311   7.782 -1.1807 -0.6987 -0.9184
 4857SOL     OW26032   0.915   4.015   1.291 -0.3980 -0.1237  0.2404
 4857SOL    HW126033   0.890   4.108   1.284  0.5419  0.1513  0.5759
 4857SOL    HW226034   0.864   3.981   1.218 -0.0927 -0.1990  0.0648
 4858SOL     OW26035   0.415   1.266   3.702 -0.2643  0.8088 -0.1647
 4858SOL    HW126036   0.443   1.287   3.613 -1.3853  0.6317 -0.5564
 4858SOL    HW226037   0.379   1.346   3.741 -2.4015 -0.4341  0.3860
 4859SOL     OW26038   2.323   0.957   0.635 -0.0591 -0.2884 -0.9362
 4859SOL    HW126039   2.338   1.030   0.574  1.3046 -0.3777 -0.7086
 4859SOL    HW226040   2.403   0.945   0.686 -0.1577  3.0510  0.0420
 4860SOL     OW26041   3.435   1.882   3.522 -0.2212  0.2639 -0.2574
 4860SOL    HW126042   3.508   1.925   3.565 -1.0318  0.0776  1.3083
 4860SOL    HW226043   3.421   1.816   3.589  0.0237  0.2077 -0.2624
 4861SOL     OW26044   3.815   0.149   7.197  0.2916 -0.0716  0.2543
 4861SOL    HW126045   3.741   0.114   7.246  0.3134 -1.4410 -0.7042
 4861SOL    HW226046   3.850   0.210   7.262  0.7055 -2.2989  2.0821
 4862SOL     OW26047   2.205   2.105   7.250 -0.4920  0.3764  0.2062
 4862SOL    HW126048   2.290   2.104   7.205 -0.5805 -2.2658  0.0677
 4862SOL    HW226049   2.214   2.160   7.327 -1.0666  2.0838 -0.9491
 4863SOL     OW26050   3.093   4.010  12.625  0.3767  0.1344  0.2195
 4863SOL    HW126051   3.009   4.002  12.670  1.6677 -2.1223  2.2264
 4863SOL    HW226052   3.078   3.940  12.562  0.1290  0.0496  0.3755
 4864SOL     OW26053   0.811   2.044   1.676 -0.1934  0.2893  0.0865
 4864SOL    HW126054   0.805   1.952   1.699 -0.0422  0.3045  0.1866
 4864SOL    HW226055   0.726   2.077   1.707 -0.9333 -2.3078  0.8455
 4865SOL     OW26056   4.553   0.419   4.468 -0.5865  0.1575  0.2302
 4865SOL    HW126057   4.521   0.503   4.501  0.2330  0.9625 -1.0281
 4865SOL    HW226058   4.634   0.415   4.519  0.0834 -0.6992 -0.8901
 4866SOL     OW26059   3.478   2.051   9.640 -0.0607  0.1144  0.2432
 4866SOL    HW126060   3.420   2.028   9.567 -1.0972  2.4514  0.3276
 4866SOL    HW226061   3.474   1.968   9.686 -1.2838 -0.3496 -0.6884
 4867SOL     OW26062   3.009   1.784   9.554 -0.1918 -0.0116  0.1325
 4867SOL    HW126063   3.083   1.788   9.613 -0.8471  1.8289  0.8241
 4867SOL    HW226064   3.059   1.805   9.475  0.0437 -1.4222 -0.0856
 4868SOL     OW26065   0.533   3.574   7.025  0.2682  0.3343 -0.4970
 4868SOL    HW126066   0.467   3.643   7.026 -0.6065 -0.5139  0.0406
 4868SOL    HW226067   0.584   3.595   6.947  0.5066  0.0129 -0.4277
 4869SOL     OW26068   0.038   2.112   0.838 -0.6404 -0.4595 -0.6963
 4869SOL    HW126069   0.003   2.023   0.850  0.0778 -1.0531 -3.0394
 4869SOL    HW226070   0.087   2.110   0.920 -2.2090 -1.2446  0.2264
 4870SOL     OW26071   4.694   1.936   3.789 -0.2138 -0.4019 -0.1710
 4870SOL    HW126072   4.645   1.856   3.767  1.6044 -1.7770  0.7724
 4870SOL    HW226073   0.022   1.929   3.710  0.7119 -1.3526  0.5302
 4871SOL     OW26074   1.585   3.465   7.780  0.3446 -0.1778 -0.7101
 4871SOL    HW126075   1.616   3.536   7.836 -1.6580 -1.0407  1.4835
 4871SOL    HW226076   1.491   3.481   7.786  0.3947  0.1457 -0.7592
 4872SOL     OW26077   1.097   0.018   1.383 -0.0352  0.0686 -0.8143
 4872SOL    HW126078   1.087   0.004   1.289 -2.5962  0.5581 -0.6167
 4872SOL    HW226079   1.177   0.071   1.389  0.3987 -0.8172  1.0584
 4873SOL     OW26080   4.313   1.862  10.833  0.2975 -0.2104 -0.0881
 4873SOL    HW126081   4.309   1.767  10.821 -2.0260  0.1756 -2.5015
 4873SOL    HW226082   4.222   1.879  10.857  0.6605 -1.2632  2.0103
 4874SOL     OW26083   4.603   3.610   5.012 -0.1237 -0.8382  0.5934
 4874SOL    HW126084   4.537   3.602   4.944  0.8213  2.8546 -0.7495
 4874SOL    HW226085   4.559   3.679   5.061  1.3406  0.0239  0.7225
 4875SOL     OW26086   3.663   4.396  12.119  0.6338  0.5227  0.3183
 4875SOL    HW126087   3.624   4.483  12.104 -2.1614 -1.2297 -2.5932
 4875SOL    HW226088   3.676   4.376  12.027 -1.9736 -0.2714  0.1207
 4876SOL     OW26089   1.589   3.436   1.233  0.7184 -0.6092 -0.0818
 4876SOL    HW126090   1.619   3.507   1.175  1.6831  1.1490  2.5684
 4876SOL    HW226091   1.594   3.479   1.318  1.0421  0.4335 -0.6247
 4877SOL     OW26092   2.065   0.645  14.042 -0.2574 -0.2637  0.7829
 4877SOL    HW126093   2.088   0.611  14.129  2.6289  0.8113  0.4054
 4877SOL    HW226094   1.975   0.612  14.033 -0.1160 -0.1531 -0.9352
 4878SOL     OW26095   4.082   3.936  13.776 -0.1879 -0.0967  0.5072
 4878SOL    HW126096   4.053   3.941  13.685  0.4735 -1.9221  0.2025
 4878SOL    HW226097   4.151   3.869  13.776  2.2907  2.4434  1.7368
 4879SOL     OW26098   3.964   0.082  15.077  0.4462 -0.4140  0.1359
 4879SOL    HW126099   4.026   0.015  15.047 -0.4811 -0.1419 -2.4348
 4879SOL    HW226100   4.013   0.162  15.056  3.2319 -2.4315 -0.9947
 4880SOL     OW26101   0.190   4.650  12.942 -0.1644 -0.0983 -0.7294
 4880SOL    HW126102   0.159   4.682  13.027 -1.1393 -1.3691 -0.6113
 4880SOL    HW226103   0.206   4.559  12.967 -1.0037  0.2075  0.9690
 4881SOL     OW26104   0.975   4.627   1.162  0.1078  0.3332 -0.7926
 4881SOL    HW126105   1.001   4.539   1.135  0.8329  0.1174  0.6427
 4881SOL    HW226106   0.976   4.669   1.076  0.5224 -0.1019 -0.9984
 4882SOL     OW26107   3.324   4.445   2.938 -0.2104  0.4094 -0.2493
 4882SOL    HW126108   3.375   4.486   3.008  0.7399  0.8354 -1.1939
 4882SOL    HW226109   3.371   4.365   2.916 -0.0513 -0.0492  1.7902
 4883SOL     OW26110   1.771   0.440   5.921  0.4731  0.1142 -0.5676
 4883SOL    HW126111   1.838   0.465   5.859  0.4669  1.0391 -0.1943
 4883SOL    HW226112   1.707   0.509   5.903 -2.2511 -1.8295  1.6164
 4884SOL     OW26113   0.782   2.615   8.145 -0.1275  0.1817 -0.0148
 4884SOL    HW126114   0.764   2.656   8.060 -0.5414 -0.2759 -0.1491
 4884SOL    HW226115   0.761   2.682   8.210  1.3680  1.0323 -0.3983
 4885SOL     OW26116   0.564   0.608   7.970  0.1452 -0.5244  0.0854
 4885SOL    HW126117   0.498   0.673   7.946 -0.1005 -0.5514  0.6705
 4885SOL    HW226118   0.529   0.589   8.057  3.8771 -0.6582  1.5474
 4886SOL     OW26119   2.054   0.489   3.600 -0.0153 -0.0853 -0.4852
 4886SOL    HW126120   2.109   0.506   3.524 -1.7693  0.7256 -1.5772
 4886SOL    HW226121   2.005   0.571   3.606 -0.1823 -0.1281 -1.2198
 4887SOL     OW26122   3.718   1.323  10.842  0.3950 -0.2915  0.4923
 4887SOL    HW126123   3.754   1.385  10.779 -0.2839 -0.6805 -0.2754
 4887SOL    HW226124   3.734   1.243  10.792 -0.2306  1.7189 -2.9191
 4888SOL     OW26125   2.959   2.084   4.790 -0.3044  0.4478  0.0717
 4888SOL    HW126126   2.936   2.069   4.698  0.2558 -1.0806  0.1741
 4888SOL    HW226127   2.881   2.128   4.823 -0.2488 -0.5227  1.4746
 4889SOL     OW26128   2.517   0.853   9.925  0.6100  0.0290 -0.4872
 4889SOL    HW126129   2.603   0.820   9.900 -0.5427 -1.7355 -2.0636
 4889SOL    HW226130   2.481   0.777   9.972 -3.3760  2.6647  0.7270
 4890SOL     OW26131   0.870   0.135   1.477 -0.4804 -0.5434  0.0049
 4890SOL    HW126132   0.889   0.142   1.571  2.2364  1.9495 -0.7296
 4890SOL    HW226133   0.961   0.137   1.447 -1.2130  3.3632 -1.9687
 4891SOL     OW26134   1.046   2.779   3.312 -0.2844 -0.1260 -0.0930
 4891SOL    HW126135   1.036   2.695   3.355  0.3016  1.1279  2.4848
 4891SOL    HW226136   1.116   2.822   3.362 -0.5121  1.7951 -1.4089
 4892SOL     OW26137   1.612   3.613   5.373 -0.6071  0.2109 -0.1477
 4892SOL    HW126138   1.600   3.643   5.283 -0.6921 -2.3583 -1.0159
 4892SOL    HW226139   1.669   3.682   5.407  0.7370 -0.4639 -1.0216
 4893SOL     OW26140   2.466   2.342  16.017 -0.2599 -0.4249 -0.0424
 4893SOL    HW126141   2.547   2.386  15.991 -1.0463  0.5610 -0.8267
 4893SOL    HW226142   2.446   2.312  15.928 -1.4749  2.0276 -0.5993
 4894SOL     OW26143   0.540   3.381  14.218  0.0782 -0.3927  0.4487
 4894SOL    HW126144   0.490   3.437  14.278 -2.3895  1.5488 -3.3570
 4894SOL    HW226145   0.465   3.327  14.192 -0.4677 -0.4095  2.0924
 4895SOL     OW26146   0.139   0.911  10.500  0.1721 -0.3867  0.2141
 4895SOL    HW126147   0.097   0.905  10.586  2.4594 -0.1599  1.3514
 4895SOL    HW226148   0.069   0.950  10.449  0.0395  0.6924  1.2112
 4896SOL     OW26149   1.470   0.655  10.442  0.4098  0.6533 -0.0371
 4896SOL    HW126150   1.438   0.736  10.482  0.4045 -0.4964  2.3101
 4896SOL    HW226151   1.395   0.595  10.441  2.7470 -2.2542 -1.3877
 4897SOL     OW26152   2.950   4.685   0.443  0.1128  0.0728  0.4681
 4897SOL    HW126153   3.039   4.670   0.475 -0.3482 -0.1165  1.6275
 4897SOL    HW226154   2.962   4.685   0.348  3.2923  1.6156  0.8802
 4898SOL     OW26155   0.778   3.027  11.006  0.0293  0.1820  0.2288
 4898SOL    HW126156   0.824   3.103  11.042  0.4017  0.0890 -0.0458
 4898SOL    HW226157   0.740   2.995  11.088  1.5522 -1.7029  0.2048
 4899SOL     OW26158   2.803   1.041   6.112  0.5035 -0.2184 -0.0516
 4899SOL    HW126159   2.717   1.011   6.142  0.5597  0.5639  0.9187
 4899SOL    HW226160   2.861   0.967   6.126 -0.2765 -0.6169  1.0793
 4900SOL     OW26161   0.034   0.880   1.672 -0.2639  0.3814 -1.0380
 4900SOL    HW126162   0.041   0.963   1.719  3.1504 -0.9090  0.7574
 4900SOL    HW226163   0.127   0.857   1.674  0.0459  1.6849 -0.4870
 4901SOL     OW26164   0.897   4.008  13.026 -0.2706  0.5563  0.7119
 4901SOL    HW126165   0.989   3.987  13.038 -0.1945 -0.0411 -0.8528
 4901SOL    HW226166   0.879   3.948  12.953  0.6692 -0.3045  1.1923
 4902SOL     OW26167   1.921   2.500   7.521 -0.7041  0.0223  0.1020
 4902SOL    HW126168   1.940   2.409   7.544  0.4491 -0.3052 -2.1482
 4902SOL    HW226169   1.906   2.493   7.427 -2.4965 -0.0428  0.3901
 4903SOL     OW26170   1.386   2.506   5.303  0.5222 -0.0664 -0.3100
 4903SOL    HW126171   1.392   2.498   5.398 -1.5486 -0.7254 -0.2504
 4903SOL    HW226172   1.308   2.561   5.295  1.8208  2.2098  2.5453
 4904SOL     OW26173   3.932   0.763  17.626  0.1332  0.0575 -0.0054
 4904SOL    HW126174   3.919   0.816   0.002  1.0921 -0.6195  0.6220
 4904SOL    HW226175   3.889   0.815  17.559  0.5596  1.0561  0.4969
 4905SOL     OW26176   2.764   2.103   3.269  0.0887  0.5807 -0.4542
 4905SOL    HW126177   2.753   2.074   3.179  0.8499  0.2528 -0.4433
 4905SOL    HW226178   2.848   2.148   3.258  0.4539 -0.2236 -0.9674
 4906SOL     OW26179   4.607   2.046   2.394  0.2219 -0.3711 -0.1993
 4906SOL    HW126180   4.654   2.082   2.319  0.9568  1.0113  0.9266
 4906SOL    HW226181   4.682   2.035   2.453 -0.3544 -1.4465  0.3415
 4907SOL     OW26182   4.116   2.481   0.445  0.2706  0.0406 -0.3630
 4907SOL    HW126183   4.111   2.443   0.533 -1.7537  1.0900 -0.0147
 4907SOL    HW226184   4.076   2.562   0.475 -0.3685 -0.5328  0.3535
 4908SOL     OW26185   0.560   1.856  13.291  0.0602  0.7284 -0.4069
 4908SOL    HW126186   0.525   1.914  13.358 -4.4624  0.0468 -2.1258
 4908SOL    HW226187   0.603   1.782  13.334  1.0223  1.0470 -0.8227
 4909SOL     OW26188   0.113   3.268   5.920  0.2518 -0.1064  0.0908
 4909SOL    HW126189   0.038   3.281   5.861 -1.1450  0.2183  1.9405
 4909SOL    HW226190   0.104   3.176   5.944 -0.0669 -0.5809 -1.7938
 4910SOL     OW26191   1.767   4.177   0.326 -0.4877 -0.3410  0.1246
 4910SOL    HW126192   1.673   4.156   0.328 -0.0496 -2.5214 -1.6370
 4910SOL    HW226193   1.779   4.259   0.374 -1.0315  0.4581 -1.0999
 4911SOL     OW26194   2.464   0.371   5.672 -0.6111  0.4228 -0.6355
 4911SOL    HW126195   2.396   0.317   5.631 -1.4273  0.2065  0.9995
 4911SOL    HW226196   2.442   0.374   5.765  1.2634 -0.1485 -0.1754
 4912SOL     OW26197   1.308   3.454  11.545 -0.2434  0.1849 -0.3744
 4912SOL    HW126198   1.359   3.504  11.481 -0.0473  0.8992  0.3349
 4912SOL    HW226199   1.276   3.519  11.607 -0.9191  0.2498 -0.7936
 4913SOL     OW26200   3.720   4.597  11.057 -0.4133 -0.5939 -0.4624
 4913SOL    HW126201   3.637   4.583  11.103 -0.0900 -2.2113 -0.3556
 4913SOL    HW226202   3.724   4.507  11.022  1.5313  0.0351 -1.8630
 4914SOL     OW26203   1.592   0.622   6.498  0.2532  0.2937 -0.3020
 4914SOL    HW126204   1.548   0.579   6.424 -1.2542  0.6210  0.4148
 4914SOL    HW226205   1.534   0.696   6.515 -0.8068 -0.5360 -0.2649
 4915SOL     OW26206   2.849   1.598   0.352 -0.4509  0.3178 -0.5317
 4915SOL    HW126207   2.819   1.655   0.280  0.7316  0.0622 -1.2233
 4915SOL    HW226208   2.899   1.660   0.404  1.3331 -0.5483 -1.2359
 4916SOL     OW26209   0.951   0.021   0.180  0.0884 -0.7154 -0.1526
 4916SOL    HW126210   0.958   4.708   0.093  0.1251  1.9823 -1.3128
 4916SOL    HW226211   1.040   0.001   0.210  0.8187  2.9861  0.0585
 4917SOL     OW26212   3.836   1.363   3.321  0.1021 -0.2474  0.2232
 4917SOL    HW126213   3.890   1.437   3.293 -1.2908  1.0413  0.9733
 4917SOL    HW226214   3.869   1.292   3.265 -1.3815 -0.9917  0.2966
 4918SOL     OW26215   3.769   4.281   8.247 -0.5477 -0.2206 -0.2772
 4918SOL    HW126216   3.846   4.318   8.290  1.2681 -2.6558 -1.4198
 4918SOL    HW226217   3.699   4.316   8.303 -2.1454 -1.8889 -1.2271
 4919SOL     OW26218   4.496   0.524   6.377  0.2265 -0.1956  0.0953
 4919SOL    HW126219   4.406   0.510   6.408  0.9333 -0.7603  1.9016
 4919SOL    HW226220   4.472   0.578   6.302  1.7600 -0.9671 -0.9399
 4920SOL     OW26221   0.617   0.105   7.252  0.0874  0.3152 -0.0471
 4920SOL    HW126222   0.570   0.033   7.210  0.4744 -0.7974  1.4402
 4920SOL    HW226223   0.694   0.064   7.292  0.5120  0.9623 -0.2007
 4921SOL     OW26224   3.767   2.217  15.764  0.1178 -0.3514  0.0862
 4921SOL    HW126225   3.714   2.285  15.806 -0.9161 -2.2072  1.7727
 4921SOL    HW226226   3.728   2.131  15.782 -0.3288 -0.1974 -0.1475
 4922SOL     OW26227   2.889   3.701   5.825 -0.3509  0.0144  0.2373
 4922SOL    HW126228   2.894   3.622   5.771 -2.3881  1.3375 -1.8736
 4922SOL    HW226229   2.852   3.664   5.906  1.0384 -0.6250  0.5799
 4923SOL     OW26230   2.825   2.437   6.342 -0.2264  0.4330  0.0175
 4923SOL    HW126231   2.899   2.377   6.340  0.4249  1.2932 -1.0526
 4923SOL    HW226232   2.757   2.369   6.348  0.4195 -0.1839  0.2874
 4924SOL     OW26233   3.219   1.013   7.868 -0.4705 -0.0244  0.6200
 4924SOL    HW126234   3.259   1.086   7.820 -0.0003 -0.6294  0.0991
 4924SOL    HW226235   3.179   1.063   7.939  0.0538  2.0396 -0.5353
 4925SOL     OW26236   4.164   3.029   0.072  0.1168  0.2732  0.3031
 4925SOL    HW126237   4.231   3.028   0.003  0.3668  2.3621  0.5157
 4925SOL    HW226238   4.226   3.036   0.145 -1.5917 -0.0841  1.7755
 4926SOL     OW26239   1.095   4.611   8.781 -0.3183  0.4948  0.0590
 4926SOL    HW126240   1.014   4.563   8.800  0.7852 -0.9955  0.9901
 4926SOL    HW226241   1.116   4.635   8.871  5.2972  0.0857 -1.1159
 4927SOL     OW26242   0.809   3.607  15.438  0.0766  0.3642  0.0621
 4927SOL    HW126243   0.747   3.576  15.372 -0.2671  0.0601  0.5354
 4927SOL    HW226244   0.746   3.647  15.498  0.2440 -4.6006  3.5591
 4928SOL     OW26245   0.210   1.867   8.440 -0.1446  0.6403 -0.2192
 4928SOL    HW126246   0.159   1.915   8.375 -0.4525 -0.4145 -0.7406
 4928SOL    HW226247   0.133   1.815   8.463 -1.1469  1.2498 -2.2253
 4929SOL     OW26248   2.370   1.243   1.109 -0.2963  0.4943  0.1438
 4929SOL    HW126249   2.430   1.295   1.162 -1.8710  0.4099  2.0191
 4929SOL    HW226250   2.404   1.154   1.118  0.1924  0.6392 -0.3053
 4930SOL     OW26251   4.234   0.985   9.802 -0.4262  0.4207 -0.0308
 4930SOL    HW126252   4.144   0.954   9.791  0.0010 -0.2825 -1.6317
 4930SOL    HW226253   4.255   0.963   9.711 -1.9441  2.9810 -0.9746
 4931SOL     OW26254   0.558   1.446   7.477  0.3095  0.2118 -0.3594
 4931SOL    HW126255   0.589   1.534   7.498 -0.1584  0.6573 -1.4825
 4931SOL    HW226256   0.630   1.408   7.428 -0.1865 -1.3161  0.0829
 4932SOL     OW26257   3.346   1.101   2.239  0.4226  0.1282 -0.2261
 4932SOL    HW126258   3.401   1.044   2.293 -1.3147  1.1173  2.5971
 4932SOL    HW226259   3.392   1.092   2.156 -0.9262 -1.5910 -0.7944
 4933SOL     OW26260   3.066   4.514  14.854 -0.0573  0.2339 -0.0184
 4933SOL    HW126261   3.111   4.531  14.937 -0.5973 -1.3416  0.5873
 4933SOL    HW226262   3.131   4.549  14.793 -0.1752  1.4121  0.5326
 4934SOL     OW26263   2.560   2.743   5.731  0.0798 -0.7174 -0.6396
 4934SOL    HW126264   2.574   2.713   5.821  0.5752  1.8521  0.1436
 4934SOL    HW226265   2.598   2.830   5.725 -0.9230 -0.1679  0.9911
 4935SOL     OW26266   0.248   2.376   8.648  0.1732  0.6856 -0.1202
 4935SOL    HW126267   0.207   2.302   8.602 -0.1103 -0.2014  1.5773
 4935SOL    HW226268   0.181   2.445   8.648 -1.1140 -0.5587  1.4098
 4936SOL     OW26269   0.875   1.491   6.112  0.0189  0.5572 -0.0688
 4936SOL    HW126270   0.847   1.581   6.097 -0.1252  0.1284 -2.3339
 4936SOL    HW226271   0.887   1.486   6.207 -1.4490 -3.1163 -0.0848
 4937SOL     OW26272   2.311   0.113   3.395  0.5112 -0.0258  0.4990
 4937SOL    HW126273   2.343   0.116   3.305 -1.3273  1.0418 -0.1043
 4937SOL    HW226274   2.230   0.161   3.379  0.8982 -0.2881 -2.1931
 4938SOL     OW26275   4.357   4.607   0.481 -0.0877  0.7562  0.0401
 4938SOL    HW126276   4.412   4.558   0.419 -0.0242 -0.6775  1.2359
 4938SOL    HW226277   4.421   4.666   0.522 -0.2540  1.7918 -1.1792
 4939SOL     OW26278   1.861   0.625   0.326 -0.0073  0.3845  0.4991
 4939SOL    HW126279   1.792   0.683   0.294  0.3791  0.8747  0.5427
 4939SOL    HW226280   1.872   0.579   0.243 -0.3237  1.5531 -0.1960
 4940SOL     OW26281   2.485   0.677   0.005  0.2358 -0.1364 -0.0268
 4940SOL    HW126282   2.578   0.656   0.017  0.0693 -1.5720 -1.2868
 4940SOL    HW226283   2.495   0.767   0.037 -1.1701  0.3092 -0.8396
 4941SOL     OW26284   1.919   1.251   8.571  0.0888  0.0102 -0.1933
 4941SOL    HW126285   1.882   1.170   8.605 -1.3525  1.1218  0.9131
 4941SOL    HW226286   1.927   1.298   8.654  1.3232 -1.9464  0.7836
 4942SOL     OW26287   2.808   4.135  17.699  0.2391 -1.0457  0.4857
 4942SOL    HW126288   2.734   4.100   0.047  1.1156  0.0198  2.5175
 4942SOL    HW226289   2.815   4.064  17.635  0.9130 -0.3867 -0.1603
 4943SOL     OW26290   1.078   3.293   3.901 -0.2378 -0.2551  0.0580
 4943SOL    HW126291   1.097   3.387   3.897 -0.5558 -0.1440  0.9366
 4943SOL    HW226292   0.984   3.298   3.886 -0.1378  1.5442  0.0417
 4944SOL     OW26293   3.611   3.751   0.740  0.2638  0.2275 -0.2620
 4944SOL    HW126294   3.580   3.763   0.651 -1.8919  1.9022  0.7100
 4944SOL    HW226295   3.700   3.720   0.725 -0.7702 -3.0203  0.4357
 4945SOL     OW26296   2.065   3.735   4.640  0.1440 -0.4026  0.4934
 4945SOL    HW126297   2.096   3.660   4.589 -1.1420 -1.1901  0.8916
 4945SOL    HW226298   2.110   3.807   4.595 -1.4372  0.6120  0.5355
 4946SOL     OW26299   2.753   0.610   5.362 -0.2879 -0.1967  0.3252
 4946SOL    HW126300   2.804   0.580   5.286  0.5854  2.1975 -0.0302
 4946SOL    HW226301   2.706   0.688   5.335  1.7384 -0.3762 -3.7873
 4947SOL     OW26302   3.159   4.084   2.896 -0.0578 -0.3360 -0.0992
 4947SOL    HW126303   3.243   4.127   2.879  0.4592 -1.6059 -0.8270
 4947SOL    HW226304   3.179   3.995   2.927  0.1757 -0.2578 -0.0211
 4948SOL     OW26305   4.011   1.607  11.568 -0.0956  0.7018  0.3771
 4948SOL    HW126306   4.067   1.685  11.574  0.6521  0.1274  0.8664
 4948SOL    HW226307   3.946   1.628  11.635 -1.0647  3.6919 -1.5071
 4949SOL     OW26308   1.888   2.022   3.870  0.4314  0.0478 -0.7442
 4949SOL    HW126309   1.905   1.957   3.938  0.0090  0.8805  0.1492
 4949SOL    HW226310   1.853   2.090   3.927 -1.2448  0.6315 -2.4667
 4950SOL     OW26311   0.757   3.009   6.697 -0.4336 -0.0510 -0.3707
 4950SOL    HW126312   0.815   2.963   6.757 -0.2353  0.1961 -0.3713
 4950SOL    HW226313   0.720   3.062   6.768 -0.7334  1.0004 -1.3051
 4951SOL     OW26314   2.484   3.840  10.293  0.3960  0.3187 -0.2217
 4951SOL    HW126315   2.551   3.879  10.350  0.5392 -1.3894  0.7968
 4951SOL    HW226316   2.499   3.887  10.211  1.4431  1.2520  0.4956
 4952SOL     OW26317   2.039   2.729   8.317  1.1604  0.9465 -0.1759
 4952SOL    HW126318   1.946   2.710   8.321  1.7785 -2.2269 -0.6054
 4952SOL    HW226319   2.069   2.653   8.267 -2.8794 -1.3551  0.9169
 4953SOL     OW26320   2.976   2.476   6.706  0.3924  0.0299  0.2907
 4953SOL    HW126321   2.945   2.565   6.723 -1.0043 -0.4887  0.4693
 4953SOL    HW226322   2.896   2.424   6.709  1.7870 -2.1452 -0.9956
 4954SOL     OW26323   0.319   2.965   8.984  1.2044  0.3029  0.7222
 4954SOL    HW126324   0.380   2.894   9.006  0.5436 -0.4110  0.2526
 4954SOL    HW226325   0.248   2.936   9.041  0.9713 -0.1487  0.2100
 4955SOL     OW26326   2.533   1.056   9.530  0.1897  0.6874  0.2550
 4955SOL    HW126327   2.509   1.147   9.545 -2.8751  0.2286 -1.9108
 4955SOL    HW226328   2.471   1.029   9.462  1.3083  0.0331 -0.5125
 4956SOL     OW26329   2.707   0.705   9.820 -0.4451  0.2323  0.1309
 4956SOL    HW126330   2.717   0.617   9.784 -1.4422  0.6881 -1.2227
 4956SOL    HW226331   2.799   0.717   9.844 -0.6856  0.1049  1.1220
 4957SOL     OW26332   4.080   1.362  10.433 -0.1506 -0.0868 -0.4221
 4957SOL    HW126333   4.121   1.341  10.349 -0.2142 -2.5352  0.1468
 4957SOL    HW226334   3.990   1.362  10.402 -0.4838 -2.3673  0.5166
 4958SOL     OW26335   3.295   3.818   9.639  0.0453 -0.3125 -0.5974
 4958SOL    HW126336   3.221   3.816   9.699  0.7468  0.3862  0.2986
 4958SOL    HW226337   3.336   3.890   9.688 -1.4035 -0.4095  0.7606
 4959SOL     OW26338   3.935   3.723   3.988  0.0376  0.2939  0.2504
 4959SOL    HW126339   3.869   3.737   3.920 -1.4865  3.6169  2.4515
 4959SOL    HW226340   3.958   3.811   4.015  0.4638 -0.0816  1.0998
 4960SOL     OW26341   3.059   0.675  10.159  0.5937 -0.1202 -0.0758
 4960SOL    HW126342   2.988   0.643  10.216 -0.5413  0.5345 -1.1320
 4960SOL    HW226343   3.058   0.766  10.189  0.7732 -1.2794  3.4380
 4961SOL     OW26344   1.669   0.584  15.605  0.5773 -0.0581  0.0098
 4961SOL    HW126345   1.624   0.661  15.639  1.8782  1.2281 -1.1986
 4961SOL    HW226346   1.686   0.608  15.514  1.1522 -0.6296 -0.0368
 4962SOL     OW26347   3.378   4.058   7.919  0.1637  0.2908 -0.0792
 4962SOL    HW126348   3.290   4.073   7.886 -0.8417 -2.0476  1.5127
 4962SOL    HW226349   3.379   4.104   8.002 -1.4643  0.1669  0.0068
 4963SOL     OW26350   1.979   2.770   7.300  0.0424 -0.1209  0.5787
 4963SOL    HW126351   2.032   2.693   7.321 -0.5414  0.2085  3.1907
 4963SOL    HW226352   1.921   2.771   7.376 -1.0742 -1.1975 -0.2714
 4964SOL     OW26353   1.905   4.536  12.285  0.2358  0.1700 -0.3754
 4964SOL    HW126354   1.835   4.484  12.245  0.9907  0.0502 -1.5433
 4964SOL    HW226355   1.976   4.529  12.221  2.3901  3.3145  1.6618
 4965SOL     OW26356   2.725   0.325   7.493 -0.4821 -0.2604  0.2036
 4965SOL    HW126357   2.700   0.413   7.466  0.0623 -0.1054  0.2061
 4965SOL    HW226358   2.637   0.295   7.518  0.0984 -0.9045  1.5112
 4966SOL     OW26359   0.239   2.686   7.486 -0.0883  0.7615 -0.2480
 4966SOL    HW126360   0.329   2.656   7.480 -1.2247 -2.5972 -0.2639
 4966SOL    HW226361   0.251   2.737   7.566  0.9643 -0.5131  0.4099
 4967SOL     OW26362   3.940   2.025   3.998  0.9623  0.0743 -0.2808
 4967SOL    HW126363   3.981   2.021   4.084  0.2777 -0.2465  0.0253
 4967SOL    HW226364   4.000   2.089   3.959  2.0369  0.1092  1.4370
 4968SOL     OW26365   3.822   1.625  11.799 -0.2336  0.0748  0.3566
 4968SOL    HW126366   3.819   1.695  11.865 -0.4568  2.1424 -1.8516
 4968SOL    HW226367   3.809   1.546  11.852 -1.0100  0.2238  0.3914
 4969SOL     OW26368   0.753   2.697  13.440 -0.3822  0.0528 -0.0271
 4969SOL    HW126369   0.764   2.743  13.357  1.0986  2.3784  1.4613
 4969SOL    HW226370   0.844   2.699  13.470  0.1038  4.2121 -1.7153
 4970SOL     OW26371   0.937   2.216   7.579 -0.3289 -0.6364  0.1828
 4970SOL    HW126372   0.849   2.184   7.560 -1.7580  3.4953 -0.3479
 4970SOL    HW226373   0.945   2.197   7.673 -0.0514  0.5208  0.3954
 4971SOL     OW26374   4.234   4.129   5.633 -0.2503 -0.0037 -0.5403
 4971SOL    HW126375   4.304   4.170   5.583 -0.6583 -1.1270 -2.0266
 4971SOL    HW226376   4.188   4.199   5.680  0.3651 -0.0473  0.1205
 4972SOL     OW26377   2.316   2.381  15.600  0.2028  0.5383  0.6404
 4972SOL    HW126378   2.386   2.401  15.538 -0.0289  0.9688  0.5136
 4972SOL    HW226379   2.363   2.313  15.648 -0.9561 -0.8714 -0.2371
 4973SOL     OW26380   3.504   0.327   4.862  0.0612  0.0663  0.7455
 4973SOL    HW126381   3.443   0.399   4.843  0.0976 -0.9890 -3.3914
 4973SOL    HW226382   3.576   0.369   4.909 -0.3884  2.1666 -0.3960
 4974SOL     OW26383   2.339   2.108   0.912 -0.0268  0.1020  0.3941
 4974SOL    HW126384   2.374   2.020   0.905  0.3815  0.2368  0.7578
 4974SOL    HW226385   2.253   2.095   0.872 -0.2697  0.1106  0.9093
 4975SOL     OW26386   0.722   2.028   0.619 -0.5971 -0.4781  0.2809
 4975SOL    HW126387   0.654   2.091   0.641  0.8421  1.0906  0.2305
 4975SOL    HW226388   0.793   2.088   0.597  0.8563 -2.7827 -1.3615
 4976SOL     OW26389   3.887   1.400   4.402 -0.1788 -0.6330 -0.6496
 4976SOL    HW126390   3.855   1.448   4.478  3.5262 -0.7654  1.0267
 4976SOL    HW226391   3.942   1.466   4.361  0.8207 -0.2795  1.2421
 4977SOL     OW26392   1.689   4.686   2.692 -0.1411  0.3350 -0.0160
 4977SOL    HW126393   1.717   0.015   2.618 -1.2342  0.6857 -0.1722
 4977SOL    HW226394   1.687   0.014   2.772  0.1702  1.4136 -0.7240
 4978SOL     OW26395   2.216   4.519  11.183 -0.3477 -0.0539 -0.2618
 4978SOL    HW126396   2.126   4.510  11.151 -0.8678  0.5247  1.0440
 4978SOL    HW226397   2.208   4.507  11.277 -0.1871 -2.9351 -0.6308
 4979SOL     OW26398   1.657   0.307   1.177 -0.0367 -0.6589  0.3330
 4979SOL    HW126399   1.652   0.397   1.209 -1.6614 -1.2658  1.8142
 4979SOL    HW226400   1.562   0.292   1.172 -0.4302  2.5246 -1.5247
 4980SOL     OW26401   3.848   3.653  15.864 -0.1383 -0.0515 -0.0642
 4980SOL    HW126402   3.894   3.675  15.782  2.5717  1.9550  1.9986
 4980SOL    HW226403   3.899   3.577  15.892  1.4386  1.0620  0.1104
 4981SOL     OW26404   0.498   3.666   3.253 -0.1914  0.1798 -0.0996
 4981SOL    HW126405   0.509   3.598   3.187 -3.7102 -0.8453  0.3434
 4981SOL    HW226406   0.514   3.617   3.334 -1.2592  2.3509  1.4100
 4982SOL     OW26407   2.451   4.625   0.458 -0.1511  0.4999  0.5371
 4982SOL    HW126408   2.494   4.586   0.534 -1.8816  1.7103  2.1375
 4982SOL    HW226409   2.528   4.645   0.405  0.6242 -2.1581  0.6633
 4983SOL     OW26410   3.430   1.571   2.968 -0.3372 -0.2091  0.0355
 4983SOL    HW126411   3.374   1.601   3.040  1.1831  0.0073  1.1278
 4983SOL    HW226412   3.381   1.604   2.892  1.2726 -1.5423 -1.5795
 4984SOL     OW26413   3.163   2.065   1.881  0.0230  0.4314 -0.4105
 4984SOL    HW126414   3.083   2.114   1.863 -0.5122 -0.5278 -0.6970
 4984SOL    HW226415   3.208   2.045   1.799  0.5085  0.3927 -0.1351
 4985SOL     OW26416   1.759   0.366   5.381  0.1630 -0.6369  0.4170
 4985SOL    HW126417   1.793   0.454   5.398  0.5294 -0.7391  0.2095
 4985SOL    HW226418   1.669   0.393   5.365  0.9752  2.3200  0.7036
 4986SOL     OW26419   4.605   0.739   9.357 -0.1686 -0.1428 -0.5380
 4986SOL    HW126420   4.514   0.721   9.383  0.2876  2.1225  2.6188
 4986SOL    HW226421   4.596   0.812   9.296  0.7867  1.3796  1.1535
 4987SOL     OW26422   1.792   2.492   0.605  0.4694 -0.3674  0.0355
 4987SOL    HW126423   1.745   2.564   0.645 -0.2628 -1.3477  0.9085
 4987SOL    HW226424   1.884   2.510   0.625  0.1817  0.5554  0.5218
 4988SOL     OW26425   0.954   4.661   0.715  0.0230 -0.1876  0.2269
 4988SOL    HW126426   0.993   4.659   0.628 -0.3344 -2.6769  0.1267
 4988SOL    HW226427   0.867   4.634   0.685 -0.8692 -0.1730  2.7717
 4989SOL     OW26428   2.318   2.703   5.017 -0.1921  0.4678  0.1502
 4989SOL    HW126429   2.358   2.624   4.982 -0.1042  0.4840  0.2149
 4989SOL    HW226430   2.333   2.685   5.109 -3.4918  1.8986  0.9912
 4990SOL     OW26431   4.543   3.154   7.869 -0.1827  0.0160  0.3652
 4990SOL    HW126432   4.634   3.124   7.874 -0.0361  0.3322 -0.4700
 4990SOL    HW226433   4.560   3.242   7.901 -0.2997  1.0811 -2.5616
 4991SOL     OW26434   4.580   4.333   0.836 -0.3946  0.3497  0.2089
 4991SOL    HW126435   4.615   4.406   0.784  2.7147 -1.4256 -0.2085
 4991SOL    HW226436   4.514   4.391   0.873  1.0389  1.0768  1.6041
 4992SOL     OW26437   0.333   2.460   6.407 -0.0597  0.3992 -0.3262
 4992SOL    HW126438   0.307   2.427   6.493 -2.3680 -0.1427 -1.2279
 4992SOL    HW226439   0.407   2.401   6.395  0.5095  1.4934 -2.1130
 4993SOL     OW26440   3.734   0.956  13.298  0.3799  0.3508 -0.5152
 4993SOL    HW126441   3.715   1.038  13.343  1.8687  0.0631  0.6255
 4993SOL    HW226442   3.803   0.994  13.244 -0.3346 -0.0654 -1.7206
 4994SOL     OW26443   2.320   0.752   0.311  0.0046  0.5922 -0.2971
 4994SOL    HW126444   2.269   0.746   0.231  0.7303 -0.1489 -0.7075
 4994SOL    HW226445   2.255   0.776   0.376  0.0653  1.1203 -0.4365
 4995SOL     OW26446   0.781   0.429   4.586  0.2038 -0.0040 -0.3192
 4995SOL    HW126447   0.812   0.343   4.555  0.4300 -0.5520  1.4042
 4995SOL    HW226448   0.801   0.422   4.679  1.7213  2.3591 -0.4570
 4996SOL     OW26449   0.158   0.073  15.303 -0.1775 -0.1726  0.6033
 4996SOL    HW126450   0.073   0.086  15.346  0.2881  1.3487  1.0853
 4996SOL    HW226451   0.215   0.143  15.335  1.5169 -0.8962 -0.8430
 4997SOL     OW26452   2.273   4.520   5.198  0.2024  0.1300 -0.3431
 4997SOL    HW126453   2.250   4.599   5.247  0.1610  0.3542 -0.7236
 4997SOL    HW226454   2.288   4.557   5.111 -0.6217 -0.2550 -0.6499
 4998SOL     OW26455   2.182   1.951   6.691 -0.5593 -0.4501 -1.0628
 4998SOL    HW126456   2.111   1.956   6.755  0.3773 -0.6522 -0.0206
 4998SOL    HW226457   2.153   2.006   6.617 -0.4256  2.1400  0.8065
 4999SOL     OW26458   1.275   1.336   6.292 -0.5205  0.0190  0.0610
 4999SOL    HW126459   1.186   1.303   6.302 -0.2337 -0.1748  1.9644
 4999SOL    HW226460   1.277   1.407   6.356 -0.6266  0.1560 -0.0873
 5000SOL     OW26461   3.872   1.188  12.612  0.2321 -0.1163 -0.1364
 5000SOL    HW126462   3.878   1.213  12.704 -0.5289 -0.3820 -0.0102
 5000SOL    HW226463   3.781   1.211  12.593  0.4436  0.3604 -0.5810
 5001SOL     OW26464   3.263   4.484   4.786  0.5769 -0.2126  0.0985
 5001SOL    HW126465   3.290   4.486   4.695  1.3818  2.1792  0.4161
 5001SOL    HW226466   3.318   4.553   4.822  0.1320  0.1476  0.0873
 5002SOL     OW26467   4.406   3.772  14.562  0.2410  0.6358  0.1788
 5002SOL    HW126468   4.342   3.827  14.518  0.6605  1.2791  0.3735
 5002SOL    HW226469   4.353   3.708  14.608  0.7549 -0.6637 -1.0204
 5003SOL     OW26470   4.173   0.142   5.821 -0.1374 -0.5342 -0.2445
 5003SOL    HW126471   4.135   0.189   5.895 -1.0575 -0.5306 -0.7143
 5003SOL    HW226472   4.256   0.117   5.861  0.3077 -0.0326 -0.8566
 5004SOL     OW26473   2.907   1.824   3.024 -0.1211  0.2878 -0.0389
 5004SOL    HW126474   2.991   1.847   2.985 -0.3591  0.2371 -0.5781
 5004SOL    HW226475   2.937   1.785   3.107 -1.4992 -2.5229 -0.8639
 5005SOL     OW26476   3.124   3.191   4.205  0.3729  0.1557  0.3655
 5005SOL    HW126477   3.217   3.185   4.227  0.4625  1.6317  0.4249
 5005SOL    HW226478   3.121   3.226   4.116 -3.8214 -2.4915 -0.5467
 5006SOL     OW26479   4.359   3.624   8.808  0.2657  0.4333  0.0492
 5006SOL    HW126480   4.403   3.591   8.730 -1.8907 -0.4251 -0.8125
 5006SOL    HW226481   4.423   3.609   8.877 -0.5028  0.3626  0.7530
 5007SOL     OW26482   3.147   1.084   3.367  0.0422  0.1500 -0.0784
 5007SOL    HW126483   3.233   1.116   3.394  1.0927 -2.2929 -0.5118
 5007SOL    HW226484   3.173   1.062   3.278 -0.3130 -0.6285  0.0073
 5008SOL     OW26485   1.529   1.999   1.055  0.4058  0.3960 -0.3623
 5008SOL    HW126486   1.604   2.049   1.024  1.9412 -2.0481 -0.6142
 5008SOL    HW226487   1.528   1.923   0.997 -1.2953 -0.6779  1.0749
 5009SOL     OW26488   1.067   1.142   8.432  0.5284 -0.0599  0.3749
 5009SOL    HW126489   1.102   1.069   8.382  1.1007  1.0705 -0.8894
 5009SOL    HW226490   1.105   1.127   8.519 -0.3033  0.6425  0.8733
 5010SOL     OW26491   4.639   1.141  11.606  0.3948  0.0440  0.0521
 5010SOL    HW126492   4.653   1.046  11.611  0.9137  0.0896 -0.5944
 5010SOL    HW226493   4.546   1.154  11.586  0.3186 -1.4426 -0.5586
 5011SOL     OW26494   3.436   2.585   7.547  0.0042 -0.0646  0.8518
 5011SOL    HW126495   3.412   2.660   7.602  1.1396  1.0223 -0.1266
 5011SOL    HW226496   3.524   2.563   7.578  0.5669 -1.3711 -1.6765
 5012SOL     OW26497   3.816   1.865   2.675 -0.1679  0.3982  0.1819
 5012SOL    HW126498   3.785   1.934   2.615  0.2917 -0.3066 -0.8604
 5012SOL    HW226499   3.778   1.788   2.632  0.9430  0.5289 -1.0334
 5013SOL     OW26500   3.009   3.833   8.016  0.2004  0.1724 -0.4481
 5013SOL    HW126501   2.976   3.755   8.059  2.6963 -0.4682  0.2655
 5013SOL    HW226502   3.081   3.806   7.959  1.6585 -0.7691  1.8830
 5014SOL     OW26503   1.193   0.939   4.270 -0.4024  0.3646 -0.2321
 5014SOL    HW126504   1.161   0.871   4.328  2.2414  0.0381  0.8780
 5014SOL    HW226505   1.228   0.894   4.193 -0.9592 -0.8609  0.2412
 5015SOL     OW26506   2.478   3.387   2.350  0.4978 -0.6264 -0.1979
 5015SOL    HW126507   2.385   3.386   2.330 -0.0551  3.1775  2.2672
 5015SOL    HW226508   2.483   3.328   2.425  0.9033  1.0219  1.0582
 5016SOL     OW26509   3.405   0.534   2.400 -0.6204 -0.7317  0.3189
 5016SOL    HW126510   3.424   0.564   2.489  0.2026  0.1262 -0.1542
 5016SOL    HW226511   3.382   0.441   2.403 -1.0967 -0.6481 -0.6873
 5017SOL     OW26512   2.184   4.080   4.734  0.4280 -0.5507 -0.1437
 5017SOL    HW126513   2.149   4.132   4.662  1.3968 -3.2613 -2.5268
 5017SOL    HW226514   2.185   4.144   4.806 -2.1780  1.2164 -1.6996
 5018SOL     OW26515   2.438   2.951   6.802  0.2186  0.2199 -0.5442
 5018SOL    HW126516   2.502   3.000   6.751  0.3157  1.6989  0.9911
 5018SOL    HW226517   2.404   3.014   6.865 -1.5797  1.7409 -3.0060
 5019SOL     OW26518   3.791   4.675   5.670  0.1411  0.7040 -0.0899
 5019SOL    HW126519   3.787   0.023   5.732 -0.1586  0.0734  0.6409
 5019SOL    HW226520   3.814   4.714   5.586 -1.1674  0.0645 -0.7513
 5020SOL     OW26521   0.436   0.128   9.494 -0.0384 -1.2434 -0.0475
 5020SOL    HW126522   0.461   0.134   9.586 -0.9328 -0.9388  0.1772
 5020SOL    HW226523   0.479   0.203   9.454 -1.7719 -0.5237 -0.5739
 5021SOL     OW26524   4.314   0.728   8.914 -0.3225 -0.2561  0.5122
 5021SOL    HW126525   4.274   0.737   9.001 -0.2373  0.7587  0.4427
 5021SOL    HW226526   4.407   0.749   8.916  0.1676 -2.2417 -2.2334
 5022SOL     OW26527   2.567   3.579   9.611  0.4503  0.5787 -0.0320
 5022SOL    HW126528   2.513   3.657   9.617  1.3494  1.2682 -0.9274
 5022SOL    HW226529   2.504   3.507   9.606  2.1849 -0.7707 -2.3321
 5023SOL     OW26530   2.891   3.657  16.600  0.5604  0.0486 -0.5357
 5023SOL    HW126531   2.946   3.662  16.679  0.4723  1.4946 -0.5673
 5023SOL    HW226532   2.947   3.692  16.530  0.0572  1.0476 -0.4419
 5024SOL     OW26533   4.364   3.032   3.219  0.0180  0.1425 -0.2613
 5024SOL    HW126534   4.431   3.026   3.151  0.2464 -1.5805  0.1231
 5024SOL    HW226535   4.403   2.974   3.284 -3.3059 -1.8779 -0.0654
 5025SOL     OW26536   4.509   1.738  15.264  0.0904 -0.1935  0.0026
 5025SOL    HW126537   4.427   1.718  15.218 -0.2805 -0.6478  0.8798
 5025SOL    HW226538   4.510   1.662  15.321  1.9466 -1.1474 -1.2794
 5026SOL     OW26539   4.355   3.551   5.534  0.4514  0.2660  0.0948
 5026SOL    HW126540   4.286   3.487   5.550  0.6038  0.5208  1.7202
 5026SOL    HW226541   4.408   3.559   5.613 -0.5169  0.7404  0.6958
 5027SOL     OW26542   0.959   3.986  13.319 -0.1293  0.1448 -0.5112
 5027SOL    HW126543   0.902   3.983  13.242  1.1748 -2.7735 -1.3419
 5027SOL    HW226544   0.948   4.070  13.364 -2.0419 -0.7073  0.5994
 5028SOL     OW26545   1.429   1.838  11.302 -0.2753  0.5925 -0.1950
 5028SOL    HW126546   1.429   1.844  11.398 -2.3609 -4.7848  0.1214
 5028SOL    HW226547   1.521   1.830  11.277 -0.1619 -2.7713  1.3311
 5029SOL     OW26548   3.707   0.766  10.002  0.6638  0.5510 -0.0578
 5029SOL    HW126549   3.782   0.809  10.042  1.5112 -1.1772  0.2171
 5029SOL    HW226550   3.665   0.728  10.079 -0.2233 -0.9929 -1.2854
 5030SOL     OW26551   3.621   1.749   6.091  0.0404  0.0567  0.0038
 5030SOL    HW126552   3.559   1.685   6.055 -1.3304  0.4360  1.6909
 5030SOL    HW226553   3.564   1.822   6.117  1.0855  1.4840 -1.7009
 5031SOL     OW26554   0.024   2.235  10.796 -0.4852  0.3860  0.2289
 5031SOL    HW126555   0.052   2.325  10.778  0.1021 -0.2932 -2.1635
 5031SOL    HW226556   4.719   2.200  10.713 -0.2500  0.8269 -0.0427
 5032SOL     OW26557   0.430   3.518  13.280 -0.0695 -0.2315 -0.7614
 5032SOL    HW126558   0.398   3.563  13.358  0.4974 -0.5279 -0.3614
 5032SOL    HW226559   0.411   3.427  13.304  1.7111 -0.1343  1.0028
 5033SOL     OW26560   3.443   2.490   2.800  0.6941 -0.0466  0.1123
 5033SOL    HW126561   3.411   2.407   2.766 -1.6408  0.5498  0.8633
 5033SOL    HW226562   3.427   2.547   2.724 -0.2944 -0.6315 -0.1155
 5034SOL     OW26563   3.165   2.284  14.089 -0.0030  0.2530 -0.3160
 5034SOL    HW126564   3.099   2.325  14.033 -0.3946 -0.6333 -0.5109
 5034SOL    HW226565   3.158   2.196  14.051  4.5552 -0.3985  0.3810
 5035SOL     OW26566   2.000   2.474   2.020 -0.1624  0.2646 -0.4962
 5035SOL    HW126567   1.989   2.413   2.092 -0.6161  0.9859  0.0539
 5035SOL    HW226568   1.975   2.560   2.055 -4.8006 -1.1091 -0.3806
 5036SOL     OW26569   3.986   3.266   4.716 -0.1266  0.2925 -0.3507
 5036SOL    HW126570   4.046   3.213   4.664  1.0136 -0.1899  1.4622
 5036SOL    HW226571   3.997   3.236   4.806 -0.9772 -3.2128 -1.4141
 5037SOL     OW26572   2.726   1.599  12.131 -0.1039 -0.6930  0.0890
 5037SOL    HW126573   2.777   1.658  12.186  0.5259 -1.9882  0.8994
 5037SOL    HW226574   2.674   1.553  12.197 -3.7898  0.9719 -1.6834
 5038SOL     OW26575   0.833   1.857   6.441 -0.3038  0.3589  0.4388
 5038SOL    HW126576   0.892   1.889   6.509  0.3522 -1.3796  0.6899
 5038SOL    HW226577   0.748   1.891   6.468  1.3600  2.9970  2.3512
 5039SOL     OW26578   2.556   0.759   0.450 -0.2401 -0.5582  0.0184
 5039SOL    HW126579   2.471   0.765   0.406  0.9970 -2.2010 -2.5944
 5039SOL    HW226580   2.588   0.849   0.437  0.2714 -0.8349 -0.6175
 5040SOL     OW26581   3.248   0.458   7.049 -0.0096 -0.3603 -0.9227
 5040SOL    HW126582   3.190   0.486   7.120  0.4458  0.2440 -0.7867
 5040SOL    HW226583   3.331   0.478   7.092  0.1788  0.5103 -1.7024
 5041SOL     OW26584   3.425   0.832   4.114 -0.0517  0.0336 -0.0169
 5041SOL    HW126585   3.398   0.805   4.201  0.4373 -0.3256  0.0254
 5041SOL    HW226586   3.411   0.747   4.073 -1.8695  0.8286 -1.0568
 5042SOL     OW26587   2.301   3.254   4.747 -0.1234  0.2520  0.0020
 5042SOL    HW126588   2.308   3.346   4.719 -1.1615  0.4580  0.4113
 5042SOL    HW226589   2.332   3.269   4.836  0.3709  1.5161 -0.3732
 5043SOL     OW26590   2.787   1.618  15.086 -0.6553  0.6447 -0.3495
 5043SOL    HW126591   2.748   1.666  15.013  1.9157  1.1561 -1.3810
 5043SOL    HW226592   2.771   1.682  15.156  2.8839  1.5982 -0.4196
 5044SOL     OW26593   3.761   4.397  16.437 -0.5040  0.2540  0.0308
 5044SOL    HW126594   3.826   4.369  16.372  0.9050  1.8128  0.7674
 5044SOL    HW226595   3.749   4.486  16.405 -1.3695 -0.1720 -0.8361
 5045SOL     OW26596   3.585   3.979   9.995 -0.3667 -0.0983  0.2223
 5045SOL    HW126597   3.594   3.948  10.085 -1.6923 -1.1596 -0.0102
 5045SOL    HW226598   3.585   4.073  10.011 -0.7166 -0.3706  1.7537
 5046SOL     OW26599   4.547   3.457   3.307  0.2778 -0.3201  0.1628
 5046SOL    HW126600   4.466   3.407   3.316  0.4808 -1.5309 -4.9226
 5046SOL    HW226601   4.521   3.549   3.314  0.2486 -0.3407  0.3358
 5047SOL     OW26602   1.865   4.004   8.570  0.2009  0.0260 -0.5997
 5047SOL    HW126603   1.848   3.914   8.542 -0.6808 -0.4110  1.3200
 5047SOL    HW226604   1.783   4.041   8.538 -0.8558 -0.8771  1.0368
 5048SOL     OW26605   2.470   4.187  12.578  0.2516  0.0066  0.2486
 5048SOL    HW126606   2.507   4.255  12.520 -1.1054  0.6245  0.1076
 5048SOL    HW226607   2.433   4.128  12.512  1.8713  0.0536 -0.7136
 5049SOL     OW26608   0.972   1.751   4.934 -0.0553  0.3241 -0.1863
 5049SOL    HW126609   1.036   1.781   4.870  1.2924 -1.5139  0.2965
 5049SOL    HW226610   0.947   1.664   4.902 -2.3819  0.5480  1.0564
 5050SOL     OW26611   3.097   1.048  15.846  0.6260 -0.0609  0.3932
 5050SOL    HW126612   3.086   1.131  15.892 -0.0010  1.3902 -2.3699
 5050SOL    HW226613   3.021   1.044  15.789  0.9596 -4.9984  0.2872
 5051SOL     OW26614   4.713   0.655  16.360 -0.2245  0.4289  0.8528
 5051SOL    HW126615   0.005   0.690  16.448  0.2339  0.9183  0.5684
 5051SOL    HW226616   4.621   0.679  16.347  0.1918  1.3020 -0.5248
 5052SOL     OW26617   4.049   0.930  10.087 -0.1176  0.1983 -0.0821
 5052SOL    HW126618   4.071   0.928  10.180 -1.7294  0.3905  0.3148
 5052SOL    HW226619   4.119   0.872  10.057  0.2311  1.2955 -1.3616
 5053SOL     OW26620   1.132   2.142   4.623  0.1574  0.1463  0.2956
 5053SOL    HW126621   1.075   2.067   4.603 -0.7894  1.3700 -1.6018
 5053SOL    HW226622   1.196   2.123   4.555 -2.2951 -0.7062 -1.7765
 5054SOL     OW26623   2.741   3.675   2.928 -0.6149  0.8398 -0.4552
 5054SOL    HW126624   2.747   3.710   2.839  0.5127  0.9046 -0.3526
 5054SOL    HW226625   2.681   3.743   2.959 -0.9979  0.3409 -0.0827
 5055SOL     OW26626   2.389   2.130   3.772 -0.3249 -0.3188  0.5782
 5055SOL    HW126627   2.358   2.150   3.683 -0.5041  2.2561  1.2106
 5055SOL    HW226628   2.357   2.040   3.771  1.5464 -0.9538 -1.9212
 5056SOL     OW26629   1.544   2.305   6.506 -0.5421  0.3689  0.0411
 5056SOL    HW126630   1.458   2.296   6.548 -0.9170  2.0162 -0.3723
 5056SOL    HW226631   1.509   2.327   6.419 -2.8746 -0.6556  0.7191
 5057SOL     OW26632   2.221   3.051   5.810  0.1987  0.1913 -0.3243
 5057SOL    HW126633   2.189   2.992   5.877 -0.5168  1.1696  0.1929
 5057SOL    HW226634   2.145   3.109   5.806  0.5384  0.7407  1.2968
 5058SOL     OW26635   2.237   0.822   2.297 -0.1936 -0.0533 -0.2525
 5058SOL    HW126636   2.146   0.853   2.297  0.2173  1.1728 -1.1720
 5058SOL    HW226637   2.265   0.873   2.221 -0.0268 -1.1783 -0.9499
 5059SOL     OW26638   0.505   3.922   1.998 -0.2147  0.2879 -0.3321
 5059SOL    HW126639   0.535   4.006   1.962  1.5832 -0.1219  0.2501
 5059SOL    HW226640   0.441   3.897   1.932 -0.3057 -0.5708  0.0867
 5060SOL     OW26641   1.790   2.284   6.614  0.1460 -0.0940  0.1477
 5060SOL    HW126642   1.708   2.287   6.564  0.0693 -0.6844  0.2326
 5060SOL    HW226643   1.842   2.354   6.575  0.0438 -0.7053 -1.0725
 5061SOL     OW26644   2.251   1.834   6.178  0.2301  0.4236 -0.3197
 5061SOL    HW126645   2.268   1.843   6.271 -2.1346  1.0704  0.0610
 5061SOL    HW226646   2.306   1.759   6.154 -0.0061 -1.2069  4.3225
 5062SOL     OW26647   2.089   2.794   9.110  0.1496  0.2039  0.7934
 5062SOL    HW126648   2.108   2.726   9.046  2.6176  0.2552  1.4876
 5062SOL    HW226649   2.070   2.872   9.057 -0.3629  0.0221  0.7046
 5063SOL     OW26650   3.434   2.816   0.385  0.8370 -0.3278  0.3303
 5063SOL    HW126651   3.413   2.760   0.459  0.0792 -0.3706  0.0774
 5063SOL    HW226652   3.523   2.784   0.367  1.0782  0.4851  0.0620
 5064SOL     OW26653   1.429   1.684   1.546  0.2374  0.0240  0.3579
 5064SOL    HW126654   1.381   1.624   1.602  1.7223 -0.8551  0.6705
 5064SOL    HW226655   1.470   1.732   1.618 -0.2074 -0.4435  0.9172
 5065SOL     OW26656   1.475   0.351   5.363 -0.1288  0.1404 -0.7256
 5065SOL    HW126657   1.437   0.278   5.314  0.7917 -1.0795  0.4129
 5065SOL    HW226658   1.411   0.420   5.343  0.8515  0.6227 -2.1630
 5066SOL     OW26659   3.706   3.366   5.562  0.4888 -0.4092 -0.4660
 5066SOL    HW126660   3.673   3.452   5.535 -0.4945 -0.6117  0.0951
 5066SOL    HW226661   3.728   3.390   5.653 -0.7307  0.0409 -0.2944
 5067SOL     OW26662   1.119   2.199   7.166  0.7184 -0.0829  0.3384
 5067SOL    HW126663   1.098   2.163   7.252  0.9289 -2.8122 -0.7485
 5067SOL    HW226664   1.041   2.249   7.142  2.0187  1.3990 -0.7800
 5068SOL     OW26665   3.302   2.217   8.796  0.3698  0.7072 -0.1732
 5068SOL    HW126666   3.325   2.124   8.802 -1.0364  0.3659 -0.0928
 5068SOL    HW226667   3.285   2.236   8.888  1.0608 -0.8372  0.2825
 5069SOL     OW26668   3.629   3.056   9.283  0.3617 -0.2503  0.0955
 5069SOL    HW126669   3.688   2.981   9.284  0.2025 -0.4225 -2.5106
 5069SOL    HW226670   3.680   3.131   9.313  2.2347 -1.7614  0.7003
 5070SOL     OW26671   0.950   2.411   2.515 -0.2024  0.3624 -0.6428
 5070SOL    HW126672   1.005   2.479   2.474 -2.7833  2.5857 -0.4303
 5070SOL    HW226673   0.870   2.435   2.469 -0.2239  0.6785 -0.4449
 5071SOL     OW26674   0.768   3.265  11.955 -0.2367  0.5293 -0.7883
 5071SOL    HW126675   0.717   3.243  11.877  1.4541 -0.3249 -1.6621
 5071SOL    HW226676   0.852   3.282  11.911 -0.4048  1.3449 -0.7937
 5072SOL     OW26677   0.300   3.569  16.080  0.7384  0.5155  0.1571
 5072SOL    HW126678   0.389   3.577  16.045  1.2229 -3.7129  0.4499
 5072SOL    HW226679   0.281   3.663  16.077 -0.6602  0.3012  2.5750
 5073SOL     OW26680   1.487   3.131   3.417  0.3826  0.3605  0.5199
 5073SOL    HW126681   1.489   3.191   3.491 -0.9865  0.9938  0.0462
 5073SOL    HW226682   1.425   3.179   3.362  0.2211 -0.2700  0.1517
 5074SOL     OW26683   1.811   1.663  10.590 -0.1284  0.2881  0.5430
 5074SOL    HW126684   1.827   1.577  10.627 -0.8453  0.4479  1.2358
 5074SOL    HW226685   1.878   1.656  10.523  0.5464 -1.1440  1.3681
 5075SOL     OW26686   1.400   4.650   6.886  0.4178 -0.5082 -0.3417
 5075SOL    HW126687   1.407   4.556   6.903  0.1783 -0.8146 -1.8971
 5075SOL    HW226688   1.412   4.686   6.974 -0.8592  0.5592 -0.6127
 5076SOL     OW26689   3.216   2.403   4.081  0.4103  0.4939 -0.0751
 5076SOL    HW126690   3.306   2.375   4.067  0.5565  1.3385 -0.8427
 5076SOL    HW226691   3.196   2.448   3.998  0.9377 -0.5548 -0.7686
 5077SOL     OW26692   3.767   1.995  17.578 -0.3153  0.0334 -0.2145
 5077SOL    HW126693   3.689   1.942  17.562  0.6338 -1.2401 -0.6774
 5077SOL    HW226694   3.746   2.080  17.538  0.2664  0.1232 -0.3295
 5078SOL     OW26695   3.807   3.714   1.097  0.2257  0.2077  0.6239
 5078SOL    HW126696   3.726   3.761   1.113 -0.6783 -0.6945 -1.3009
 5078SOL    HW226697   3.781   3.623   1.113 -0.0875  0.1603 -0.1470
 5079SOL     OW26698   1.255   4.395   8.676 -0.1780  0.9365  0.6410
 5079SOL    HW126699   1.212   4.472   8.712 -0.3486  0.1591  2.0995
 5079SOL    HW226700   1.182   4.348   8.636 -0.6052  0.9670  1.3747
 5080SOL     OW26701   1.424   1.265   5.757 -0.5244 -0.2357  0.3051
 5080SOL    HW126702   1.443   1.332   5.824  0.0675  0.2617 -0.3643
 5080SOL    HW226703   1.515   1.243   5.738  0.0352 -0.4408  3.1764
 5081SOL     OW26704   0.643   3.927  15.756 -0.2708 -0.8341 -0.0804
 5081SOL    HW126705   0.658   3.838  15.724  2.0912 -0.1029 -0.9838
 5081SOL    HW226706   0.731   3.964  15.760 -0.8146  0.1621  3.4480
 5082SOL     OW26707   0.487   2.779   9.083 -0.3652  0.2634 -0.3497
 5082SOL    HW126708   0.544   2.854   9.097  0.9956 -0.3666 -2.4988
 5082SOL    HW226709   0.540   2.712   9.039 -2.7204 -1.4714 -0.5806
 5083SOL     OW26710   1.617   1.464  12.906 -0.1318 -0.3575 -0.0926
 5083SOL    HW126711   1.609   1.510  12.989  1.0653 -0.2111 -0.0580
 5083SOL    HW226712   1.710   1.445  12.912  0.5312  3.0373  0.2509
 5084SOL     OW26713   4.172   4.277  13.790 -0.1530 -0.0873 -0.2267
 5084SOL    HW126714   4.109   4.247  13.856 -1.8074  2.4652 -0.6420
 5084SOL    HW226715   4.223   4.198  13.771  0.9375  0.4618  0.3958
 5085SOL     OW26716   4.161   0.685  12.942 -0.0769 -0.1489  0.0673
 5085SOL    HW126717   4.256   0.682  12.957  0.1592  1.8934 -0.9433
 5085SOL    HW226718   4.137   0.771  12.978 -2.3151 -0.9354  0.4288
 5086SOL     OW26719   1.456   2.410   2.730 -0.2841  0.4334  0.0816
 5086SOL    HW126720   1.418   2.494   2.704 -0.2360  1.0178  1.8680
 5086SOL    HW226721   1.396   2.352   2.683  1.3099 -0.4533 -0.8429
 5087SOL     OW26722   0.509   2.070   8.945 -0.7990  0.2399  0.1542
 5087SOL    HW126723   0.463   2.027   8.873 -1.1965 -0.0495  0.5822
 5087SOL    HW226724   0.592   2.095   8.903  0.9334 -1.4921  2.6046
 5088SOL     OW26725   3.372   3.649   8.305  0.2794  0.1657 -0.3338
 5088SOL    HW126726   3.322   3.580   8.261  0.6804  0.8535 -1.8810
 5088SOL    HW226727   3.443   3.603   8.349  0.0564  0.4832  0.3494
 5089SOL     OW26728   2.015   2.406   8.604  0.5837 -0.1451  0.5914
 5089SOL    HW126729   2.091   2.377   8.654  1.4234 -0.5076 -0.9412
 5089SOL    HW226730   1.956   2.338   8.636 -1.1053  1.3785  0.7583
 5090SOL     OW26731   0.892   2.143   1.380  0.2508  0.4781 -0.1561
 5090SOL    HW126732   0.933   2.137   1.293 -2.5809 -0.7807 -1.3889
 5090SOL    HW226733   0.852   2.056   1.374 -2.2171  1.6487 -0.3688
 5091SOL     OW26734   0.029   0.633   6.381  0.2573  0.2880  0.2476
 5091SOL    HW126735   4.671   0.588   6.370  1.0299 -1.1935  0.4278
 5091SOL    HW226736   0.092   0.567   6.410  0.1516  0.1332  0.1264
 5092SOL     OW26737   1.956   1.204   2.038  0.0009 -0.4344  0.0796
 5092SOL    HW126738   2.011   1.281   2.051  3.0736 -2.8775  1.6683
 5092SOL    HW226739   1.898   1.236   1.969 -0.1469 -0.6726  0.0939
 5093SOL     OW26740   2.331   4.030   2.064 -0.6010  0.9397  0.2280
 5093SOL    HW126741   2.340   3.969   1.990  3.0706  0.7057  0.8595
 5093SOL    HW226742   2.422   4.059   2.066 -1.1336  2.5190  1.6097
 5094SOL     OW26743   0.174   0.282   7.109  0.4285  0.5522 -0.1090
 5094SOL    HW126744   0.177   0.198   7.063  0.7311  0.1728  0.6002
 5094SOL    HW226745   0.197   0.250   7.196 -1.5056  2.0914  0.9655
 5095SOL     OW26746   0.032   1.393   7.213  0.7501  0.5203  0.4827
 5095SOL    HW126747   0.025   1.324   7.278  0.6682  0.2176  0.1533
 5095SOL    HW226748   0.064   1.464   7.268 -1.6922  1.6200  0.4838
 5096SOL     OW26749   4.017   3.560   4.301  0.2605  0.4286 -0.0481
 5096SOL    HW126750   4.049   3.649   4.315  1.6598  0.1831 -1.6557
 5096SOL    HW226751   4.045   3.515   4.381 -0.4038  2.3328  1.2545
 5097SOL     OW26752   2.155   4.141   5.480  0.1144  0.1284  0.3862
 5097SOL    HW126753   2.131   4.051   5.504 -0.0943 -0.1402 -0.8092
 5097SOL    HW226754   2.099   4.186   5.543 -0.4863 -0.5206  0.3295
 5098SOL     OW26755   2.609   2.378  10.752 -0.4296 -0.0332 -0.4950
 5098SOL    HW126756   2.552   2.310  10.788  1.5904  0.0148  2.8220
 5098SOL    HW226757   2.560   2.458  10.732  0.7405  1.3799  2.1918
 5099SOL     OW26758   3.000   2.524  12.712 -0.0894  0.2984 -0.1289
 5099SOL    HW126759   3.038   2.531  12.799 -3.4723 -1.3586  1.5047
 5099SOL    HW226760   3.044   2.598  12.671 -0.2451  0.7901  0.5937
 5100SOL     OW26761   0.447   2.252   6.721  0.4542 -0.5535 -0.5889
 5100SOL    HW126762   0.490   2.313   6.661  2.2082 -0.5916  0.6541
 5100SOL    HW226763   0.361   2.275   6.685  1.0475  0.6046 -1.2579
 5101SOL     OW26764   2.720   3.249  10.853 -0.0410 -0.0570  0.1750
 5101SOL    HW126765   2.657   3.199  10.905  1.2707 -3.2745 -1.3309
 5101SOL    HW226766   2.669   3.326  10.826  0.1279  0.1924  0.5631
 5102SOL     OW26767   4.588   0.176   3.327 -0.1625  0.1062 -0.5220
 5102SOL    HW126768   4.625   0.227   3.254  2.3567 -0.1830  0.5528
 5102SOL    HW226769   4.650   0.103   3.332  0.2319  0.3852 -1.3698
 5103SOL     OW26770   1.656   0.756   2.729 -0.5362 -0.4050 -0.1616
 5103SOL    HW126771   1.572   0.794   2.758 -0.6311 -0.3716 -0.4821
 5103SOL    HW226772   1.688   0.824   2.670  1.9226 -0.2802  1.3362
 5104SOL     OW26773   1.479   2.317   6.975 -0.0322 -0.2479  0.5426
 5104SOL    HW126774   1.427   2.354   6.903 -0.0892  1.5784  1.5302
 5104SOL    HW226775   1.555   2.278   6.933 -1.2252 -0.0023 -1.8335
 5105SOL     OW26776   4.338   2.329  11.726  0.1475 -0.0679 -0.3453
 5105SOL    HW126777   4.251   2.290  11.729  0.6622 -1.1913 -0.1307
 5105SOL    HW226778   4.322   2.423  11.735  0.5665  0.0369 -0.7006
 5106SOL     OW26779   0.293   1.680   5.313  0.2685 -0.0635 -0.1484
 5106SOL    HW126780   0.324   1.761   5.354  0.4726  0.5679 -1.5664
 5106SOL    HW226781   0.352   1.615   5.353 -0.1004  0.5600  1.4066
 5107SOL     OW26782   0.804   0.325  12.249 -0.4097 -0.4397 -0.5033
 5107SOL    HW126783   0.897   0.344  12.249 -0.5895  0.4256  1.6944
 5107SOL    HW226784   0.807   0.242  12.200  1.4679 -0.2990 -0.5934
 5108SOL     OW26785   3.849   2.390   8.198 -0.0274 -0.5096 -0.2849
 5108SOL    HW126786   3.761   2.424   8.181  0.4757  1.0020  0.1414
 5108SOL    HW226787   3.899   2.443   8.136  1.5730 -2.1821 -0.4167
 5109SOL     OW26788   2.122   0.255   7.818  0.0738  0.2936  0.0855
 5109SOL    HW126789   2.165   0.323   7.768 -0.1221 -0.5274 -1.2060
 5109SOL    HW226790   2.057   0.228   7.753 -0.0413 -0.3716  0.4665
 5110SOL     OW26791   2.987   0.612  17.385 -0.0219 -0.9762 -1.1489
 5110SOL    HW126792   3.049   0.670  17.430 -1.8812 -0.8855  1.3396
 5110SOL    HW226793   2.920   0.675  17.358  0.4210  0.1433  0.3054
 5111SOL     OW26794   4.001   1.962  10.288  0.1767  0.1820 -0.2969
 5111SOL    HW126795   3.987   1.874  10.253 -2.1810  1.6732 -3.1383
 5111SOL    HW226796   3.913   1.989  10.314  0.5475  0.5666  0.5450
 5112SOL     OW26797   1.967   3.502   2.353 -0.2812  0.0458 -0.1377
 5112SOL    HW126798   1.984   3.457   2.436  0.7239  2.0288  0.7229
 5112SOL    HW226799   1.880   3.465   2.339  0.4935 -1.3119 -1.4273
 5113SOL     OW26800   2.941   4.497   9.227 -0.5998 -0.3724 -0.1853
 5113SOL    HW126801   2.913   4.584   9.255 -1.4027  0.2837 -3.0753
 5113SOL    HW226802   3.010   4.474   9.290  0.5432  1.2037 -0.8530
 5114SOL     OW26803   2.159   0.076  13.586 -0.1332 -0.3725 -0.2030
 5114SOL    HW126804   2.070   0.110  13.589 -0.1888 -0.5867  0.6018
 5114SOL    HW226805   2.149   4.707  13.576  0.0671 -0.5788  1.5253
 5115SOL     OW26806   1.583   1.671   7.373  0.4213 -0.3425 -0.1421
 5115SOL    HW126807   1.546   1.759   7.370 -2.2271 -1.4124  0.6958
 5115SOL    HW226808   1.535   1.638   7.297 -2.5955  2.1437  0.6893
 5116SOL     OW26809   3.048   3.087   8.736  0.2819  0.4296  0.0877
 5116SOL    HW126810   2.984   3.038   8.787  1.0041  0.6227  1.1718
 5116SOL    HW226811   3.125   3.087   8.792  1.7101 -1.5729 -1.8851
 5117SOL     OW26812   3.693   1.670   1.955 -0.3408 -0.3535 -0.0772
 5117SOL    HW126813   3.771   1.719   1.926 -0.7066  0.7651  0.8347
 5117SOL    HW226814   3.695   1.674   2.050 -0.6608  1.0717 -0.1301
 5118SOL     OW26815   2.798   0.105   1.552 -0.7155 -0.2680  0.0226
 5118SOL    HW126816   2.827   0.132   1.465  1.3500  0.8811  1.0528
 5118SOL    HW226817   2.853   0.027   1.557  0.4397  0.4748 -1.2303
 5119SOL     OW26818   2.787   4.093   2.519  0.0179 -0.5075 -0.1599
 5119SOL    HW126819   2.788   4.143   2.601 -3.1070  1.3031 -1.2343
 5119SOL    HW226820   2.727   4.145   2.466 -0.6563 -0.7958  0.3146
 5120SOL     OW26821   2.075   2.612   3.992 -0.7450  0.0113 -0.1526
 5120SOL    HW126822   2.024   2.652   4.063 -0.5375  1.1985 -0.6751
 5120SOL    HW226823   2.019   2.645   3.921  0.1219  1.1179 -0.3175
 5121SOL     OW26824   4.281   3.650  13.330 -0.6934  0.3359  0.2885
 5121SOL    HW126825   4.373   3.673  13.327 -0.6714  0.2081 -0.0444
 5121SOL    HW226826   4.275   3.575  13.270  0.9665 -0.4734  1.1373
 5122SOL     OW26827   1.569   0.005   0.523 -0.3873 -0.1691  0.4169
 5122SOL    HW126828   1.573   4.701   0.613  0.7427  1.1185  0.7938
 5122SOL    HW226829   1.504   0.075   0.519  2.3530  2.4448  1.5532
 5123SOL     OW26830   0.743   4.305   4.521  0.2975 -0.1453 -0.1322
 5123SOL    HW126831   0.757   4.243   4.593  0.8864 -0.1179 -0.2184
 5123SOL    HW226832   0.792   4.267   4.447  1.7798  1.9909 -0.2433
 5124SOL     OW26833   2.831   1.486   4.660  0.2762 -0.2778  0.3383
 5124SOL    HW126834   2.922   1.502   4.634  0.3224 -1.0944 -0.0309
 5124SOL    HW226835   2.821   1.400   4.618 -0.2080 -0.4583  0.8244
 5125SOL     OW26836   2.439   0.960   2.844  0.2948 -0.3251  1.0769
 5125SOL    HW126837   2.376   0.915   2.788  1.8844  0.1293 -1.0710
 5125SOL    HW226838   2.387   0.987   2.920  2.7772  0.0187  2.6296
 5126SOL     OW26839   0.052   1.619   5.044  0.1675  0.1620 -0.2031
 5126SOL    HW126840   0.123   1.652   4.990  1.7261  0.1764  1.8459
 5126SOL    HW226841   0.073   1.530   5.073 -0.5339 -0.0891 -0.4627
 5127SOL     OW26842   0.063   2.969   6.273 -0.1306 -0.6317  0.0911
 5127SOL    HW126843   0.133   2.904   6.269  1.9476  1.6185 -0.0832
 5127SOL    HW226844   0.013   2.929   6.344 -3.0589  0.7929 -1.1739
 5128SOL     OW26845   3.424   3.016  12.125  0.3580 -0.5726 -0.3942
 5128SOL    HW126846   3.515   3.013  12.096 -0.1076  2.0072 -2.1915
 5128SOL    HW226847   3.442   3.077  12.197  0.3413  0.5814 -1.3616
 5129SOL     OW26848   1.799   0.005  12.528  0.5300  0.5054 -0.3755
 5129SOL    HW126849   1.891   0.011  12.505  0.2361  0.8546 -1.4541
 5129SOL    HW226850   1.805   0.036  12.618 -2.4986 -1.4877  0.5337
 5130SOL     OW26851   3.174   1.712   1.860  0.5794 -0.0094 -0.4144
 5130SOL    HW126852   3.201   1.780   1.799 -0.1452 -0.7509 -1.5550
 5130SOL    HW226853   3.254   1.706   1.913  0.0761  0.7684  0.4532
 5131SOL     OW26854   0.030   4.466   6.041 -0.1233 -0.1301  0.1891
 5131SOL    HW126855   0.052   4.513   6.122  1.1670  0.1533 -0.3285
 5131SOL    HW226856   4.701   4.530   5.995 -1.7065 -0.9917  0.8507
 5132SOL     OW26857   0.659   3.761   6.783 -0.2306 -0.1506  0.2274
 5132SOL    HW126858   0.672   3.848   6.747 -0.7446 -1.2431 -2.6375
 5132SOL    HW226859   0.681   3.705   6.708  2.3275  0.2056  0.6910
 5133SOL     OW26860   0.926   0.474   8.996 -0.0125  0.4769  0.3551
 5133SOL    HW126861   0.924   0.484   8.900  0.4780  1.8192  0.4831
 5133SOL    HW226862   0.938   0.561   9.033  0.1332  0.5764  0.0757
 5134SOL     OW26863   0.913   0.891   3.663  0.4457 -0.5592 -0.4778
 5134SOL    HW126864   0.956   0.903   3.748  0.2787  1.3146 -0.6636
 5134SOL    HW226865   0.984   0.935   3.616  1.3519 -1.1035  0.3688
 5135SOL     OW26866   1.638   3.589   4.174  0.2088 -0.2392 -0.0136
 5135SOL    HW126867   1.714   3.620   4.125  2.1801 -2.0513  1.9126
 5135SOL    HW226868   1.578   3.554   4.108  0.1603 -1.7813  0.8355
 5136SOL     OW26869   4.125   0.743   5.940  0.4362  0.1297  0.0769
 5136SOL    HW126870   4.097   0.835   5.936  0.2257  0.0158 -1.0572
 5136SOL    HW226871   4.191   0.741   5.871 -0.5991  1.2157 -0.9235
 5137SOL     OW26872   0.776   4.525   1.367 -0.3409  0.9312  0.3640
 5137SOL    HW126873   0.822   4.566   1.441  1.3253 -0.3570  0.0417
 5137SOL    HW226874   0.831   4.552   1.293 -0.8046  2.1084  0.4400
 5138SOL     OW26875   1.923   3.760   8.414 -0.2089  0.1827  0.2229
 5138SOL    HW126876   1.940   3.780   8.322 -0.9870  0.1732  0.0766
 5138SOL    HW226877   1.835   3.725   8.425  0.5705 -0.6788  3.6882
 5139SOL     OW26878   2.545   3.769   5.911 -0.3043  0.1679 -0.5041
 5139SOL    HW126879   2.487   3.728   5.846 -1.3568  1.0528 -0.1274
 5139SOL    HW226880   2.492   3.839   5.950 -1.9623 -0.0991 -2.2589
 5140SOL     OW26881   3.026   1.240   1.920  0.5606 -0.0206 -0.5815
 5140SOL    HW126882   3.013   1.334   1.907 -0.4418  0.0143  0.6726
 5140SOL    HW226883   3.089   1.244   1.991  1.1399 -0.5850 -1.0644
 5141SOL     OW26884   1.399   3.352   6.288 -0.8975 -0.5109  0.0966
 5141SOL    HW126885   1.341   3.302   6.346 -0.2482  0.3832  1.5380
 5141SOL    HW226886   1.432   3.279   6.236  0.9928  0.5882 -0.2477
 5142SOL     OW26887   0.182   2.485   9.061 -0.3030 -0.0425 -0.4168
 5142SOL    HW126888   0.107   2.472   9.003 -1.2371 -2.5575  1.3583
 5142SOL    HW226889   0.239   2.420   9.019  0.4341  1.3534 -1.5591
 5143SOL     OW26890   2.029   3.182  15.096 -0.4846  0.1452 -0.6781
 5143SOL    HW126891   1.982   3.124  15.156  0.4150 -1.4897 -1.5696
 5143SOL    HW226892   2.093   3.123  15.057  0.3362  1.6298 -1.5771
 5144SOL     OW26893   1.152   2.307  15.924 -0.3454  0.5199  0.6535
 5144SOL    HW126894   1.069   2.285  15.881 -0.5727  2.4202  0.1144
 5144SOL    HW226895   1.216   2.246  15.888  0.4815  1.6559  0.1977
 5145SOL     OW26896   0.379   0.437   8.876  0.0365  0.1477  0.3610
 5145SOL    HW126897   0.405   0.447   8.967 -0.2134 -0.8539  0.5388
 5145SOL    HW226898   0.309   0.503   8.871  1.0765  1.0604 -1.8944
 5146SOL     OW26899   2.591   4.577   3.754  0.2010  0.3502 -0.5266
 5146SOL    HW126900   2.546   4.661   3.743 -1.0447 -0.1415  0.7392
 5146SOL    HW226901   2.628   4.566   3.666  0.5296  0.9267 -0.4565
 5147SOL     OW26902   2.548   3.117   4.680 -0.0202  0.4493  0.6991
 5147SOL    HW126903   2.470   3.173   4.681 -1.1829 -1.2001  2.3729
 5147SOL    HW226904   2.526   3.040   4.733 -1.1031  0.1387 -0.1905
 5148SOL     OW26905   1.911   4.039   9.227  0.3935  0.2745  0.0130
 5148SOL    HW126906   1.862   4.076   9.154 -0.1758  2.0326  1.2681
 5148SOL    HW226907   1.884   3.950   9.209  1.5236 -0.3277  1.2382
 5149SOL     OW26908   0.823   1.527   8.300  0.7035 -0.1471 -0.4602
 5149SOL    HW126909   0.836   1.437   8.330 -0.6178 -0.3154 -0.3801
 5149SOL    HW226910   0.902   1.566   8.337  0.7427  1.1275 -1.8906
 5150SOL     OW26911   3.128   4.410  16.912  0.5607 -0.8247  0.0523
 5150SOL    HW126912   3.206   4.428  16.860 -0.2588  0.9915 -0.5508
 5150SOL    HW226913   3.141   4.319  16.939  1.7455 -0.5296  0.4853
 5151SOL     OW26914   4.690   3.908   1.316  0.4310  0.2526 -0.2587
 5151SOL    HW126915   4.640   3.987   1.337  1.4420  1.6178 -3.0564
 5151SOL    HW226916   4.619   3.845   1.303 -0.8085  1.3898  0.8996
 5152SOL     OW26917   4.263   4.155   7.943 -0.0595 -0.1148 -0.7086
 5152SOL    HW126918   4.337   4.216   7.929 -1.2967  2.0353  2.0994
 5152SOL    HW226919   4.188   4.205   7.910  0.4507  0.9278 -0.3171
 5153SOL     OW26920   1.626   2.991   6.635 -0.7085  0.1307  0.1709
 5153SOL    HW126921   1.630   2.899   6.607  0.3361  0.7126 -1.6037
 5153SOL    HW226922   1.585   3.023   6.554 -1.4614 -0.5904  0.2678
 5154SOL     OW26923   1.828   1.411   6.754 -0.2221  0.3770 -0.1177
 5154SOL    HW126924   1.914   1.401   6.795 -0.6651 -2.4018  0.1726
 5154SOL    HW226925   1.848   1.414   6.661 -4.1205  0.9186 -0.9651
 5155SOL     OW26926   4.320   0.935  14.764 -0.4343  0.5896 -0.2087
 5155SOL    HW126927   4.338   0.877  14.838  0.8165  1.1864 -0.0555
 5155SOL    HW226928   4.392   0.903  14.709  0.1243 -2.1507  2.1340
 5156SOL     OW26929   3.657   1.456  12.827  0.6853  0.6993  0.7967
 5156SOL    HW126930   3.732   1.403  12.851  2.8054  3.6505  0.6494
 5156SOL    HW226931   3.596   1.383  12.815  1.3008  0.1023  1.3223
 5157SOL     OW26932   4.711   2.415   0.350  0.5835  0.3731 -0.2607
 5157SOL    HW126933   0.048   2.481   0.382 -1.1137  1.7529  0.1950
 5157SOL    HW226934   4.628   2.455   0.376  0.5120  2.0106 -2.9306
 5158SOL     OW26935   1.924   1.812   1.236 -0.5766  0.3787 -0.0656
 5158SOL    HW126936   1.910   1.895   1.281  1.9116 -0.0033  1.3892
 5158SOL    HW226937   1.886   1.822   1.149 -1.7200 -0.6043  0.3085
 5159SOL     OW26938   4.027   1.485  15.166  0.3638  0.0016  0.2916
 5159SOL    HW126939   4.023   1.461  15.259 -0.4749  0.9008  0.4871
 5159SOL    HW226940   4.005   1.578  15.169 -0.0032 -0.0334 -1.2983
 5160SOL     OW26941   1.094   4.379   9.090 -0.2157 -0.4899 -0.3496
 5160SOL    HW126942   1.112   4.291   9.123  1.6150 -0.6572 -1.8014
 5160SOL    HW226943   1.183   4.403   9.064  0.2401  0.6260  2.2404
 5161SOL     OW26944   2.603   1.391  12.261 -0.3935 -0.1435  0.6436
 5161SOL    HW126945   2.513   1.415  12.284 -0.9747 -2.2131  0.5040
 5161SOL    HW226946   2.620   1.330  12.333 -0.0768  0.7406  1.3229
 5162SOL     OW26947   0.201   1.665  13.921 -0.0236 -0.6228  0.3935
 5162SOL    HW126948   0.286   1.689  13.957 -0.5160 -0.5045  1.4610
 5162SOL    HW226949   0.202   1.571  13.940  0.6643 -0.7179 -0.0814
 5163SOL     OW26950   3.766   2.091   6.135  0.2493  0.1942 -0.2063
 5163SOL    HW126951   3.815   2.019   6.095  0.5965  0.4975 -0.3278
 5163SOL    HW226952   3.699   2.039   6.179  0.7248  0.2214  0.5436
 5164SOL     OW26953   1.925   1.254  16.734 -0.3460  0.5777  0.1238
 5164SOL    HW126954   1.997   1.291  16.785 -0.2471  2.4225 -1.3650
 5164SOL    HW226955   1.934   1.294  16.647  2.2749  0.7536  0.4805
 5165SOL     OW26956   1.756   4.364   5.777 -0.3959  0.1967  0.0181
 5165SOL    HW126957   1.754   4.434   5.712  1.6536 -0.9703 -1.3294
 5165SOL    HW226958   1.760   4.418   5.856  2.5852 -0.8321  0.5719
 5166SOL     OW26959   1.329   0.886  10.482 -0.4970 -0.2560  0.0784
 5166SOL    HW126960   1.236   0.878  10.501 -0.6157  0.4345 -0.2213
 5166SOL    HW226961   1.327   0.897  10.387 -2.2743  0.3950  0.1981
 5167SOL     OW26962   1.134   0.856   7.885  0.2492 -0.5612 -0.0618
 5167SOL    HW126963   1.100   0.944   7.868  2.0284  0.9443  4.0750
 5167SOL    HW226964   1.052   0.822   7.920 -0.6352  0.4589 -1.1841
 5168SOL     OW26965   2.763   1.646   3.362 -0.0861  0.0843  0.2808
 5168SOL    HW126966   2.690   1.615   3.309 -0.4113 -1.6101  1.7321
 5168SOL    HW226967   2.841   1.624   3.311  0.4476  3.0099 -0.2007
 5169SOL     OW26968   2.330   0.095   4.031 -0.0979  0.5522  0.4132
 5169SOL    HW126969   2.397   0.112   4.097  0.1189 -1.6369  0.7288
 5169SOL    HW226970   2.346   0.003   4.013 -0.0881  0.5499  0.4345
 5170SOL     OW26971   1.120   1.415   8.613 -0.0616 -0.5741 -0.3732
 5170SOL    HW126972   1.204   1.384   8.646  0.5803  0.9885 -0.5343
 5170SOL    HW226973   1.123   1.510   8.623 -0.2048 -0.7382  1.2178
 5171SOL     OW26974   4.605   3.185  17.661  0.3465  0.2869  0.0013
 5171SOL    HW126975   4.605   3.194  17.566 -0.9447 -0.7528 -0.0925
 5171SOL    HW226976   4.670   3.251  17.685  0.4898  0.1863 -0.1156
 5172SOL     OW26977   3.541   4.324  12.649  0.9300 -0.0970 -0.4252
 5172SOL    HW126978   3.616   4.305  12.706  0.7294 -2.3281 -0.9400
 5172SOL    HW226979   3.474   4.265  12.683  0.7391  0.8472  0.8509
 5173SOL     OW26980   1.852   1.205   6.329  0.3381 -0.5900  0.0951
 5173SOL    HW126981   1.760   1.218   6.304  0.2681 -0.8665  0.2047
 5173SOL    HW226982   1.889   1.195   6.241 -0.5071 -0.6271 -0.2581
 5174SOL     OW26983   3.234   4.194   6.371 -0.0533  0.0278 -0.4781
 5174SOL    HW126984   3.246   4.104   6.401 -1.1086  0.0512 -0.0098
 5174SOL    HW226985   3.141   4.200   6.393 -0.0335  0.0283 -0.3960
 5175SOL     OW26986   4.342   2.757   9.518  0.3087  0.0736  0.1616
 5175SOL    HW126987   4.380   2.674   9.489  0.9768  1.0880 -1.8702
 5175SOL    HW226988   4.332   2.728   9.608  0.5769  1.0452  0.5047
 5176SOL     OW26989   3.184   1.459   6.758 -0.0297 -0.7408 -0.1471
 5176SOL    HW126990   3.111   1.428   6.706 -1.3130 -2.2751  2.5735
 5176SOL    HW226991   3.169   1.413   6.840 -1.5286 -3.2088 -1.8177
 5177SOL     OW26992   3.317   1.171  17.684 -0.4357 -0.2962  0.2380
 5177SOL    HW126993   3.393   1.226   0.001 -0.2905 -0.4146 -0.0023
 5177SOL    HW226994   3.262   1.187   0.059 -1.2884 -0.9698 -0.2341
 5178SOL     OW26995   2.631   2.756  16.622  0.4462  0.0126  0.5507
 5178SOL    HW126996   2.562   2.698  16.590 -0.3817  1.3773 -0.1479
 5178SOL    HW226997   2.600   2.845  16.604 -0.5800 -1.1143 -3.3842
 5179SOL     OW26998   1.577   4.557   5.373 -0.3561 -0.3994 -0.1805
 5179SOL    HW126999   1.563   4.643   5.414  1.9863  0.2629 -0.7590
 5179SOL    HW227000   1.504   4.559   5.311 -1.3181 -0.5619  0.9544
 5180SOL     OW27001   4.494   2.311   4.851  0.5865  0.2032  0.2453
 5180SOL    HW127002   4.510   2.296   4.945  0.3282  0.1294  0.2772
 5180SOL    HW227003   4.578   2.354   4.833  0.8320 -1.3916 -2.3337
 5181SOL     OW27004   3.795   4.548   3.091  0.0087  0.1467 -0.0716
 5181SOL    HW127005   3.857   4.540   3.019  0.6338 -1.1379  0.6225
 5181SOL    HW227006   3.802   4.643   3.096  0.4471  0.0178  1.8473
 5182SOL     OW27007   0.652   4.672  15.523  0.4253 -0.2197  0.3266
 5182SOL    HW127008   0.636   4.633  15.437 -0.1338 -0.7670  0.6813
 5182SOL    HW227009   0.564   4.683  15.558  1.1377 -0.8014  2.3081
 5183SOL     OW27010   2.825   0.001   7.713  0.0639 -0.6212  0.2185
 5183SOL    HW127011   2.820   0.077   7.771 -0.4927 -1.9263  1.8968
 5183SOL    HW227012   2.910   4.688   7.732  0.4426  0.1387  0.0194
 5184SOL     OW27013   3.275   3.490  10.200  0.4240 -0.6471 -0.1254
 5184SOL    HW127014   3.296   3.508  10.108 -1.4133  0.8195 -0.2510
 5184SOL    HW227015   3.365   3.488  10.235 -0.1589  1.3446  1.4941
 5185SOL     OW27016   2.084   3.171  12.863 -0.0957 -0.2133  0.4198
 5185SOL    HW127017   2.102   3.148  12.771  2.6929 -0.9897  1.1465
 5185SOL    HW227018   2.019   3.238  12.843  0.9454 -0.0969 -2.6413
 5186SOL     OW27019   0.341   3.372   6.333 -0.4360 -0.6191  0.2750
 5186SOL    HW127020   0.366   3.374   6.425 -0.3838  0.6376  0.2292
 5186SOL    HW227021   0.264   3.429   6.339 -0.0402 -0.3620  2.8867
 5187SOL     OW27022   1.299   3.068   9.138 -0.2322 -0.5572  0.1250
 5187SOL    HW127023   1.390   3.068   9.170 -0.6848 -2.9314  1.3932
 5187SOL    HW227024   1.243   3.078   9.215 -1.1811 -1.5042 -0.4462
 5188SOL     OW27025   2.888   0.451   2.157 -0.1823  0.4193  0.0343
 5188SOL    HW127026   2.881   0.542   2.188  1.6130  0.6324 -0.1671
 5188SOL    HW227027   2.796   0.430   2.142 -0.5491  1.7236  0.3822
 5189SOL     OW27028   3.772   3.755   4.638 -0.3453  0.2453  0.6625
 5189SOL    HW127029   3.808   3.691   4.699  1.5676 -0.6816 -1.4216
 5189SOL    HW227030   3.854   3.799   4.613 -0.5650 -0.1038 -0.7050
 5190SOL     OW27031   2.619   4.645   1.154  0.7453 -0.8736 -0.8324
 5190SOL    HW127032   2.552   4.590   1.114  0.1036  0.2219 -1.2705
 5190SOL    HW227033   2.671   4.592   1.214  0.2152 -1.6058 -1.0332
 5191SOL     OW27034   3.889   4.099   0.852  0.5167  1.0118 -0.0361
 5191SOL    HW127035   3.809   4.127   0.808  0.6717  0.2440 -0.8110
 5191SOL    HW227036   3.904   4.023   0.796 -0.1129 -0.9506  2.4785
 5192SOL     OW27037   2.658   4.661   1.737  0.1596  0.3042 -0.2581
 5192SOL    HW127038   2.601   4.718   1.788 -1.4969 -0.3339 -1.3892
 5192SOL    HW227039   2.688   0.002   1.676  2.0597 -0.6295 -0.3367
 5193SOL     OW27040   2.489   1.526   2.943  0.2918 -0.4026  0.1225
 5193SOL    HW127041   2.570   1.532   2.893  0.4210  0.4391  0.4381
 5193SOL    HW227042   2.454   1.451   2.895  2.4176 -1.8823  0.8846
 5194SOL     OW27043   1.837   0.012   7.927 -0.1485  0.0395 -0.1120
 5194SOL    HW127044   1.799   4.665   7.977  0.1085  0.0624  0.1159
 5194SOL    HW227045   1.930   4.714   7.918 -0.1276  0.3795 -0.7654
 5195SOL     OW27046   1.577   2.865   2.483 -1.1281  0.2174  0.3119
 5195SOL    HW127047   1.567   2.829   2.394 -2.0763 -3.2054  1.8104
 5195SOL    HW227048   1.617   2.793   2.530  1.3722  0.3010 -1.6689
 5196SOL     OW27049   3.326   0.633  11.274  0.2337  0.3451 -0.2181
 5196SOL    HW127050   3.312   0.672  11.187  1.6114  0.8895 -0.1822
 5196SOL    HW227051   3.408   0.669  11.306 -0.4729  1.4490  0.3480
 5197SOL     OW27052   0.114   0.945   2.090  0.5274  0.5996  0.3183
 5197SOL    HW127053   0.020   0.930   2.100  1.0344 -1.4650  1.9210
 5197SOL    HW227054   0.157   0.922   2.172  1.2736  0.3112 -0.1538
 5198SOL     OW27055   1.699   3.504   4.606 -0.4312 -0.0136 -0.1173
 5198SOL    HW127056   1.622   3.451   4.586 -0.5398 -0.1522  0.6532
 5198SOL    HW227057   1.727   3.466   4.690  1.6864 -0.6862 -1.1407
 5199SOL     OW27058   1.490   2.703   7.203 -0.0849  0.0387  0.3562
 5199SOL    HW127059   1.511   2.678   7.293  0.6088 -0.6530  0.0058
 5199SOL    HW227060   1.443   2.621   7.186 -2.3171  1.2616  0.6053
 5200SOL     OW27061   2.666   4.009   0.617  0.6084 -0.1065 -0.3273
 5200SOL    HW127062   2.746   4.059   0.637  2.7207 -2.6380 -2.3800
 5200SOL    HW227063   2.655   3.962   0.699 -1.2844  1.9059  0.5495
 5201SOL     OW27064   1.540   3.695   2.376  0.3739  0.2330  0.2008
 5201SOL    HW127065   1.486   3.739   2.442 -0.7223 -0.4614 -0.2300
 5201SOL    HW227066   1.599   3.643   2.430  0.5293  1.1940  0.9475
 5202SOL     OW27067   1.708   2.200   5.423 -0.0876 -0.0119 -0.0744
 5202SOL    HW127068   1.775   2.269   5.418 -1.2199  0.9518 -2.2579
 5202SOL    HW227069   1.708   2.160   5.335  5.4169  1.7129 -0.8676
 5203SOL     OW27070   3.610   0.277  16.932 -0.1377  0.1172  0.0261
 5203SOL    HW127071   3.642   0.353  16.883  0.8782 -0.0492  0.4180
 5203SOL    HW227072   3.686   0.259  16.989  1.5399  0.0014 -2.2509
 5204SOL     OW27073   2.274   2.861  12.289 -0.1873 -0.1506  0.0848
 5204SOL    HW127074   2.226   2.802  12.347 -0.0286 -1.9143 -1.5965
 5204SOL    HW227075   2.212   2.859  12.215 -1.0057 -0.9126  0.8023
 5205SOL     OW27076   0.665   1.720  16.467 -0.0283  0.3737 -0.1719
 5205SOL    HW127077   0.751   1.678  16.462 -0.3855 -0.4821  0.8632
 5205SOL    HW227078   0.612   1.644  16.490 -0.9467  0.7626 -1.0357
 5206SOL     OW27079   3.191   4.156  13.100 -0.2122  0.1508 -0.0687
 5206SOL    HW127080   3.234   4.203  13.029  1.5236  0.8651  1.4461
 5206SOL    HW227081   3.225   4.212  13.170  0.0061  0.4303 -0.4021
 5207SOL     OW27082   0.936   2.737   9.196  0.0477  0.1445  0.2548
 5207SOL    HW127083   0.844   2.763   9.185  0.3666  2.1353  2.3256
 5207SOL    HW227084   0.950   2.737   9.291 -1.4110 -1.2913  0.4691
 5208SOL     OW27085   1.571   3.473  16.724  0.0258 -0.1421 -0.1001
 5208SOL    HW127086   1.497   3.413  16.715 -0.9345  1.0160  0.0863
 5208SOL    HW227087   1.646   3.414  16.729 -1.1032 -1.6259 -0.6225
 5209SOL     OW27088   2.250   0.305   6.457 -0.4426  0.0103 -0.4442
 5209SOL    HW127089   2.259   0.394   6.423  2.5687  1.4993  4.2957
 5209SOL    HW227090   2.157   0.304   6.478  0.4039 -0.2232  3.3127
 5210SOL     OW27091   1.709   1.055   9.700 -0.4117 -0.3584 -0.3143
 5210SOL    HW127092   1.736   1.119   9.633 -1.6624 -0.1512 -0.6089
 5210SOL    HW227093   1.690   1.111   9.775 -0.4842  0.6253 -1.0574
 5211SOL     OW27094   1.011   1.559   7.607  0.0788 -0.1825 -0.0638
 5211SOL    HW127095   1.057   1.565   7.524  0.0230  1.0683 -0.0157
 5211SOL    HW227096   0.973   1.647   7.621  2.1298  0.7188 -0.1900
 5212SOL     OW27097   0.295   1.723   4.967  0.4728  0.0831  0.3035
 5212SOL    HW127098   0.305   1.809   5.008  2.1768  0.2886 -0.5595
 5212SOL    HW227099   0.386   1.694   4.962  0.0449 -0.9933 -1.1362
 5213SOL     OW27100   0.696   3.331   2.868 -0.2053  0.3007 -0.1121
 5213SOL    HW127101   0.602   3.321   2.884 -0.4709 -0.8261 -2.4395
 5213SOL    HW227102   0.727   3.241   2.877  0.8105  0.8074  1.3801
 5214SOL     OW27103   2.277   3.058   5.546 -0.3992 -0.1852  1.1471
 5214SOL    HW127104   2.221   3.131   5.518 -0.1039 -0.0479  0.9140
 5214SOL    HW227105   2.252   3.039   5.637 -3.5208 -0.3263  0.2707
 5215SOL     OW27106   2.571   3.728   2.037 -0.2181  0.2980  0.0889
 5215SOL    HW127107   2.640   3.785   2.071 -0.9623  1.2524  0.0391
 5215SOL    HW227108   2.507   3.746   2.106  0.8703 -1.6475  1.6060
 5216SOL     OW27109   1.903   1.253  13.122  0.1869 -0.2505 -0.5577
 5216SOL    HW127110   1.993   1.260  13.092  0.5635 -2.1667  0.1577
 5216SOL    HW227111   1.867   1.287  13.039 -3.1337 -0.4043  0.8147
 5217SOL     OW27112   4.379   1.122  11.522 -0.3293  0.3991  0.3918
 5217SOL    HW127113   4.289   1.144  11.546 -1.1779 -1.8154 -0.7004
 5217SOL    HW227114   4.365   1.028  11.535  1.4175  0.0085 -0.5432
 5218SOL     OW27115   3.801   4.226  16.655  0.1706  0.4506  0.1653
 5218SOL    HW127116   3.786   4.307  16.608 -2.3373  1.3957  2.5686
 5218SOL    HW227117   3.845   4.187  16.580 -0.7907 -0.3385  0.0089
 5219SOL     OW27118   1.816   2.262   8.737  0.0979  0.8066  0.3290
 5219SOL    HW127119   1.787   2.171   8.733 -0.4317  0.9208  1.7614
 5219SOL    HW227120   1.755   2.300   8.799 -0.1628 -1.4799  1.4741
 5220SOL     OW27121   3.712   2.954   0.530  1.0273 -0.1693 -0.4708
 5220SOL    HW127122   3.729   2.874   0.579  1.4524  1.2885  1.7894
 5220SOL    HW227123   3.686   2.913   0.448 -0.1925  1.0327 -0.6821
 5221SOL     OW27124   1.711   0.277   9.450  0.1440  0.2519  0.5251
 5221SOL    HW127125   1.793   0.232   9.470 -0.1825  0.0236  1.3607
 5221SOL    HW227126   1.668   0.286   9.535 -1.1984  0.4780 -0.1733
 5222SOL     OW27127   0.449   2.582   8.692  0.1963  0.7958 -0.0751
 5222SOL    HW127128   0.356   2.561   8.705  0.8197 -3.1635 -1.9093
 5222SOL    HW227129   0.452   2.676   8.708 -0.6687  0.4152  2.2277
 5223SOL     OW27130   1.858   1.094   5.098  0.5003 -0.0906  0.2678
 5223SOL    HW127131   1.857   1.047   5.181  0.8458 -2.6010 -1.1137
 5223SOL    HW227132   1.915   1.168   5.116  0.6547 -0.0357 -0.4140
 5224SOL     OW27133   0.887   0.932   2.787 -0.2864  0.2196  0.0350
 5224SOL    HW127134   0.901   0.856   2.843  1.0833 -0.8124 -1.7048
 5224SOL    HW227135   0.792   0.922   2.784 -0.5072  2.0505  1.0978
 5225SOL     OW27136   4.498   3.356   7.378  0.4258  0.4702  0.0093
 5225SOL    HW127137   4.547   3.318   7.306  0.2968 -1.0194  0.7180
 5225SOL    HW227138   4.496   3.449   7.354  0.1096  0.4342 -0.0959
 5226SOL     OW27139   3.459   3.070   2.144 -0.8206  0.3972  0.0353
 5226SOL    HW127140   3.365   3.055   2.146 -0.8504  0.0203 -3.2903
 5226SOL    HW227141   3.464   3.124   2.064 -1.3022 -0.6136 -0.6730
 5227SOL     OW27142   1.499   4.061  13.584  0.0995 -0.6564 -0.7844
 5227SOL    HW127143   1.481   4.106  13.666 -0.7945 -0.7768 -0.9134
 5227SOL    HW227144   1.545   4.134  13.541 -1.9340 -0.9003 -3.3974
 5228SOL     OW27145   3.526   0.733   3.152  0.1663  0.1191  0.8462
 5228SOL    HW127146   3.466   0.798   3.117 -1.3050 -1.7982 -0.1137
 5228SOL    HW227147   3.551   0.688   3.071  0.1944 -0.8970  1.4131
 5229SOL     OW27148   2.275   1.348  10.878  0.1122 -0.1686 -0.1067
 5229SOL    HW127149   2.220   1.340  10.800 -0.6899 -1.2337  0.5577
 5229SOL    HW227150   2.218   1.308  10.944  1.7356  0.1947  1.5153
 5230SOL     OW27151   1.088   4.681   6.857 -0.1043  0.2630  0.0435
 5230SOL    HW127152   1.116   4.625   6.784 -2.0145  1.6047 -1.7178
 5230SOL    HW227153   1.139   4.645   6.930  0.0135 -1.1974 -0.7657
 5231SOL     OW27154   2.997   2.606   3.375 -0.1921  0.0831 -0.4660
 5231SOL    HW127155   2.980   2.700   3.370  1.5318  0.6488  4.1665
 5231SOL    HW227156   3.092   2.602   3.361 -0.1055 -0.2009  0.2303
 5232SOL     OW27157   2.523   3.886   1.077 -0.2751  0.5815  0.7175
 5232SOL    HW127158   2.490   3.947   1.143 -2.5451  1.7887 -1.5142
 5232SOL    HW227159   2.447   3.843   1.038 -0.6336 -0.8285  2.9816
 5233SOL     OW27160   3.827   4.118   2.826 -0.3791  0.6324  0.0303
 5233SOL    HW127161   3.910   4.164   2.811 -0.1698 -0.6939 -2.9336
 5233SOL    HW227162   3.844   4.046   2.765 -3.1481 -0.6181  0.7331
 5234SOL     OW27163   1.890   1.435   0.044  0.2427 -0.2156 -0.0034
 5234SOL    HW127164   1.864   1.443  17.654  0.4399 -1.3805 -0.1533
 5234SOL    HW227165   1.886   1.340   0.056 -0.4866  0.0320  1.6554
 5235SOL     OW27166   2.307   3.498   7.519 -0.1324 -0.4640 -0.3660
 5235SOL    HW127167   2.291   3.439   7.593 -0.8422 -1.5454 -1.3730
 5235SOL    HW227168   2.218   3.512   7.487  0.1693 -1.6085 -1.7381
 5236SOL     OW27169   2.405   0.765   3.760 -0.5471  0.0165 -0.9025
 5236SOL    HW127170   2.330   0.736   3.812 -2.6922  0.9964 -3.4847
 5236SOL    HW227171   2.361   0.822   3.697  0.5475  0.1271 -1.5595
 5237SOL     OW27172   4.373   1.763   1.978  0.2382  0.0019 -0.0798
 5237SOL    HW127173   4.397   1.784   2.069 -0.5900  0.4241  0.0426
 5237SOL    HW227174   4.280   1.780   1.968  0.0414 -0.6162  0.7195
 5238SOL     OW27175   4.368   1.339  13.792 -0.2313  0.0841 -0.3069
 5238SOL    HW127176   4.448   1.287  13.796 -0.0835  0.2968 -0.4272
 5238SOL    HW227177   4.350   1.379  13.877  0.4977 -1.2163  0.4480
 5239SOL     OW27178   2.384   3.805  14.399  0.4711  0.2012 -0.2470
 5239SOL    HW127179   2.461   3.838  14.447 -0.0595 -0.8404  1.3266
 5239SOL    HW227180   2.326   3.881  14.406 -1.2820 -1.2204  0.7259
 5240SOL     OW27181   0.898   0.403   7.697  0.6363 -0.1340  0.6110
 5240SOL    HW127182   0.950   0.325   7.715  3.2089  0.9184 -2.4303
 5240SOL    HW227183   0.967   0.468   7.690  2.1501 -1.4555  3.1853
 5241SOL     OW27184   2.424   3.283   2.627  0.1539 -0.1984 -0.2989
 5241SOL    HW127185   2.341   3.252   2.664  0.5552 -1.6465 -0.6117
 5241SOL    HW227186   2.487   3.233   2.679 -2.4799 -1.3159  1.8000
 5242SOL     OW27187   2.384   3.962   4.882  0.2869 -0.0269 -0.2591
 5242SOL    HW127188   2.411   3.876   4.851  0.9275  0.1341 -0.1656
 5242SOL    HW227189   2.323   3.991   4.815  1.0603 -0.4131 -1.1251
 5243SOL     OW27190   2.969   1.914   8.318 -0.3013  0.1515 -0.2198
 5243SOL    HW127191   3.020   1.988   8.285  2.9867 -2.0537 -0.1286
 5243SOL    HW227192   2.927   1.938   8.400  0.6180  1.7722 -0.2332
 5244SOL     OW27193   1.763   2.151  10.777 -0.5762 -0.0964 -0.0160
 5244SOL    HW127194   1.737   2.182  10.691  2.9251 -0.0445 -1.0534
 5244SOL    HW227195   1.847   2.193  10.796  0.2207 -1.0557 -1.4582
 5245SOL     OW27196   1.337   2.629   0.889 -0.2913  0.5422 -0.6615
 5245SOL    HW127197   1.348   2.563   0.957  2.3848  3.5800  1.9102
 5245SOL    HW227198   1.389   2.705   0.916  1.2640 -0.3269 -1.2266
 5246SOL     OW27199   1.066   4.640  12.655 -0.7150 -0.4100 -0.2331
 5246SOL    HW127200   0.993   4.616  12.712  0.3250  1.9095  2.0967
 5246SOL    HW227201   1.036   4.602  12.573 -0.3718  1.7562 -1.3697
 5247SOL     OW27202   3.257   2.816  16.532 -0.0054 -0.0002 -0.4591
 5247SOL    HW127203   3.179   2.833  16.585  0.3272  1.5965 -0.4878
 5247SOL    HW227204   3.287   2.738  16.577  0.7480 -0.0829 -1.1070
 5248SOL     OW27205   0.532   0.537   3.871 -0.2268 -0.3526 -0.3605
 5248SOL    HW127206   0.547   0.617   3.920 -1.0749 -0.4074 -0.0108
 5248SOL    HW227207   0.438   0.552   3.862 -0.0783  0.6933 -0.1036
 5249SOL     OW27208   2.599   3.518  10.518 -0.5406 -0.0340  0.3280
 5249SOL    HW127209   2.590   3.605  10.556  0.3523 -0.6354  1.9531
 5249SOL    HW227210   2.694   3.518  10.505 -0.4845 -0.7939  0.6776
 5250SOL     OW27211   1.291   3.754   8.997  0.2259  0.0892 -0.2948
 5250SOL    HW127212   1.380   3.719   9.001 -0.0946 -0.6193  0.4939
 5250SOL    HW227213   1.312   3.837   8.954 -0.5149 -0.7864 -2.3100
 5251SOL     OW27214   4.618   1.931  14.651 -0.1767 -0.3060 -0.6884
 5251SOL    HW127215   4.682   1.999  14.628 -0.6302  0.3511  0.0156
 5251SOL    HW227216   4.679   1.878  14.703 -0.9383 -0.3891  0.1094
 5252SOL     OW27217   4.713   4.640   9.187 -0.4256  0.0830  0.8970
 5252SOL    HW127218   0.035   4.685   9.118  0.4538  0.2097  1.5884
 5252SOL    HW227219   0.036   4.562   9.212  0.3201  0.5115  0.7848
 5253SOL     OW27220   1.419   0.644   7.174 -0.4730  1.0811 -0.1838
 5253SOL    HW127221   1.386   0.692   7.251  2.9446  1.4728  1.0191
 5253SOL    HW227222   1.511   0.670   7.177  0.0952 -0.8899 -0.1806
 5254SOL     OW27223   1.597   1.310   9.736 -0.2172 -0.5557  0.6542
 5254SOL    HW127224   1.570   1.329   9.646  0.9593 -3.5005 -0.3404
 5254SOL    HW227225   1.521   1.338   9.787 -0.6692  0.9232 -0.8252
 5255SOL     OW27226   3.126   4.066   3.571  0.3585  0.1812 -0.4131
 5255SOL    HW127227   3.054   4.125   3.595  0.1504 -0.7748  1.3018
 5255SOL    HW227228   3.196   4.129   3.589 -1.4053  1.3932  2.1545
 5256SOL     OW27229   3.177   3.546  11.459 -0.5675  0.8020  0.2625
 5256SOL    HW127230   3.257   3.597  11.470  0.3607 -0.5507 -0.1548
 5256SOL    HW227231   3.203   3.513  11.373  2.2757 -0.4233  1.5743
 5257SOL     OW27232   2.561   4.636   5.922 -0.2463 -0.0956  0.2496
 5257SOL    HW127233   2.650   4.613   5.894 -0.8210  0.6589 -2.1532
 5257SOL    HW227234   2.520   4.654   5.838 -1.5043 -0.9172  0.6947
 5258SOL     OW27235   3.947   3.381  13.223 -0.3820 -0.0951  0.1822
 5258SOL    HW127236   3.853   3.363  13.215 -0.2152 -0.1355 -1.7027
 5258SOL    HW227237   3.956   3.390  13.318 -0.9707  0.5980  0.1739
 5259SOL     OW27238   2.589   3.416  15.346  0.3102  0.3938  0.2587
 5259SOL    HW127239   2.557   3.368  15.422  1.7038 -1.4466 -0.3159
 5259SOL    HW227240   2.561   3.360  15.273 -1.2215  1.9729 -0.3690
 5260SOL     OW27241   2.824   3.564   2.130  0.1959  0.1741  0.2732
 5260SOL    HW127242   2.786   3.624   2.194  1.9648 -0.0787  1.5411
 5260SOL    HW227243   2.861   3.623   2.065 -1.0478  1.3154  0.6024
 5261SOL     OW27244   0.878   2.440   4.881 -0.1486 -0.0663  0.2791
 5261SOL    HW127245   0.955   2.452   4.936  2.3801 -0.7549 -3.0734
 5261SOL    HW227246   0.874   2.347   4.859 -0.5381  0.3717 -1.5474
 5262SOL     OW27247   4.367   3.451   8.019 -0.2030 -1.0109  0.2072
 5262SOL    HW127248   4.336   3.464   7.929  1.2176  0.9281 -0.0112
 5262SOL    HW227249   4.459   3.480   8.013 -0.6647  0.1830 -1.2310
 5263SOL     OW27250   0.735   3.286   7.183 -0.0037  0.1916  0.3778
 5263SOL    HW127251   0.644   3.294   7.156 -0.3123 -0.9487  1.0906
 5263SOL    HW227252   0.761   3.378   7.179  0.8491 -0.0933 -0.5364
 5264SOL     OW27253   2.139   4.284  16.563  0.3440 -0.2303 -0.5286
 5264SOL    HW127254   2.157   4.195  16.594 -4.1906 -1.4383 -1.3790
 5264SOL    HW227255   2.054   4.265  16.525  0.4799  0.2225 -1.0530
 5265SOL     OW27256   0.449   1.831   8.356 -0.1156 -0.5735 -0.1032
 5265SOL    HW127257   0.461   1.787   8.441  0.0862  0.2237  0.2835
 5265SOL    HW227258   0.362   1.869   8.370  0.5836  1.5398 -1.5120
 5266SOL     OW27259   3.086   3.746   8.894  0.3049 -0.6002  0.5601
 5266SOL    HW127260   3.091   3.742   8.798  1.8927  2.4549  0.4936
 5266SOL    HW227261   3.117   3.658   8.914  0.5964 -0.3314  1.2872
 5267SOL     OW27262   3.302   4.090   0.666 -0.3971 -0.3986  0.1739
 5267SOL    HW127263   3.368   4.043   0.716  0.1897  2.4511  2.1072
 5267SOL    HW227264   3.253   4.014   0.635 -1.1531  0.7672 -1.5629
 5268SOL     OW27265   4.448   1.638  12.504  0.4083  0.0187  0.1013
 5268SOL    HW127266   4.499   1.701  12.453  1.8895 -1.6776 -0.5148
 5268SOL    HW227267   4.366   1.635  12.454  0.0867  0.5050  0.6002
 5269SOL     OW27268   3.610   4.453   4.066  0.1729 -0.5398 -0.2749
 5269SOL    HW127269   3.578   4.537   4.031  0.7499  0.7108  2.1979
 5269SOL    HW227270   3.664   4.479   4.140  1.5669 -3.2047 -0.3698
 5270SOL     OW27271   1.382   1.924   3.002 -0.2167 -0.2946 -0.7472
 5270SOL    HW127272   1.421   1.899   2.919 -0.9322 -1.8442 -0.6243
 5270SOL    HW227273   1.289   1.909   2.983 -1.2445  1.6639  2.7711
 5271SOL     OW27274   3.234   0.937  15.214 -0.5868 -0.3253 -0.6279
 5271SOL    HW127275   3.204   1.026  15.194 -1.1728 -0.0148  1.5789
 5271SOL    HW227276   3.182   0.884  15.153 -2.6804  1.3949 -0.3387
 5272SOL     OW27277   3.273   2.683   3.338  0.3904  0.1569  0.4311
 5272SOL    HW127278   3.333   2.676   3.264 -1.3255  0.1280 -0.9531
 5272SOL    HW227279   3.265   2.778   3.348  2.2030  0.3923 -0.2591
 5273SOL     OW27280   1.864   0.029   2.204  0.3604  0.3106 -0.2814
 5273SOL    HW127281   1.923   0.030   2.279  0.6661 -2.8021 -0.4760
 5273SOL    HW227282   1.779   0.050   2.243  0.9746 -1.1037  1.8221
 5274SOL     OW27283   1.430   2.335  15.795 -0.0054  0.6626 -0.3323
 5274SOL    HW127284   1.521   2.323  15.766 -0.1523 -1.9595  0.2503
 5274SOL    HW227285   1.381   2.267  15.748 -1.0130  0.4180  1.0966
 5275SOL     OW27286   1.423   1.104   9.482  0.3591  0.0584 -0.0203
 5275SOL    HW127287   1.377   1.185   9.505  1.3362  0.5297  0.2369
 5275SOL    HW227288   1.493   1.124   9.422  1.3448  0.0866  1.1359
 5276SOL     OW27289   0.963   1.302   8.055  0.0853 -0.2990  0.0069
 5276SOL    HW127290   0.943   1.298   8.149  0.7288  1.2212  0.2024
 5276SOL    HW227291   0.906   1.373   8.027 -0.6605 -1.3719 -1.2049
 5277SOL     OW27292   2.917   4.654   7.354  0.2916 -0.0200 -0.2388
 5277SOL    HW127293   2.991   4.632   7.409  0.2719 -0.3765 -0.3563
 5277SOL    HW227294   2.944   4.644   7.263 -2.4216 -2.9869 -0.7223
 5278SOL     OW27295   3.388   3.122  14.936  0.2068  0.1973  0.0141
 5278SOL    HW127296   3.435   3.126  14.853 -0.0254  0.9146 -0.0801
 5278SOL    HW227297   3.439   3.061  14.991 -0.7929 -1.1461 -0.5683
 5279SOL     OW27298   4.185   2.316   8.794  0.3659 -0.0536 -0.0329
 5279SOL    HW127299   4.147   2.314   8.706 -1.3084 -2.2092  0.7406
 5279SOL    HW227300   4.154   2.236   8.836 -1.6565  1.1039  0.7038
 5280SOL     OW27301   0.809   2.867  14.890  0.8984  0.2899  0.1264
 5280SOL    HW127302   0.891   2.820  14.904  2.2330  2.2283 -1.1565
 5280SOL    HW227303   0.840   2.936  14.832 -0.0047  0.2714 -0.3828
 5281SOL     OW27304   0.709   1.061   2.374 -0.2050 -0.8012 -0.0198
 5281SOL    HW127305   0.633   1.053   2.316  0.3389 -0.3311 -0.7982
 5281SOL    HW227306   0.698   1.152   2.401  2.3949 -0.7398  0.8432
 5282SOL     OW27307   2.787   0.471   3.889 -0.0497 -0.3033  0.4753
 5282SOL    HW127308   2.759   0.470   3.980  0.8857  0.6505  0.7756
 5282SOL    HW227309   2.705   0.489   3.842 -0.3896 -2.0953  0.3809
 5283SOL     OW27310   1.453   0.650  16.567 -0.5085  0.1079  0.5513
 5283SOL    HW127311   1.514   0.688  16.630 -1.8857  4.2008 -0.5276
 5283SOL    HW227312   1.443   0.715  16.496  2.1929  0.7848  0.7959
 5284SOL     OW27313   1.145   1.753  12.213  0.0485  0.1637 -0.0545
 5284SOL    HW127314   1.140   1.696  12.289 -0.4452  0.4754  0.1421
 5284SOL    HW227315   1.236   1.783  12.203  0.2104  0.2579  1.7084
 5285SOL     OW27316   0.935   0.528  17.232 -0.0694 -0.1457 -0.1005
 5285SOL    HW127317   1.019   0.482  17.242  2.1805  3.7856 -1.0430
 5285SOL    HW227318   0.874   0.456  17.214 -1.2077  1.0138 -0.8610
 5286SOL     OW27319   4.346   1.508  14.723  0.4515 -0.2132  0.3547
 5286SOL    HW127320   4.433   1.517  14.683 -0.0917  0.4204 -0.6668
 5286SOL    HW227321   4.369   1.522  14.815  1.8372  0.6873 -0.1320
 5287SOL     OW27322   2.068   2.187  15.829 -0.1362  0.4973  0.1325
 5287SOL    HW127323   2.125   2.111  15.840 -0.4747  0.4728  1.7434
 5287SOL    HW227324   1.985   2.154  15.864  0.2008 -0.8637 -0.3567
 5288SOL     OW27325   4.689   3.848  15.948 -0.5205  0.0311  0.1146
 5288SOL    HW127326   4.703   3.810  15.861  0.5489  1.1070 -0.1790
 5288SOL    HW227327   4.674   3.767  15.997 -0.0507 -0.2320 -0.1799
 5289SOL     OW27328   1.403   0.349   7.766 -0.4658  1.0257  0.4916
 5289SOL    HW127329   1.444   0.308   7.842  1.9202  0.4431 -1.1040
 5289SOL    HW227330   1.375   0.436   7.795 -1.3348  1.0396 -0.3813
 5290SOL     OW27331   1.503   0.189   2.222  0.2447 -0.0917  0.2052
 5290SOL    HW127332   1.529   0.118   2.282  0.3332 -0.9220 -0.8168
 5290SOL    HW227333   1.410   0.176   2.204  0.1765  2.5745 -1.3800
 5291SOL     OW27334   2.544   0.219   8.728 -0.4737  0.1319 -0.0450
 5291SOL    HW127335   2.606   0.231   8.656 -0.6322  2.5102  0.2370
 5291SOL    HW227336   2.461   0.240   8.685 -1.1173  1.0257  1.6338
 5292SOL     OW27337   4.286   1.876   5.797  0.0537 -0.3511 -0.4349
 5292SOL    HW127338   4.345   1.802   5.807  0.7461  0.7077  3.2909
 5292SOL    HW227339   4.305   1.894   5.705 -2.2049 -0.6938 -0.9871
 5293SOL     OW27340   2.912   1.337   3.883 -0.4580  0.0594  0.9141
 5293SOL    HW127341   2.906   1.333   3.788 -3.4945 -1.0627  1.1539
 5293SOL    HW227342   3.005   1.359   3.894 -0.1814 -0.8609  0.4897
 5294SOL     OW27343   0.973   4.585   1.559 -0.0345  0.3806 -0.1895
 5294SOL    HW127344   1.021   4.641   1.498 -0.6974  0.1665 -0.9210
 5294SOL    HW227345   1.047   4.529   1.582  0.1176 -0.0553 -1.7452
 5295SOL     OW27346   3.841   2.932   6.404 -0.1457 -0.8360 -0.3133
 5295SOL    HW127347   3.747   2.947   6.393 -0.3644 -2.0242 -0.1281
 5295SOL    HW227348   3.858   3.008   6.459  1.3159 -2.3837  1.3508
 5296SOL     OW27349   1.229   4.394   8.150  0.0245 -0.2685 -0.1809
 5296SOL    HW127350   1.247   4.436   8.234  1.1509 -3.5865  1.2696
 5296SOL    HW227351   1.140   4.425   8.138  0.1159  0.6223  1.4024
 5297SOL     OW27352   1.369   1.499   6.848  0.5359 -0.0450 -0.5859
 5297SOL    HW127353   1.443   1.523   6.792  0.9413 -3.2018 -1.4609
 5297SOL    HW227354   1.341   1.430   6.787 -0.7180 -0.3483  0.3311
 5298SOL     OW27355   2.243   3.846   8.129 -0.5286 -0.4041 -0.2405
 5298SOL    HW127356   2.153   3.815   8.141  0.1400 -2.1209  0.4770
 5298SOL    HW227357   2.282   3.841   8.216 -0.9688 -2.1721 -0.1247
 5299SOL     OW27358   3.307   0.517   4.846 -0.4329 -0.8078 -0.0949
 5299SOL    HW127359   3.232   0.553   4.893 -0.7704 -1.4209 -0.1589
 5299SOL    HW227360   3.271   0.435   4.813 -1.6015 -0.0263 -0.7675
 5300SOL     OW27361   2.333   0.140  14.030  0.4861 -0.0918  0.4458
 5300SOL    HW127362   2.380   0.085  13.967  0.8120  0.1036  0.5196
 5300SOL    HW227363   2.389   0.150  14.108  1.2281 -0.0512 -0.0918
 5301SOL     OW27364   3.331   2.049   9.971 -0.0178  0.3119  0.2466
 5301SOL    HW127365   3.358   2.119   9.911  4.0928 -1.3164  0.2153
 5301SOL    HW227366   3.244   2.039   9.933 -0.1250  2.1550  0.0122
 5302SOL     OW27367   2.536   3.842   3.047 -0.2787  0.3480 -0.1759
 5302SOL    HW127368   2.555   3.855   3.141  3.6310  0.1092 -0.9219
 5302SOL    HW227369   2.514   3.934   3.030  2.0366  0.9579 -0.0177
 5303SOL     OW27370   1.172   2.067   6.648  0.0335  0.3992  0.2104
 5303SOL    HW127371   1.158   2.086   6.741  1.4162 -0.4199  0.5953
 5303SOL    HW227372   1.264   2.094   6.650  0.1121  0.1899 -0.6342
 5304SOL     OW27373   2.355   1.122   7.016 -0.3180 -0.1391 -0.2204
 5304SOL    HW127374   2.274   1.078   7.041 -0.8316  0.6337 -0.5309
 5304SOL    HW227375   2.335   1.214   7.030  1.6583  0.6092 -2.2988
 5305SOL     OW27376   3.582   4.470   7.382 -0.1606  0.2837 -0.5537
 5305SOL    HW127377   3.534   4.477   7.464  0.2731  1.1300 -0.3676
 5305SOL    HW227378   3.567   4.379   7.355 -1.7378  0.3764  0.0151
 5306SOL     OW27379   4.494   3.615   7.616  0.0064 -0.4211  0.3683
 5306SOL    HW127380   4.557   3.614   7.688 -0.9772  1.9880  1.2466
 5306SOL    HW227381   4.554   3.611   7.541 -0.0604 -1.3233  0.3634
 5307SOL     OW27382   3.574   3.782   5.733  0.1048 -0.1430 -0.1534
 5307SOL    HW127383   3.577   3.706   5.675  0.4153  0.0031 -0.3310
 5307SOL    HW227384   3.529   3.845   5.677  0.4185 -0.7386 -1.0738
 5308SOL     OW27385   2.942   4.185   9.479 -0.1921 -0.1554  0.0810
 5308SOL    HW127386   2.905   4.105   9.441  1.2653 -0.9786  0.3870
 5308SOL    HW227387   2.865   4.241   9.478  1.1518  1.6512 -1.6119
 5309SOL     OW27388   1.104   3.781  10.999 -0.1859 -0.5137 -0.7395
 5309SOL    HW127389   1.135   3.865  10.967  0.5631  0.0402  1.4346
 5309SOL    HW227390   1.181   3.733  10.970 -0.4296  0.7024 -3.3476
 5310SOL     OW27391   0.519   0.715  17.121  0.1807 -0.1039 -0.0762
 5310SOL    HW127392   0.536   0.809  17.131 -0.2892  0.2792 -2.8509
 5310SOL    HW227393   0.444   0.705  17.179 -0.6347  0.3699 -1.0487
 5311SOL     OW27394   3.147   4.455  15.468  0.1443 -0.3237  0.2445
 5311SOL    HW127395   3.149   4.466  15.563  1.9315 -3.7060  0.6045
 5311SOL    HW227396   3.147   4.546  15.437 -2.0558 -0.7420 -0.9274
 5312SOL     OW27397   3.325   4.517   6.632  0.4856 -0.2822  0.0612
 5312SOL    HW127398   3.369   4.435   6.611 -0.6853 -0.0299 -3.3196
 5312SOL    HW227399   3.396   4.565   6.675 -1.1967  2.6314 -0.3533
 5313SOL     OW27400   2.904   4.560  11.256 -0.7659 -0.4177 -0.7886
 5313SOL    HW127401   2.812   4.585  11.241 -1.0561 -0.7976  0.3585
 5313SOL    HW227402   2.895   4.501  11.331  0.7245  1.9135  1.2464
 5314SOL     OW27403   2.620   0.083   4.275  0.4228  0.6860  0.3270
 5314SOL    HW127404   2.715   0.081   4.260  0.4364 -0.4438  0.5920
 5314SOL    HW227405   2.600   0.173   4.247  2.2312  0.4221 -1.8861
 5315SOL     OW27406   3.151   3.173   8.518 -0.3858  0.1162 -0.2287
 5315SOL    HW127407   3.109   3.118   8.452  1.0746  1.5297 -2.3138
 5315SOL    HW227408   3.114   3.145   8.602 -1.9743  1.4087 -0.4885
 5316SOL     OW27409   2.148   4.430   5.492 -0.4424 -0.4383 -0.1936
 5316SOL    HW127410   2.206   4.402   5.563  1.5534  0.5402 -1.4267
 5316SOL    HW227411   2.201   4.475   5.426 -2.5515 -0.3843 -1.8300
 5317SOL     OW27412   4.468   1.563   2.290 -0.4736 -0.2767  0.1733
 5317SOL    HW127413   4.417   1.516   2.224  0.5536 -0.2770 -0.6092
 5317SOL    HW227414   4.444   1.654   2.270 -1.2947 -1.1456 -2.7486
 5318SOL     OW27415   0.403   0.084  10.938 -0.3317  0.5269 -0.1525
 5318SOL    HW127416   0.450   0.079  10.855 -0.2847  3.4471 -0.3096
 5318SOL    HW227417   0.458   0.152  10.977  2.7259 -1.0382 -1.7151
 5319SOL     OW27418   3.289   4.201   4.324 -0.1008  0.2545 -0.8881
 5319SOL    HW127419   3.367   4.208   4.269  0.4612 -1.0089 -0.2558
 5319SOL    HW227420   3.220   4.226   4.262  0.5480  2.0455 -0.8736
 5320SOL     OW27421   0.403   1.151   4.486 -0.0122  0.2851 -0.4243
 5320SOL    HW127422   0.421   1.245   4.499 -0.1777  0.4121 -1.1422
 5320SOL    HW227423   0.319   1.141   4.442  0.4249 -0.9391 -0.9763
 5321SOL     OW27424   0.215   0.884  11.535  0.2821 -0.3581 -0.3605
 5321SOL    HW127425   0.185   0.801  11.573 -0.5615  0.1431  0.0522
 5321SOL    HW227426   0.248   0.927  11.614  2.3321 -0.9812 -0.8699
 5322SOL     OW27427   0.856   4.287  12.513 -0.2702 -0.5582  0.1442
 5322SOL    HW127428   0.778   4.313  12.561 -0.0727 -0.5317  0.4510
 5322SOL    HW227429   0.922   4.307  12.579 -1.1414  0.1043  0.8063
 5323SOL     OW27430   1.548   3.377   3.595 -0.0559  0.3925 -0.5784
 5323SOL    HW127431   1.624   3.371   3.654  0.3542  2.1399 -0.9149
 5323SOL    HW227432   1.475   3.375   3.657  0.5072 -0.8742  0.0404
 5324SOL     OW27433   1.293   2.672   9.052 -0.5748 -0.3104 -0.2695
 5324SOL    HW127434   1.269   2.580   9.060  2.3296 -1.0500 -0.1245
 5324SOL    HW227435   1.266   2.705   8.967 -0.7388 -0.7057 -0.3677
 5325SOL     OW27436   2.331   1.215   8.722 -0.2621  0.3414 -0.2046
 5325SOL    HW127437   2.317   1.120   8.719  0.4834  0.2232  0.1525
 5325SOL    HW227438   2.416   1.238   8.685 -0.0435  1.4550  0.9778
 5326SOL     OW27439   1.183   3.028   3.157  0.4588 -0.3730  0.0671
 5326SOL    HW127440   1.259   3.085   3.151 -0.6557  0.8595 -2.5365
 5326SOL    HW227441   1.215   2.938   3.149 -0.1510 -0.5171 -0.7346
 5327SOL     OW27442   0.614   0.576   5.393 -0.2359  0.1207 -0.2284
 5327SOL    HW127443   0.564   0.553   5.471 -2.8988  1.0162 -1.6657
 5327SOL    HW227444   0.622   0.671   5.397  1.0705  0.0414 -0.7815
 5328SOL     OW27445   3.086   3.791   0.690  0.2164  0.4766  0.4469
 5328SOL    HW127446   3.153   3.769   0.754  0.7774 -1.3012 -0.7326
 5328SOL    HW227447   3.142   3.824   0.619 -0.5040 -1.2738 -0.9519
 5329SOL     OW27448   0.461   4.080  14.272 -0.0297  0.4661 -0.3759
 5329SOL    HW127449   0.530   4.102  14.209 -0.2047 -1.7984 -1.3310
 5329SOL    HW227450   0.420   4.165  14.285 -1.2088 -0.3170  0.9861
 5330SOL     OW27451   4.112   3.727   1.932  0.0349  0.5050  0.0135
 5330SOL    HW127452   4.075   3.709   2.019  1.3049 -0.1739  0.4088
 5330SOL    HW227453   4.053   3.800   1.916  0.5958  1.0858  0.5845
 5331SOL     OW27454   4.314   0.047   2.715 -0.3019 -0.3931  0.4426
 5331SOL    HW127455   4.256   4.699   2.691  1.0730 -0.9340 -1.3045
 5331SOL    HW227456   4.271   0.116   2.664 -0.3914 -0.4553  0.4334
 5332SOL     OW27457   2.300   1.776   9.834  0.1331  0.5425  0.4167
 5332SOL    HW127458   2.386   1.761   9.873  1.1088 -0.8261 -2.3084
 5332SOL    HW227459   2.308   1.871   9.822 -0.5525  0.5148 -0.2474
 5333SOL     OW27460   1.789   2.315   7.046 -0.0705 -0.6144 -0.2237
 5333SOL    HW127461   1.763   2.368   7.122 -1.1166  0.5408 -1.3966
 5333SOL    HW227462   1.858   2.262   7.085  0.5526  1.4910  1.5842
 5334SOL     OW27463   4.689   1.306   4.519 -0.0304  0.4559  0.1215
 5334SOL    HW127464   0.041   1.316   4.464 -0.7672  0.7033 -0.8784
 5334SOL    HW227465   4.699   1.370   4.590 -0.4193  0.7862 -0.1165
 5335SOL     OW27466   2.377   3.282   8.680  1.0328 -0.0064 -0.2307
 5335SOL    HW127467   2.427   3.360   8.701 -2.3949  2.2147 -0.2085
 5335SOL    HW227468   2.444   3.216   8.700 -0.8203 -1.3140  1.8410
 5336SOL     OW27469   1.005   3.106   2.644 -0.2471  0.0013  0.0072
 5336SOL    HW127470   0.956   3.024   2.634  0.9225 -0.6565 -0.3378
 5336SOL    HW227471   1.000   3.136   2.554  1.5353  1.0269  0.2680
 5337SOL     OW27472   0.154   1.308  14.673  0.3805 -0.1010  0.4227
 5337SOL    HW127473   0.131   1.361  14.597  1.0171  0.4958  0.6442
 5337SOL    HW227474   0.219   1.365  14.714 -0.5370  0.1061  1.5722
 5338SOL     OW27475   1.835   0.368   8.276  0.2091 -0.2897  0.2260
 5338SOL    HW127476   1.856   0.332   8.190 -1.6895 -1.4459  0.2521
 5338SOL    HW227477   1.785   0.294   8.309  1.8494 -0.7553  1.6964
 5339SOL     OW27478   3.452   1.142   7.457 -0.8607  0.5322  0.4618
 5339SOL    HW127479   3.535   1.189   7.451  1.1324 -3.0176 -0.4671
 5339SOL    HW227480   3.387   1.211   7.465  0.4560  1.4167  3.6296
 5340SOL     OW27481   4.117   4.284   7.576 -0.2634  0.8941  0.1813
 5340SOL    HW127482   4.142   4.311   7.487  0.7020  2.7427  1.0199
 5340SOL    HW227483   4.123   4.362   7.631 -0.0617  0.6404  0.5174
 5341SOL     OW27484   4.026   0.237  13.626  0.0292  0.1664  0.3395
 5341SOL    HW127485   4.074   0.243  13.543  0.0590  1.1007  0.4252
 5341SOL    HW227486   3.952   0.180  13.608 -0.0345 -0.0464  1.2578
 5342SOL     OW27487   3.930   1.446   2.019  0.0092 -0.7509 -0.5309
 5342SOL    HW127488   3.987   1.417   2.090 -0.7085 -0.6493  0.0870
 5342SOL    HW227489   3.842   1.439   2.057 -0.0633  1.2880 -0.3207
 5343SOL     OW27490   4.217   2.729  15.557 -0.1275  0.9034 -0.2356
 5343SOL    HW127491   4.229   2.813  15.601 -1.9046 -0.6314  3.2441
 5343SOL    HW227492   4.131   2.707  15.593 -0.8837  1.9218 -1.4406
 5344SOL     OW27493   1.622   4.312   9.728 -0.5511  0.0575  0.1286
 5344SOL    HW127494   1.571   4.285   9.805  1.5198 -1.6576  0.9099
 5344SOL    HW227495   1.708   4.274   9.748 -1.5497 -1.3958  1.6288
 5345SOL     OW27496   0.240   0.214   7.350  0.4726  0.1848 -0.6414
 5345SOL    HW127497   0.199   0.167   7.423  0.8811  1.7026  0.5538
 5345SOL    HW227498   0.328   0.227   7.386  0.3038 -2.2002  0.6073
 5346SOL     OW27499   2.923   2.890   8.895  0.6256  0.1330 -0.3356
 5346SOL    HW127500   2.940   2.809   8.943 -0.2989 -0.0156 -0.2579
 5346SOL    HW227501   2.844   2.871   8.843 -0.4816  0.6750  1.1603
 5347SOL     OW27502   1.767   0.485   6.717 -0.0268  0.2272  0.1865
 5347SOL    HW127503   1.708   0.430   6.766  0.0137  0.3263  0.3467
 5347SOL    HW227504   1.723   0.536   6.648 -0.3638 -0.1675  0.1146
 5348SOL     OW27505   3.134   1.228  12.288  0.4235  0.4891  0.5153
 5348SOL    HW127506   3.087   1.300  12.331  0.9232  2.5563 -2.3776
 5348SOL    HW227507   3.060   1.172  12.265  0.6567 -0.4426  2.0663
 5349SOL     OW27508   3.888   4.118  17.686  0.2952 -0.0909 -0.4729
 5349SOL    HW127509   3.827   4.137  17.615  0.3975  3.7273  0.4573
 5349SOL    HW227510   3.940   4.194  17.664 -0.4363  0.3748 -0.5838
 5350SOL     OW27511   0.570   0.349   1.868 -0.2274  0.0598 -0.1330
 5350SOL    HW127512   0.566   0.337   1.963 -0.6008  3.3194  0.2474
 5350SOL    HW227513   0.477   0.333   1.850 -0.4673 -0.9004  1.9225
 5351SOL     OW27514   2.601   2.657  16.021  0.1454 -0.0076  0.2040
 5351SOL    HW127515   2.617   2.653  16.116  2.2378  2.4505 -0.0352
 5351SOL    HW227516   2.509   2.675  16.044  0.4942  2.3708 -0.1941
 5352SOL     OW27517   4.403   1.392  11.460  0.1239 -0.3163  0.0512
 5352SOL    HW127518   4.426   1.299  11.452 -1.5326 -0.6175 -1.1865
 5352SOL    HW227519   4.328   1.404  11.402  0.0101 -0.0555  0.2521
 5353SOL     OW27520   2.007   4.553  10.978  0.1292 -0.0784 -0.1389
 5353SOL    HW127521   2.023   4.465  10.944 -0.9107  0.5087 -2.1452
 5353SOL    HW227522   1.913   4.568  10.976  0.0013 -0.9055 -0.3322
 5354SOL     OW27523   3.790   4.151   3.356 -0.4080  0.2819  0.8322
 5354SOL    HW127524   3.732   4.202   3.300  0.1907 -0.8009 -0.7854
 5354SOL    HW227525   3.725   4.095   3.399  0.6441 -1.0267  0.7426
 5355SOL     OW27526   0.892   1.627   3.253  0.0687  0.0032  0.0779
 5355SOL    HW127527   0.963   1.656   3.310  0.7749 -0.0131 -0.7981
 5355SOL    HW227528   0.922   1.655   3.166 -3.1408  1.6713 -0.4979
 5356SOL     OW27529   1.696   0.435  11.054  0.4158 -0.1946  0.3178
 5356SOL    HW127530   1.743   0.367  11.102  0.0484 -1.2121 -0.7848
 5356SOL    HW227531   1.758   0.508  11.062  0.8893 -0.6437  0.7669
 5357SOL     OW27532   2.357   3.902   7.498  0.4541 -0.4206 -0.3208
 5357SOL    HW127533   2.414   3.836   7.459  0.3783 -0.7274  0.0834
 5357SOL    HW227534   2.271   3.862   7.490  1.1185 -1.7656 -0.8212
 5358SOL     OW27535   3.300   4.285   7.713 -0.7122 -0.4414 -0.0347
 5358SOL    HW127536   3.292   4.317   7.803 -0.1545 -0.4869  0.0301
 5358SOL    HW227537   3.241   4.210   7.717 -1.2342 -0.1214 -1.6422
 5359SOL     OW27538   3.218   0.231  10.721  0.0718  0.4550 -0.7729
 5359SOL    HW127539   3.202   0.140  10.695 -1.0744  0.4968 -0.2166
 5359SOL    HW227540   3.313   0.225  10.712  0.2348  0.5893  0.9988
 5360SOL     OW27541   3.710   4.654  16.319  0.4407  0.2599 -0.1216
 5360SOL    HW127542   3.656   4.720  16.277 -1.2537 -1.1645 -0.2028
 5360SOL    HW227543   3.788   4.704  16.342  0.5553 -0.6657  1.5129
 5361SOL     OW27544   0.104   2.243  15.688  0.5830  0.1068 -0.1127
 5361SOL    HW127545   0.162   2.171  15.712  1.7676  1.6993  1.8689
 5361SOL    HW227546   0.047   2.245  15.765  0.1133  0.4379 -0.4681
 5362SOL     OW27547   3.590   1.951  12.598 -0.1636  0.3423  0.2973
 5362SOL    HW127548   3.664   1.914  12.646  0.8152 -0.0824 -1.5438
 5362SOL    HW227549   3.572   2.029  12.650  1.8903  0.7332  0.4284
 5363SOL     OW27550   1.736   2.406  12.687 -0.2007  0.1559 -0.5665
 5363SOL    HW127551   1.783   2.332  12.725  0.7028  0.5262 -0.9689
 5363SOL    HW227552   1.721   2.455  12.768  0.9745 -2.9629  1.5684
 5364SOL     OW27553   2.697   2.373   5.563  0.3290  0.2286 -0.3790
 5364SOL    HW127554   2.669   2.440   5.500  0.0721 -0.3225 -0.8502
 5364SOL    HW227555   2.643   2.403   5.636  0.1824 -3.5471  1.0793
 5365SOL     OW27556   2.650   4.677   2.819 -0.5959  0.5842 -0.7602
 5365SOL    HW127557   2.667   0.045   2.825 -0.0515  0.6935 -3.7908
 5365SOL    HW227558   2.558   4.692   2.838 -0.6688 -0.1729 -0.4790
 5366SOL     OW27559   0.274   4.512   9.907  0.0991  0.1386 -0.3277
 5366SOL    HW127560   0.281   4.432   9.854  0.2878  0.8320 -1.3499
 5366SOL    HW227561   0.298   4.580   9.844  0.0388  1.0679  0.6475
 5367SOL     OW27562   0.882   4.115   5.709 -0.2283 -0.7035  0.0250
 5367SOL    HW127563   0.821   4.102   5.782  0.6067 -0.0283  0.8463
 5367SOL    HW227564   0.903   4.208   5.708 -0.7068 -0.5802  2.3479
 5368SOL     OW27565   0.257   2.301   5.963  0.0137 -0.2918 -0.0600
 5368SOL    HW127566   0.174   2.339   5.990 -0.3116 -0.7677 -0.3970
 5368SOL    HW227567   0.238   2.305   5.869  0.2133 -1.9467 -0.1757
 5369SOL     OW27568   4.147   3.684  13.841 -0.4229  0.7254  0.0890
 5369SOL    HW127569   4.193   3.656  13.762 -1.3193  0.4099 -0.3186
 5369SOL    HW227570   4.193   3.641  13.914  0.8245  2.3911  0.2763
 5370SOL     OW27571   1.924   0.026  11.405 -0.1588  0.6487 -0.3349
 5370SOL    HW127572   2.016   0.017  11.432 -0.3942  0.7545  0.5282
 5370SOL    HW227573   1.918   0.118  11.432  2.1624  0.5071  0.7448
 5371SOL     OW27574   4.184   3.031   0.690 -0.2498  0.0149  0.1374
 5371SOL    HW127575   4.167   2.978   0.768 -0.8168  1.5940  1.1013
 5371SOL    HW227576   4.096   3.056   0.664 -0.5432 -0.2709  0.8489
 5372SOL     OW27577   2.189   4.575   9.856 -1.2573 -0.4662  0.3347
 5372SOL    HW127578   2.116   4.514   9.867 -1.9668  0.4860  0.8797
 5372SOL    HW227579   2.151   4.657   9.824  0.9503  1.0015  1.4808
 5373SOL     OW27580   3.474   4.134  11.678 -0.1106  0.3146  0.2491
 5373SOL    HW127581   3.528   4.161  11.753 -0.1188  2.3454 -0.4721
 5373SOL    HW227582   3.480   4.042  11.703 -0.7586  0.1750 -0.1163
 5374SOL     OW27583   2.392   4.297   6.354  0.3432 -0.0526 -0.0941
 5374SOL    HW127584   2.456   4.282   6.424 -0.1996 -2.7828 -0.1886
 5374SOL    HW227585   2.446   4.342   6.288  1.0113 -1.3217 -0.4096
 5375SOL     OW27586   2.382   1.429   7.783 -0.2593  0.5254 -0.1255
 5375SOL    HW127587   2.373   1.424   7.878  2.4787 -2.8816 -0.0458
 5375SOL    HW227588   2.299   1.408   7.741 -0.0471 -3.2975  1.3708
 5376SOL     OW27589   1.594   2.344   7.583  0.2388  0.5019  0.0232
 5376SOL    HW127590   1.612   2.288   7.659  0.3044  0.3027 -0.1407
 5376SOL    HW227591   1.546   2.415   7.626 -1.0484 -0.0541 -0.4829
 5377SOL     OW27592   3.394   2.758   4.994  0.2173  0.6583  0.1104
 5377SOL    HW127593   3.433   2.707   4.922 -0.8354  2.1308 -1.5049
 5377SOL    HW227594   3.307   2.763   4.954 -0.1911  0.4384  0.9840
 5378SOL     OW27595   1.379   2.510   1.159  0.0709  0.0670 -0.0128
 5378SOL    HW127596   1.407   2.438   1.215  0.3817  1.6613  1.8734
 5378SOL    HW227597   1.310   2.541   1.217  0.4788  1.2958 -0.2009
 5379SOL     OW27598   1.883   1.036  10.502  0.0173  0.0124  0.2889
 5379SOL    HW127599   1.821   1.019  10.431 -0.7088  1.2565  0.6433
 5379SOL    HW227600   1.942   0.961  10.491 -0.3397  0.1490 -2.5568
 5380SOL     OW27601   3.324   2.372  15.165  0.6049  0.0444  0.1192
 5380SOL    HW127602   3.325   2.416  15.250 -2.7529  1.6621 -0.6602
 5380SOL    HW227603   3.324   2.283  15.201 -0.7576 -0.2934 -0.6876
 5381SOL     OW27604   4.076   2.103   0.850  0.4139 -0.2749 -0.4987
 5381SOL    HW127605   4.055   2.129   0.940 -0.5551 -1.6747 -0.3185
 5381SOL    HW227606   4.166   2.069   0.854  0.3947 -0.2435  0.3374
 5382SOL     OW27607   1.463   2.731   8.386 -0.2723 -0.4770  0.0560
 5382SOL    HW127608   1.502   2.812   8.419 -1.0110  0.0804 -0.4691
 5382SOL    HW227609   1.431   2.763   8.302 -0.0186  0.2837  0.2454
 5383SOL     OW27610   1.763   0.117  12.763  0.6906  0.3503  0.8069
 5383SOL    HW127611   1.846   0.160  12.785  1.1522  0.0427 -0.3530
 5383SOL    HW227612   1.709   0.191  12.736  1.1712 -0.2481 -1.7611
 5384SOL     OW27613   2.696   2.992   9.281 -0.5001  0.3548  0.4488
 5384SOL    HW127614   2.750   2.960   9.354 -2.0596 -2.7151  0.2835
 5384SOL    HW227615   2.641   3.058   9.324  0.7117  2.1612 -0.7964
 5385SOL     OW27616   3.042   0.653   7.505 -0.1750 -0.2029 -0.1452
 5385SOL    HW127617   2.956   0.626   7.537 -0.9005  1.1414 -0.9917
 5385SOL    HW227618   3.088   0.663   7.589 -2.0299 -1.1083  0.9705
 5386SOL     OW27619   4.238   4.506  16.551  0.2784  0.0332 -0.0655
 5386SOL    HW127620   4.152   4.513  16.591 -1.3778 -1.2104 -3.3645
 5386SOL    HW227621   4.258   4.594  16.522 -1.8209 -0.1178 -1.9776
 5387SOL     OW27622   2.014   2.577   5.677 -0.6342  0.3659 -0.5844
 5387SOL    HW127623   2.060   2.659   5.660  0.5247 -0.1068  0.3058
 5387SOL    HW227624   2.041   2.557   5.767 -1.7819 -0.0845 -0.3327
 5388SOL     OW27625   2.133   1.404   2.142 -0.0443  0.3434  0.3015
 5388SOL    HW127626   2.196   1.371   2.206 -1.5449  1.9548  2.6029
 5388SOL    HW227627   2.061   1.425   2.201 -1.0463 -0.0096 -0.7923
 5389SOL     OW27628   3.856   4.430   3.508 -0.3866  0.1639  0.1969
 5389SOL    HW127629   3.897   4.506   3.551 -1.4284 -0.3362  2.0908
 5389SOL    HW227630   3.922   4.363   3.527  1.3133  1.0212 -2.7337
 5390SOL     OW27631   2.970   0.973  17.385 -0.0593 -0.3757  0.0676
 5390SOL    HW127632   3.030   1.025  17.332  0.0419 -0.3941  0.1654
 5390SOL    HW227633   2.900   0.956  17.322 -0.1300 -2.5509  0.7053
 5391SOL     OW27634   1.658   0.750   8.184 -0.3474 -0.6018  0.6299
 5391SOL    HW127635   1.684   0.691   8.113  3.6727  0.0752  1.5373
 5391SOL    HW227636   1.698   0.700   8.255  1.7353  3.1540  2.0971
 5392SOL     OW27637   4.244   0.223   4.035  0.6187 -0.0851 -0.2599
 5392SOL    HW127638   4.156   0.218   3.997  0.3734  0.2097  0.2744
 5392SOL    HW227639   4.228   0.288   4.103 -0.1818 -1.0025  0.4324
 5393SOL     OW27640   3.707   2.867  13.902  0.1020  0.3105 -0.7738
 5393SOL    HW127641   3.628   2.921  13.892 -1.4005 -1.6803  0.2232
 5393SOL    HW227642   3.763   2.913  13.839  1.4004 -0.2520 -0.0290
 5394SOL     OW27643   4.086   1.397   6.019 -0.0691  0.4127  0.4854
 5394SOL    HW127644   3.996   1.376   5.996  0.2460 -0.5750  0.1666
 5394SOL    HW227645   4.131   1.373   5.938 -3.4770 -2.1294 -0.6413
 5395SOL     OW27646   4.514   0.825   6.488 -0.3801  0.0512  0.1246
 5395SOL    HW127647   4.595   0.780   6.462 -1.1770 -1.1961 -0.2134
 5395SOL    HW227648   4.538   0.917   6.494 -1.8843  0.4437  0.1300
 5396SOL     OW27649   1.738   3.682   3.823  0.3537 -0.4938 -0.0645
 5396SOL    HW127650   1.760   3.773   3.802  0.3307 -0.0787  1.7225
 5396SOL    HW227651   1.721   3.646   3.736  0.6018 -0.7334 -0.0135
 5397SOL     OW27652   0.545   2.123   8.500 -0.6540  0.5532  0.2336
 5397SOL    HW127653   0.532   2.215   8.475 -0.0523  0.3665 -0.8039
 5397SOL    HW227654   0.472   2.104   8.558 -1.2443  0.2546 -0.6005
 5398SOL     OW27655   0.181   2.039  11.836  0.0627  0.0726 -0.2604
 5398SOL    HW127656   0.242   2.088  11.891 -1.3081  1.3106  0.1706
 5398SOL    HW227657   0.211   2.070  11.751  0.5379 -1.3056 -0.5820
 5399SOL     OW27658   3.136   2.810   4.903  0.3154  0.6397 -0.3074
 5399SOL    HW127659   3.085   2.881   4.863  1.1694  1.9436  0.9332
 5399SOL    HW227660   3.080   2.738   4.874  1.3786 -1.1674  2.1289
 5400SOL     OW27661   4.547   2.727   2.127  0.3348  0.3165 -0.3038
 5400SOL    HW127662   4.514   2.741   2.038 -1.3034  0.3725  0.3155
 5400SOL    HW227663   4.567   2.634   2.119  3.5798  1.1060 -1.2781
 5401SOL     OW27664   1.964   1.836   4.825 -0.6692  0.4335 -0.1169
 5401SOL    HW127665   2.034   1.852   4.889 -1.7462 -2.2252  1.7553
 5401SOL    HW227666   1.971   1.922   4.785 -0.3248  1.4033  1.9884
 5402SOL     OW27667   2.099   1.535   2.937 -0.0999  0.0624 -0.3668
 5402SOL    HW127668   2.143   1.614   2.969 -1.2405  0.8636 -0.7665
 5402SOL    HW227669   2.141   1.518   2.853 -0.7685 -0.4334 -0.6068
 5403SOL     OW27670   0.910   3.511   2.844  0.1417 -0.0665 -0.5167
 5403SOL    HW127671   0.857   3.446   2.891 -2.5590  2.6120  0.1158
 5403SOL    HW227672   0.865   3.526   2.761  0.8776 -1.9450 -1.2588
 5404SOL     OW27673   0.746   4.220   8.413 -0.2880 -0.1052  0.0091
 5404SOL    HW127674   0.737   4.171   8.495  1.8204 -0.7160 -0.1010
 5404SOL    HW227675   0.706   4.302   8.442  0.5987  0.9072 -1.6261
 5405SOL     OW27676   1.670   4.291   1.672 -0.2554 -0.3173 -0.0958
 5405SOL    HW127677   1.650   4.321   1.760  1.1352 -1.0536  0.4552
 5405SOL    HW227678   1.705   4.376   1.645  1.6436 -0.5133  1.7508
 5406SOL     OW27679   3.691   2.234  14.616  0.1302  0.0405  0.3394
 5406SOL    HW127680   3.624   2.174  14.583  1.5115  0.0488 -2.4599
 5406SOL    HW227681   3.767   2.213  14.562  0.2290  0.9473  0.1199
 5407SOL     OW27682   3.682   1.100  17.691 -0.0897  0.1766 -0.5477
 5407SOL    HW127683   3.666   1.034  17.624  0.9051  0.2329 -0.8406
 5407SOL    HW227684   3.669   1.055   0.072 -0.3647  1.0437 -0.1239
 5408SOL     OW27685   0.955   0.851   6.399 -0.0500  0.0891 -0.2166
 5408SOL    HW127686   0.954   0.928   6.455  0.2596  0.7232 -1.0972
 5408SOL    HW227687   0.969   0.881   6.310 -1.2238  2.1053  0.2889
 5409SOL     OW27688   3.393   1.191   3.356 -0.2795 -0.1836  0.0930
 5409SOL    HW127689   3.431   1.269   3.316 -1.7342 -0.2539 -1.4241
 5409SOL    HW227690   3.443   1.196   3.438  1.4865 -0.3732 -0.9855
 5410SOL     OW27691   1.928   3.003   8.924 -0.2335  0.2793 -0.0170
 5410SOL    HW127692   1.870   2.956   8.864  0.0865 -0.9247  0.6055
 5410SOL    HW227693   2.008   3.014   8.873  0.7007  0.2708  1.4704
 5411SOL     OW27694   3.221   2.687  13.142  0.6032 -0.2486 -0.2221
 5411SOL    HW127695   3.229   2.703  13.048  3.6093 -0.6044 -0.0430
 5411SOL    HW227696   3.206   2.778  13.167  2.8381 -0.9231  3.7270
 5412SOL     OW27697   2.036   3.207   6.996  0.0663 -0.4042  0.5983
 5412SOL    HW127698   2.020   3.211   6.902  3.9045  0.3821 -0.0192
 5412SOL    HW227699   1.998   3.121   7.013 -1.2503  0.3856  1.6754
 5413SOL     OW27700   1.800   2.792   7.751  0.5916  0.3103  0.0593
 5413SOL    HW127701   1.789   2.886   7.767 -0.0349 -0.3953  3.7294
 5413SOL    HW227702   1.895   2.784   7.751  0.4789 -1.0887  2.0390
 5414SOL     OW27703   0.920   4.327  12.772  0.1257 -0.6461  0.6597
 5414SOL    HW127704   0.888   4.277  12.847  3.5582 -0.1645  2.4544
 5414SOL    HW227705   0.898   4.414  12.805 -0.0224  0.1519 -1.5542
 5415SOL     OW27706   0.911   3.020  14.683  0.0557 -0.6746  0.6692
 5415SOL    HW127707   0.860   3.064  14.616  1.1311 -0.2845  0.1161
 5415SOL    HW227708   0.971   3.093  14.698 -1.0254  0.1935  0.7921
 5416SOL     OW27709   3.796   0.583   6.654  0.0459 -0.4637  0.1606
 5416SOL    HW127710   3.734   0.656   6.664  0.3284 -0.2441  0.3099
 5416SOL    HW227711   3.864   0.609   6.717 -2.5816 -0.5621  3.0355
 5417SOL     OW27712   0.632   3.801   2.510  0.5464 -0.1450  0.1784
 5417SOL    HW127713   0.650   3.767   2.423  0.1031 -0.5656  0.2533
 5417SOL    HW227714   0.543   3.837   2.506  0.3824 -0.5854 -0.0906
 5418SOL     OW27715   2.487   0.279   7.107 -0.3635 -0.4488 -0.2570
 5418SOL    HW127716   2.561   0.266   7.048 -0.3157 -1.1834 -0.0369
 5418SOL    HW227717   2.536   0.259   7.187 -0.5924  1.7096  0.4222
 5419SOL     OW27718   2.233   4.086  17.603 -0.0281 -0.3629  0.6135
 5419SOL    HW127719   2.154   4.047  17.565 -1.1127  0.6774  1.8203
 5419SOL    HW227720   2.296   4.064  17.534 -0.5065 -0.2950  0.1509
 5420SOL     OW27721   4.105   0.597  17.458 -0.4139  0.2032  0.2707
 5420SOL    HW127722   4.093   0.633  17.370 -2.8282 -1.7393 -0.1967
 5420SOL    HW227723   4.080   0.673  17.511 -1.0476 -1.4206  2.3470
 5421SOL     OW27724   0.308   2.630  13.786 -0.0312  0.2578  0.2609
 5421SOL    HW127725   0.212   2.632  13.785 -0.0279  0.6565  0.5227
 5421SOL    HW227726   0.336   2.540  13.773  0.5696  0.4776  0.0385
 5422SOL     OW27727   3.835   2.261   8.642 -0.4015 -0.0373  0.4045
 5422SOL    HW127728   3.930   2.265   8.651 -0.1903  0.2654 -1.8456
 5422SOL    HW227729   3.814   2.348   8.606  0.9487 -0.3163 -1.0692
 5423SOL     OW27730   0.173   1.865   7.874 -0.1836 -0.2786  0.5217
 5423SOL    HW127731   0.085   1.832   7.890 -0.0943 -0.2503  1.0752
 5423SOL    HW227732   0.235   1.819   7.931  0.3262  0.4988  0.6006
 5424SOL     OW27733   3.970   1.325   8.569  0.1886  0.3966  0.1664
 5424SOL    HW127734   3.925   1.267   8.508  1.6358  0.3776 -0.8828
 5424SOL    HW227735   4.053   1.283   8.592  0.6962  1.3695  0.1416
 5425SOL     OW27736   4.426   4.020  11.845 -0.1040 -0.4379 -0.5788
 5425SOL    HW127737   4.357   3.959  11.821  0.7493 -1.7931  0.3667
 5425SOL    HW227738   4.500   3.975  11.805 -1.6792 -3.1083 -0.4684
 5426SOL     OW27739   0.342   2.033  14.845  0.4757 -0.4353 -0.1573
 5426SOL    HW127740   0.382   1.949  14.823  0.6334  0.2111 -2.2841
 5426SOL    HW227741   0.249   2.010  14.842 -0.0919  1.4771  2.4856
 5427SOL     OW27742   3.113   0.574   7.263 -0.3935  0.2481  0.1500
 5427SOL    HW127743   3.078   0.592   7.351 -0.9002 -3.0947  0.6723
 5427SOL    HW227744   3.197   0.620   7.265 -0.2215  0.0642 -3.5026
 5428SOL     OW27745   3.614   0.953   7.179 -0.2658  0.1119  0.1352
 5428SOL    HW127746   3.632   0.869   7.220  1.3148  1.0926  1.4446
 5428SOL    HW227747   3.528   0.976   7.214 -0.3433 -2.8027  1.8070
 5429SOL     OW27748   2.428   3.679  17.502 -0.8122  0.2002 -0.4124
 5429SOL    HW127749   2.444   3.611  17.567  3.1674  0.0759 -1.5911
 5429SOL    HW227750   2.358   3.728  17.547 -0.3994 -1.8796  2.5005
 5430SOL     OW27751   4.666   3.222   6.164 -0.3689 -0.0862  0.1735
 5430SOL    HW127752   4.644   3.156   6.098  2.9898 -1.2936  0.2688
 5430SOL    HW227753   4.719   3.170   6.225  0.7627  0.1350 -0.6087
 5431SOL     OW27754   1.981   2.458   2.533  0.5823  0.5861 -0.2638
 5431SOL    HW127755   1.902   2.431   2.580 -0.1461  0.1944 -1.7023
 5431SOL    HW227756   1.992   2.552   2.547  0.5003  0.3657  1.2439
 5432SOL     OW27757   3.862   0.936  10.387  0.1698 -0.2460  0.1093
 5432SOL    HW127758   3.880   0.874  10.316  2.9223  0.5750  0.1006
 5432SOL    HW227759   3.850   0.867  10.452 -0.3597 -1.2371 -1.0296
 5433SOL     OW27760   3.317   1.676   9.128  0.6398  0.4453 -0.0487
 5433SOL    HW127761   3.305   1.742   9.196  0.3833  0.4511 -0.1019
 5433SOL    HW227762   3.411   1.678   9.110  1.1288  1.0783  2.4863
 5434SOL     OW27763   4.077   4.403   7.113 -0.6134 -0.2553  0.2385
 5434SOL    HW127764   4.089   4.308   7.121  3.7045  0.2469 -0.0006
 5434SOL    HW227765   4.008   4.423   7.176  0.7526 -0.4819  1.8000
 5435SOL     OW27766   0.165   4.058   6.338 -0.4102 -0.1227  0.1675
 5435SOL    HW127767   0.100   4.096   6.279 -1.8485 -2.9993 -0.1382
 5435SOL    HW227768   0.237   4.037   6.280  0.3858 -2.1967  1.8958
 5436SOL     OW27769   4.027   1.853  14.438  0.5786  0.4686 -0.7495
 5436SOL    HW127770   4.073   1.769  14.442 -1.7236 -0.8695 -2.2429
 5436SOL    HW227771   4.085   1.905  14.494 -0.0732  0.6812 -0.2801
 5437SOL     OW27772   4.484   3.471   3.030 -0.7870  0.1533 -0.1560
 5437SOL    HW127773   4.555   3.535   3.024 -0.2124 -0.3568  1.1507
 5437SOL    HW227774   4.524   3.391   2.996  0.9277  0.3360  1.4236
 5438SOL     OW27775   3.843   2.945   2.603 -0.2688 -0.2294  0.4777
 5438SOL    HW127776   3.760   2.941   2.556  0.4494 -0.3072 -0.7886
 5438SOL    HW227777   3.850   2.854   2.631 -3.8676 -0.5700  0.1846
 5439SOL     OW27778   2.138   2.295   5.070  0.3870  0.1117 -0.2944
 5439SOL    HW127779   2.154   2.240   4.994 -4.0391 -1.5694 -0.0325
 5439SOL    HW227780   2.224   2.285   5.111  0.0942 -0.5982  0.1523
 5440SOL     OW27781   0.806   2.410   3.190  0.5957  0.0425 -0.3250
 5440SOL    HW127782   0.836   2.326   3.155  0.8514 -0.4404  1.0749
 5440SOL    HW227783   0.808   2.401   3.285 -1.0162 -1.1578 -0.4158
 5441SOL     OW27784   2.315   2.773   3.248  0.2089 -0.5173 -0.0857
 5441SOL    HW127785   2.344   2.792   3.337 -1.4449 -0.9823  0.5582
 5441SOL    HW227786   2.395   2.770   3.196  0.2877 -1.1327  0.0590
 5442SOL     OW27787   4.500   4.492   3.625 -0.0007  0.1793 -0.1361
 5442SOL    HW127788   4.448   4.566   3.594 -0.8483 -0.4257 -0.1573
 5442SOL    HW227789   4.531   4.540   3.702 -3.0290  1.0771  0.5122
 5443SOL     OW27790   2.242   1.427   3.325  0.3024 -0.2446 -0.6130
 5443SOL    HW127791   2.244   1.382   3.240 -0.5866  1.4927 -1.5720
 5443SOL    HW227792   2.318   1.483   3.341 -0.0098  0.1321 -0.4402
 5444SOL     OW27793   1.544   4.706   1.368  0.2302  0.1726 -0.3067
 5444SOL    HW127794   1.571   4.617   1.392  0.6778  0.7487  1.3046
 5444SOL    HW227795   1.629   0.024   1.358  0.8717 -0.7077  1.1400
 5445SOL     OW27796   4.058   2.907   7.180 -0.2853  0.2832 -0.1121
 5445SOL    HW127797   4.119   2.848   7.225 -0.4697 -0.7034 -1.1427
 5445SOL    HW227798   4.126   2.949   7.129 -0.9900  0.9053 -0.5386
 5446SOL     OW27799   3.682   1.485  11.979  0.3205  0.5690 -0.0811
 5446SOL    HW127800   3.676   1.476  12.074  0.4744  2.3924  0.0975
 5446SOL    HW227801   3.599   1.528  11.957 -1.1763 -1.2037  2.1045
 5447SOL     OW27802   3.183   3.209   2.978 -0.0708 -0.0923 -0.4966
 5447SOL    HW127803   3.211   3.126   2.939 -0.7277 -0.4241 -0.2581
 5447SOL    HW227804   3.167   3.267   2.904 -2.2304  0.0913  0.1146
 5448SOL     OW27805   4.492   1.290   8.075  0.4188  0.0228  0.2496
 5448SOL    HW127806   4.485   1.198   8.101 -1.9162  0.2539  0.4372
 5448SOL    HW227807   4.567   1.300   8.016  0.9792  1.1636  1.1317
 5449SOL     OW27808   3.343   2.416   0.601 -0.0803 -0.1312 -0.3903
 5449SOL    HW127809   3.344   2.387   0.509  0.3781 -1.2324 -0.0448
 5449SOL    HW227810   3.309   2.504   0.591 -2.6876 -1.1793 -0.7557
 5450SOL     OW27811   2.309   2.210  10.123  0.4040  0.2461 -0.4312
 5450SOL    HW127812   2.285   2.154  10.197  2.2889 -1.9065 -1.4645
 5450SOL    HW227813   2.393   2.178  10.090  1.0154  0.6533  0.7014
 5451SOL     OW27814   2.790   1.112   1.995  0.0401  0.3134  0.1416
 5451SOL    HW127815   2.886   1.115   1.993 -0.0483  2.2432 -0.5769
 5451SOL    HW227816   2.763   1.203   1.992  0.1597  0.2706 -3.0975
 5452SOL     OW27817   1.718   1.708   2.465  0.3494 -0.0451 -0.5436
 5452SOL    HW127818   1.739   1.780   2.524 -1.6020  0.0678  0.0107
 5452SOL    HW227819   1.635   1.747   2.437 -0.1690 -1.7421 -1.3421
 5453SOL     OW27820   2.133   2.959   8.403 -0.5890  0.5858 -0.4408
 5453SOL    HW127821   2.095   2.876   8.375  1.5659 -0.3672 -0.5751
 5453SOL    HW227822   2.201   2.968   8.336  0.7815  0.1754  0.8758
 5454SOL     OW27823   4.071   0.822   5.250 -0.0525 -0.1826 -1.0897
 5454SOL    HW127824   4.164   0.812   5.271 -0.2664 -1.6274 -0.8524
 5454SOL    HW227825   4.083   0.901   5.197  0.3969  0.2089 -0.4104
 5455SOL     OW27826   0.370   3.861   8.404 -0.5630  0.3802 -0.0400
 5455SOL    HW127827   0.400   3.947   8.432 -0.1349 -0.2129  1.3271
 5455SOL    HW227828   0.343   3.818   8.486 -1.8980  1.0099 -0.1590
 5456SOL     OW27829   3.934   0.221   7.424 -0.3132 -0.2307  0.1526
 5456SOL    HW127830   4.005   0.276   7.390 -1.5523 -0.1385 -2.2556
 5456SOL    HW227831   3.912   0.270   7.503  0.5280  1.0952 -0.4289
 5457SOL     OW27832   3.325   3.476   6.114 -0.0873 -0.5847 -0.0894
 5457SOL    HW127833   3.232   3.458   6.123 -0.4051  0.4870 -1.3324
 5457SOL    HW227834   3.337   3.492   6.021  2.0055  1.4227  0.5194
 5458SOL     OW27835   2.524   2.089   8.192 -0.1934 -0.4313  0.0989
 5458SOL    HW127836   2.499   2.145   8.118 -0.3684 -1.9891 -1.0060
 5458SOL    HW227837   2.617   2.109   8.198 -0.5675  0.6343  2.1427
 5459SOL     OW27838   0.634   3.352   6.752 -0.2258  0.1324 -0.2619
 5459SOL    HW127839   0.685   3.338   6.672 -0.1536 -1.3516  0.0506
 5459SOL    HW227840   0.692   3.405   6.808 -2.6779  2.2424  0.2732
 5460SOL     OW27841   2.595   3.345  14.796 -0.0694 -0.3790 -0.2309
 5460SOL    HW127842   2.657   3.326  14.867 -0.7711 -0.9769  0.2267
 5460SOL    HW227843   2.658   3.370  14.729 -0.2474 -0.3252 -0.3772
 5461SOL     OW27844   2.286   3.615   4.312  0.4418  0.3167 -0.3271
 5461SOL    HW127845   2.264   3.558   4.386  0.5994 -0.4163 -0.8462
 5461SOL    HW227846   2.268   3.700   4.352 -1.2731 -0.9129  1.5526
 5462SOL     OW27847   0.146   1.528   2.489 -0.0161 -0.3733 -0.2362
 5462SOL    HW127848   0.079   1.570   2.543  0.0618  0.6127 -0.9040
 5462SOL    HW227849   0.177   1.456   2.544  0.8530 -0.3352 -0.6758
 5463SOL     OW27850   3.748   1.170  15.802 -0.2206  0.1263 -0.1391
 5463SOL    HW127851   3.704   1.094  15.840  0.9998 -1.5622 -2.0810
 5463SOL    HW227852   3.826   1.125  15.767  0.7182  2.7249 -1.3933
 5464SOL     OW27853   2.592   1.611   8.869  0.1543  0.1493 -0.4536
 5464SOL    HW127854   2.626   1.522   8.873  2.2648  1.0353  1.2202
 5464SOL    HW227855   2.496   1.601   8.872 -0.0344  1.7679 -1.3802
 5465SOL     OW27856   3.694   0.098  15.031 -0.1838  0.0140  0.1424
 5465SOL    HW127857   3.681   0.006  15.055  1.6853  0.2485  1.9294
 5465SOL    HW227858   3.789   0.105  15.028 -0.0873 -0.5652  1.7215
 5466SOL     OW27859   2.569   3.652   7.510 -0.1269  0.2997 -0.0405
 5466SOL    HW127860   2.628   3.578   7.495 -0.6951  0.0471 -1.0179
 5466SOL    HW227861   2.485   3.606   7.520  0.9773 -1.7825 -0.2980
 5467SOL     OW27862   1.385   0.734  17.496 -0.0377  0.2296  0.4061
 5467SOL    HW127863   1.431   0.666  17.445  0.3661 -1.0531  2.4656
 5467SOL    HW227864   1.302   0.727  17.448  2.1913  1.4632 -3.6941
 5468SOL     OW27865   0.767   4.037   4.615 -0.4067 -0.1972  0.2643
 5468SOL    HW127866   0.704   4.023   4.686 -1.6387  0.3894 -0.7125
 5468SOL    HW227867   0.765   3.951   4.574  2.5874  0.3075 -0.9976
 5469SOL     OW27868   2.471   3.866  13.011  0.3048 -0.2575  0.3276
 5469SOL    HW127869   2.499   3.791  13.063 -0.4784  0.3384  1.6246
 5469SOL    HW227870   2.549   3.920  13.002  0.9024 -1.1801 -0.0528
 5470SOL     OW27871   3.841   3.239   7.129  0.2181  0.2031  0.6877
 5470SOL    HW127872   3.755   3.281   7.116 -0.2141 -1.2358 -1.1827
 5470SOL    HW227873   3.811   3.172   7.190 -0.7430  0.6030  0.6663
 5471SOL     OW27874   0.531   2.666   4.695 -0.2940 -0.4236 -0.6594
 5471SOL    HW127875   0.452   2.712   4.725  0.1537  0.6396 -1.1183
 5471SOL    HW227876   0.509   2.651   4.603 -0.6849  0.6258 -0.7402
 5472SOL     OW27877   0.176   1.998   6.670  0.3140 -0.4961  0.0521
 5472SOL    HW127878   0.221   1.950   6.602 -0.1369  1.2390 -1.4668
 5472SOL    HW227879   0.099   2.033   6.625 -0.2478 -0.5860  0.9491
 5473SOL     OW27880   4.456   2.944   8.770 -1.0043 -0.1682  0.2812
 5473SOL    HW127881   4.473   2.853   8.746 -2.8238 -0.5388  0.4450
 5473SOL    HW227882   4.464   2.939   8.865 -0.1865  4.4930  0.4523
 5474SOL     OW27883   2.715   0.472  17.474 -0.2414 -0.1885  0.0624
 5474SOL    HW127884   2.691   0.488  17.382 -1.4711  3.2222  0.9710
 5474SOL    HW227885   2.802   0.434  17.467  0.4806  1.5780 -0.5314
 5475SOL     OW27886   0.882   1.643   8.853  0.6171  0.6110 -0.2920
 5475SOL    HW127887   0.858   1.714   8.913  0.7054  0.9234 -0.6280
 5475SOL    HW227888   0.974   1.668   8.847  0.7637 -0.4068 -2.3513
 5476SOL     OW27889   2.210   1.088   3.743  0.5342  0.2962 -0.0752
 5476SOL    HW127890   2.205   1.150   3.670  0.3509 -0.4179 -0.6726
 5476SOL    HW227891   2.123   1.050   3.734  0.8950 -0.6116  0.3092
 5477SOL     OW27892   3.669   4.713   3.908  0.1813 -0.0747  0.2472
 5477SOL    HW127893   3.764   4.709   3.897 -0.1399  0.9357 -2.7255
 5477SOL    HW227894   3.659   0.052   3.978 -1.4059  0.1841 -0.2084
 5478SOL     OW27895   2.366   0.165   0.663 -0.4777  0.0524  0.4526
 5478SOL    HW127896   2.310   0.218   0.719  0.5433  0.8754  0.7108
 5478SOL    HW227897   2.332   0.173   0.574 -3.2968 -1.1186  1.4378
 5479SOL     OW27898   1.276   4.408  13.699 -0.1637 -0.6447  0.1568
 5479SOL    HW127899   1.220   4.365  13.634 -1.7798 -1.6098  2.1667
 5479SOL    HW227900   1.348   4.348  13.720 -0.0068 -0.4932  0.0434
 5480SOL     OW27901   4.380   1.847   3.171 -0.4231 -0.4928  0.0050
 5480SOL    HW127902   4.472   1.856   3.196 -0.3196  0.2889 -0.6543
 5480SOL    HW227903   4.380   1.900   3.091  0.2447 -1.3196 -0.5504
 5481SOL     OW27904   4.527   1.858   2.600 -0.2389  0.4082 -0.1166
 5481SOL    HW127905   4.495   1.942   2.631  0.5073  0.2578  1.0783
 5481SOL    HW227906   4.458   1.844   2.535  0.6286 -1.0749 -0.7220
 5482SOL     OW27907   4.464   2.411  10.907 -0.1780 -0.3870 -0.0708
 5482SOL    HW127908   4.507   2.334  10.946  0.1355 -0.4592 -0.5545
 5482SOL    HW227909   4.511   2.420  10.824  2.0657  3.1563  1.5689
 5483SOL     OW27910   0.091   4.209   4.078 -0.3274 -0.1870  0.5094
 5483SOL    HW127911   0.107   4.301   4.056 -1.7577  0.1470  0.8930
 5483SOL    HW227912   0.152   4.189   4.149 -0.4144  1.5231  1.0722
 5484SOL     OW27913   2.343   0.346   5.938  0.0278 -0.2429  0.2768
 5484SOL    HW127914   2.371   0.332   6.029  3.1812 -1.2198 -0.8276
 5484SOL    HW227915   2.285   0.269   5.937  0.5277 -0.6511  1.9895
 5485SOL     OW27916   0.871   1.863  10.099 -0.1995 -0.2713 -0.0408
 5485SOL    HW127917   0.840   1.782  10.139 -1.3097  0.6880  1.0378
 5485SOL    HW227918   0.960   1.871  10.132 -0.3922  0.8587  0.2142
 5486SOL     OW27919   0.986   4.575  13.331  0.1304  0.2929 -0.3360
 5486SOL    HW127920   1.012   4.551  13.420  0.8243  2.1474 -0.0330
 5486SOL    HW227921   0.893   4.556  13.328  0.0035  0.8580  0.0080
 5487SOL     OW27922   3.690   2.701   8.855 -0.1768 -0.5299 -0.1075
 5487SOL    HW127923   3.786   2.698   8.865 -0.2436  1.3713  1.2389
 5487SOL    HW227924   3.676   2.792   8.882  0.8122  0.3580 -2.6024
 5488SOL     OW27925   0.105   4.439   8.753 -0.4723  0.4534  0.2922
 5488SOL    HW127926   0.081   4.408   8.840 -1.7513  1.2396  0.2348
 5488SOL    HW227927   0.156   4.366   8.719 -0.6422  1.2086 -1.5960
 5489SOL     OW27928   3.916   2.293  11.947  0.4842  0.0208 -0.2429
 5489SOL    HW127929   3.852   2.338  11.891  1.1097  0.8900 -0.2654
 5489SOL    HW227930   3.860   2.225  11.986  0.7936 -2.0132 -3.3165
 5490SOL     OW27931   1.002   2.904  16.451 -0.3976 -0.5664 -0.7800
 5490SOL    HW127932   0.941   2.848  16.403  0.4767  0.4022 -3.0328
 5490SOL    HW227933   1.074   2.840  16.457  0.8375  0.9870  1.1618
 5491SOL     OW27934   0.640   1.445   5.948 -0.3660  0.0131 -0.5756
 5491SOL    HW127935   0.724   1.428   5.992 -0.1177 -1.8001 -1.7511
 5491SOL    HW227936   0.656   1.409   5.861  1.6759 -0.2701 -0.0908
 5492SOL     OW27937   3.473   0.058   6.037 -0.0372  0.1412 -0.3839
 5492SOL    HW127938   3.561   0.022   6.051 -1.1344 -2.3590 -0.0720
 5492SOL    HW227939   3.467   0.111   6.117  1.9752 -1.7803  1.0331
 5493SOL     OW27940   3.876   0.323   3.371  0.0665 -0.5838  0.1301
 5493SOL    HW127941   3.853   0.379   3.296  3.4362  1.7464  0.8314
 5493SOL    HW227942   3.911   0.243   3.333 -0.7114 -0.8129 -0.1081
 5494SOL     OW27943   4.519   0.534   5.676  0.2059  0.2160  0.4270
 5494SOL    HW127944   4.530   0.615   5.727 -0.5424  0.5191  0.0987
 5494SOL    HW227945   4.432   0.504   5.701  0.2333  1.8693  2.5910
 5495SOL     OW27946   1.508   2.800   7.719 -0.4155  0.0801  0.1664
 5495SOL    HW127947   1.602   2.817   7.714 -0.0376 -2.7929 -2.6668
 5495SOL    HW227948   1.485   2.849   7.798  0.1186  0.2357  0.2223
 5496SOL     OW27949   3.760   2.378   5.600 -0.2305  0.1585 -0.5508
 5496SOL    HW127950   3.753   2.295   5.647  2.2780  1.1709  1.6115
 5496SOL    HW227951   3.783   2.426   5.680 -1.1878  1.3512 -0.9951
 5497SOL     OW27952   2.713   3.467   3.081 -0.0153 -0.2286 -0.5211
 5497SOL    HW127953   2.707   3.546   3.027 -0.7479 -1.2165 -1.9058
 5497SOL    HW227954   2.766   3.421   3.016  0.2152 -0.4800 -0.1514
 5498SOL     OW27955   4.407   4.306   2.054 -0.1985  0.3704 -0.2463
 5498SOL    HW127956   4.420   4.387   2.004 -1.1391  1.2990  0.9951
 5498SOL    HW227957   4.387   4.353   2.135  0.6626  1.4418 -0.6523
 5499SOL     OW27958   0.438   0.451   0.078  0.2558 -0.1141 -0.3947
 5499SOL    HW127959   0.372   0.480   0.141  2.4244  0.4357  1.6039
 5499SOL    HW227960   0.510   0.427   0.136  1.9188  0.7420 -2.1240
 5500SOL     OW27961   4.696   3.001  10.083 -0.0768 -0.2479  0.0913
 5500SOL    HW127962   4.683   3.071  10.147  1.7007 -0.0298  0.2046
 5500SOL    HW227963   4.602   3.000  10.066 -0.4333 -0.3428  2.0314
 5501SOL     OW27964   1.333   2.196   3.887  0.1215  0.1001  0.2522
 5501SOL    HW127965   1.331   2.178   3.981  1.8866 -1.0161  0.0748
 5501SOL    HW227966   1.244   2.197   3.851 -0.3944 -4.2209  1.3999
 5502SOL     OW27967   1.216   3.841   8.301 -0.2016  0.5242 -0.5543
 5502SOL    HW127968   1.208   3.773   8.235 -0.9259  0.2713 -0.2092
 5502SOL    HW227969   1.123   3.859   8.316 -0.2215  0.5808 -0.7424
 5503SOL     OW27970   3.955   0.459  16.997 -0.1941  0.3209  0.0478
 5503SOL    HW127971   3.901   0.391  17.038  0.9514 -1.1744 -0.9375
 5503SOL    HW227972   3.909   0.542  17.011 -1.2120 -0.3864  0.9460
 5504SOL     OW27973   0.770   4.475  11.023 -0.4046 -0.2864  0.4566
 5504SOL    HW127974   0.689   4.487  11.073  0.1937 -1.2712  1.6763
 5504SOL    HW227975   0.729   4.460  10.938 -0.8022 -0.2137  0.6308
 5505SOL     OW27976   1.531   4.314   4.116 -0.1201 -0.1948  0.0386
 5505SOL    HW127977   1.566   4.257   4.047 -2.2729 -1.1561 -0.2470
 5505SOL    HW227978   1.523   4.252   4.188 -3.1667  1.4658  1.1104
 5506SOL     OW27979   0.329   3.685   5.722  0.0227  0.0598 -0.3993
 5506SOL    HW127980   0.275   3.621   5.768 -0.3708  1.5692  1.2477
 5506SOL    HW227981   0.410   3.634   5.723 -0.1527 -0.2391 -1.7457
 5507SOL     OW27982   4.102   4.024   6.448 -1.1343 -0.5285 -0.4064
 5507SOL    HW127983   4.085   4.042   6.541 -1.3705  2.7923 -1.1015
 5507SOL    HW227984   4.122   3.931   6.455 -2.0826 -0.9936 -3.9524
 5508SOL     OW27985   4.047   0.063   8.600 -0.0778 -0.0854  0.4177
 5508SOL    HW127986   3.984   0.018   8.655  0.3112  0.8616  1.6361
 5508SOL    HW227987   4.094   0.110   8.668 -0.9111  0.7608  0.4157
 5509SOL     OW27988   0.971   4.131   6.095  0.9839  0.1344 -0.1080
 5509SOL    HW127989   1.017   4.148   6.012  1.2381 -2.1711 -0.4197
 5509SOL    HW227990   1.018   4.053   6.122 -0.1154  0.1455  1.8277
 5510SOL     OW27991   1.840   1.004   8.685  0.7255 -0.1591 -0.0677
 5510SOL    HW127992   1.834   0.961   8.600  1.6374  1.7319 -1.1087
 5510SOL    HW227993   1.761   0.976   8.731  0.0924 -0.1373 -1.1572
 5511SOL     OW27994   2.213   1.114   4.990  0.4385 -0.2760 -0.2280
 5511SOL    HW127995   2.286   1.106   4.928 -0.1269 -1.0604 -0.7851
 5511SOL    HW227996   2.230   1.043   5.052  0.3663  0.0484  0.1622
 5512SOL     OW27997   2.500   2.515   8.254 -0.0891  0.0343  0.2112
 5512SOL    HW127998   2.405   2.518   8.248  0.0122  2.9173  0.1111
 5512SOL    HW227999   2.507   2.467   8.336 -0.3787 -0.5906 -0.1306
 5513SOL     OW28000   0.051   4.712   8.141 -0.0031  0.3680 -0.0811
 5513SOL    HW128001   0.016   4.660   8.068 -0.3245  0.0155  0.3302
 5513SOL    HW228002   0.143   4.713   8.116 -0.7178  0.3155 -2.7483
 5514SOL     OW28003   2.336   3.406  14.915 -0.3337  0.0286  0.4047
 5514SOL    HW128004   2.408   3.401  14.852  0.9338  2.6018  1.6728
 5514SOL    HW228005   2.271   3.345  14.878 -0.7085  0.4210  0.4190
 5515SOL     OW28006   3.381   0.189  16.703  0.4441 -0.1810  0.5405
 5515SOL    HW128007   3.396   0.211  16.611  2.1343 -0.6044  0.7257
 5515SOL    HW228008   3.311   0.125  16.695 -1.7170  1.9850  2.1409
 5516SOL     OW28009   2.158   1.623   1.977 -0.3132 -0.0033 -0.0145
 5516SOL    HW128010   2.147   1.565   2.052 -1.7835 -0.2246 -0.3982
 5516SOL    HW228011   2.252   1.616   1.958 -0.2770 -1.8000  0.8137
 5517SOL     OW28012   4.208   1.483   7.602 -0.2496  0.0594 -0.7518
 5517SOL    HW128013   4.262   1.481   7.523 -0.9126 -2.0700 -1.1395
 5517SOL    HW228014   4.275   1.489   7.670  0.2417 -1.3671 -1.1189
 5518SOL     OW28015   4.497   1.667   5.021  0.1122  0.2696 -0.0918
 5518SOL    HW128016   4.483   1.716   5.102  3.3350  2.0893 -0.6233
 5518SOL    HW228017   4.592   1.662   5.032  0.2187  0.5979 -0.8562
 5519SOL     OW28018   0.844   2.510   3.780 -0.8727  0.2758 -0.4324
 5519SOL    HW128019   0.804   2.587   3.741  0.2372 -0.2333 -2.5908
 5519SOL    HW228020   0.936   2.518   3.756 -1.0950  0.2360 -1.2649
 5520SOL     OW28021   3.411   4.199   2.868 -0.6509 -0.3045 -0.2821
 5520SOL    HW128022   3.460   4.155   2.799  1.2258  0.8766  0.2933
 5520SOL    HW228023   3.433   4.138   2.939 -0.4490 -1.5600 -1.4212
 5521SOL     OW28024   3.387   3.746   4.675  0.6826 -0.5104  0.1884
 5521SOL    HW128025   3.411   3.706   4.591 -1.8629 -0.7090 -0.4505
 5521SOL    HW228026   3.293   3.731   4.673  0.0998  3.1716 -0.6915
 5522SOL     OW28027   4.519   3.500   6.724  0.8584  0.8333  0.0019
 5522SOL    HW128028   4.466   3.485   6.803  1.2942  1.3213  0.3878
 5522SOL    HW228029   4.496   3.592   6.712 -1.5183  0.0458 -1.5006
 5523SOL     OW28030   1.793   4.682   9.663 -0.3633 -0.3212  0.6537
 5523SOL    HW128031   1.793   4.596   9.704  0.9704 -1.1632 -1.0885
 5523SOL    HW228032   1.790   0.015   9.739 -2.0158 -1.0345  1.1316
 5524SOL     OW28033   0.943   3.705  13.400 -0.0366  0.0870 -1.2776
 5524SOL    HW128034   0.979   3.737  13.483  1.4385 -0.5960 -1.6539
 5524SOL    HW228035   0.930   3.790  13.357 -1.3399  1.9134  2.6952
 5525SOL     OW28036   2.014   4.218   6.068 -0.4061  0.4881  0.0864
 5525SOL    HW128037   2.040   4.303   6.032  2.0445 -0.4274 -0.2703
 5525SOL    HW228038   2.010   4.252   6.157  0.2653 -0.4606  0.4652
 5526SOL     OW28039   1.667   1.900  11.767 -0.2341 -0.2612  0.3482
 5526SOL    HW128040   1.731   1.856  11.711 -0.1596 -0.2992  0.4639
 5526SOL    HW228041   1.711   1.905  11.852  0.8137 -2.5273 -0.0494
 5527SOL     OW28042   2.585   4.014  12.745  0.1937  0.1288  0.5999
 5527SOL    HW128043   2.544   4.079  12.688  1.5169  1.0788  0.7200
 5527SOL    HW228044   2.507   3.973  12.781 -0.5246  1.6456  0.7641
 5528SOL     OW28045   4.120   1.938   1.490 -0.2044  0.1919 -0.3886
 5528SOL    HW128046   4.057   1.918   1.421  1.5748 -1.8549 -1.4128
 5528SOL    HW228047   4.183   2.001   1.455  1.6841 -1.1631  0.6037
 5529SOL     OW28048   3.196   2.081   8.180 -0.1124 -0.4729  0.3068
 5529SOL    HW128049   3.185   2.109   8.089  0.9943 -1.4838 -0.1354
 5529SOL    HW228050   3.286   2.049   8.175 -0.3968 -0.9439 -1.7384
 5530SOL     OW28051   3.984   0.061   0.578  0.0115 -0.4891  0.7481
 5530SOL    HW128052   3.926   0.021   0.643 -1.3511 -0.0714 -0.1961
 5530SOL    HW228053   3.930   0.136   0.554 -0.1548 -0.7203  0.3801
 5531SOL     OW28054   2.810   4.091   5.118  0.3455 -0.1941 -0.2377
 5531SOL    HW128055   2.748   4.101   5.191 -2.4516 -0.7200 -2.5615
 5531SOL    HW228056   2.869   4.165   5.134 -1.4686  0.6526  2.6930
 5532SOL     OW28057   4.532   0.155   8.574 -0.0130  0.1083  0.0646
 5532SOL    HW128058   4.440   0.176   8.557  0.2545  0.6990 -0.6785
 5532SOL    HW228059   4.541   0.065   8.604 -1.5052  0.6635  2.2205
 5533SOL     OW28060   2.445   0.889  16.531  0.2038 -0.2558 -0.2287
 5533SOL    HW128061   2.421   0.960  16.590  0.8948  0.1647 -0.4617
 5533SOL    HW228062   2.539   0.900  16.520  0.4259 -1.0489  0.8099
 5534SOL     OW28063   1.061   3.654  15.632  0.0286 -0.5063 -0.5718
 5534SOL    HW128064   1.011   3.723  15.675  2.2908  1.3941 -1.0028
 5534SOL    HW228065   0.997   3.620  15.570  0.3117 -1.5848 -0.2743
 5535SOL     OW28066   2.919   0.250  13.449 -0.1959  0.0313  0.5556
 5535SOL    HW128067   2.962   0.220  13.529 -0.5177 -0.9425  0.3619
 5535SOL    HW228068   2.926   0.170  13.396  0.6201  0.3399  0.1920
 5536SOL     OW28069   4.446   4.192   6.083 -0.4728 -0.4596 -0.1094
 5536SOL    HW128070   4.426   4.285   6.088 -1.4031 -0.6865  0.4593
 5536SOL    HW228071   4.386   4.161   6.150  1.0219  0.1919  1.5216
 5537SOL     OW28072   2.795   4.098   6.788  0.2079 -0.2230  0.3013
 5537SOL    HW128073   2.876   4.054   6.815  2.1313  2.4787 -0.9357
 5537SOL    HW228074   2.784   4.175   6.844  1.3606 -1.1186  1.7585
 5538SOL     OW28075   0.659   1.828   7.710 -0.3797  0.0225  0.4287
 5538SOL    HW128076   0.638   1.797   7.622 -0.0837 -0.3573  0.4906
 5538SOL    HW228077   0.754   1.837   7.701 -0.2005 -0.4651  1.9018
 5539SOL     OW28078   2.788   4.610   3.057 -0.1933  0.4004 -0.6596
 5539SOL    HW128079   2.877   4.643   3.052 -0.0609  0.2096  0.5425
 5539SOL    HW228080   2.746   4.631   2.973 -2.3565  1.4657  0.6764
 5540SOL     OW28081   1.271   1.499   0.521 -0.1256  0.4499 -0.2897
 5540SOL    HW128082   1.186   1.538   0.502  0.0571  1.0743  0.1696
 5540SOL    HW228083   1.325   1.551   0.461 -1.0888  1.6412 -0.1203
 5541SOL     OW28084   1.653   1.806  16.791 -0.5399 -0.1677 -0.3376
 5541SOL    HW128085   1.564   1.773  16.807 -1.1403 -0.7521 -5.0132
 5541SOL    HW228086   1.642   1.888  16.839 -0.6461  1.5016 -3.2156
 5542SOL     OW28087   4.541   0.798  12.715 -0.1770  0.1012  0.6751
 5542SOL    HW128088   4.492   0.762  12.789 -1.6031  1.1933  0.2556
 5542SOL    HW228089   4.629   0.815  12.749 -0.0034  0.1157  0.2094
 5543SOL     OW28090   1.676   4.288  14.993 -0.1919 -0.5282 -0.0455
 5543SOL    HW128091   1.627   4.365  15.022 -0.4377 -0.4849 -0.5857
 5543SOL    HW228092   1.661   4.287  14.899 -2.3152  2.4521  0.2570
 5544SOL     OW28093   1.305   3.489   7.750 -0.1885  0.1395 -0.3054
 5544SOL    HW128094   1.241   3.491   7.679 -0.8227 -1.7374  0.2281
 5544SOL    HW228095   1.262   3.418   7.798 -1.1927  1.1561  0.3099
 5545SOL     OW28096   0.386   1.434   4.508 -0.2786  0.0977 -0.3554
 5545SOL    HW128097   0.349   1.414   4.422 -1.4532 -1.3097  0.4681
 5545SOL    HW228098   0.426   1.517   4.484 -0.2892  0.7627  1.8878
 5546SOL     OW28099   2.433   1.833   2.474 -0.7306  0.3259 -0.2179
 5546SOL    HW128100   2.370   1.795   2.413  1.9747  1.0032 -3.4018
 5546SOL    HW228101   2.413   1.925   2.455 -0.4946  0.1968 -1.0888
 5547SOL     OW28102   4.192   3.355   0.352  0.3034  0.2652  0.8499
 5547SOL    HW128103   4.266   3.342   0.292  0.7681 -0.9460  1.6968
 5547SOL    HW228104   4.114   3.375   0.300  2.1175  1.8023 -1.2848
 5548SOL     OW28105   3.287   1.028   8.202 -0.0327  0.1504  0.1952
 5548SOL    HW128106   3.322   0.939   8.207  1.0617  0.6060  0.8507
 5548SOL    HW228107   3.365   1.079   8.227 -0.7173  2.1274 -1.7103
 5549SOL     OW28108   1.285   3.382   8.509 -0.6785  0.0321  0.2430
 5549SOL    HW128109   1.294   3.469   8.549 -1.6710 -0.0523  0.6406
 5549SOL    HW228110   1.198   3.353   8.533 -1.0665  1.4506  0.5839
 5550SOL     OW28111   1.091   4.256  13.205 -0.3504  0.2254  0.1073
 5550SOL    HW128112   1.028   4.248  13.277 -1.6042 -1.5269 -1.1953
 5550SOL    HW228113   1.167   4.298  13.246  0.1519 -0.7455  0.1493
 5551SOL     OW28114   0.364   3.884  15.818 -0.3221 -0.1058  0.2564
 5551SOL    HW128115   0.328   3.869  15.905  1.2854  2.9098  1.4520
 5551SOL    HW228116   0.325   3.803  15.786  3.0287 -0.6324 -2.4831
 5552SOL     OW28117   1.142   0.694   6.559 -0.0316  0.1875 -0.3185
 5552SOL    HW128118   1.099   0.617   6.596 -1.4139  2.0109  1.9403
 5552SOL    HW228119   1.069   0.744   6.522 -0.6402  0.7590  1.6411
 5553SOL     OW28120   3.284   0.209  16.994  0.1438  0.1791 -0.1250
 5553SOL    HW128121   3.319   0.227  16.907  0.0995 -0.9328 -0.3703
 5553SOL    HW228122   3.365   0.168  17.024 -1.3910 -2.8963 -0.0817
 5554SOL     OW28123   3.860   3.901   2.622  0.0446  0.3839 -0.7552
 5554SOL    HW128124   3.808   3.823   2.640  0.2362 -0.0264 -2.0006
 5554SOL    HW228125   3.885   3.884   2.531  1.5345  3.5477 -0.9421
 5555SOL     OW28126   2.556   3.506   8.664 -0.1338  0.2947  0.6194
 5555SOL    HW128127   2.512   3.586   8.689  0.8881  0.4685  1.8478
 5555SOL    HW228128   2.602   3.541   8.588 -0.5086  0.8221  0.6405
 5556SOL     OW28129   3.261   1.915   1.650 -0.6768 -0.2187  0.4656
 5556SOL    HW128130   3.262   1.958   1.564 -0.7727  0.7154  0.9302
 5556SOL    HW228131   3.352   1.918   1.678 -0.5208  1.7344 -0.2499
 5557SOL     OW28132   0.459   1.874   4.224 -0.0397  0.3755 -0.2795
 5557SOL    HW128133   0.370   1.909   4.223 -0.7263 -1.4485 -2.4118
 5557SOL    HW228134   0.515   1.937   4.179 -1.4867  1.2826 -0.7920
 5558SOL     OW28135   4.535   0.971   9.196  0.2733 -0.1061 -0.1853
 5558SOL    HW128136   4.448   1.009   9.194  0.2935 -0.0334  0.4038
 5558SOL    HW228137   4.567   0.998   9.110 -1.6476  1.0039 -0.5366
 5559SOL     OW28138   0.200   1.257   3.954  0.2187 -0.6848  0.2459
 5559SOL    HW128139   0.129   1.244   3.891  0.9918  0.8960 -0.9450
 5559SOL    HW228140   0.183   1.186   4.017  1.0232 -0.2441  0.9646
 5560SOL     OW28141   4.411   0.569  13.234  0.0180  0.1642 -0.0419
 5560SOL    HW128142   4.332   0.615  13.263 -1.0602 -0.4174 -2.0631
 5560SOL    HW228143   4.415   0.502  13.301 -0.2901 -1.0319 -1.2309
 5561SOL     OW28144   1.195   2.288   6.210  0.3541  0.1895  0.3669
 5561SOL    HW128145   1.202   2.269   6.116 -1.5022 -0.1513  0.2883
 5561SOL    HW228146   1.174   2.203   6.249 -1.8038  0.6499  0.1804
 5562SOL     OW28147   1.354   3.131   9.407  0.3398 -0.0855  0.5933
 5562SOL    HW128148   1.296   3.192   9.453  0.4864 -0.0642  0.7491
 5562SOL    HW228149   1.301   3.052   9.419  1.0409 -0.1139  3.3955
 5563SOL     OW28150   4.198   1.066   0.838  0.6926  0.2020  0.3963
 5563SOL    HW128151   4.236   1.107   0.916 -2.6707 -0.8013  2.5393
 5563SOL    HW228152   4.239   0.980   0.833 -0.3014 -0.2787  0.5508
 5564SOL     OW28153   0.283   2.850   7.724  0.0816 -0.1553  0.7304
 5564SOL    HW128154   0.332   2.931   7.710  2.3584 -1.4592  1.1842
 5564SOL    HW228155   0.352   2.799   7.766 -0.4274  1.0977  3.0625
 5565SOL     OW28156   2.509   2.518   7.691  1.1023 -0.3879  0.2944
 5565SOL    HW128157   2.465   2.433   7.681 -2.3315  1.3392  0.9800
 5565SOL    HW228158   2.501   2.534   7.785  2.0008  2.9666 -0.2203
 5566SOL     OW28159   0.264   3.876  13.756 -0.0148  0.1508  0.0377
 5566SOL    HW128160   0.319   3.813  13.802  0.8007  1.1266  0.4187
 5566SOL    HW228161   0.263   3.955  13.811  0.2875 -0.2841  0.6596
 5567SOL     OW28162   2.776   0.627   4.386 -0.2957  0.1225 -0.4653
 5567SOL    HW128163   2.760   0.614   4.480  4.1193  0.4075  0.3275
 5567SOL    HW228164   2.869   0.603   4.391 -0.9043 -1.8504  1.5897
 5568SOL     OW28165   1.308   1.854   3.713 -0.4593  0.0763  0.3415
 5568SOL    HW128166   1.351   1.911   3.650 -1.1468  0.0939 -0.1121
 5568SOL    HW228167   1.371   1.873   3.782 -1.4037  0.6419  1.0410
 5569SOL     OW28168   4.163   3.136   3.350 -0.2181  0.2755  0.4713
 5569SOL    HW128169   4.119   3.122   3.266  1.3397  2.8196 -0.7769
 5569SOL    HW228170   4.247   3.109   3.311  0.2024 -0.7217  2.0757
 5570SOL     OW28171   3.839   2.241  17.484  0.7321 -0.3372  0.1481
 5570SOL    HW128172   3.911   2.289  17.444 -1.1755  2.8299  0.4976
 5570SOL    HW228173   3.858   2.241  17.578 -0.1918  0.8057  0.3401
 5571SOL     OW28174   1.623   3.673  10.819 -0.1716 -0.1957  0.3743
 5571SOL    HW128175   1.644   3.639  10.733 -0.0433  0.5658  0.1085
 5571SOL    HW228176   1.625   3.595  10.876  0.2308 -0.4661 -0.0124
 5572SOL     OW28177   3.347   2.366   1.560 -0.4067 -1.2299  0.1284
 5572SOL    HW128178   3.278   2.427   1.533 -0.5978 -1.2256  0.6293
 5572SOL    HW228179   3.359   2.381   1.654  1.0023  0.6291 -0.3455
 5573SOL     OW28180   1.991   0.788   7.984  0.3347  0.1156 -0.9233
 5573SOL    HW128181   2.022   0.710   8.029 -0.7107  1.8952  2.9468
 5573SOL    HW228182   2.047   0.858   8.017 -1.0845  1.8635 -2.1723
 5574SOL     OW28183   0.016   0.245  16.978  0.0907 -0.5705 -0.4439
 5574SOL    HW128184   4.672   0.205  17.031 -0.7179 -3.5164 -3.7120
 5574SOL    HW228185   0.091   0.210  17.025 -0.0233 -0.0045  0.1562
 5575SOL     OW28186   0.657   3.472   8.088 -0.0801 -0.0702  0.1398
 5575SOL    HW128187   0.748   3.497   8.101 -0.0994  0.6527 -1.1851
 5575SOL    HW228188   0.626   3.530   8.019 -0.0762  1.0997  1.1289
 5576SOL     OW28189   2.030   0.544   8.131 -0.2416 -0.1167  0.5086
 5576SOL    HW128190   1.936   0.542   8.114  0.6172 -0.4384 -4.0868
 5576SOL    HW228191   2.058   0.466   8.084  0.2299  0.0838  0.4609
 5577SOL     OW28192   2.027   2.502   9.310 -0.1267 -0.1860 -0.3604
 5577SOL    HW128193   2.022   2.597   9.323 -3.7295 -0.2964 -1.0827
 5577SOL    HW228194   1.977   2.489   9.229 -1.1473  1.4453  0.0192
 5578SOL     OW28195   0.994   2.588   2.842  0.2470 -0.3268  1.0181
 5578SOL    HW128196   0.938   2.511   2.849 -1.7491  0.8750 -1.9673
 5578SOL    HW228197   0.936   2.633   2.781 -0.0969 -1.2989  0.6414
 5579SOL     OW28198   3.537   0.855   4.516 -0.5755  0.2907 -0.0165
 5579SOL    HW128199   3.609   0.899   4.562 -2.0066  2.2596  0.3467
 5579SOL    HW228200   3.487   0.831   4.594 -1.0898 -1.5577 -0.9197
 5580SOL     OW28201   0.510   1.827   7.263 -0.6569 -0.5759 -0.0403
 5580SOL    HW128202   0.443   1.895   7.252 -1.0658 -0.8726  0.6477
 5580SOL    HW228203   0.482   1.746   7.221 -2.6605  0.3993 -0.6264
 5581SOL     OW28204   3.809   3.254   9.380  0.0480 -0.1042 -0.0273
 5581SOL    HW128205   3.797   3.324   9.315  1.3325  0.5383  0.4285
 5581SOL    HW228206   3.776   3.296   9.460 -0.4811 -0.6427  0.0327
 5582SOL     OW28207   2.263   1.163  15.174  0.3187 -0.0521  0.3424
 5582SOL    HW128208   2.326   1.096  15.203 -0.7217 -1.3216 -0.3584
 5582SOL    HW228209   2.330   1.224  15.144 -0.3540  1.7721  2.5083
 5583SOL     OW28210   1.668   4.179   6.225 -0.4840 -0.4251  0.0946
 5583SOL    HW128211   1.737   4.173   6.159  0.2823 -1.2640  0.9709
 5583SOL    HW228212   1.599   4.228   6.181  1.3698  1.9909 -0.1592
 5584SOL     OW28213   2.784   3.232   5.728  0.1702 -0.1979  0.3728
 5584SOL    HW128214   2.798   3.152   5.678 -0.1748  1.0283 -1.6580
 5584SOL    HW228215   2.689   3.235   5.725  0.1364 -1.7753 -0.1336
 5585SOL     OW28216   0.835   0.626   6.467  0.0289 -0.3064 -0.3315
 5585SOL    HW128217   0.784   0.614   6.387 -0.5737  2.1995 -0.3258
 5585SOL    HW228218   0.897   0.697   6.449 -0.8743 -0.0801 -2.4854
 5586SOL     OW28219   1.301   3.069   8.618  0.3362  0.4876  1.0335
 5586SOL    HW128220   1.388   3.035   8.641 -0.3904 -0.9130  1.6683
 5586SOL    HW228221   1.281   3.132   8.688 -2.2805 -0.0363  0.7491
 5587SOL     OW28222   3.530   0.499   3.382  0.3268  0.2802  0.2882
 5587SOL    HW128223   3.444   0.517   3.344  0.6416  1.4156  0.1047
 5587SOL    HW228224   3.588   0.561   3.337 -2.0927  1.4813 -1.2045
 5588SOL     OW28225   3.972   0.631   7.513 -0.1586 -0.3837 -0.1259
 5588SOL    HW128226   4.065   0.618   7.494 -0.4034  0.5571 -1.9093
 5588SOL    HW228227   3.969   0.725   7.497 -1.4895 -0.1626  1.4099
 5589SOL     OW28228   2.042   3.698   3.768  0.1667  0.4361  0.5386
 5589SOL    HW128229   1.992   3.620   3.792 -2.8830  1.3305 -2.9294
 5589SOL    HW228230   1.982   3.766   3.800 -0.4265  0.4602 -0.6245
 5590SOL     OW28231   4.470   1.346   6.042 -0.3249  0.6735 -0.5170
 5590SOL    HW128232   4.463   1.323   5.949  3.0958  2.2713 -1.1605
 5590SOL    HW228233   4.418   1.278   6.085  1.6635  0.2391  1.2172
 5591SOL     OW28234   0.577   1.228  15.824 -0.4450  0.0634  0.0024
 5591SOL    HW128235   0.640   1.163  15.853 -1.7632 -1.9097 -1.4940
 5591SOL    HW228236   0.492   1.183  15.833 -0.9746  0.7379 -1.6409
 5592SOL     OW28237   1.326   2.781   4.350 -0.4113 -0.1595  0.0503
 5592SOL    HW128238   1.356   2.727   4.423  2.6220  0.0194 -1.0813
 5592SOL    HW228239   1.340   2.870   4.384 -1.0845 -0.5570  1.3761
 5593SOL     OW28240   1.433   1.425   4.397 -0.3985  0.2975  0.3179
 5593SOL    HW128241   1.471   1.430   4.485  0.2644  1.9302 -0.0566
 5593SOL    HW228242   1.356   1.372   4.419 -0.6520  0.3830 -0.3707
 5594SOL     OW28243   0.544   2.895   4.961 -0.7202 -0.2509 -0.3008
 5594SOL    HW128244   0.621   2.843   4.982 -0.6275 -0.2441 -0.6308
 5594SOL    HW228245   0.474   2.834   4.984  0.7849 -1.9665 -0.3493
 5595SOL     OW28246   1.338   2.644  16.119 -0.6190  0.6407  0.1510
 5595SOL    HW128247   1.399   2.571  16.128 -0.4935  0.9010  1.3278
 5595SOL    HW228248   1.399   2.707  16.080  0.4498 -2.1522 -2.7070
 5596SOL     OW28249   2.961   3.133  10.839 -0.1525 -0.0597  0.2267
 5596SOL    HW128250   2.883   3.189  10.835  0.5162  0.8673  0.2564
 5596SOL    HW228251   2.914   3.050  10.829  0.8962 -0.7088  0.7754
 5597SOL     OW28252   4.416   0.683  14.509  0.0734 -0.3250 -0.9531
 5597SOL    HW128253   4.510   0.702  14.508 -0.1947  0.9862 -0.2748
 5597SOL    HW228254   4.410   0.588  14.494  3.7132 -0.5973 -0.8158
 5598SOL     OW28255   0.748   2.188   9.262  0.5105  0.4523 -0.0987
 5598SOL    HW128256   0.739   2.117   9.325  2.3118  1.3222  1.1227
 5598SOL    HW228257   0.740   2.264   9.319 -1.4924 -0.6963  1.1295
 5599SOL     OW28258   4.440   4.098  12.116  0.1630  0.9195  0.3006
 5599SOL    HW128259   4.366   4.153  12.088  0.6640  0.3937 -2.0510
 5599SOL    HW228260   4.459   4.057  12.031 -0.0982  1.8692 -0.2240
 5600SOL     OW28261   3.348   1.808   3.958  0.0930 -0.2895  0.3741
 5600SOL    HW128262   3.397   1.756   3.894 -1.6577  0.8446 -1.9154
 5600SOL    HW228263   3.412   1.841   4.021  0.8910  1.1550 -1.1924
 5601SOL     OW28264   1.958   0.923  16.865 -0.0433 -0.3771  0.5235
 5601SOL    HW128265   1.928   0.996  16.810 -2.4516 -2.2314 -0.6174
 5601SOL    HW228266   1.991   0.873  16.791  1.4337  1.2496  0.0923
 5602SOL     OW28267   0.903   3.251  15.256  0.1920  0.3529  0.1106
 5602SOL    HW128268   0.987   3.221  15.289 -0.4330 -0.0914  1.2837
 5602SOL    HW228269   0.906   3.347  15.259  2.1202  0.2752  0.2139
 5603SOL     OW28270   4.689   0.999  10.325 -0.2822  0.0976 -0.9049
 5603SOL    HW128271   4.719   1.067  10.264  2.0741  2.3792  2.8330
 5603SOL    HW228272   4.691   0.925  10.264 -1.6217  1.7494 -2.9465
 5604SOL     OW28273   1.147   2.451   0.767 -0.4888 -0.3026  0.3630
 5604SOL    HW128274   1.172   2.539   0.794 -3.7275  1.3099 -1.8459
 5604SOL    HW228275   1.183   2.391   0.833 -0.2026 -0.8579 -0.2985
 5605SOL     OW28276   3.300   3.531   9.538 -0.3812 -0.0756  0.2788
 5605SOL    HW128277   3.204   3.539   9.537 -0.4926 -1.3087  0.9263
 5605SOL    HW228278   3.339   3.614   9.565  3.3933 -0.9564 -2.4789
 5606SOL     OW28279   0.683   0.225   7.688  0.0300 -0.0169 -0.7005
 5606SOL    HW128280   0.631   0.290   7.734 -0.0720  0.1566 -1.0543
 5606SOL    HW228281   0.762   0.277   7.675  0.0504  0.2153  0.3929
 5607SOL     OW28282   0.602   2.500   1.667  0.4570 -0.3141  0.2953
 5607SOL    HW128283   0.692   2.501   1.697  0.9406 -4.0932 -1.0167
 5607SOL    HW228284   0.601   2.411   1.632  0.9875 -0.7440  1.3724
 5608SOL     OW28285   0.028   3.407  10.400 -0.5195  0.1138  0.2666
 5608SOL    HW128286   0.010   3.344  10.469  3.0785 -1.9416 -0.6510
 5608SOL    HW228287   0.088   3.460  10.453  1.3021  0.2866 -1.9976
 5609SOL     OW28288   2.396   1.301   1.470 -0.4804 -0.0032 -0.3945
 5609SOL    HW128289   2.354   1.387   1.467  3.0343  1.7673  1.3962
 5609SOL    HW228290   2.478   1.326   1.512 -0.1698 -0.1263 -0.9280
 5610SOL     OW28291   2.955   4.463   9.740 -0.3543  0.0188  0.5032
 5610SOL    HW128292   2.904   4.534   9.701 -0.2956 -0.3675 -0.2564
 5610SOL    HW228293   3.036   4.514   9.743 -0.8070  0.6217  2.8319
 5611SOL     OW28294   4.342   2.409   3.223 -0.0280 -0.1432 -1.0240
 5611SOL    HW128295   4.321   2.316   3.215 -1.5242  0.1580 -0.6133
 5611SOL    HW228296   4.432   2.408   3.190  0.6456 -3.4759  0.9378
 5612SOL     OW28297   1.309   0.517   4.053 -0.3875 -0.2422  0.0453
 5612SOL    HW128298   1.312   0.429   4.091  3.5589  0.4028  1.2580
 5612SOL    HW228299   1.339   0.497   3.965  1.1600 -1.3106  0.8167
 5613SOL     OW28300   0.499   3.977   5.745 -0.5253 -0.2217 -0.3960
 5613SOL    HW128301   0.519   3.982   5.652 -0.6039 -1.9063 -0.5025
 5613SOL    HW228302   0.445   3.897   5.741  0.5369 -0.9492 -0.3230
 5614SOL     OW28303   4.338   0.021   6.686 -0.2988 -0.1749  0.2846
 5614SOL    HW128304   4.347   0.087   6.617  0.1724  0.3313  0.8227
 5614SOL    HW228305   4.409   4.686   6.663 -0.2684  0.8072 -2.1548
 5615SOL     OW28306   0.412   2.220   7.430  0.3897  0.2543  0.0639
 5615SOL    HW128307   0.443   2.277   7.359 -0.4309  1.6539  0.8145
 5615SOL    HW228308   0.319   2.230   7.413 -0.0119  0.0212  2.1491
 5616SOL     OW28309   0.513   2.176  10.323  0.0111 -0.0709  0.0577
 5616SOL    HW128310   0.560   2.160  10.241  0.7671  0.4929  0.3769
 5616SOL    HW228311   0.576   2.224  10.376 -0.9168  0.1703  0.9585
 5617SOL     OW28312   4.260   0.474   0.912  0.7432 -0.3900 -0.1699
 5617SOL    HW128313   4.257   0.511   0.824 -2.2984 -1.3147 -0.4411
 5617SOL    HW228314   4.183   0.507   0.958  1.7940  1.4174  0.3015
 5618SOL     OW28315   2.907   3.174   7.875 -0.1591  0.1645  0.6484
 5618SOL    HW128316   2.889   3.095   7.926 -0.5883 -2.1991 -3.2328
 5618SOL    HW228317   2.957   3.139   7.802  0.7487 -0.1929  1.4404
 5619SOL     OW28318   3.375   4.599  15.608 -0.2165  0.2288  0.2253
 5619SOL    HW128319   3.433   4.665  15.645  0.0841 -0.5495  1.1581
 5619SOL    HW228320   3.384   4.616  15.514  1.7235  1.4808  0.6359
 5620SOL     OW28321   3.436   3.358   0.313  0.5590 -0.1394  0.4673
 5620SOL    HW128322   3.517   3.320   0.346 -0.2976  0.5074  3.2831
 5620SOL    HW228323   3.380   3.344   0.390 -0.3798  2.5106  0.2656
 5621SOL     OW28324   1.275   2.908   0.907 -0.2225 -0.7914  0.0630
 5621SOL    HW128325   1.224   2.964   0.966 -1.5371  0.5905 -2.3707
 5621SOL    HW228326   1.221   2.830   0.913 -0.2105 -0.8212 -0.2333
 5622SOL     OW28327   2.875   2.940   7.142 -1.0012  0.6659 -0.3141
 5622SOL    HW128328   2.850   2.869   7.082 -0.4603  0.8632 -0.7739
 5622SOL    HW228329   2.870   2.892   7.224 -2.7610  0.4265 -0.5623
 5623SOL     OW28330   1.901   1.166  10.765  0.0899 -0.7245  0.3694
 5623SOL    HW128331   1.835   1.109  10.806 -1.2746  1.9506  1.8353
 5623SOL    HW228332   1.882   1.161  10.672 -3.2231  1.4769  0.9189
 5624SOL     OW28333   3.025   0.923  10.296  0.2039 -0.7975 -0.1019
 5624SOL    HW128334   3.024   0.998  10.236 -2.1176  0.9193  2.0573
 5624SOL    HW228335   2.938   0.910  10.333  0.5968  0.8883  1.4078
 5625SOL     OW28336   0.748   1.537   3.781  0.1425 -0.4568  0.4900
 5625SOL    HW128337   0.808   1.571   3.848 -0.5634  0.0047  0.8889
 5625SOL    HW228338   0.705   1.617   3.751 -1.1110 -1.2190  0.2847
 5626SOL     OW28339   4.602   3.923   8.699 -0.2153  0.3083 -0.1954
 5626SOL    HW128340   4.631   3.833   8.713 -0.9447  0.3288  1.5311
 5626SOL    HW228341   4.550   3.927   8.780  1.9879 -1.6332  1.3159
 5627SOL     OW28342   3.225   4.393   9.166 -0.1440 -1.1367  0.2887
 5627SOL    HW128343   3.206   4.342   9.245  1.8631  1.2159  2.2884
 5627SOL    HW228344   3.181   4.334   9.106 -1.0768 -3.2589  3.0404
 5628SOL     OW28345   3.762   0.926  12.510  0.3853 -0.5130 -0.2400
 5628SOL    HW128346   3.840   0.977  12.533 -0.2543 -0.6579  2.1517
 5628SOL    HW228347   3.727   0.982  12.441  0.3351  0.9457  0.9824
 5629SOL     OW28348   2.958   3.615   8.558 -0.1557 -0.0251 -0.6837
 5629SOL    HW128349   3.017   3.680   8.520 -0.1627  1.8539  2.4974
 5629SOL    HW228350   2.991   3.533   8.520  0.7490  0.2143 -0.4286
 5630SOL     OW28351   0.093   4.123  15.742  0.8438  0.1111 -0.0409
 5630SOL    HW128352   0.182   4.157  15.734  0.8621  0.4192  1.3656
 5630SOL    HW228353   0.099   4.037  15.701  0.0021  1.1983 -2.4520
 5631SOL     OW28354   0.125   0.353  16.437 -0.7445  0.2779 -0.1299
 5631SOL    HW128355   0.035   0.355  16.404 -0.3832 -0.0423 -1.1139
 5631SOL    HW228356   0.117   0.296  16.514 -1.5915  0.9972  0.3166
 5632SOL     OW28357   2.575   3.302   3.844 -0.0534 -0.5364  0.0425
 5632SOL    HW128358   2.497   3.354   3.826 -0.0799  0.0554  1.8652
 5632SOL    HW228359   2.565   3.282   3.937 -0.1552 -3.1195 -0.5313
 5633SOL     OW28360   0.117   0.925   0.744 -0.5051 -0.2487 -0.4270
 5633SOL    HW128361   0.202   0.929   0.700  0.2683 -1.1849  1.0305
 5633SOL    HW228362   0.130   0.989   0.814 -1.0336 -1.8763  1.1444
 5634SOL     OW28363   2.822   4.568   5.821 -0.2285  0.3711  0.0484
 5634SOL    HW128364   2.865   4.530   5.744  0.8230 -1.1040  1.3508
 5634SOL    HW228365   2.797   4.655   5.789  0.7062  1.5245  2.4615
 5635SOL     OW28366   0.578   3.990  13.396  0.2043  0.0369  0.3572
 5635SOL    HW128367   0.594   3.937  13.318 -0.4043 -0.9352  0.8867
 5635SOL    HW228368   0.488   3.959  13.406 -0.0609  0.6555 -0.1245
 5636SOL     OW28369   4.285   0.509  10.744 -0.7120  0.3465  0.0690
 5636SOL    HW128370   4.257   0.419  10.763 -0.9363  0.3974 -0.0252
 5636SOL    HW228371   4.354   0.483  10.683 -0.4440 -3.2707  1.8605
 5637SOL     OW28372   0.735   2.600   9.627  0.2839 -0.3419 -0.3548
 5637SOL    HW128373   0.751   2.647   9.709 -3.7687  0.6698 -0.1446
 5637SOL    HW228374   0.709   2.677   9.578 -2.6872 -2.2798 -1.8278
 5638SOL     OW28375   4.505   1.648  10.885  0.2723  0.4513 -0.1794
 5638SOL    HW128376   4.565   1.684  10.951  0.7070 -1.1044  0.2609
 5638SOL    HW228377   4.571   1.627  10.819 -0.9036 -0.6448 -0.9839
 5639SOL     OW28378   4.183   3.170  15.190  1.1274 -0.2970 -0.0159
 5639SOL    HW128379   4.126   3.123  15.251  1.9212 -1.4302 -0.1337
 5639SOL    HW228380   4.131   3.176  15.110  0.5209 -1.5053  0.2752
 5640SOL     OW28381   1.483   2.132   7.193 -0.1314  0.5718  0.5160
 5640SOL    HW128382   1.441   2.173   7.118  0.9900 -1.6790 -1.3129
 5640SOL    HW228383   1.547   2.197   7.223 -1.6486  2.3534 -0.1101
 5641SOL     OW28384   1.725   1.653   5.571  0.2447 -0.3013 -0.0409
 5641SOL    HW128385   1.732   1.645   5.667 -1.2218  2.0981  0.2540
 5641SOL    HW228386   1.714   1.748   5.567  0.8658 -0.1907  0.7224
 5642SOL     OW28387   2.892   1.593   4.011 -0.6010 -0.1768 -0.0803
 5642SOL    HW128388   2.976   1.604   3.967 -1.2090 -1.3910 -1.5396
 5642SOL    HW228389   2.861   1.513   3.968  1.8446 -0.9777 -0.3404
 5643SOL     OW28390   4.188   2.903   7.566 -0.5052 -0.2722 -0.5198
 5643SOL    HW128391   4.132   2.964   7.518  0.4915  1.2225  0.2316
 5643SOL    HW228392   4.137   2.824   7.545  1.4467 -1.6751  0.0607
 5644SOL     OW28393   3.650   2.604   4.572  0.2758  0.6135  0.3626
 5644SOL    HW128394   3.737   2.614   4.611 -0.5307  1.1633  2.0028
 5644SOL    HW228395   3.669   2.644   4.487  0.8930 -1.0559 -0.2967
 5645SOL     OW28396   1.850   2.097   1.915 -0.1746 -0.3619  0.4147
 5645SOL    HW128397   1.807   2.147   1.984 -2.1613  1.7134 -2.3784
 5645SOL    HW228398   1.850   2.162   1.845 -1.6418 -1.1141 -0.2876
 5646SOL     OW28399   1.422   4.283  12.495  0.3029 -0.0353 -0.9968
 5646SOL    HW128400   1.514   4.309  12.486  0.0837  0.9480 -0.3265
 5646SOL    HW228401   1.394   4.332  12.572 -2.8733 -3.3245 -0.0898
 5647SOL     OW28402   3.428   1.063  10.625 -0.0338 -0.6450 -0.1563
 5647SOL    HW128403   3.422   0.997  10.556  1.1351 -0.6134 -0.2873
 5647SOL    HW228404   3.514   1.103  10.609 -0.2500 -0.6071 -1.1757
 5648SOL     OW28405   3.945   3.566   3.431  0.2867  0.0814 -0.1365
 5648SOL    HW128406   3.970   3.474   3.433 -1.0371 -0.2747  0.5595
 5648SOL    HW228407   3.849   3.566   3.433  0.2679  1.8683 -1.4072
 5649SOL     OW28408   1.404   0.218   5.719  0.4928 -0.7666 -0.0508
 5649SOL    HW128409   1.422   0.204   5.812  0.2097 -0.2021  0.0927
 5649SOL    HW228410   1.352   0.299   5.720 -1.1804 -1.8421  0.0612
 5650SOL     OW28411   1.248   2.051   4.123  0.0874  0.3882 -0.3459
 5650SOL    HW128412   1.208   2.090   4.201  1.8289  0.1252  0.6654
 5650SOL    HW228413   1.170   2.052   4.067 -0.6190 -3.2450  0.5383
 5651SOL     OW28414   1.445   2.225  15.190 -0.3677  0.1451  0.0351
 5651SOL    HW128415   1.388   2.274  15.131 -2.4918 -1.2972  0.9167
 5651SOL    HW228416   1.381   2.203  15.258 -0.5314 -0.8204 -0.4455
 5652SOL     OW28417   0.510   3.798  12.654 -0.0628  0.4459 -0.3378
 5652SOL    HW128418   0.567   3.873  12.671 -0.3393  0.9644 -1.7141
 5652SOL    HW228419   0.467   3.830  12.574  2.2793  0.2196 -1.6972
 5653SOL     OW28420   3.579   3.107   7.016 -0.8002 -0.0351 -0.0830
 5653SOL    HW128421   3.566   3.019   6.979 -3.1562  0.2191  0.1951
 5653SOL    HW228422   3.591   3.150   6.931  0.2566  0.8382  0.5002
 5654SOL     OW28423   4.323   2.294  10.577  0.1253  0.3874 -0.1406
 5654SOL    HW128424   4.406   2.336  10.600  1.2847 -0.7068 -2.2880
 5654SOL    HW228425   4.340   2.204  10.606  1.4298  0.9328  0.8447
 5655SOL     OW28426   3.788   3.660   5.572  0.0978  0.3120 -0.1436
 5655SOL    HW128427   3.820   3.693   5.656  2.0146  0.0222 -0.7520
 5655SOL    HW228428   3.866   3.620   5.535  0.4217  0.5106  0.3206
 5656SOL     OW28429   1.185   4.122   7.594  0.0018 -0.2639 -0.2341
 5656SOL    HW128430   1.280   4.127   7.610  0.2443  1.6538 -2.3379
 5656SOL    HW228431   1.139   4.154   7.671 -1.2302 -0.4278 -0.9076
 5657SOL     OW28432   1.574   3.624   5.986  0.2725  0.2732  0.0235
 5657SOL    HW128433   1.524   3.652   6.063 -0.1320 -1.7984  0.5067
 5657SOL    HW228434   1.523   3.660   5.913 -0.5239  1.3463  1.1042
 5658SOL     OW28435   1.692   1.831   0.385  0.2358 -0.1956 -0.0729
 5658SOL    HW128436   1.735   1.782   0.315 -0.1979 -0.1297 -0.3840
 5658SOL    HW228437   1.764   1.888   0.414  0.5886 -0.6011 -0.1407
 5659SOL     OW28438   0.135   2.083   9.516  0.1315  0.5720 -0.1770
 5659SOL    HW128439   0.049   2.118   9.492 -0.9988 -1.1008  1.4023
 5659SOL    HW228440   0.166   2.048   9.432  1.7346 -2.2286  1.5679
 5660SOL     OW28441   2.098   2.930   9.495 -0.2715 -0.0978  0.3040
 5660SOL    HW128442   2.105   2.871   9.570 -1.7279 -0.6915 -0.0102
 5660SOL    HW228443   2.016   2.896   9.459  0.2365  0.3723 -1.2779
 5661SOL     OW28444   4.116   0.670  16.647  0.4646 -0.5758  0.0282
 5661SOL    HW128445   4.185   0.708  16.592  0.5997  1.2069  1.4708
 5661SOL    HW228446   4.158   0.687  16.731  1.8789 -0.4038 -0.7115
 5662SOL     OW28447   1.363   4.302   3.510  0.5276 -0.6319  0.7246
 5662SOL    HW128448   1.419   4.248   3.454  1.2269  0.8468 -0.0194
 5662SOL    HW228449   1.422   4.373   3.537 -0.7804  0.8090 -0.2219
 5663SOL     OW28450   2.995   4.301   3.575  0.4300 -0.1660 -0.0919
 5663SOL    HW128451   2.968   4.375   3.520 -1.5536 -1.6916 -1.1691
 5663SOL    HW228452   2.965   4.341   3.657  3.0464 -0.4992  1.0308
 5664SOL     OW28453   1.891   2.625   8.706 -0.3036 -0.4037 -0.4281
 5664SOL    HW128454   1.940   2.560   8.657  2.0699  0.0800  1.3009
 5664SOL    HW228455   1.910   2.580   8.789  0.1956 -1.2948 -1.0254
 5665SOL     OW28456   1.466   3.196  11.620  0.0400  0.8141 -0.2474
 5665SOL    HW128457   1.541   3.210  11.678 -0.1033 -1.3769  0.4405
 5665SOL    HW228458   1.425   3.283  11.614  2.0462  1.8753  1.3775
 5666SOL     OW28459   2.777   1.139  17.550 -0.1944 -0.3365 -0.2707
 5666SOL    HW128460   2.740   1.213  17.503 -1.7255 -0.9531 -0.0402
 5666SOL    HW228461   2.844   1.122  17.484 -1.8967 -1.7807 -1.6163
 5667SOL     OW28462   1.836   3.881   1.339  0.1943 -0.0894  0.8992
 5667SOL    HW128463   1.840   3.924   1.424 -1.2275  1.3811  0.2436
 5667SOL    HW228464   1.878   3.953   1.291  0.3362 -0.0841  1.0317
 5668SOL     OW28465   4.108   0.719  15.405 -0.3741  0.2707 -0.8724
 5668SOL    HW128466   4.114   0.634  15.448  1.3532  1.3061  0.9577
 5668SOL    HW228467   4.044   0.763  15.461 -0.4439 -2.7110  1.4252
 5669SOL     OW28468   0.910   3.164   8.797  0.2344 -0.8891  0.9418
 5669SOL    HW128469   0.826   3.208   8.785  0.2239 -0.6694  1.7907
 5669SOL    HW228470   0.933   3.206   8.880 -0.3561 -0.1356  0.7243
 5670SOL     OW28471   3.762   3.217   1.979 -0.2079 -0.0720 -0.1546
 5670SOL    HW128472   3.788   3.208   1.887 -2.4728  0.3510 -0.8615
 5670SOL    HW228473   3.669   3.240   1.975 -0.1905 -0.1082 -0.7729
 5671SOL     OW28474   2.095   3.033  16.709  0.5192  0.1158 -0.5394
 5671SOL    HW128475   2.080   3.092  16.635  0.9849 -0.0139 -0.7378
 5671SOL    HW228476   2.116   2.955  16.657 -0.9515  0.4699 -1.6921
 5672SOL     OW28477   0.041   1.828  14.084  0.2419 -0.3519 -0.1572
 5672SOL    HW128478   0.097   1.803  14.157 -1.5831  3.0375  2.3704
 5672SOL    HW228479   0.084   1.778  14.014 -1.2106 -1.7907 -0.0514
 5673SOL     OW28480   2.624   3.170   2.793  0.2112 -0.4346 -0.4669
 5673SOL    HW128481   2.637   3.078   2.817  0.4839  0.1368  1.5640
 5673SOL    HW228482   2.593   3.213   2.872 -0.9264 -0.9176 -0.6536
 5674SOL     OW28483   3.922   3.076   9.566  0.4222  0.0542  0.1526
 5674SOL    HW128484   3.866   3.086   9.489 -1.3505 -1.7726  1.2113
 5674SOL    HW228485   3.972   3.157   9.555  0.1277  0.0887 -0.9108
 5675SOL     OW28486   1.045   2.252   8.600  0.0574  0.5218  0.0034
 5675SOL    HW128487   1.071   2.174   8.650  0.8309  0.1643 -0.9432
 5675SOL    HW228488   0.951   2.256   8.620  0.5823  0.1018  2.5755
 5676SOL     OW28489   1.277   3.843   7.506 -0.0140  0.3425 -0.1348
 5676SOL    HW128490   1.210   3.800   7.558  0.8297 -0.9656 -0.1312
 5676SOL    HW228491   1.257   3.934   7.528 -0.1621  0.2078  0.2935
 5677SOL     OW28492   4.145   4.598  13.349 -0.7163 -0.3405  0.0914
 5677SOL    HW128493   4.134   4.577  13.441 -0.7483  0.2273  0.2189
 5677SOL    HW228494   4.147   4.507  13.319 -0.9349 -0.3876  0.2209
 5678SOL     OW28495   0.485   1.524   5.448 -0.8331 -0.1653 -0.2104
 5678SOL    HW128496   0.536   1.553   5.371  0.8463 -0.4768  0.7852
 5678SOL    HW228497   0.545   1.558   5.515 -0.9282 -0.7475  0.1685
 5679SOL     OW28498   0.036   4.247   3.289 -0.3872  0.3380  0.1770
 5679SOL    HW128499   0.060   4.178   3.351 -1.7627  0.7817  1.2187
 5679SOL    HW228500   0.091   4.223   3.215  0.4409 -0.8705  1.2049
 5680SOL     OW28501   0.522   3.433   4.065  0.2770  0.4600 -0.3349
 5680SOL    HW128502   0.492   3.503   4.123 -0.4107 -1.9167  2.1654
 5680SOL    HW228503   0.559   3.376   4.133 -1.4772  0.9404  1.0015
 5681SOL     OW28504   0.988   3.034   6.387 -0.0319  0.1491 -0.6632
 5681SOL    HW128505   1.081   3.018   6.403 -0.5967 -1.1421  1.2328
 5681SOL    HW228506   0.965   3.112   6.438  1.4887 -0.4071  0.8412
 5682SOL     OW28507   1.634   2.614   5.199  0.4874  0.2319  0.0761
 5682SOL    HW128508   1.629   2.635   5.106  0.4392  0.2412  0.0806
 5682SOL    HW228509   1.542   2.606   5.224  0.6424  0.6550  0.7873
 5683SOL     OW28510   3.941   0.461   0.552 -0.7856 -0.3034 -0.1973
 5683SOL    HW128511   3.916   0.553   0.559  3.2227  0.6501  1.4618
 5683SOL    HW228512   4.017   0.471   0.495 -0.3347 -1.1191  0.2614
 5684SOL     OW28513   3.649   3.002   5.738  0.2451  0.2530 -0.1031
 5684SOL    HW128514   3.606   3.061   5.675 -3.4198 -0.2136  2.0107
 5684SOL    HW228515   3.578   2.952   5.778  1.3091 -2.4435 -1.6173
 5685SOL     OW28516   1.732   3.564   6.846 -0.1084 -0.1063  0.2694
 5685SOL    HW128517   1.725   3.517   6.929 -1.6989 -2.2085 -1.0541
 5685SOL    HW228518   1.781   3.500   6.794  0.5896 -0.4896  1.4113
 5686SOL     OW28519   1.977   3.387   2.595 -0.3580 -0.2149 -0.0833
 5686SOL    HW128520   2.040   3.365   2.664  0.8781  0.8366 -0.8642
 5686SOL    HW228521   1.972   3.306   2.545  0.0891 -0.2519 -0.0722
 5687SOL     OW28522   1.592   0.174   4.207  0.2782  0.2169 -0.5444
 5687SOL    HW128523   1.589   0.206   4.117  1.5705 -3.5733 -1.9135
 5687SOL    HW228524   1.649   0.236   4.252  0.9617 -0.5256 -0.3843
 5688SOL     OW28525   3.272   1.991   6.820 -0.3144 -0.3116 -0.1940
 5688SOL    HW128526   3.243   1.907   6.785 -1.0894 -0.0579 -0.1600
 5688SOL    HW228527   3.360   1.980   6.783 -0.1965 -1.5540  0.4607
 5689SOL     OW28528   2.606   4.263  14.363 -0.0860 -0.3941  0.1260
 5689SOL    HW128529   2.628   4.347  14.403 -0.6452 -1.2338  2.2288
 5689SOL    HW228530   2.660   4.211  14.423  3.2061  2.6496 -0.2193
 5690SOL     OW28531   0.268   4.561   2.482 -0.3000 -0.1710  0.2071
 5690SOL    HW128532   0.186   4.513   2.488 -0.5717  0.3552  0.7602
 5690SOL    HW228533   0.271   4.607   2.566  2.1272 -1.7152  0.9548
 5691SOL     OW28534   4.510   3.546   8.593  0.4823  0.0653 -0.0949
 5691SOL    HW128535   4.580   3.582   8.648  1.6137 -1.2542 -0.6963
 5691SOL    HW228536   4.531   3.458   8.563  0.1162 -0.2589  0.6078
 5692SOL     OW28537   1.614   1.202  16.566  0.1518  0.1273  0.2592
 5692SOL    HW128538   1.531   1.216  16.522 -0.5159 -1.5490  1.0018
 5692SOL    HW228539   1.680   1.226  16.500 -0.0831  1.6858  0.5953
 5693SOL     OW28540   2.010   2.403   6.805  0.4253 -0.2123  0.7538
 5693SOL    HW128541   1.937   2.360   6.761  1.0812 -0.3808 -0.1898
 5693SOL    HW228542   2.071   2.424   6.733 -0.6942 -1.0542 -0.4304
 5694SOL     OW28543   2.968   1.315   3.564 -0.6310  0.0503 -0.1462
 5694SOL    HW128544   3.010   1.299   3.479 -0.9967 -0.8307 -0.1558
 5694SOL    HW228545   3.016   1.257   3.623  0.2095 -1.0065 -1.8737
 5695SOL     OW28546   1.437   2.780  16.691 -0.1007 -0.1519 -1.2796
 5695SOL    HW128547   1.503   2.834  16.647 -1.6468  1.7691 -1.2593
 5695SOL    HW228548   1.417   2.709  16.629  0.2119 -0.9768 -0.4345
 5696SOL     OW28549   0.135   3.032  15.205  0.0739  0.6791  0.6024
 5696SOL    HW128550   0.160   2.949  15.164  2.1916  0.7159  1.8289
 5696SOL    HW228551   0.041   3.035  15.188  0.7880  2.0793 -3.0841
 5697SOL     OW28552   2.836   3.600   8.885 -0.5187 -0.4812  0.2442
 5697SOL    HW128553   2.897   3.657   8.839  0.1352 -0.3069  1.3384
 5697SOL    HW228554   2.858   3.515   8.848 -1.0595 -0.9068  0.9069
 5698SOL     OW28555   0.252   0.205   2.110 -0.7702  0.7649  0.0089
 5698SOL    HW128556   0.164   0.239   2.126 -0.6243  0.1151  2.1220
 5698SOL    HW228557   0.253   0.121   2.156  1.9383  1.7587  1.7520
 5699SOL     OW28558   3.889   1.665  13.851  0.1988 -0.7451 -0.0579
 5699SOL    HW128559   3.904   1.581  13.894  1.5586  0.1091  1.1381
 5699SOL    HW228560   3.798   1.650  13.826  0.1120 -2.6477  1.3891
 5700SOL     OW28561   1.852   2.554   6.950 -0.6856 -0.1126  0.4725
 5700SOL    HW128562   1.921   2.532   6.887 -0.7925 -0.4483  0.4713
 5700SOL    HW228563   1.832   2.462   6.971 -1.5666 -0.1057 -0.3790
 5701SOL     OW28564   0.864   2.452   1.732 -0.4564  0.1380  0.0930
 5701SOL    HW128565   0.925   2.507   1.780  0.6795 -1.6089  0.6244
 5701SOL    HW228566   0.926   2.391   1.693  0.2546  0.3614  0.8635
 5702SOL     OW28567   2.015   4.023  11.787  0.8744  0.1475  0.6899
 5702SOL    HW128568   1.964   4.084  11.734 -1.7736 -0.7876  2.1117
 5702SOL    HW228569   1.979   4.037  11.875 -1.4009  1.1175 -0.4104
 5703SOL     OW28570   3.953   1.202  14.435  0.1216 -0.2718 -0.0117
 5703SOL    HW128571   4.032   1.254  14.448  0.0829 -0.0951 -0.4724
 5703SOL    HW228572   3.986   1.147  14.364 -1.8316  0.0207 -1.1676
 5704SOL     OW28573   1.742   2.319   1.792  0.6248  0.3963  0.0387
 5704SOL    HW128574   1.652   2.339   1.769  0.0820  0.0915  1.9150
 5704SOL    HW228575   1.771   2.393   1.846  0.0304  0.1704  0.6661
 5705SOL     OW28576   2.970   0.963   5.497 -0.1698 -0.1281  0.0087
 5705SOL    HW128577   2.903   0.931   5.557  1.4636 -2.0725  0.8131
 5705SOL    HW228578   3.002   0.877   5.469 -0.4833 -0.2677  0.0875
 5706SOL     OW28579   1.201   3.121   7.762  0.1101 -0.3002 -0.4721
 5706SOL    HW128580   1.168   3.113   7.673  0.0715  0.2563 -0.5106
 5706SOL    HW228581   1.184   3.213   7.782 -0.3392 -1.1540  3.0313
 5707SOL     OW28582   3.580   3.726  12.207 -0.2852  0.1400  0.0638
 5707SOL    HW128583   3.554   3.649  12.259 -0.3374 -0.5504 -0.9935
 5707SOL    HW228584   3.675   3.717  12.205 -0.0797  2.0440  1.2610
 5708SOL     OW28585   3.810   0.066   6.580 -0.9516  0.0490  0.0234
 5708SOL    HW128586   3.782   0.154   6.601 -1.7973 -0.0676 -0.6160
 5708SOL    HW228587   3.840   0.029   6.663 -0.4188 -2.1020 -1.1259
 5709SOL     OW28588   2.669   0.641  11.769  0.6528  0.6679  0.8630
 5709SOL    HW128589   2.653   0.727  11.731  0.9415  0.7799  0.9921
 5709SOL    HW228590   2.709   0.590  11.699  1.5871  0.8984  1.2260
 5710SOL     OW28591   0.863   2.256  11.162  0.3754 -0.5682 -0.4084
 5710SOL    HW128592   0.905   2.241  11.077  0.5407  0.2875 -0.4853
 5710SOL    HW228593   0.857   2.352  11.157  1.2332 -0.4721  0.3202
 5711SOL     OW28594   2.946   2.359   1.587 -0.2757  0.3739  0.2896
 5711SOL    HW128595   3.016   2.424   1.586  0.5323 -0.5344 -2.4023
 5711SOL    HW228596   2.884   2.422   1.623 -0.6992 -0.1467  0.4709
 5712SOL     OW28597   0.477   3.029  12.267 -0.0157  0.0875  0.2906
 5712SOL    HW128598   0.461   3.123  12.271 -0.9518 -0.0997  0.7861
 5712SOL    HW228599   0.410   2.995  12.209 -1.4219  0.4095  1.7319
 5713SOL     OW28600   1.020   0.509  12.025 -0.5347  0.1493  0.0870
 5713SOL    HW128601   1.065   0.483  11.945  1.2539  1.3682  0.6978
 5713SOL    HW228602   1.016   0.425  12.072 -0.4746  0.3526  0.4573
 5714SOL     OW28603   2.765   3.182   6.404  0.7139 -0.1736 -0.0510
 5714SOL    HW128604   2.678   3.195   6.442  2.1359 -0.7444  3.3859
 5714SOL    HW228605   2.747   3.089   6.392  2.3763 -0.8570  2.8110
 5715SOL     OW28606   1.070   3.084   5.150  0.5157  0.2229  0.2464
 5715SOL    HW128607   0.999   3.103   5.088  1.5940  0.3246 -0.9547
 5715SOL    HW228608   1.145   3.133   5.117  2.4570 -2.7736  0.2202
 5716SOL     OW28609   2.969   3.747   6.945  0.5889  0.0608  0.3031
 5716SOL    HW128610   2.895   3.779   6.894  1.7134 -0.1366 -1.4669
 5716SOL    HW228611   2.928   3.756   7.031 -0.5305 -0.5989 -0.1685
 5717SOL     OW28612   2.567   3.694  13.808 -0.1121  0.6116 -0.3341
 5717SOL    HW128613   2.611   3.633  13.749 -0.2867  0.2678 -0.1043
 5717SOL    HW228614   2.632   3.764  13.817  1.8257 -0.9680 -1.8146
 5718SOL     OW28615   3.363   3.663   5.909  0.0481  0.2762  0.3192
 5718SOL    HW128616   3.375   3.733   5.846  1.2346 -1.9673 -1.9537
 5718SOL    HW228617   3.280   3.678   5.955  0.3791 -0.1707  1.0801
 5719SOL     OW28618   2.235   3.633   0.502 -0.3745  0.6029  0.6854
 5719SOL    HW128619   2.163   3.695   0.487  0.5607  1.2059 -1.3304
 5719SOL    HW228620   2.270   3.661   0.586 -1.1317 -1.9205  1.8402
 5720SOL     OW28621   4.256   1.701  15.143 -0.6444  0.0660  0.5219
 5720SOL    HW128622   4.167   1.697  15.110 -0.5480  1.4493  0.0712
 5720SOL    HW228623   4.259   1.795  15.160  0.2961  0.5406 -2.1350
 5721SOL     OW28624   3.005   3.377   2.004  0.2094 -0.1250 -0.5869
 5721SOL    HW128625   2.921   3.410   2.036  0.9400  2.5558 -1.4594
 5721SOL    HW228626   2.992   3.361   1.911  0.0654  0.3210 -0.6452
 5722SOL     OW28627   1.824   0.322   3.417 -0.0781 -0.5740 -0.0334
 5722SOL    HW128628   1.750   0.381   3.426  1.8517  1.9447 -0.8300
 5722SOL    HW228629   1.863   0.340   3.503 -0.2535  3.0864 -0.7226
 5723SOL     OW28630   0.943   1.055   5.726  0.3410  0.3994 -0.2148
 5723SOL    HW128631   0.999   0.979   5.716 -0.3560 -0.0541 -0.7421
 5723SOL    HW228632   0.927   1.081   5.635  0.1029 -0.7914 -0.5210
 5724SOL     OW28633   3.279   3.848   2.972  0.2549  0.1548 -0.0784
 5724SOL    HW128634   3.200   3.822   3.019 -0.1199  0.7604 -0.3774
 5724SOL    HW228635   3.335   3.773   2.994 -0.4292 -0.8499 -1.7729
 5725SOL     OW28636   2.173   4.543  16.655  0.2779  0.5658 -0.6010
 5725SOL    HW128637   2.164   4.449  16.643 -2.1588  0.5698  1.1027
 5725SOL    HW228638   2.267   4.552  16.669  0.4102  1.1156 -1.7921
 5726SOL     OW28639   0.353   3.991   7.141  0.0117 -0.1637  0.8072
 5726SOL    HW128640   0.419   4.059   7.126  0.9142 -0.9658  1.1518
 5726SOL    HW228641   0.281   4.024   7.088  0.4940 -0.9361 -0.3367
 5727SOL     OW28642   2.943   4.196   6.383  0.1685  1.1503  0.1319
 5727SOL    HW128643   2.860   4.179   6.427  1.5500 -0.9641  1.9390
 5727SOL    HW228644   2.927   4.184   6.289 -2.9573 -0.3160  0.8694
 5728SOL     OW28645   0.585   1.808  17.327  0.7897  0.2212  0.0117
 5728SOL    HW128646   0.641   1.866  17.276  1.6188 -1.9140 -1.5527
 5728SOL    HW228647   0.639   1.798  17.406  3.1966 -0.2177 -1.6620
 5729SOL     OW28648   2.788   3.466   1.053 -0.2790  0.3068  0.3778
 5729SOL    HW128649   2.700   3.443   1.024 -0.8691  2.5182  0.4200
 5729SOL    HW228650   2.795   3.413   1.133 -1.7501  1.5718  1.3376
 5730SOL     OW28651   1.466   3.987   8.243  0.1152 -0.6358  0.1776
 5730SOL    HW128652   1.377   3.953   8.249 -0.1602 -0.3880 -2.3040
 5730SOL    HW228653   1.507   3.921   8.188 -0.0547 -1.1753  0.7041
 5731SOL     OW28654   4.544   3.373   3.950  0.4664  0.3852 -0.0270
 5731SOL    HW128655   4.466   3.338   3.909 -0.9858  2.0361  1.3242
 5731SOL    HW228656   4.557   3.452   3.898 -1.6277 -0.1726 -1.3544
 5732SOL     OW28657   3.667   0.792   2.572 -0.3751 -0.1592 -0.0750
 5732SOL    HW128658   3.742   0.817   2.625 -2.6063  0.8864  2.5595
 5732SOL    HW228659   3.668   0.697   2.577  0.2854 -0.1151  0.6641
 5733SOL     OW28660   2.032   3.318   3.142 -0.3571  0.1998  0.1490
 5733SOL    HW128661   2.075   3.379   3.201  0.8783  0.9827 -1.5362
 5733SOL    HW228662   1.940   3.338   3.155 -0.6903 -0.7589 -0.6836
 5734SOL     OW28663   1.277   2.354   7.753  0.3517 -0.7933 -0.1858
 5734SOL    HW128664   1.346   2.419   7.767 -2.0922  1.9880 -0.8998
 5734SOL    HW228665   1.240   2.380   7.669  0.7539 -1.3790 -0.5418
 5735SOL     OW28666   0.972   1.397  12.410  0.0184  0.5978  0.6188
 5735SOL    HW128667   0.883   1.424  12.432  0.1278  1.1212  0.4324
 5735SOL    HW228668   1.019   1.467  12.456 -2.3454  2.0864  0.7621
 5736SOL     OW28669   1.007   3.060   4.259  0.7170 -0.4945 -0.0032
 5736SOL    HW128670   1.040   2.970   4.261  1.2358 -0.2514  2.2380
 5736SOL    HW228671   1.018   3.072   4.353 -0.4628 -1.4406  0.2494
 5737SOL     OW28672   2.077   3.084  13.869 -0.4861 -0.1350  0.5273
 5737SOL    HW128673   1.992   3.076  13.913 -1.3670  0.9903 -0.9580
 5737SOL    HW228674   2.110   2.995  13.881  3.3781  1.2109  0.0369
 5738SOL     OW28675   1.461   2.437   9.349 -0.4198 -0.4219  0.2011
 5738SOL    HW128676   1.431   2.528   9.344  0.7978 -0.1160 -1.6912
 5738SOL    HW228677   1.539   2.448   9.294 -0.7017 -2.6343 -0.6411
 5739SOL     OW28678   0.583   0.723  14.743 -0.0952 -0.3074  0.2543
 5739SOL    HW128679   0.615   0.693  14.658  1.7428  0.5385  0.6362
 5739SOL    HW228680   0.667   0.751  14.781 -0.8862  2.3056  0.0931
 5740SOL     OW28681   1.778   3.297  16.723 -0.0739 -0.6494  0.2181
 5740SOL    HW128682   1.830   3.287  16.803  0.7638  1.8476 -0.0202
 5740SOL    HW228683   1.763   3.204  16.707  0.9563 -0.1780 -3.3674
 5741SOL     OW28684   2.036   3.243   5.529  0.0694 -0.0011 -0.2161
 5741SOL    HW128685   2.046   3.273   5.620 -0.7510  1.2397 -0.5382
 5741SOL    HW228686   1.961   3.184   5.530  0.1276 -0.0607  0.7899
 5742SOL     OW28687   3.493   4.502   9.599 -0.1484 -1.0026 -0.3596
 5742SOL    HW128688   3.447   4.523   9.518 -1.1475 -1.2751  0.1290
 5742SOL    HW228689   3.448   4.566   9.655  0.5431  0.3772 -1.3818
 5743SOL     OW28690   2.724   4.518   2.573 -0.1473  0.1221 -0.1372
 5743SOL    HW128691   2.724   4.551   2.663  1.4577  0.4090 -0.2466
 5743SOL    HW228692   2.746   4.597   2.524  0.6776  0.5430  0.9093
 5744SOL     OW28693   1.737   4.386   9.128 -0.1858  0.3994 -0.2751
 5744SOL    HW128694   1.798   4.399   9.201  0.0911 -0.1786 -0.4015
 5744SOL    HW228695   1.731   4.475   9.094  2.0338  0.8115  0.3952
 5745SOL     OW28696   2.658   1.721   5.544 -0.5294  0.2469  0.0010
 5745SOL    HW128697   2.745   1.721   5.505 -1.0505 -1.6164 -1.1425
 5745SOL    HW228698   2.607   1.772   5.481 -1.7063  0.2796  0.9802
 5746SOL     OW28699   1.767   3.070  16.435  0.1865  0.0979 -0.0441
 5746SOL    HW128700   1.685   3.048  16.391 -1.0767 -0.4988  2.6135
 5746SOL    HW228701   1.758   3.028  16.520  0.8852 -0.0677 -0.0571
 5747SOL     OW28702   3.025   1.619  14.766 -0.3886  0.0912 -0.2151
 5747SOL    HW128703   2.930   1.609  14.776 -0.3564 -1.0432 -0.9893
 5747SOL    HW228704   3.052   1.535  14.803 -0.5325  0.2039  0.1439
 5748SOL     OW28705   2.421   1.854  14.800 -0.4119  0.0986  0.0134
 5748SOL    HW128706   2.446   1.797  14.728  1.3263  0.0054  0.6766
 5748SOL    HW228707   2.361   1.921  14.766  0.1521  1.2483  1.2483
 5749SOL     OW28708   2.357   1.858   6.445 -0.2096 -0.2833  0.3191
 5749SOL    HW128709   2.359   1.767   6.475  1.7776  0.3815  2.1958
 5749SOL    HW228710   2.344   1.904   6.528  0.6443 -0.6226  0.6391
 5750SOL     OW28711   4.416   3.517   4.847 -0.2553  0.3779 -0.3819
 5750SOL    HW128712   4.351   3.576   4.810  0.8644  0.0655 -2.8439
 5750SOL    HW228713   4.369   3.433   4.850 -0.9994  0.7568 -1.4865
 5751SOL     OW28714   0.022   1.019  11.245  0.5109  0.0423  0.3757
 5751SOL    HW128715   0.114   0.994  11.253  0.0020 -1.5113  1.4414
 5751SOL    HW228716   0.019   1.110  11.274  1.2354  0.0017  0.5755
 5752SOL     OW28717   3.979   1.550   3.139 -0.5215  0.4005  0.2868
 5752SOL    HW128718   4.014   1.607   3.207 -2.8235  2.0827  0.0545
 5752SOL    HW228719   4.062   1.526   3.097 -1.1973  0.6382 -1.1981
 5753SOL     OW28720   1.664   2.713  12.558  0.3690  0.2217 -0.0658
 5753SOL    HW128721   1.620   2.794  12.533 -0.6337  0.0366  1.0831
 5753SOL    HW228722   1.626   2.659  12.489 -0.1412  1.6205 -0.8683
 5754SOL     OW28723   2.088   2.068  12.697  0.3827  0.0666 -0.3959
 5754SOL    HW128724   2.182   2.082  12.694  0.4240 -0.1197  0.2111
 5754SOL    HW228725   2.061   2.073  12.605  1.8295  0.1586 -0.8142
 5755SOL     OW28726   1.379   3.782   7.266  0.5450  0.1655  0.1438
 5755SOL    HW128727   1.359   3.794   7.358  2.9159 -0.8383  0.7939
 5755SOL    HW228728   1.431   3.702   7.267  0.5859  0.1338 -2.4072
 5756SOL     OW28729   0.352   2.822   8.306  0.3081  0.1120 -0.4941
 5756SOL    HW128730   0.329   2.815   8.398  0.5663 -1.1440 -0.5320
 5756SOL    HW228731   0.264   2.851   8.283 -0.6775 -1.7823  0.9178
 5757SOL     OW28732   4.595   3.227   2.826 -0.3595  0.3848  0.1640
 5757SOL    HW128733   4.687   3.240   2.850 -0.3097 -0.9378  0.6720
 5757SOL    HW228734   4.586   3.294   2.758  1.2797  1.0374  0.5977
 5758SOL     OW28735   0.962   4.374  11.306  0.7096 -0.1883  0.0754
 5758SOL    HW128736   0.938   4.296  11.256  0.2727  0.8576 -1.3440
 5758SOL    HW228737   0.893   4.435  11.278  0.5216  0.0365  1.0461
 5759SOL     OW28738   0.119   2.746  10.113 -0.8503 -0.0708  0.2794
 5759SOL    HW128739   0.048   2.690  10.146 -0.9587  0.1153  0.3574
 5759SOL    HW228740   0.194   2.687  10.112  1.1394  2.4677  0.4897
 5760SOL     OW28741   3.952   2.269  16.466  0.0272 -0.5707  0.0576
 5760SOL    HW128742   4.027   2.305  16.418 -0.4525 -0.8544 -0.8926
 5760SOL    HW228743   3.902   2.223  16.399 -1.3820 -0.6099  1.1272
 5761SOL     OW28744   0.543   1.697   9.015 -0.2543 -0.3823 -0.2146
 5761SOL    HW128745   0.458   1.742   9.024  0.1276  0.2363  0.2851
 5761SOL    HW228746   0.513   1.625   8.960 -1.5009 -0.3048  0.3499
 5762SOL     OW28747   3.140   0.678   4.984 -0.3911 -0.0437 -0.1008
 5762SOL    HW128748   3.121   0.663   5.076  1.2100  0.1335  0.2637
 5762SOL    HW228749   3.154   0.772   4.972 -0.0193  0.0902  1.4638
 5763SOL     OW28750   3.777   1.311   6.073 -0.1819  0.0819  0.1127
 5763SOL    HW128751   3.797   1.397   6.111  0.4598 -0.0984  0.1871
 5763SOL    HW228752   3.686   1.327   6.048 -0.8602 -0.6003  2.1130
 5764SOL     OW28753   2.214   2.253   4.601 -0.2104  0.3211 -0.1607
 5764SOL    HW128754   2.185   2.342   4.625  0.1583  0.4513 -0.1994
 5764SOL    HW228755   2.292   2.281   4.552 -0.0451 -0.8363 -0.5498
 5765SOL     OW28756   2.203   4.693  10.827  1.0489  0.7362  0.1033
 5765SOL    HW128757   2.174   0.037  10.767 -0.4618 -0.8627 -1.0095
 5765SOL    HW228758   2.120   4.660  10.860  1.1821 -0.2896 -0.5878
 5766SOL     OW28759   2.775   2.640   2.944  0.2568 -0.2378 -0.1901
 5766SOL    HW128760   2.831   2.674   2.874 -1.2785  0.5653 -1.0048
 5766SOL    HW228761   2.720   2.579   2.896  0.0143  0.9990 -1.4749
 5767SOL     OW28762   3.714   1.460   8.340 -0.1498  0.0254  0.1183
 5767SOL    HW128763   3.701   1.430   8.250  0.2685  1.9697 -0.5911
 5767SOL    HW228764   3.803   1.492   8.329  0.3986 -1.0559  1.4627
 5768SOL     OW28765   4.133   4.093   4.270 -0.7357 -0.2738 -0.3619
 5768SOL    HW128766   4.176   4.144   4.201  1.7706 -2.2499 -0.2738
 5768SOL    HW228767   4.173   4.127   4.350  1.0756  0.3050 -1.5054
 5769SOL     OW28768   2.061   0.748   5.299 -0.0657  0.0745 -0.6469
 5769SOL    HW128769   2.103   0.674   5.257  0.2386  0.4767 -1.0552
 5769SOL    HW228770   1.981   0.706   5.332  0.4676  1.6795  2.7311
 5770SOL     OW28771   1.817   3.285   8.478  0.2018 -0.5939  0.2047
 5770SOL    HW128772   1.871   3.283   8.398 -0.3309  0.2898 -0.1779
 5770SOL    HW228773   1.877   3.230   8.529  1.5715  1.0326  0.3604
 5771SOL     OW28774   4.088   1.145   7.162  0.1452  0.4018 -0.8584
 5771SOL    HW128775   4.122   1.067   7.206 -0.8912  1.2582  1.4890
 5771SOL    HW228776   4.037   1.108   7.090 -1.3696 -1.0641  0.9574
 5772SOL     OW28777   1.424   3.570   4.813  0.2216  0.4187 -0.3417
 5772SOL    HW128778   1.420   3.604   4.724 -1.0754 -1.9687 -1.2094
 5772SOL    HW228779   1.487   3.628   4.855 -1.4595  1.7897  0.2661
 5773SOL     OW28780   0.373   0.421   3.574 -0.1551 -0.5301 -0.0436
 5773SOL    HW128781   0.307   0.368   3.618 -1.1052 -0.3253 -1.2317
 5773SOL    HW228782   0.456   0.392   3.612 -0.4318 -2.8571 -1.2157
 5774SOL     OW28783   1.838   2.161  12.777  0.7747  0.0489 -0.1163
 5774SOL    HW128784   1.765   2.114  12.737  1.4304 -1.4235  0.4518
 5774SOL    HW228785   1.914   2.103  12.769  0.8016 -0.1418  1.4273
 5775SOL     OW28786   4.553   3.963   7.699  0.2867 -0.0471 -0.0369
 5775SOL    HW128787   4.602   3.882   7.684 -1.2462 -0.6353 -1.9199
 5775SOL    HW228788   4.463   3.931   7.697 -0.5732  2.3714 -0.2871
 5776SOL     OW28789   0.685   2.364   1.963 -0.5865 -0.2202 -0.3036
 5776SOL    HW128790   0.663   2.455   1.981  1.6030  0.4439 -0.9619
 5776SOL    HW228791   0.706   2.380   1.871  1.0959  1.8256  0.4382
 5777SOL     OW28792   1.245   2.756   3.724  0.4994 -0.7968  0.2206
 5777SOL    HW128793   1.161   2.781   3.763 -0.3316 -1.5682 -1.0899
 5777SOL    HW228794   1.304   2.751   3.800 -2.0322 -0.0399  2.2515
 5778SOL     OW28795   3.422   0.671  16.153  0.5011  0.4957  0.2258
 5778SOL    HW128796   3.379   0.625  16.080 -0.8088  1.3307  0.4791
 5778SOL    HW228797   3.437   0.760  16.123  2.6517 -0.2758 -1.0457
 5779SOL     OW28798   0.862   4.547   4.514 -0.1530 -0.1663 -0.3724
 5779SOL    HW128799   0.947   4.528   4.554 -1.2936 -1.8853  1.2154
 5779SOL    HW228800   0.829   4.457   4.519  0.7497 -0.5217 -0.6672
 5780SOL     OW28801   1.220   2.177   9.163 -0.1524 -0.1485  0.4517
 5780SOL    HW128802   1.136   2.184   9.117 -0.4648  1.6273  1.2709
 5780SOL    HW228803   1.193   2.186   9.255 -0.8814 -0.4276  0.2655
 5781SOL     OW28804   0.058   4.505  15.650  0.1879 -0.3193 -0.2068
 5781SOL    HW128805   0.153   4.507  15.644  0.2924  2.6948  2.3703
 5781SOL    HW228806   0.030   4.470  15.734  1.0960  1.0742  0.6823
 5782SOL     OW28807   1.260   3.335   7.415  0.1623 -0.3210 -0.3028
 5782SOL    HW128808   1.291   3.250   7.384  1.5576  0.2593 -0.4860
 5782SOL    HW228809   1.280   3.394   7.342 -2.2127  0.0810 -0.6439
 5783SOL     OW28810   2.629   2.852   7.550 -0.7312 -0.2293  0.1730
 5783SOL    HW128811   2.655   2.837   7.641 -1.3382 -1.2624  0.1704
 5783SOL    HW228812   2.617   2.947   7.552  0.7880 -0.0951  3.1261
 5784SOL     OW28813   2.312   0.237  16.415 -0.2993  0.1009  0.6469
 5784SOL    HW128814   2.289   0.214  16.505  1.2006  1.3827  1.3574
 5784SOL    HW228815   2.399   0.195  16.415  0.7299  2.2173 -0.7588
 5785SOL     OW28816   4.115   0.676   3.103  0.2488  0.1124 -0.1303
 5785SOL    HW128817   4.022   0.698   3.095 -0.0552 -1.0184  0.2734
 5785SOL    HW228818   4.132   0.683   3.197 -1.2455 -0.0573  0.1450
 5786SOL     OW28819   2.623   4.267   2.370 -0.1627 -0.4444 -0.8898
 5786SOL    HW128820   2.678   4.345   2.374  0.7474 -1.1570  0.4792
 5786SOL    HW228821   2.601   4.259   2.278 -1.6582 -1.3787 -0.4531
 5787SOL     OW28822   0.567   2.389   9.714 -0.0784 -0.3574  0.0430
 5787SOL    HW128823   0.620   2.360   9.789 -0.4252  0.1934  0.5024
 5787SOL    HW228824   0.622   2.455   9.672 -1.0755 -0.2316 -1.0622
 5788SOL     OW28825   2.110   3.616  16.863 -0.3259  0.3762 -0.1651
 5788SOL    HW128826   2.055   3.612  16.942  1.5955  1.2341  1.2348
 5788SOL    HW228827   2.036   3.634  16.805 -0.1220 -2.6538 -1.3260
 5789SOL     OW28828   3.821   4.250   5.263  0.1362  0.3091  0.2790
 5789SOL    HW128829   3.776   4.258   5.347  0.6674 -2.3184  0.8383
 5789SOL    HW228830   3.843   4.342   5.272 -1.1399  0.3402  3.1590
 5790SOL     OW28831   0.142   0.535   6.006 -0.2858 -0.1739  0.1060
 5790SOL    HW128832   0.176   0.541   5.916 -0.2185  1.4558  0.2503
 5790SOL    HW228833   0.050   0.560   5.997 -0.2311 -0.3103 -0.9225
 5791SOL     OW28834   4.255   2.831   5.953 -0.0314  0.1278  0.4800
 5791SOL    HW128835   4.330   2.839   5.895  0.9045 -2.1935  1.3876
 5791SOL    HW228836   4.214   2.750   5.925 -1.1637  0.9711 -0.3095
 5792SOL     OW28837   2.265   0.594   3.986  0.7350  0.4718  0.0953
 5792SOL    HW128838   2.315   0.529   3.936  1.5226  0.3007  1.0899
 5792SOL    HW228839   2.341   0.635   4.028  1.2103 -0.3595  0.0525
 5793SOL     OW28840   3.201   3.859   9.388  0.0804  0.2935 -0.5887
 5793SOL    HW128841   3.242   3.844   9.473 -0.4939  0.5386 -0.2653
 5793SOL    HW228842   3.118   3.813   9.400  1.0089 -0.8711  1.3141
 5794SOL     OW28843   4.305   1.882   7.746  0.2525 -0.5629  0.0591
 5794SOL    HW128844   4.256   1.873   7.828  0.6176  1.5075  0.5053
 5794SOL    HW228845   4.373   1.815   7.756  2.3960  1.4034 -1.2333
 5795SOL     OW28846   1.890   0.931   1.404  0.2062  0.3112 -0.0142
 5795SOL    HW128847   1.924   0.847   1.436  1.6308  0.9011 -0.0053
 5795SOL    HW228848   1.836   0.964   1.476  0.8655 -1.3334  1.2293
 5796SOL     OW28849   0.689   2.317   8.115  0.4825  0.5962 -0.8268
 5796SOL    HW128850   0.737   2.347   8.192  0.1243  2.6613 -1.3951
 5796SOL    HW228851   0.621   2.383   8.101  1.5046  1.8250  0.0239
 5797SOL     OW28852   0.418   0.718   7.060 -0.8652  0.1075  0.0244
 5797SOL    HW128853   0.392   0.738   7.149 -2.6361 -0.5099 -0.3617
 5797SOL    HW228854   0.444   0.806   7.035  0.6849  0.2693  2.2213
 5798SOL     OW28855   3.547   0.428  10.382  0.4465 -0.2560  0.2809
 5798SOL    HW128856   3.467   0.477  10.403 -0.7639 -1.6661 -1.1144
 5798SOL    HW228857   3.602   0.451  10.458 -0.5607  1.9624  0.3319
 5799SOL     OW28858   2.519   3.254   5.704 -0.0561 -0.0267  0.4858
 5799SOL    HW128859   2.488   3.304   5.629 -0.5700 -0.9904  0.0478
 5799SOL    HW228860   2.458   3.180   5.706 -0.3119  0.1577 -1.3577
 5800SOL     OW28861   1.290   2.723   5.677  0.2486  0.4831 -0.2521
 5800SOL    HW128862   1.311   2.636   5.644 -0.2080 -0.3459  1.6025
 5800SOL    HW228863   1.196   2.719   5.657  0.2635  0.3239 -0.2882
 5801SOL     OW28864   0.990   3.953   2.577 -0.1294  0.3009 -0.0858
 5801SOL    HW128865   0.958   3.898   2.648 -1.5214 -0.1396 -1.0624
 5801SOL    HW228866   0.963   3.898   2.503 -0.9781  1.9232 -0.9922
 5802SOL     OW28867   2.945   0.025   8.941  0.1101 -0.2627  0.1794
 5802SOL    HW128868   3.034   0.059   8.930 -0.8566  1.3479 -2.8018
 5802SOL    HW228869   2.902   0.109   8.925 -0.4019 -0.6217 -0.3073
 5803SOL     OW28870   0.506   1.519   3.507  0.3185  0.1482 -0.5109
 5803SOL    HW128871   0.545   1.606   3.515 -0.1493  0.4996 -2.0460
 5803SOL    HW228872   0.541   1.481   3.426 -1.7445 -2.4232 -0.1957
 5804SOL     OW28873   0.057   1.055  12.771 -0.0287 -0.2071 -0.1722
 5804SOL    HW128874   0.016   1.057  12.858 -0.6307 -2.9279 -0.4055
 5804SOL    HW228875   4.714   1.101  12.721 -1.0424  1.1152  2.4086
 5805SOL     OW28876   0.927   2.111  13.597  0.0010 -0.1550 -0.3224
 5805SOL    HW128877   0.947   2.032  13.548 -2.5143 -1.9463  1.5536
 5805SOL    HW228878   0.973   2.084  13.676 -0.4018  0.9026  0.2797
 5806SOL     OW28879   1.556   3.884  13.380  0.7085  0.1307 -0.1305
 5806SOL    HW128880   1.631   3.838  13.418  0.4950 -1.0128 -1.1039
 5806SOL    HW228881   1.524   3.924  13.462 -1.2623  0.6708 -1.1680
 5807SOL     OW28882   3.050   1.146  17.170 -0.7557  0.2063 -0.4090
 5807SOL    HW128883   3.008   1.158  17.085  1.7490 -0.1918 -1.6787
 5807SOL    HW228884   3.127   1.201  17.160 -1.2797  0.6597 -2.0043
 5808SOL     OW28885   1.790   3.828   5.947 -0.0529 -0.1407 -0.1539
 5808SOL    HW128886   1.790   3.924   5.937  0.3664 -0.0644  0.5799
 5808SOL    HW228887   1.713   3.798   5.994 -0.5764  1.6320  0.1358
 5809SOL     OW28888   2.339   1.197   0.479 -0.5444 -0.2034 -0.7289
 5809SOL    HW128889   2.426   1.172   0.448 -0.8065 -2.0735  0.0666
 5809SOL    HW228890   2.328   1.266   0.413 -2.9495 -1.5549 -1.7504
 5810SOL     OW28891   2.507   2.227  15.044 -0.2212 -0.7185 -0.1187
 5810SOL    HW128892   2.492   2.133  15.057  0.3800 -0.3575  3.1307
 5810SOL    HW228893   2.557   2.214  14.963  0.7549 -2.6385  0.7910
 5811SOL     OW28894   2.670   3.978   8.742 -0.2068  0.7722  0.3184
 5811SOL    HW128895   2.578   4.006   8.750  0.0248  1.2650  1.2924
 5811SOL    HW228896   2.669   3.924   8.821 -3.1500  0.0201 -0.2062
 5812SOL     OW28897   2.441   0.657   5.455 -0.0553 -0.4699 -0.3805
 5812SOL    HW128898   2.429   0.579   5.400 -2.3181  1.9194 -3.2204
 5812SOL    HW228899   2.381   0.634   5.526 -0.8358  2.6991 -0.0486
 5813SOL     OW28900   2.609   1.052   0.401  0.0240 -0.0911  0.2708
 5813SOL    HW128901   2.664   1.094   0.335  0.6428  0.1096  0.9101
 5813SOL    HW228902   2.670   1.052   0.475  0.7943  1.9242 -0.3818
 5814SOL     OW28903   2.005   2.890   6.657  0.0178 -0.5581 -0.2174
 5814SOL    HW128904   1.962   2.962   6.702 -0.5414 -2.1609  1.8158
 5814SOL    HW228905   2.062   2.871   6.732 -1.3462 -1.9034  0.4732
 5815SOL     OW28906   0.295   3.770   9.705  0.1650 -0.3773 -0.0807
 5815SOL    HW128907   0.303   3.729   9.619 -1.3796 -4.6810  1.8743
 5815SOL    HW228908   0.205   3.805   9.705  0.2641 -0.1263  0.3902
 5816SOL     OW28909   4.114   4.330   1.971 -0.5922 -0.4432  0.1355
 5816SOL    HW128910   4.164   4.383   2.033 -1.7127  0.5502  0.2146
 5816SOL    HW228911   4.171   4.266   1.930  0.7831  0.3965  0.7550
 5817SOL     OW28912   3.619   2.449   3.945 -0.0504  0.1183 -0.6448
 5817SOL    HW128913   3.657   2.526   3.987  3.3209 -1.1905 -1.3168
 5817SOL    HW228914   3.531   2.464   3.978  0.4255  1.1345  0.1550
 5818SOL     OW28915   2.965   3.707   9.343  0.6284  0.2172 -0.3502
 5818SOL    HW128916   2.957   3.675   9.253  0.3594  2.7230 -1.2195
 5818SOL    HW228917   2.979   3.626   9.392 -1.4224  0.2998  0.3687
 5819SOL     OW28918   3.206   1.946  12.672  0.2309  0.7391  0.0389
 5819SOL    HW128919   3.222   1.879  12.738 -1.1456  2.5801  2.2393
 5819SOL    HW228920   3.273   2.012  12.691  0.0176  1.5813 -2.1705
 5820SOL     OW28921   4.713   3.964   5.132  0.0856 -0.0623 -0.9649
 5820SOL    HW128922   4.724   3.901   5.203 -0.5340  0.2785 -0.5715
 5820SOL    HW228923   4.621   3.949   5.111 -0.2242  1.9794 -1.0659
 5821SOL     OW28924   2.336   3.032   7.628 -0.2082  0.0139 -0.1731
 5821SOL    HW128925   2.417   3.048   7.579 -1.9516  0.2782 -2.9691
 5821SOL    HW228926   2.363   2.967   7.693  2.8338 -0.3564 -1.7791
 5822SOL     OW28927   3.550   1.919   9.169  0.1776 -0.1217 -0.2138
 5822SOL    HW128928   3.612   1.917   9.096 -1.8923 -1.0262 -1.9286
 5822SOL    HW228929   3.607   1.930   9.245 -0.4927  1.0543  0.1119
 5823SOL     OW28930   1.141   2.587   2.391  0.2888  0.3611 -0.6582
 5823SOL    HW128931   1.097   2.604   2.308 -0.0127 -1.8453 -0.9571
 5823SOL    HW228932   1.192   2.511   2.364 -4.6315 -2.4392 -1.9384
 5824SOL     OW28933   1.397   2.899  11.443 -0.0950 -0.6156 -0.1247
 5824SOL    HW128934   1.424   2.948  11.521 -1.4181  0.8460 -0.5688
 5824SOL    HW228935   1.470   2.924  11.386 -2.1713  0.7522 -2.2240
 5825SOL     OW28936   3.970   4.649  10.943  0.1861  0.3863  0.1250
 5825SOL    HW128937   3.895   4.636  11.001 -1.8252  2.5274 -1.9441
 5825SOL    HW228938   3.930   4.592  10.877  2.3472  2.1916 -2.7421
 5826SOL     OW28939   2.465   2.290  13.616  0.0707 -0.1392 -0.5411
 5826SOL    HW128940   2.554   2.284  13.651  0.7932  0.3307 -2.2869
 5826SOL    HW228941   2.453   2.195  13.610  2.8626 -0.6136  1.4692
 5827SOL     OW28942   4.686   1.414   9.422  0.7507  0.1292  0.3152
 5827SOL    HW128943   4.669   1.325   9.453 -1.7157 -0.4290 -2.6565
 5827SOL    HW228944   4.721   1.460   9.499  1.0662  1.2599 -0.5044
 5828SOL     OW28945   1.398   0.194  15.817 -0.2497  0.2302  0.0476
 5828SOL    HW128946   1.486   0.232  15.809 -0.1556  0.9703  4.1982
 5828SOL    HW228947   1.349   0.260  15.866  0.8726 -1.0124  2.8698
 5829SOL     OW28948   2.917   2.454   3.909 -0.4800 -0.0200 -0.2207
 5829SOL    HW128949   2.884   2.543   3.897  0.5382  0.5145  0.9217
 5829SOL    HW228950   2.882   2.427   3.994  0.2165 -1.1004 -0.2771
 5830SOL     OW28951   3.360   4.353   0.643  0.1576  0.1016  0.5783
 5830SOL    HW128952   3.370   4.272   0.593  1.6675  0.7743 -0.2107
 5830SOL    HW228953   3.319   4.340   0.729 -0.3693  1.3988  0.5201
 5831SOL     OW28954   4.366   0.784   5.334 -0.1181 -0.2440  0.0402
 5831SOL    HW128955   4.411   0.701   5.350 -2.4362 -1.6432 -0.6954
 5831SOL    HW228956   4.402   0.788   5.245 -0.2049  0.3279  0.0344
 5832SOL     OW28957   3.702   4.167   8.014 -0.3125 -0.4702 -0.0210
 5832SOL    HW128958   3.609   4.143   8.010 -0.7317  1.3538 -1.1273
 5832SOL    HW228959   3.713   4.195   8.105  1.5363 -0.0529 -0.3805
 5833SOL     OW28960   2.645   0.030  14.681  0.1875  0.5046 -0.2022
 5833SOL    HW128961   2.629   0.124  14.681 -2.0204  0.1287 -0.7534
 5833SOL    HW228962   2.730   0.037  14.725  0.0525 -0.2513  0.1900
 5834SOL     OW28963   3.656   1.584   0.566  0.2308 -0.7312 -0.1908
 5834SOL    HW128964   3.682   1.509   0.619 -0.7856 -0.9593 -0.0196
 5834SOL    HW228965   3.718   1.648   0.602 -2.6231  0.0856  3.2518
 5835SOL     OW28966   4.294   2.718   6.739  0.3285 -0.6209 -0.5722
 5835SOL    HW128967   4.223   2.693   6.680  0.6415 -1.4508 -0.6136
 5835SOL    HW228968   4.311   2.803   6.699  2.6201 -0.3127  1.0458
 5836SOL     OW28969   2.656   4.295   7.789 -0.2104 -0.0390  0.1388
 5836SOL    HW128970   2.593   4.322   7.722 -0.0025 -1.5110 -0.6342
 5836SOL    HW228971   2.609   4.230   7.842 -0.8339 -0.4262 -0.8841
 5837SOL     OW28972   0.548   0.919  11.725  0.1280 -0.0745 -0.1782
 5837SOL    HW128973   0.639   0.932  11.751 -0.4523  1.3834  1.1532
 5837SOL    HW228974   0.560   0.828  11.700  3.2748 -0.1918  1.7134
 5838SOL     OW28975   2.637   1.503   1.564 -0.2513 -0.2669  0.1706
 5838SOL    HW128976   2.675   1.421   1.596 -3.3589 -1.5190  0.6490
 5838SOL    HW228977   2.710   1.557   1.594 -0.2146 -0.1114 -0.1926
 5839SOL     OW28978   3.436   2.336  10.935 -0.2631 -0.8082  0.2675
 5839SOL    HW128979   3.444   2.408  10.873  0.1893 -0.3172  0.8915
 5839SOL    HW228980   3.342   2.334  10.954 -0.4129  0.5891 -0.3313
 5840SOL     OW28981   4.081   3.818   6.155 -0.1419  0.2841  0.8091
 5840SOL    HW128982   4.109   3.777   6.237  1.7262  0.3437  0.2019
 5840SOL    HW228983   4.117   3.766   6.083 -2.4794 -0.4758  0.2160
 5841SOL     OW28984   3.852   3.151   6.563  0.3633 -0.1710 -0.4784
 5841SOL    HW128985   3.799   3.148   6.642  0.6080  1.8809 -0.2383
 5841SOL    HW228986   3.919   3.210   6.598  0.3401  0.9707 -2.3563
 5842SOL     OW28987   1.201   3.371   8.199 -0.4257  0.7988  0.1698
 5842SOL    HW128988   1.147   3.292   8.189  0.2707  0.0627  2.0693
 5842SOL    HW228989   1.272   3.335   8.253 -0.1149  0.5321 -0.4110
 5843SOL     OW28990   3.184   3.624  16.286 -0.5458 -0.1434  0.2840
 5843SOL    HW128991   3.243   3.633  16.210 -0.4820  1.9451  0.5774
 5843SOL    HW228992   3.245   3.658  16.351  2.1652 -1.6732 -1.4669
 5844SOL     OW28993   2.985   4.646   7.075  0.1753 -0.3019  0.0822
 5844SOL    HW128994   3.023   4.560   7.059 -1.6772 -1.1662  0.3222
 5844SOL    HW228995   3.037   4.717   7.037  2.5529 -0.6065  2.7214
 5845SOL     OW28996   0.073   0.445  11.555 -0.1014 -0.0510  0.1539
 5845SOL    HW128997   0.114   0.489  11.481  0.3682 -0.5229  0.1379
 5845SOL    HW228998   0.148   0.398  11.590 -0.6558  0.5975  2.1967
 5846SOL     OW28999   4.362   2.397   9.403  1.0662 -0.2389  0.6706
 5846SOL    HW129000   4.407   2.429   9.481  1.2239 -1.5965  1.1392
 5846SOL    HW229001   4.275   2.381   9.441  0.7648  0.6285  0.3333
 5847SOL     OW29002   0.846   1.590   2.822 -0.3192  0.0620  0.4421
 5847SOL    HW129003   0.872   1.575   2.731  1.9099  0.0257  1.0886
 5847SOL    HW229004   0.913   1.534   2.862 -0.0456  0.0711  0.0006
 5848SOL     OW29005   1.097   1.527   8.320 -0.0003 -0.2483  0.2110
 5848SOL    HW129006   1.147   1.607   8.301 -1.1926  1.0263  2.3559
 5848SOL    HW229007   1.132   1.499   8.405 -2.3677 -0.5387  1.0877
 5849SOL     OW29008   0.006   0.460   8.323 -0.1732  0.6282 -0.1934
 5849SOL    HW129009   4.717   0.373   8.286  0.6346  1.4525 -2.4523
 5849SOL    HW229010   4.658   0.508   8.287 -1.7173 -1.8895 -0.4188
 5850SOL     OW29011   3.833   2.791   5.775 -0.4314  0.4981  0.2246
 5850SOL    HW129012   3.765   2.850   5.744  0.5531  0.8701 -1.2381
 5850SOL    HW229013   3.801   2.703   5.754  1.8221 -0.4065  0.4948
 5851SOL     OW29014   0.819   2.376   2.761  0.3996  0.0883 -0.0162
 5851SOL    HW129015   0.844   2.375   2.669  0.7266 -1.1638  0.0761
 5851SOL    HW229016   0.859   2.293   2.789  0.5540  0.2745  0.3188
 5852SOL     OW29017   1.150   1.014   7.538 -0.5998 -0.8963 -0.0220
 5852SOL    HW129018   1.235   1.048   7.510  0.4864 -3.0744  0.6302
 5852SOL    HW229019   1.171   0.921   7.532 -2.5066 -1.4394  1.5308
 5853SOL     OW29020   0.645   2.335   8.884  0.5992  0.8021  0.1432
 5853SOL    HW129021   0.554   2.356   8.905  0.0484 -0.6325 -0.7836
 5853SOL    HW229022   0.691   2.343   8.968  2.3569 -1.2227 -0.6294
 5854SOL     OW29023   0.919   3.178  16.493 -0.3525 -0.0581  0.5776
 5854SOL    HW129024   0.859   3.149  16.560  0.9515 -3.7716  0.1123
 5854SOL    HW229025   0.986   3.109  16.495 -0.7810 -0.4805  0.2411
 5855SOL     OW29026   1.684   2.320  15.044 -0.2575  0.5780  0.2052
 5855SOL    HW129027   1.741   2.244  15.030 -0.9032  0.1897 -0.3198
 5855SOL    HW229028   1.596   2.282  15.043  2.2059 -5.0186 -2.5674
 5856SOL     OW29029   3.394   1.083   4.758  0.2902 -0.1696  0.6989
 5856SOL    HW129030   3.484   1.051   4.763  0.0639 -0.8028  0.6307
 5856SOL    HW229031   3.346   1.002   4.772 -0.8276  0.5791  1.2626
 5857SOL     OW29032   0.046   2.099   2.028 -0.4274  0.2403 -0.1822
 5857SOL    HW129033   0.079   2.018   2.067  0.1191 -1.4396 -4.1537
 5857SOL    HW229034   0.030   2.151   2.107  0.9885  0.8094 -0.2756
 5858SOL     OW29035   4.650   1.315   7.850 -0.1350 -0.7163  0.6976
 5858SOL    HW129036   4.680   1.232   7.815 -0.4205 -0.7541  0.5404
 5858SOL    HW229037   4.662   1.362   7.768  0.1579 -0.0816  1.1025
 5859SOL     OW29038   1.673   0.596  14.394 -0.5953  0.5686  0.0346
 5859SOL    HW129039   1.685   0.566  14.484 -0.7239  0.4893  0.0266
 5859SOL    HW229040   1.579   0.576  14.396 -0.1911 -1.5562 -1.8125
 5860SOL     OW29041   2.279   0.864   6.440 -0.0079  0.3226 -0.3537
 5860SOL    HW129042   2.240   0.900   6.520  1.1144 -1.1101  0.8379
 5860SOL    HW229043   2.357   0.919   6.448 -0.3222  0.9191 -1.3454
 5861SOL     OW29044   1.718   2.476  12.950  0.1222  0.2337 -0.3909
 5861SOL    HW129045   1.792   2.442  13.001 -1.4026 -0.9882  0.9963
 5861SOL    HW229046   1.746   2.567  12.940  0.6918  0.3456  2.1075
 5862SOL     OW29047   1.073   1.316   7.683  0.3576 -0.2547  0.3268
 5862SOL    HW129048   1.025   1.265   7.618  0.6451  1.4669 -1.2449
 5862SOL    HW229049   1.040   1.404   7.666  0.9326  0.0412  0.7583
 5863SOL     OW29050   4.184   0.846  14.517  0.3208  0.7002 -0.3969
 5863SOL    HW129051   4.108   0.787  14.522  1.6390 -0.8493  1.4421
 5863SOL    HW229052   4.262   0.791  14.511  1.7508  2.5907  0.7542
 5864SOL     OW29053   1.731   1.599  11.655 -0.2914 -0.7209  0.0900
 5864SOL    HW129054   1.822   1.569  11.654  0.3526  1.2254 -0.2416
 5864SOL    HW229055   1.711   1.580  11.747 -1.1409 -1.2451 -0.2046
 5865SOL     OW29056   4.247   4.071   8.319  0.4444  0.8814 -0.4306
 5865SOL    HW129057   4.314   4.064   8.386 -0.9481  0.0829  0.8768
 5865SOL    HW229058   4.175   4.105   8.372  0.6132 -1.7132  1.4177
 5866SOL     OW29059   0.702   4.192   3.249 -0.6766  0.2756  0.2092
 5866SOL    HW129060   0.733   4.131   3.182 -1.4255 -1.2258  1.2201
 5866SOL    HW229061   0.782   4.203   3.301  0.0769 -1.7034 -0.5380
 5867SOL     OW29062   1.107   1.748  17.036  0.4072  0.4354 -0.6594
 5867SOL    HW129063   1.031   1.801  17.010 -1.4743 -0.5226  2.9136
 5867SOL    HW229064   1.143   1.805  17.103 -1.4027 -0.1897  0.8439
 5868SOL     OW29065   3.827   3.501   8.503  0.4905 -0.3184 -0.2599
 5868SOL    HW129066   3.877   3.579   8.478 -2.0749  1.5085  0.2269
 5868SOL    HW229067   3.818   3.497   8.598  0.1035 -0.3004 -0.2942
 5869SOL     OW29068   4.438   2.673   4.487  0.0547  0.6007  0.1280
 5869SOL    HW129069   4.521   2.643   4.525 -0.1690 -0.0240  0.1256
 5869SOL    HW229070   4.405   2.725   4.561  0.7385  0.9284  0.2022
 5870SOL     OW29071   0.201   2.104   2.446  0.0279  0.3112  0.1059
 5870SOL    HW129072   0.221   2.143   2.532 -0.7475 -1.7411  1.2134
 5870SOL    HW229073   0.242   2.166   2.386 -1.9094 -0.6967 -2.2077
 5871SOL     OW29074   1.204   4.048  13.590 -0.0280 -0.1112  0.3118
 5871SOL    HW129075   1.167   4.136  13.587 -1.9885 -0.9883 -0.5171
 5871SOL    HW229076   1.297   4.071  13.587  0.0487 -1.3323 -5.3359
 5872SOL     OW29077   3.746   2.771   3.728 -0.1006 -0.3750  0.3628
 5872SOL    HW129078   3.839   2.753   3.740 -0.1991 -1.0738  0.0877
 5872SOL    HW229079   3.735   2.716   3.650 -0.1900 -1.7678  1.3785
 5873SOL     OW29080   4.105   3.347   0.786  0.6432 -0.0069 -0.4901
 5873SOL    HW129081   4.083   3.277   0.725  2.2389 -1.2260  0.3281
 5873SOL    HW229082   4.133   3.416   0.726 -1.8016 -0.3523 -2.0185
 5874SOL     OW29083   0.855   1.425  16.598  0.3531 -0.4671 -0.0470
 5874SOL    HW129084   0.859   1.500  16.540 -1.5464  0.8273  1.4955
 5874SOL    HW229085   0.863   1.349  16.540 -0.1999  1.3605 -2.5245
 5875SOL     OW29086   4.211   2.658   1.306  0.0659 -0.4133  0.2372
 5875SOL    HW129087   4.248   2.582   1.261 -0.4241 -0.3042 -0.3582
 5875SOL    HW229088   4.120   2.628   1.306 -0.3280  0.7658 -1.9342
 5876SOL     OW29089   1.328   2.970   5.362 -0.0117 -0.2880  0.8747
 5876SOL    HW129090   1.273   2.975   5.440 -0.2403  2.3200  0.5293
 5876SOL    HW229091   1.264   2.933   5.301  0.2128 -0.7721  0.9267
 5877SOL     OW29092   1.991   2.540  17.327 -0.1658 -0.1048 -0.0592
 5877SOL    HW129093   2.002   2.635  17.319 -0.3537 -0.3483 -3.1054
 5877SOL    HW229094   1.982   2.522  17.420  0.6856  0.1957  0.0759
 5878SOL     OW29095   1.082   0.280  14.435 -0.3480  0.0966  0.1044
 5878SOL    HW129096   1.106   0.193  14.466 -2.9033 -0.2980  1.0353
 5878SOL    HW229097   1.002   0.298  14.486 -1.1575  1.2127 -1.5711
 5879SOL     OW29098   4.455   2.805   5.534  0.1555 -0.9223 -0.3145
 5879SOL    HW129099   4.380   2.747   5.526  0.2178 -1.0384 -0.0586
 5879SOL    HW229100   4.460   2.842   5.446  1.2652 -0.1144  0.0873
 5880SOL     OW29101   3.292   4.201   4.842  0.0122  0.4048  0.2259
 5880SOL    HW129102   3.334   4.156   4.769  0.3253  0.4254  0.3923
 5880SOL    HW229103   3.316   4.293   4.827  2.3129 -0.3882 -0.8939
 5881SOL     OW29104   2.849   4.226   8.441  0.0923  0.4481  0.5466
 5881SOL    HW129105   2.919   4.258   8.384 -1.5631 -0.0752 -1.7925
 5881SOL    HW229106   2.852   4.286   8.515 -0.0994  1.3394 -0.1591
 5882SOL     OW29107   0.958   1.490   6.729 -0.0134 -0.3752  0.3511
 5882SOL    HW129108   0.879   1.441   6.752 -0.3535 -0.4245 -0.9327
 5882SOL    HW229109   0.918   1.576   6.721  2.7444  0.8601 -0.2525
 5883SOL     OW29110   1.101   1.858   5.772  0.4816  0.4487 -0.0431
 5883SOL    HW129111   1.028   1.804   5.741  0.8702 -0.3510  0.4221
 5883SOL    HW229112   1.059   1.942   5.758  0.2595 -0.0912 -2.6388
 5884SOL     OW29113   1.134   1.802   6.527  0.2493  0.4928 -0.1139
 5884SOL    HW129114   1.167   1.751   6.602 -2.0546  1.5477  1.6124
 5884SOL    HW229115   1.147   1.890   6.562 -1.9947  1.2387 -1.1807
 5885SOL     OW29116   4.322   2.067   9.657 -0.1576  0.1726  0.2992
 5885SOL    HW129117   4.381   1.992   9.658 -0.4485 -0.0509  2.0620
 5885SOL    HW229118   4.372   2.110   9.726  0.0060  0.2439  0.1353
 5886SOL     OW29119   0.379   1.553   1.536 -0.6396  0.1063  0.3540
 5886SOL    HW129120   0.339   1.516   1.457  0.7982  0.9559 -0.7697
 5886SOL    HW229121   0.353   1.481   1.593  0.4198 -0.3253  0.2837
 5887SOL     OW29122   0.453   4.287   8.366 -0.0311  0.0718  0.1805
 5887SOL    HW129123   0.404   4.299   8.285  0.0410 -1.6923 -0.1202
 5887SOL    HW229124   0.523   4.353   8.367  0.2215 -0.2652  4.4772
 5888SOL     OW29125   4.011   1.511  11.081 -0.0672 -0.7937 -0.3555
 5888SOL    HW129126   3.929   1.510  11.130 -1.1949 -0.0394 -2.2296
 5888SOL    HW229127   3.985   1.575  11.015 -1.1890 -0.1630  0.7009
 5889SOL     OW29128   1.216   2.051  10.589  0.5935 -0.2855  0.4376
 5889SOL    HW129129   1.304   2.056  10.627  1.3003 -0.1427 -1.2216
 5889SOL    HW229130   1.237   2.018  10.502 -1.5374 -1.1358  0.2478
 5890SOL     OW29131   1.336   1.190   0.510 -0.3404 -0.2212 -0.5065
 5890SOL    HW129132   1.426   1.217   0.496  0.2756 -1.8341  0.3268
 5890SOL    HW229133   1.300   1.193   0.422 -1.3325 -2.1408 -0.1690
 5891SOL     OW29134   2.658   2.219  14.807  0.2044  0.4927  0.0743
 5891SOL    HW129135   2.751   2.195  14.808  0.2122  0.5636  1.6691
 5891SOL    HW229136   2.651   2.303  14.761 -0.3236  0.2261 -0.3316
 5892SOL     OW29137   0.318   0.969  15.955  0.2348 -0.2202 -0.0633
 5892SOL    HW129138   0.402   0.961  15.910  0.9430 -0.1241  1.2237
 5892SOL    HW229139   0.258   0.945  15.885 -3.2084  0.1046  2.7539
 5893SOL     OW29140   0.346   2.018   8.707 -0.9279 -0.1281 -0.4890
 5893SOL    HW129141   0.265   2.019   8.759 -1.4764  0.2783 -1.3536
 5893SOL    HW229142   0.309   1.975   8.630  0.2256 -0.0160 -1.1103
 5894SOL     OW29143   1.076   4.186   7.139 -0.0657 -0.2856 -0.2841
 5894SOL    HW129144   1.047   4.182   7.230  1.4136  1.8467  0.2838
 5894SOL    HW229145   1.164   4.220   7.155  0.1553 -0.6515 -0.7251
 5895SOL     OW29146   4.258   2.962   6.996 -0.1862  0.1535 -0.5003
 5895SOL    HW129147   4.318   2.960   6.921 -0.9096  1.1659 -1.1026
 5895SOL    HW229148   4.202   3.036   6.975  0.9371  1.3195  0.5738
 5896SOL     OW29149   0.865   2.579   6.955 -0.1502  0.0390  0.0848
 5896SOL    HW129150   0.821   2.543   7.032 -0.3510 -0.3232 -0.1990
 5896SOL    HW229151   0.929   2.510   6.940  1.8241  1.6243  1.2437
 5897SOL     OW29152   4.187   4.641   7.149  0.0660 -0.6970 -0.1045
 5897SOL    HW129153   4.160   4.558   7.109 -0.2395 -1.5880  1.9431
 5897SOL    HW229154   4.143   4.648   7.234  1.1186 -1.0271  0.4649
 5898SOL     OW29155   0.221   3.723   6.007  0.4901  0.0075  0.0007
 5898SOL    HW129156   0.250   3.633   5.992 -0.9206 -0.6049  0.9224
 5898SOL    HW229157   0.132   3.712   6.039  0.2940 -0.6208 -0.7698
 5899SOL     OW29158   0.686   1.546  11.331 -0.0346 -0.5378  0.1034
 5899SOL    HW129159   0.757   1.562  11.269 -0.1473 -1.6417 -0.3227
 5899SOL    HW229160   0.731   1.489  11.394 -0.6558  1.3314  2.2173
 5900SOL     OW29161   4.670   3.587   7.426  0.4022  0.1293  0.8917
 5900SOL    HW129162   4.719   3.514   7.463 -0.9548 -0.5330  1.3859
 5900SOL    HW229163   4.709   3.574   7.339  1.8450 -0.8640  1.7082
 5901SOL     OW29164   4.460   4.044   3.863 -0.1956 -0.2372 -0.1874
 5901SOL    HW129165   4.504   4.087   3.791 -1.6259 -0.9858 -1.5183
 5901SOL    HW229166   4.521   4.062   3.935  0.5577 -1.2002 -0.5971
 5902SOL     OW29167   0.961   0.915   6.783 -0.1267  0.5619 -0.7434
 5902SOL    HW129168   0.927   0.955   6.704  0.7217 -0.5407 -1.6649
 5902SOL    HW229169   1.054   0.940   6.783 -0.3339  1.3187 -0.9607
 5903SOL     OW29170   0.016   2.152  14.581  0.0771  0.0802 -0.3250
 5903SOL    HW129171   4.700   2.236  14.598  1.1407  0.5372  0.0421
 5903SOL    HW229172   0.068   2.171  14.503  0.1120 -0.5285 -0.4552
 5904SOL     OW29173   4.566   0.869   5.808  0.1280  0.4427  0.2685
 5904SOL    HW129174   4.630   0.908   5.749 -0.2948  1.9359  0.7769
 5904SOL    HW229175   4.488   0.880   5.754  1.3996 -0.1830 -1.6516
 5905SOL     OW29176   2.862   1.454  17.178 -0.3623 -0.5195  0.2912
 5905SOL    HW129177   2.852   1.360  17.196 -2.3042 -0.3809 -0.0218
 5905SOL    HW229178   2.912   1.456  17.097 -0.4344  2.1514  0.3286
 5906SOL     OW29179   1.502   4.685   8.497  0.3144  0.4401 -0.3041
 5906SOL    HW129180   1.445   4.674   8.573  1.1828  0.8723  0.4031
 5906SOL    HW229181   1.548   0.039   8.524 -1.7618  0.6177  2.7669
 5907SOL     OW29182   4.271   1.162   9.026 -0.1908 -0.1884 -0.2250
 5907SOL    HW129183   4.332   1.210   8.970 -0.9894 -2.0718 -2.7245
 5907SOL    HW229184   4.193   1.146   8.972 -0.1728 -2.8363  0.5250
 5908SOL     OW29185   2.728   0.345   5.693 -0.0255  0.0977  0.1927
 5908SOL    HW129186   2.785   0.355   5.617 -1.4751  1.0039 -0.7585
 5908SOL    HW229187   2.640   0.366   5.662  0.2454 -2.2768 -2.1633
 5909SOL     OW29188   3.717   1.481   6.884  0.2019  0.2244  0.2833
 5909SOL    HW129189   3.770   1.552   6.847 -0.6596  1.5028  1.5045
 5909SOL    HW229190   3.775   1.447   6.952 -0.4182 -3.1185 -0.8913
 5910SOL     OW29191   1.096   1.366  10.581 -0.2197 -0.5782 -0.2055
 5910SOL    HW129192   1.191   1.376  10.584 -0.2306 -0.2681 -0.9913
 5910SOL    HW229193   1.075   1.385  10.490 -0.5553 -2.6956 -0.5721
 5911SOL     OW29194   3.519   2.305   8.641 -0.2585  0.1251 -0.4955
 5911SOL    HW129195   3.436   2.286   8.685 -0.3785  0.6835 -0.4807
 5911SOL    HW229196   3.584   2.321   8.709 -0.5682  1.1982 -0.4588
 5912SOL     OW29197   4.564   2.302   4.348  0.2307  0.9947  0.7165
 5912SOL    HW129198   4.495   2.362   4.320 -1.1955 -1.1696 -0.3837
 5912SOL    HW229199   4.529   2.279   4.434  0.6911  0.5998  0.7996
 5913SOL     OW29200   2.416   1.491   2.059  0.3526  0.2137 -0.9478
 5913SOL    HW129201   2.434   1.477   2.152 -0.4464 -0.3338 -0.8732
 5913SOL    HW229202   2.503   1.474   2.024  0.5042 -2.6985  0.8454
 5914SOL     OW29203   2.052   4.219  15.766  0.6005  0.2271 -0.0088
 5914SOL    HW129204   2.135   4.176  15.747  0.1016 -0.5627 -0.4217
 5914SOL    HW229205   1.988   4.147  15.758  0.0922  0.8696 -1.6688
 5915SOL     OW29206   1.850   1.431   4.198  0.3712  0.1770  0.5576
 5915SOL    HW129207   1.839   1.439   4.103  1.3052 -3.1396  0.1693
 5915SOL    HW229208   1.796   1.360   4.232  1.3122 -1.5560 -1.5086
 5916SOL     OW29209   2.471   1.968  15.077  0.0713  0.2289 -0.3842
 5916SOL    HW129210   2.445   1.897  15.136  0.2532 -0.5163 -1.1989
 5916SOL    HW229211   2.447   1.927  14.994  1.2138  1.3060 -1.2487
 5917SOL     OW29212   4.017   3.264   4.983 -0.4260  0.2484  0.2534
 5917SOL    HW129213   4.044   3.251   5.074  0.1975 -0.4478 -0.0324
 5917SOL    HW229214   3.947   3.328   4.997 -2.3199 -1.6126 -0.8557
 5918SOL     OW29215   3.688   2.588  14.736 -0.4285 -0.2515  0.3272
 5918SOL    HW129216   3.624   2.660  14.741  0.2097  0.5673 -3.1301
 5918SOL    HW229217   3.755   2.617  14.799 -1.5627 -0.4643  1.6296
 5919SOL     OW29218   3.060   0.148  13.659 -0.0799 -0.5065 -0.2711
 5919SOL    HW129219   3.053   0.063  13.703  0.2922 -1.0831 -1.3358
 5919SOL    HW229220   3.135   0.193  13.699  0.1434  0.9164 -2.3147
 5920SOL     OW29221   3.075   0.453   6.525  0.3323 -0.0772 -0.2789
 5920SOL    HW129222   3.151   0.447   6.467 -0.4392 -0.6038 -1.2341
 5920SOL    HW229223   3.112   0.491   6.605  1.2409 -1.8237  0.1459
 5921SOL     OW29224   0.853   1.604   4.010 -0.2222  0.2436 -0.0901
 5921SOL    HW129225   0.872   1.634   4.100 -3.8494  1.5650  0.2299
 5921SOL    HW229226   0.921   1.537   4.007  0.2951  0.8189 -1.1361
 5922SOL     OW29227   0.698   0.995   6.878  0.6151  0.1418  0.2129
 5922SOL    HW129228   0.783   0.951   6.878  1.4461  1.7035  1.6927
 5922SOL    HW229229   0.693   1.013   6.784  1.1338 -1.0224 -0.0343
 5923SOL     OW29230   3.394   3.972  13.539  0.0914  0.1751  0.1145
 5923SOL    HW129231   3.459   4.031  13.577 -0.7315  0.0711  1.6881
 5923SOL    HW229232   3.435   3.886  13.544 -0.0979 -0.0404 -2.0060
 5924SOL     OW29233   0.548   1.337   4.142  0.3533  0.1623  0.3363
 5924SOL    HW129234   0.583   1.324   4.054 -1.0405  0.0952 -0.2189
 5924SOL    HW229235   0.539   1.432   4.148 -0.2691  0.1673 -0.5120
 5925SOL     OW29236   1.284   4.072   1.365  0.9271  0.3291  0.2437
 5925SOL    HW129237   1.377   4.056   1.349  1.0128  3.1886 -2.0899
 5925SOL    HW229238   1.271   4.164   1.342 -2.7068 -0.2943 -0.2468
 5926SOL     OW29239   1.922   4.481   9.344 -0.3457  0.1840  0.1771
 5926SOL    HW129240   1.963   4.545   9.403  1.4396 -0.2818 -0.5463
 5926SOL    HW229241   1.843   4.466   9.396 -0.7077  0.3420 -0.3320
 5927SOL     OW29242   4.494   3.708   4.089  0.0820 -0.4315 -0.2898
 5927SOL    HW129243   4.534   3.680   4.006  0.1211 -1.6438  0.1392
 5927SOL    HW229244   4.401   3.707   4.065 -0.2933  0.7533  1.1642
 5928SOL     OW29245   2.580   3.717  10.860  0.1400  0.5562  0.3440
 5928SOL    HW129246   2.592   3.625  10.837  1.3900  0.2185  2.3165
 5928SOL    HW229247   2.583   3.750  10.770 -0.8344  0.4933  0.2892
 5929SOL     OW29248   1.944   1.168   0.018 -0.3969 -0.3671  0.0197
 5929SOL    HW129249   2.022   1.151  17.668  0.3483 -1.9408  1.6739
 5929SOL    HW229250   1.921   1.084   0.056 -3.3849  0.5239  0.1849
 5930SOL     OW29251   2.715   2.888  12.425 -0.3731 -0.4675 -0.1911
 5930SOL    HW129252   2.802   2.849  12.431  0.5488  1.6672  0.3964
 5930SOL    HW229253   2.711   2.926  12.337 -2.2391 -1.5513 -0.5749
 5931SOL     OW29254   4.154   0.946   1.546 -0.0219  0.3646  0.1629
 5931SOL    HW129255   4.167   0.902   1.462 -0.3033  0.5905  0.0016
 5931SOL    HW229256   4.212   0.896   1.603 -0.8296 -0.0707  0.5945
 5932SOL     OW29257   2.768   0.159  11.559 -0.4715 -0.3636  0.7494
 5932SOL    HW129258   2.694   0.172  11.499  0.7745  0.1637 -0.6842
 5932SOL    HW229259   2.779   0.245  11.600 -2.1841 -0.1921  0.8589
 5933SOL     OW29260   3.847   4.501   9.653  0.6847 -0.1865  0.3468
 5933SOL    HW129261   3.862   4.563   9.582  0.9588  1.0256  1.4665
 5933SOL    HW229262   3.802   4.427   9.614 -0.2358  0.1773  0.7187
 5934SOL     OW29263   0.276   1.530   6.096 -0.0039 -0.2387 -0.4192
 5934SOL    HW129264   0.250   1.604   6.151  1.5607  0.9790 -1.3275
 5934SOL    HW229265   0.245   1.458   6.151 -1.0611  0.9714  0.5363
 5935SOL     OW29266   3.583   0.615   8.876 -0.4164 -1.0763 -0.0055
 5935SOL    HW129267   3.652   0.636   8.940 -0.9252 -0.3805  0.3267
 5935SOL    HW229268   3.513   0.677   8.899 -0.8682 -1.0450 -1.4456
 5936SOL     OW29269   2.257   3.018   4.920  0.0648 -0.6448 -0.1559
 5936SOL    HW129270   2.243   3.113   4.914  0.1886 -0.4719  2.1325
 5936SOL    HW229271   2.169   2.986   4.940 -1.3306  2.8082 -0.6943
 5937SOL     OW29272   4.550   2.116   3.463  0.1963 -0.0101  0.6974
 5937SOL    HW129273   4.496   2.128   3.542 -0.1278 -0.6249  0.5683
 5937SOL    HW229274   4.566   2.208   3.442 -2.1376 -0.0525 -1.2918
 5938SOL     OW29275   2.510   0.122  14.235 -0.0506  0.2870  0.3055
 5938SOL    HW129276   2.582   0.135  14.296  0.6332 -0.4935 -0.3463
 5938SOL    HW229277   2.532   0.037  14.199  1.5783  0.9841 -0.3325
 5939SOL     OW29278   1.746   1.617   2.171 -0.3045  0.0690  0.0209
 5939SOL    HW129279   1.685   1.650   2.237  0.2340  1.5103 -0.1856
 5939SOL    HW229280   1.812   1.687   2.164 -0.8221  0.7464  2.0895
 5940SOL     OW29281   3.885   0.382   4.632  0.1939 -0.1237  0.5543
 5940SOL    HW129282   3.940   0.426   4.568 -0.6058 -0.1704 -0.1585
 5940SOL    HW229283   3.889   0.290   4.603 -0.8808  0.2106 -0.6598
 5941SOL     OW29284   2.292   2.834   2.127  0.1743  0.1844 -0.2324
 5941SOL    HW129285   2.244   2.904   2.081  0.4729 -0.6260 -1.7611
 5941SOL    HW229286   2.326   2.775   2.060  0.5098 -0.6727  0.6882
 5942SOL     OW29287   0.056   4.166   9.797  0.5938 -0.3717 -0.0106
 5942SOL    HW129288   0.130   4.168   9.736 -0.0416  2.9877 -0.6664
 5942SOL    HW229289   0.075   4.083   9.841  0.7488 -1.2482 -1.7438
 5943SOL     OW29290   0.271   4.616   4.258 -0.0562  0.5629  0.3180
 5943SOL    HW129291   0.291   4.709   4.269 -1.0297  0.7841  0.2618
 5943SOL    HW229292   0.192   4.608   4.204  0.0939 -0.8120  0.3192
 5944SOL     OW29293   1.030   4.543   5.354  0.5527  0.2664  0.0097
 5944SOL    HW129294   1.102   4.549   5.417 -0.4061  1.4890  0.9863
 5944SOL    HW229295   1.062   4.480   5.290 -0.4165 -1.4492  1.2265
 5945SOL     OW29296   2.849   0.992  13.457 -0.4069  0.3486  0.5318
 5945SOL    HW129297   2.859   0.900  13.435  0.6757  0.0085  2.4570
 5945SOL    HW229298   2.787   0.981  13.529  0.6705 -1.0277  1.2572
 5946SOL     OW29299   2.499   1.260  17.010 -0.1696 -0.1593  0.3772
 5946SOL    HW129300   2.557   1.237  16.938 -0.9684 -0.7700 -0.0606
 5946SOL    HW229301   2.520   1.354  17.010 -3.7048  0.6229  1.2840
 5947SOL     OW29302   2.756   1.248  12.476  0.3452  0.2779 -0.0643
 5947SOL    HW129303   2.815   1.182  12.513  1.7117  2.3114  1.3381
 5947SOL    HW229304   2.804   1.306  12.417  2.8788 -1.3307  0.4170
 5948SOL     OW29305   0.341   2.687   4.965  0.1991  0.0422  0.6952
 5948SOL    HW129306   0.248   2.672   4.981 -0.1672 -1.3366 -2.6569
 5948SOL    HW229307   0.380   2.602   4.944 -2.2732 -1.2261  1.2023
 5949SOL     OW29308   3.677   3.444   5.873  0.5440  0.0583  0.0544
 5949SOL    HW129309   3.592   3.407   5.849  0.7339  0.0385 -0.6047
 5949SOL    HW229310   3.658   3.529   5.912  2.7739  0.3066  0.6252
 5950SOL     OW29311   1.514   4.051   6.840 -0.1390 -0.4722  0.3858
 5950SOL    HW129312   1.423   4.058   6.810  0.1329 -1.1673 -0.6237
 5950SOL    HW229313   1.557   4.109   6.777  1.2479  1.2710  2.9641
 5951SOL     OW29314   0.047   3.771   5.311 -0.0685 -0.1799  0.0655
 5951SOL    HW129315   4.696   3.717   5.331 -0.2350  0.2643  0.6411
 5951SOL    HW229316   0.076   3.794   5.400 -2.1538  0.9227  0.4730
 5952SOL     OW29317   1.767   0.072  12.127  0.0930 -0.1384 -0.0970
 5952SOL    HW129318   1.742   0.121  12.049  2.5365 -0.4184 -1.0486
 5952SOL    HW229319   1.708   4.722  12.132 -0.5410  0.4447  1.1838
 5953SOL     OW29320   1.091   0.315  12.207  0.4454 -0.1097  0.2214
 5953SOL    HW129321   1.170   0.368  12.195 -0.1879  0.4918 -1.2531
 5953SOL    HW229322   1.132   0.242  12.254  1.7064 -0.1670 -0.9691
 5954SOL     OW29323   4.181   3.067   8.287  0.3645  0.4488 -0.4460
 5954SOL    HW129324   4.166   3.065   8.192 -0.5693 -1.9825 -0.2540
 5954SOL    HW229325   4.197   3.161   8.289 -1.2799  0.7207 -0.0344
 5955SOL     OW29326   0.024   0.511   2.587 -0.0413  0.8924  0.5263
 5955SOL    HW129327   4.676   0.459   2.555  1.6039 -1.0407 -0.0894
 5955SOL    HW229328   0.094   0.465   2.541 -1.0857 -0.7018  0.5354
 5956SOL     OW29329   1.938   2.080   8.389  0.6629  0.1992  0.4500
 5956SOL    HW129330   2.007   2.013   8.390 -1.3256 -1.8815 -1.4735
 5956SOL    HW229331   1.963   2.125   8.309  3.2995 -1.0144  0.5669
 5957SOL     OW29332   0.793   0.301  10.843 -0.0672 -0.2922 -0.3694
 5957SOL    HW129333   0.712   0.351  10.858  0.0013  0.1234 -1.3723
 5957SOL    HW229334   0.766   0.259  10.761 -0.9945 -1.6082  0.6229
 5958SOL     OW29335   0.239   0.925  13.070  0.1641  0.3058  0.3977
 5958SOL    HW129336   0.262   1.017  13.074 -1.8391  0.9263 -1.9434
 5958SOL    HW229337   0.314   0.890  13.022 -1.3203 -3.1693  0.6172
 5959SOL     OW29338   4.714   2.780   4.372 -0.4247  0.7929  0.8628
 5959SOL    HW129339   0.055   2.836   4.331 -1.9666  0.2672 -2.3614
 5959SOL    HW229340   4.638   2.803   4.318  0.7893 -0.2383 -1.2886
 5960SOL     OW29341   0.279   1.965   5.097  0.4888  0.6633  0.1213
 5960SOL    HW129342   0.253   2.027   5.165  0.8849  1.2064 -0.2225
 5960SOL    HW229343   0.342   2.017   5.047  0.4442  2.4606  1.9414
 5961SOL     OW29344   2.729   4.145   7.277  0.4887 -0.2533 -0.3994
 5961SOL    HW129345   2.738   4.118   7.368  0.6873  0.6583 -0.1469
 5961SOL    HW229346   2.635   4.161   7.272  0.6119  1.2515  2.2349
 5962SOL     OW29347   1.990   1.402   8.806  0.2136 -0.2945 -0.3071
 5962SOL    HW129348   2.004   1.342   8.879 -1.8215  0.2562  0.5332
 5962SOL    HW229349   1.912   1.453   8.827  0.6841 -0.1234  1.0811
 5963SOL     OW29350   3.247   3.005   6.286 -0.1577  0.2501 -0.5861
 5963SOL    HW129351   3.161   3.031   6.251 -0.4532 -1.2924 -1.0083
 5963SOL    HW229352   3.299   3.082   6.263  0.6174 -0.4741 -1.2204
 5964SOL     OW29353   1.780   2.642   8.293 -0.4054  0.3263 -0.2736
 5964SOL    HW129354   1.765   2.708   8.226 -0.7239  1.9976  1.4383
 5964SOL    HW229355   1.699   2.595   8.275 -0.4436  0.5290 -0.6332
 5965SOL     OW29356   3.642   2.404   8.874  0.2912 -0.3130  0.0332
 5965SOL    HW129357   3.736   2.421   8.886  0.1784  0.4198 -0.0965
 5965SOL    HW229358   3.605   2.491   8.889 -1.5101 -0.8490 -1.3684
 5966SOL     OW29359   4.382   3.188   7.135 -0.0576 -0.4942  0.9357
 5966SOL    HW129360   4.369   3.114   7.076  1.3940 -1.0225  1.2854
 5966SOL    HW229361   4.297   3.232   7.130  0.5048  0.4604 -0.3160
 5967SOL     OW29362   2.918   2.859   3.331 -0.4598 -0.0394 -0.3370
 5967SOL    HW129363   2.843   2.917   3.316 -1.5718 -1.7581 -1.4987
 5967SOL    HW229364   2.992   2.915   3.308 -1.6368  1.2984 -0.8806
 5968SOL     OW29365   2.908   1.784  10.289  0.3896  0.3132  0.1381
 5968SOL    HW129366   2.818   1.816  10.282  0.0630 -0.4700  0.8197
 5968SOL    HW229367   2.894   1.699  10.329 -1.1958 -0.1018 -1.2963
 5969SOL     OW29368   3.159   1.575   3.527  0.3920 -0.1487  0.1329
 5969SOL    HW129369   3.114   1.658   3.543 -1.3680 -0.7134 -1.9976
 5969SOL    HW229370   3.121   1.537   3.448 -2.4202  0.1915  1.3441
 5970SOL     OW29371   3.615   3.598   6.320 -0.0722  0.0203  0.3984
 5970SOL    HW129372   3.615   3.589   6.225  0.5845 -1.0805  0.4992
 5970SOL    HW229373   3.602   3.692   6.327  0.6574  0.1749 -0.3626
 5971SOL     OW29374   3.573   3.266  15.685  0.2828  0.1044 -0.0779
 5971SOL    HW129375   3.506   3.275  15.752 -2.0633 -0.4045 -2.3522
 5971SOL    HW229376   3.527   3.222  15.614 -0.6670 -0.0614  0.6476
 5972SOL     OW29377   3.796   4.503   7.760  0.1126 -0.2939  0.3874
 5972SOL    HW129378   3.750   4.504   7.844  0.0186 -0.9559  0.3493
 5972SOL    HW229379   3.810   4.410   7.739 -0.0965  0.1615 -1.8111
 5973SOL     OW29380   2.115   1.213  11.655 -0.9226  0.5845 -0.0295
 5973SOL    HW129381   2.179   1.283  11.643  0.0263  0.0515  2.0561
 5973SOL    HW229382   2.170   1.135  11.654 -0.3402  0.9886  0.3365
 5974SOL     OW29383   3.972   0.642   2.344 -0.5166  0.1742 -0.3352
 5974SOL    HW129384   3.933   0.585   2.277 -0.3089  0.7119 -0.9052
 5974SOL    HW229385   3.963   0.729   2.306 -2.3378 -0.3867 -1.2168
 5975SOL     OW29386   0.867   0.689   5.686  0.1040  0.4906 -0.3857
 5975SOL    HW129387   0.833   0.755   5.746 -1.4324  0.2515 -0.9791
 5975SOL    HW229388   0.899   0.743   5.614 -0.5291 -0.0163 -1.0493
 5976SOL     OW29389   0.582   1.020   6.567  0.3017  0.2018 -0.2555
 5976SOL    HW129390   0.574   0.950   6.631  2.0392  2.3321  2.2840
 5976SOL    HW229391   0.493   1.026   6.534 -0.2238  0.6494  1.2308
 5977SOL     OW29392   1.601   2.963  11.280 -0.4193 -0.1553 -0.2928
 5977SOL    HW129393   1.581   3.029  11.213  0.5587 -1.3779 -1.7829
 5977SOL    HW229394   1.612   2.886  11.225  0.6647 -0.9050  0.9803
 5978SOL     OW29395   0.809   2.392   7.185 -0.0740 -0.2155 -0.3465
 5978SOL    HW129396   0.715   2.402   7.169 -0.1421 -0.0341  0.1822
 5978SOL    HW229397   0.813   2.297   7.177  0.6154 -0.2102 -0.0455
 5979SOL     OW29398   0.245   1.167   1.454 -0.2775 -0.0467  0.0198
 5979SOL    HW129399   0.277   1.175   1.364  1.2179  1.6029  0.6984
 5979SOL    HW229400   0.156   1.135   1.440 -0.3175  0.4121 -0.8011
 5980SOL     OW29401   3.034   2.449   1.867  0.6250 -0.3313  0.0695
 5980SOL    HW129402   3.073   2.362   1.872 -1.6138 -1.4695 -2.1969
 5980SOL    HW229403   3.090   2.487   1.799 -3.6013  4.1153 -0.8623
 5981SOL     OW29404   3.697   0.023   4.206 -0.1263 -0.3238  0.5212
 5981SOL    HW129405   3.785   0.054   4.230 -0.0624 -0.1938  0.1215
 5981SOL    HW229406   3.650   0.041   4.287  0.9674  2.9649  0.4370
 5982SOL     OW29407   1.446   1.939   3.516 -0.2677  0.4258 -0.6234
 5982SOL    HW129408   1.481   1.893   3.439  0.3788 -1.8237  1.0358
 5982SOL    HW229409   1.511   2.009   3.527  0.7785 -0.9314  1.6779
 5983SOL     OW29410   4.159   1.432  16.676 -0.0655  0.0751  0.5072
 5983SOL    HW129411   4.076   1.392  16.700 -0.0888 -1.7911 -2.6544
 5983SOL    HW229412   4.142   1.525  16.686 -3.1302 -0.6735  2.1634
 5984SOL     OW29413   2.542   1.535   9.223 -0.5944  0.4865 -0.0020
 5984SOL    HW129414   2.590   1.455   9.245  1.6720  1.7950 -0.1136
 5984SOL    HW229415   2.460   1.498   9.190 -0.1884  0.0883 -0.5636
 5985SOL     OW29416   0.652   3.333   6.007 -0.1238 -0.1241 -0.6730
 5985SOL    HW129417   0.679   3.410   5.956  3.7403 -0.9135  0.2273
 5985SOL    HW229418   0.598   3.290   5.940 -0.4004 -1.1545  0.2257
 5986SOL     OW29419   3.864   2.541   2.942 -0.1530 -0.6114 -0.2086
 5986SOL    HW129420   3.783   2.504   2.977 -0.2604 -0.6435 -0.4941
 5986SOL    HW229421   3.906   2.571   3.023  0.8649  0.0660 -0.9807
 5987SOL     OW29422   1.617   3.363  11.787  0.7047 -0.6902  0.0555
 5987SOL    HW129423   1.602   3.381  11.879 -1.8278  0.7384 -0.6257
 5987SOL    HW229424   1.712   3.361  11.790  0.6554  0.0106  1.8286
 5988SOL     OW29425   2.335   1.357   4.892  0.4241  0.7423 -0.3015
 5988SOL    HW129426   2.299   1.422   4.952 -1.7219 -0.6996 -0.0157
 5988SOL    HW229427   2.402   1.319   4.949  1.4585 -2.6027 -3.7633
 5989SOL     OW29428   0.519   1.474   9.523 -0.7095 -0.4716 -0.4188
 5989SOL    HW129429   0.496   1.482   9.616 -3.3166 -2.2982 -0.9029
 5989SOL    HW229430   0.595   1.416   9.529 -0.9103 -0.5591  1.3590
 5990SOL     OW29431   0.754   0.903   3.108 -0.3600 -0.1439  0.1242
 5990SOL    HW129432   0.807   0.853   3.169 -1.4635  1.8613  2.6874
 5990SOL    HW229433   0.791   0.990   3.117 -2.3200  0.6808  0.3052
 5991SOL     OW29434   3.735   3.831   1.391  0.6710 -0.6855 -0.1894
 5991SOL    HW129435   3.667   3.797   1.332 -2.7298  2.1615  2.0349
 5991SOL    HW229436   3.796   3.759   1.404  1.0710 -0.0543  1.4173
 5992SOL     OW29437   3.372   3.323   7.929  0.4481 -0.7993  0.1466
 5992SOL    HW129438   3.457   3.359   7.902 -1.0360  1.9587 -0.8226
 5992SOL    HW229439   3.307   3.362   7.871 -3.1801 -2.9254  2.7738
 5993SOL     OW29440   2.647   3.477  12.540 -0.4061  0.4442  0.1265
 5993SOL    HW129441   2.590   3.418  12.491 -1.0275 -1.4736  3.1377
 5993SOL    HW229442   2.678   3.532  12.468 -1.5158  0.3631 -0.4273
 5994SOL     OW29443   4.009   1.586   0.125  1.3107 -0.2947 -0.5084
 5994SOL    HW129444   4.006   1.664   0.070 -1.0321  0.6182  0.9367
 5994SOL    HW229445   3.946   1.539   0.070 -0.4584  1.0608  0.3723
 5995SOL     OW29446   3.386   3.823  17.163  0.1459 -0.1699 -0.3796
 5995SOL    HW129447   3.434   3.820  17.246 -1.0686  0.0885  0.3312
 5995SOL    HW229448   3.382   3.914  17.134  2.1320 -0.5695 -1.9091
 5996SOL     OW29449   0.457   4.506   5.130  0.1290  0.3144  0.8857
 5996SOL    HW129450   0.529   4.522   5.192 -0.5669 -0.7159  1.9660
 5996SOL    HW229451   0.491   4.551   5.053  2.0044 -0.4018  1.2865
 5997SOL     OW29452   2.819   1.216   0.719  0.1115  0.0212  0.3075
 5997SOL    HW129453   2.727   1.239   0.726  0.0802 -0.4846  1.7113
 5997SOL    HW229454   2.830   1.206   0.814 -0.5210  0.5242  0.4336
 5998SOL     OW29455   3.156   1.762   8.572 -0.0167  0.1745 -0.6490
 5998SOL    HW129456   3.077   1.810   8.548 -0.0017  0.5126 -0.0167
 5998SOL    HW229457   3.163   1.783   8.665 -1.1899  1.8240 -0.9319
 5999SOL     OW29458   4.455   3.764   6.567 -0.3832  0.4433 -1.2169
 5999SOL    HW129459   4.450   3.733   6.477 -0.3226  2.0011 -1.7546
 5999SOL    HW229460   4.378   3.724   6.607 -0.7735  1.1243 -1.2902
 6000SOL     OW29461   1.548   2.103   2.514  0.2438 -0.2226  0.2213
 6000SOL    HW129462   1.565   2.188   2.473  1.3128  0.9497  3.0313
 6000SOL    HW229463   1.563   2.131   2.605 -2.0129 -0.1534  0.5751
 6001SOL     OW29464   0.078   0.761   7.810 -0.2469 -0.3471  0.1579
 6001SOL    HW129465   0.069   0.685   7.753  0.2691  0.7285 -1.3857
 6001SOL    HW229466   0.090   0.728   7.898 -5.3121 -0.5256  0.8170
 6002SOL     OW29467   3.343   0.686  10.120 -0.1656  0.2651  0.1507
 6002SOL    HW129468   3.297   0.697  10.036  0.7511  1.2688 -0.2165
 6002SOL    HW229469   3.260   0.675  10.167 -1.0770 -0.1104 -1.5413
 6003SOL     OW29470   2.954   1.456  15.748  0.2189 -0.5447 -0.9563
 6003SOL    HW129471   2.913   1.422  15.828 -1.2518 -1.5395 -2.1456
 6003SOL    HW229472   2.901   1.534  15.734 -1.2846 -1.4698 -0.4291
 6004SOL     OW29473   2.581   1.681  16.239 -0.3243 -0.1289 -0.1191
 6004SOL    HW129474   2.594   1.680  16.334 -0.5451 -0.1351 -0.0871
 6004SOL    HW229475   2.507   1.741  16.225  0.2716  0.4399 -0.7853
 6005SOL     OW29476   2.891   1.092   3.383 -0.2083  0.6008  0.1408
 6005SOL    HW129477   2.984   1.113   3.394  0.2226 -1.8273  1.0335
 6005SOL    HW229478   2.898   1.018   3.323 -1.0814 -0.5272  1.4351
 6006SOL     OW29479   0.068   1.253   9.056 -0.0506 -0.1775 -0.1502
 6006SOL    HW129480   0.076   1.331   9.110 -0.6409 -0.0504 -0.2469
 6006SOL    HW229481   0.095   1.182   9.115  1.5127  0.4228 -0.1532
 6007SOL     OW29482   1.458   4.421  12.729 -0.6650 -0.3371  0.3407
 6007SOL    HW129483   1.533   4.473  12.697 -1.8033  1.0192 -0.1289
 6007SOL    HW229484   1.493   4.342  12.769  0.1412  0.1122  0.5306
 6008SOL     OW29485   3.563   1.649   6.740  0.4111 -0.2862 -0.1362
 6008SOL    HW129486   3.525   1.575   6.694 -0.0674  0.7110 -1.3351
 6008SOL    HW229487   3.609   1.610   6.815 -0.7133 -1.1538  0.0969
 6009SOL     OW29488   4.176   0.731   6.303 -0.3822 -0.0177 -0.7923
 6009SOL    HW129489   4.168   0.819   6.340  1.1698 -0.3938  0.4489
 6009SOL    HW229490   4.096   0.729   6.250  0.8241 -1.6364 -2.5560
 6010SOL     OW29491   2.434   4.084   5.336 -0.0016 -0.5815 -0.2676
 6010SOL    HW129492   2.396   4.060   5.251  1.5674 -1.7815 -0.6299
 6010SOL    HW229493   2.352   4.083   5.386  2.1833 -1.2954  3.2946
 6011SOL     OW29494   1.880   4.327   1.912  0.4711 -0.1849  0.1599
 6011SOL    HW129495   1.900   4.366   1.997  2.3318 -0.1657 -0.2706
 6011SOL    HW229496   1.788   4.304   1.918  0.4728 -0.5881 -1.3890
 6012SOL     OW29497   2.577   0.830   5.287 -0.6988 -0.1695 -0.0951
 6012SOL    HW129498   2.545   0.773   5.357 -1.6638 -0.1367 -0.5078
 6012SOL    HW229499   2.532   0.914   5.300  1.6394  0.8929  0.9967
 6013SOL     OW29500   0.166   1.015  14.683 -0.2819 -0.1450  0.0362
 6013SOL    HW129501   0.192   1.106  14.698  1.3187 -0.6404  0.2821
 6013SOL    HW229502   0.256   0.986  14.667 -0.3249 -0.8132  0.9937
 6014SOL     OW29503   2.743   0.692   8.197  0.5363 -0.3088 -0.2369
 6014SOL    HW129504   2.682   0.731   8.134 -0.4906  2.5140  2.5634
 6014SOL    HW229505   2.768   0.611   8.151  0.8716 -0.4765  0.2449
 6015SOL     OW29506   2.248   4.426   8.003  0.2782 -0.6049 -0.3285
 6015SOL    HW129507   2.317   4.456   8.062 -0.9595  0.6845  0.4517
 6015SOL    HW229508   2.282   4.342   7.969 -0.2619 -1.7077  1.8613
 6016SOL     OW29509   4.153   2.432   1.136  0.1658 -0.0313 -0.4153
 6016SOL    HW129510   4.091   2.452   1.205 -0.9258 -1.2676 -1.0385
 6016SOL    HW229511   4.106   2.470   1.063  0.1326  0.5001 -0.1135
 6017SOL     OW29512   1.810   4.138   5.928  0.0674  0.0616 -0.4311
 6017SOL    HW129513   1.892   4.170   5.966 -0.4558  0.4948  0.3339
 6017SOL    HW229514   1.769   4.218   5.895  1.6988  0.5184 -1.3535
 6018SOL     OW29515   3.998   3.367   6.352 -0.0318  0.4355  0.4139
 6018SOL    HW129516   3.938   3.325   6.414 -2.7025  0.8103 -1.8881
 6018SOL    HW229517   3.955   3.453   6.354 -1.5848 -0.3023 -1.4734
 6019SOL     OW29518   3.889   2.256   9.272 -0.0458 -0.0687  0.3986
 6019SOL    HW129519   3.850   2.253   9.359  3.5628  0.6165  2.0186
 6019SOL    HW229520   3.843   2.190   9.219  1.5984 -0.0675 -1.0431
 6020SOL     OW29521   1.569   4.539  15.083  0.8414  0.8511 -0.1641
 6020SOL    HW129522   1.584   4.585  15.165  0.8283  0.5045  0.0360
 6020SOL    HW229523   1.475   4.553  15.070  0.9489  1.1281 -0.6251
 6021SOL     OW29524   2.786   0.855  17.206  0.0481  0.2644 -0.1974
 6021SOL    HW129525   2.748   0.910  17.137 -0.6197 -2.5163 -2.0178
 6021SOL    HW229526   2.717   0.791  17.218  1.5187 -0.5765  3.7676
 6022SOL     OW29527   1.230   3.133   4.071  0.1277 -0.0049 -0.3286
 6022SOL    HW129528   1.176   3.196   4.023  0.2236  0.2314 -0.1252
 6022SOL    HW229529   1.174   3.125   4.149 -0.0436  2.5651 -0.2020
 6023SOL     OW29530   0.093   3.820   0.451  0.3806 -0.4487 -0.2010
 6023SOL    HW129531   0.012   3.838   0.404 -0.0630 -0.7202  0.4649
 6023SOL    HW229532   0.156   3.871   0.400 -0.5362  0.0065 -0.8722
 6024SOL     OW29533   0.011   1.063   3.296 -0.1322  0.5184 -0.1742
 6024SOL    HW129534   0.089   1.098   3.339 -0.2617 -0.6457  1.0289
 6024SOL    HW229535   0.047   0.976   3.278 -1.1447  0.2666 -0.9584
 6025SOL     OW29536   3.208   3.398  13.214 -0.1014 -0.1136  0.1453
 6025SOL    HW129537   3.301   3.423  13.217  0.3227 -1.6408 -0.4027
 6025SOL    HW229538   3.164   3.469  13.167 -0.9391 -1.1631 -0.6306
 6026SOL     OW29539   4.453   1.024   6.220 -0.8687  0.3579 -0.0739
 6026SOL    HW129540   4.376   1.079   6.231 -0.8112  0.5978 -0.9151
 6026SOL    HW229541   4.489   1.023   6.309 -3.0734  1.8554  0.8230
 6027SOL     OW29542   0.552   1.593   4.780 -0.0160 -0.0036  0.0600
 6027SOL    HW129543   0.488   1.573   4.711 -0.6454 -0.7493  0.8560
 6027SOL    HW229544   0.610   1.517   4.782 -0.4044 -0.3399 -1.4815
 6028SOL     OW29545   2.307   2.343   5.807 -0.2210  0.3086  0.1846
 6028SOL    HW129546   2.324   2.382   5.721  0.9325  0.0992  0.3260
 6028SOL    HW229547   2.385   2.366   5.858 -0.6955  2.7823 -0.2196
 6029SOL     OW29548   2.176   0.735  13.234  0.4342  0.1175  0.0645
 6029SOL    HW129549   2.193   0.721  13.327 -0.9030  2.1078  0.6244
 6029SOL    HW229550   2.137   0.822  13.243 -0.0149 -0.1130  0.3598
 6030SOL     OW29551   1.101   1.765   6.146  0.3612 -0.1589  0.1526
 6030SOL    HW129552   1.149   1.843   6.173  0.0139  0.8900 -2.1796
 6030SOL    HW229553   1.007   1.782   6.153  0.2412 -0.4965 -0.6164
 6031SOL     OW29554   2.163   3.765  12.134  0.0420  0.2010 -0.2088
 6031SOL    HW129555   2.105   3.723  12.070  2.6394 -2.5127 -0.7549
 6031SOL    HW229556   2.165   3.857  12.108 -2.4432  0.4838  0.5905
 6032SOL     OW29557   2.197   2.383   1.852 -0.1006 -0.2871 -0.0764
 6032SOL    HW129558   2.131   2.366   1.785 -0.1179 -0.1830 -0.0861
 6032SOL    HW229559   2.140   2.410   1.924 -1.3656  1.6716 -1.8086
 6033SOL     OW29560   1.412   2.983   7.903  0.4405 -0.1498  0.4693
 6033SOL    HW129561   1.325   3.017   7.884  0.2475 -1.9465 -1.7982
 6033SOL    HW229562   1.462   3.059   7.934 -0.1746  0.3741  0.1538
 6034SOL     OW29563   0.111   4.249   3.610  0.1448 -0.1690  0.2007
 6034SOL    HW129564   0.114   4.179   3.545  4.3851 -1.7552  2.0836
 6034SOL    HW229565   0.178   4.305   3.570  1.1049 -1.2639  0.2558
 6035SOL     OW29566   4.103   3.372  13.973  0.4757 -0.3556 -0.7573
 6035SOL    HW129567   4.045   3.349  14.046  2.3267 -0.9334  0.5182
 6035SOL    HW229568   4.093   3.467  13.973 -0.0836 -0.4138  0.3705
 6036SOL     OW29569   2.885   2.733   6.731  0.3242  0.4476  0.2979
 6036SOL    HW129570   2.966   2.745   6.780  1.2725 -0.4393 -1.0652
 6036SOL    HW229571   2.844   2.820   6.734 -1.6795 -0.5032  0.6177
 6037SOL     OW29572   0.795   3.284  11.085 -0.1390  0.2985 -0.0670
 6037SOL    HW129573   0.816   3.280  11.178 -0.3718 -2.6547 -0.1169
 6037SOL    HW229574   0.701   3.305  11.089 -0.1177  0.3294  0.2835
 6038SOL     OW29575   1.346   4.042  16.140  0.1246  0.4680  0.0989
 6038SOL    HW129576   1.425   3.997  16.108 -0.3473 -0.6495  0.5102
 6038SOL    HW229577   1.295   4.064  16.062  0.0236 -1.1265 -0.2742
 6039SOL     OW29578   4.068   4.170   4.634 -0.6844 -0.1365  0.3943
 6039SOL    HW129579   4.140   4.157   4.573 -0.0760  3.0943  0.4056
 6039SOL    HW229580   4.000   4.208   4.578  2.0924  3.5223 -0.5225
 6040SOL     OW29581   0.514   1.859  13.587 -0.0536  0.1183 -0.0621
 6040SOL    HW129582   0.579   1.928  13.575  1.2520 -0.9906  0.6553
 6040SOL    HW229583   0.449   1.926  13.608 -2.1370 -1.5904 -1.0698
 6041SOL     OW29584   2.330   4.596   1.468 -0.0225 -0.2340  0.1526
 6041SOL    HW129585   2.374   4.678   1.492 -0.9607  0.2429  0.2579
 6041SOL    HW229586   2.385   4.550   1.405 -1.6787 -0.1911 -1.3179
 6042SOL     OW29587   3.147   1.632  12.303 -0.2942  0.5821 -0.1719
 6042SOL    HW129588   3.147   1.640  12.208 -0.4806 -3.3826 -0.5006
 6042SOL    HW229589   3.227   1.677  12.331 -0.7611  0.5941  1.1738
 6043SOL     OW29590   1.021   0.700   9.105 -0.0441 -0.1628  0.5639
 6043SOL    HW129591   1.112   0.698   9.135  0.0507 -2.8530  0.1878
 6043SOL    HW229592   0.989   0.790   9.099  0.3891  0.0752  1.7882
 6044SOL     OW29593   0.244   0.115  17.072  0.3731  0.0860  0.1415
 6044SOL    HW129594   0.264   0.140  17.162  0.3150  0.5159  0.0380
 6044SOL    HW229595   0.222   0.023  17.085 -0.9765  0.6568  1.9180
 6045SOL     OW29596   1.540   4.632  15.667 -0.5714  0.2574  1.0855
 6045SOL    HW129597   1.610   4.632  15.733 -0.5281 -0.2079  1.0388
 6045SOL    HW229598   1.542   4.543  15.632 -0.9915  1.0887 -1.0375
 6046SOL     OW29599   0.598   4.520   1.638  0.0364  0.2562 -0.7232
 6046SOL    HW129600   0.675   4.477   1.673 -1.1066 -2.4898 -1.5612
 6046SOL    HW229601   0.531   4.455   1.659 -1.2226  1.3174 -1.3859
 6047SOL     OW29602   4.641   4.385   5.719  0.2682 -0.2346  0.1308
 6047SOL    HW129603   0.009   4.401   5.706 -0.1314  1.3857 -0.6579
 6047SOL    HW229604   4.614   4.476   5.726  1.2218 -0.1043  2.1249
 6048SOL     OW29605   0.432   1.701   4.470  0.2789  0.1900  0.0707
 6048SOL    HW129606   0.426   1.724   4.377 -1.1098  0.0859  0.1444
 6048SOL    HW229607   0.361   1.747   4.515  0.3330  0.3427  0.0030
 6049SOL     OW29608   3.346   4.704   9.094  0.1898 -0.0383  0.2718
 6049SOL    HW129609   3.296   4.677   9.171 -0.1811  1.0293  0.4131
 6049SOL    HW229610   3.395   4.625   9.072 -0.5658  0.0672 -1.8353
 6050SOL     OW29611   0.017   1.047   1.431  0.4085 -0.0316 -0.0843
 6050SOL    HW129612   4.658   1.090   1.445  0.7325 -0.0233  1.9119
 6050SOL    HW229613   0.006   0.968   1.484  1.8537 -0.1667  0.0088
 6051SOL     OW29614   4.454   2.714  13.863  0.5952 -0.2153 -0.8849
 6051SOL    HW129615   4.550   2.721  13.871  0.7909 -2.9025 -0.9271
 6051SOL    HW229616   4.430   2.803  13.835  0.7706  1.3250  3.8833
 6052SOL     OW29617   1.090   2.263   4.311  0.2028 -0.1206  0.1267
 6052SOL    HW129618   1.175   2.237   4.348  0.0798  0.3110  0.7100
 6052SOL    HW229619   1.116   2.307   4.230 -0.6781 -0.9076 -0.5733
 6053SOL     OW29620   1.639   4.652   9.285 -0.3789  0.8905 -0.2861
 6053SOL    HW129621   1.654   4.568   9.327 -0.9033  0.5862 -0.7047
 6053SOL    HW229622   1.724   4.689   9.307 -0.1121 -0.6670  1.2965
 6054SOL     OW29623   2.352   2.131   3.503  0.1851  0.4551  0.2433
 6054SOL    HW129624   2.293   2.124   3.428  0.9247 -1.6753 -0.1491
 6054SOL    HW229625   2.436   2.151   3.462 -0.4229  0.3207 -1.0566
 6055SOL     OW29626   3.327   0.938   3.887 -0.2285  0.1737  0.0050
 6055SOL    HW129627   3.238   0.963   3.912 -0.3781  0.6212 -0.9819
 6055SOL    HW229628   3.365   0.904   3.968  0.2091  0.0752 -0.2388
 6056SOL     OW29629   0.358   2.984   5.745  0.3279 -1.0349  0.2266
 6056SOL    HW129630   0.265   3.005   5.748  0.5646 -0.1144  1.6735
 6056SOL    HW229631   0.346   2.906   5.692  0.3523 -0.7990 -0.1246
 6057SOL     OW29632   1.441   3.312   6.939  0.5409 -0.1026  0.2796
 6057SOL    HW129633   1.385   3.237   6.963  1.3622 -0.6264  0.5577
 6057SOL    HW229634   1.456   3.280   6.850 -1.5930 -2.0560  0.5886
 6058SOL     OW29635   2.137   0.854   0.475 -0.1260  0.0612  0.1626
 6058SOL    HW129636   2.089   0.934   0.454  2.0242  1.1216 -0.6860
 6058SOL    HW229637   2.193   0.897   0.540 -0.8726  0.8604  0.2907
 6059SOL     OW29638   4.276   1.247  15.114  0.5524  0.2011  0.2446
 6059SOL    HW129639   4.363   1.273  15.084 -0.1515  1.7213 -0.5254
 6059SOL    HW229640   4.297   1.180  15.179  2.4672  0.6530  0.0868
 6060SOL     OW29641   2.830   0.671   0.367 -0.4472 -0.0403 -0.0970
 6060SOL    HW129642   2.737   0.682   0.389 -0.6659  0.2438 -1.1736
 6060SOL    HW229643   2.846   0.747   0.311  0.6370  0.2360  0.5823
 6061SOL     OW29644   1.638   0.338   3.978 -0.1665 -0.4782  0.2810
 6061SOL    HW129645   1.705   0.405   3.991  1.3356 -1.8735 -0.3342
 6061SOL    HW229646   1.569   0.390   3.938  1.2706 -0.0198 -1.5862
 6062SOL     OW29647   2.932   2.681   2.278  0.1556 -0.2257  0.0304
 6062SOL    HW129648   2.836   2.681   2.281  0.2840 -0.5287  3.3392
 6062SOL    HW229649   2.956   2.770   2.303 -1.5143  0.4666 -0.7636
 6063SOL     OW29650   0.058   1.494  10.192 -0.0109  0.3655 -0.2119
 6063SOL    HW129651   0.064   1.435  10.268 -0.0607 -0.3022 -0.7229
 6063SOL    HW229652   0.076   1.431  10.121  0.5034 -0.5122  0.6931
 6064SOL     OW29653   2.656   1.043  14.879  0.3930  0.4019  0.3423
 6064SOL    HW129654   2.749   1.068  14.875  0.6613 -0.4272  1.2910
 6064SOL    HW229655   2.642   0.989  14.802 -0.3116 -0.3557  0.9946
 6065SOL     OW29656   1.720   2.199   2.135 -0.2022  0.2592 -0.3727
 6065SOL    HW129657   1.624   2.203   2.146 -0.0240 -1.3041  1.9453
 6065SOL    HW229658   1.760   2.283   2.157 -1.1017  0.6899 -0.3537
 6066SOL     OW29659   0.333   3.883  13.465  0.2089 -0.1754 -0.4376
 6066SOL    HW129660   0.314   3.923  13.550  2.4902 -0.7639  0.3335
 6066SOL    HW229661   0.308   3.791  13.477 -1.0404  0.0294 -1.4232
 6067SOL     OW29662   1.126   3.032   4.504  0.3322  0.0114 -0.1937
 6067SOL    HW129663   1.079   2.949   4.511  0.0984  0.0080 -1.6760
 6067SOL    HW229664   1.197   3.021   4.568 -0.2633  0.2998  0.5086
 6068SOL     OW29665   1.308   0.706  12.043 -0.2264 -0.0955  0.7752
 6068SOL    HW129666   1.330   0.788  12.087  0.4878 -0.6426  1.4429
 6068SOL    HW229667   1.236   0.738  11.989  0.4485  0.1948  0.0600
 6069SOL     OW29668   2.967   2.640  16.108  0.2029  0.0031  0.0753
 6069SOL    HW129669   3.023   2.600  16.042 -0.0662  3.2722 -2.1111
 6069SOL    HW229670   3.028   2.645  16.182 -3.1418 -4.2304  3.1441
 6070SOL     OW29671   3.729   3.137   7.693  0.3233  1.1164  0.1021
 6070SOL    HW129672   3.734   3.125   7.788 -0.2063 -0.5447 -0.0739
 6070SOL    HW229673   3.744   3.230   7.674  2.0155  0.7536 -0.3603
 6071SOL     OW29674   3.987   3.318  10.452  0.0247  0.3149 -0.0001
 6071SOL    HW129675   3.914   3.323  10.514 -0.4306 -0.5991 -0.4584
 6071SOL    HW229676   4.053   3.371  10.497 -0.0679  0.0500  0.4559
 6072SOL     OW29677   2.528   2.856   8.856  0.1071  0.0174 -0.0605
 6072SOL    HW129678   2.490   2.771   8.837  0.4380 -0.3584  0.9468
 6072SOL    HW229679   2.546   2.848   8.950 -1.6169 -0.5547  0.2298
 6073SOL     OW29680   2.844   1.013   8.021  0.6128  0.4291 -0.4002
 6073SOL    HW129681   2.908   1.084   8.024  1.5848 -0.3618 -3.1078
 6073SOL    HW229682   2.762   1.049   8.056 -0.0967 -2.2468  0.6403
 6074SOL     OW29683   2.969   2.432  16.765  0.0666  0.4307  0.6971
 6074SOL    HW129684   2.951   2.398  16.678  0.9232 -1.7041  1.3649
 6074SOL    HW229685   2.893   2.489  16.781 -1.4648 -1.6042  0.6611
 6075SOL     OW29686   3.349   2.468  14.676 -0.4509  0.2534  0.0795
 6075SOL    HW129687   3.391   2.496  14.594  0.7478 -1.4282  0.1335
 6075SOL    HW229688   3.280   2.412  14.641 -0.2121 -0.6928  1.1261
 6076SOL     OW29689   1.178   4.100   8.103  0.2231  0.1946  0.1366
 6076SOL    HW129690   1.225   4.092   8.186  0.2816  1.5641  0.2465
 6076SOL    HW229691   1.139   4.188   8.106  2.3208  1.1465 -1.0622
 6077SOL     OW29692   0.503   1.272   9.748 -0.6804  0.6894 -0.1963
 6077SOL    HW129693   0.433   1.208   9.735 -0.8967  0.7703  0.5430
 6077SOL    HW229694   0.458   1.328   9.812  0.1636 -1.2933  2.1264
 6078SOL     OW29695   0.551   3.099   8.776  0.0632  0.1363  0.2206
 6078SOL    HW129696   0.561   3.005   8.789  0.8133  0.1889  0.0562
 6078SOL    HW229697   0.539   3.130   8.866  0.4817 -0.9787  0.6506
 6079SOL     OW29698   0.793   3.294   3.892  0.0402  0.2460 -0.1338
 6079SOL    HW129699   0.697   3.300   3.888 -0.0317 -0.7578 -0.0571
 6079SOL    HW229700   0.801   3.217   3.948 -3.1862 -1.7678 -2.4178
 6080SOL     OW29701   3.925   3.494  17.047 -0.0657  0.2433  0.3000
 6080SOL    HW129702   3.949   3.586  17.040  2.1316 -0.3848 -0.3197
 6080SOL    HW229703   3.867   3.492  16.970 -0.8063 -2.5527  0.9137
 6081SOL     OW29704   2.339   1.345   0.229 -0.0460  0.4916  0.2702
 6081SOL    HW129705   2.255   1.390   0.236  0.3703  1.3234 -0.1134
 6081SOL    HW229706   2.389   1.395   0.165 -2.0666 -0.2394 -1.8593
 6082SOL     OW29707   0.537   1.211   7.643 -0.2041  0.0922 -0.9007
 6082SOL    HW129708   0.531   1.227   7.549 -0.5486  1.3906 -0.6525
 6082SOL    HW229709   0.445   1.204   7.669  0.2230 -0.6506  0.3811
 6083SOL     OW29710   0.200   1.079  10.900 -0.4877 -0.3975  0.4265
 6083SOL    HW129711   0.149   1.160  10.892 -0.6759 -0.7624 -2.0420
 6083SOL    HW229712   0.261   1.101  10.971  1.3528 -0.9043 -0.9961
 6084SOL     OW29713   0.972   2.199  15.324 -0.3552 -0.4526  0.0881
 6084SOL    HW129714   0.929   2.167  15.244 -0.1678  1.7037 -0.8792
 6084SOL    HW229715   0.890   2.228  15.364 -0.3273  3.2493 -2.5101
 6085SOL     OW29716   1.829   4.659   6.555  0.0269  0.0974 -0.1045
 6085SOL    HW129717   1.900   4.611   6.511 -1.8233  1.6679 -4.6960
 6085SOL    HW229718   1.809   4.606   6.633  0.9206 -0.5186 -0.2846
 6086SOL     OW29719   0.139   0.666  10.868  0.4732  0.2947  0.5189
 6086SOL    HW129720   0.192   0.592  10.838 -0.9135 -0.1335 -0.8633
 6086SOL    HW229721   0.103   0.708  10.790  1.4116 -0.0649 -0.1141
 6087SOL     OW29722   3.296   2.513  10.789  0.1119  0.1512 -0.6176
 6087SOL    HW129723   3.245   2.595  10.783 -1.2905 -0.6356  0.5440
 6087SOL    HW229724   3.268   2.472  10.707  0.2919 -0.2346 -0.4862
 6088SOL     OW29725   3.321   2.906   6.512 -0.0633  0.3896 -0.2145
 6088SOL    HW129726   3.307   2.961   6.589  3.3315 -0.6192  1.0973
 6088SOL    HW229727   3.266   2.941   6.442  2.4312  1.1997 -1.7315
 6089SOL     OW29728   0.710   3.789   8.193  0.1822  0.2176  0.4955
 6089SOL    HW129729   0.700   3.884   8.193  1.4888  0.3548  1.6427
 6089SOL    HW229730   0.770   3.779   8.119 -2.4093 -3.4517 -1.1383
 6090SOL     OW29731   1.468   4.119  13.278  0.5524 -0.2480  0.3021
 6090SOL    HW129732   1.388   4.068  13.267  0.2824  0.5240 -1.2150
 6090SOL    HW229733   1.525   4.051  13.314  1.8881 -0.1366 -1.5818
 6091SOL     OW29734   0.510   0.195   3.854 -0.1794  0.4613 -0.1338
 6091SOL    HW129735   0.552   0.186   3.768  1.2106 -3.1022  0.9395
 6091SOL    HW229736   0.428   0.234   3.822 -0.4079  0.0943  0.0038
 6092SOL     OW29737   3.674   4.345   0.996  0.1291  0.1674  0.9213
 6092SOL    HW129738   3.749   4.386   1.039 -0.9475  2.0632  0.9990
 6092SOL    HW229739   3.646   4.279   1.059  1.2661  0.1517  1.4074
 6093SOL     OW29740   2.936   0.098   6.622  0.0940 -0.1943  0.1113
 6093SOL    HW129741   2.843   0.082   6.608 -0.4235  1.2191  1.8419
 6093SOL    HW229742   2.953   0.188   6.593 -0.4303 -0.5000 -1.1107
 6094SOL     OW29743   3.467   2.338   9.604 -0.3164 -0.2746  0.3453
 6094SOL    HW129744   3.462   2.252   9.564  0.9853  0.3622 -1.2099
 6094SOL    HW229745   3.539   2.370   9.550 -0.0342  1.1861  1.5778
 6095SOL     OW29746   3.583   4.487   5.208 -0.6259  0.2298  0.2941
 6095SOL    HW129747   3.614   4.453   5.124 -0.4942  0.0967  0.3952
 6095SOL    HW229748   3.610   4.578   5.199  2.9275 -0.9543 -0.8945
 6096SOL     OW29749   3.254   2.968  13.830  0.2531 -0.4519 -0.5606
 6096SOL    HW129750   3.195   2.924  13.890  0.8488  1.2729  1.2853
 6096SOL    HW229751   3.222   2.925  13.750  0.7451 -0.8960 -0.5124
 6097SOL     OW29752   1.346   2.685   1.849  0.0047  0.2656 -0.1584
 6097SOL    HW129753   1.403   2.610   1.831  2.2438  2.0522 -0.5076
 6097SOL    HW229754   1.407   2.758   1.862 -0.7180  0.7419  0.5636
 6098SOL     OW29755   3.871   2.016   9.145 -0.0907  0.3205  0.5427
 6098SOL    HW129756   3.942   1.988   9.203  2.1145  0.3373 -2.1268
 6098SOL    HW229757   3.871   1.954   9.072  1.8160 -1.8363  2.3713
 6099SOL     OW29758   3.110   4.628  17.082  0.1952 -0.5369  0.1104
 6099SOL    HW129759   3.033   4.618  17.137 -0.5850 -0.7592 -1.0327
 6099SOL    HW229760   3.107   4.558  17.017 -1.3764 -0.4230  0.0604
 6100SOL     OW29761   0.569   2.279   0.604 -0.0838 -0.2000  0.0919
 6100SOL    HW129762   0.633   2.310   0.540  1.2945  1.7975  2.4322
 6100SOL    HW229763   0.514   2.356   0.617  2.4106  1.3782  1.3311
 6101SOL     OW29764   0.466   0.987   7.060  0.5832  0.4404  0.3823
 6101SOL    HW129765   0.549   0.992   7.012  0.9668 -0.8623  0.8953
 6101SOL    HW229766   0.455   1.080   7.080  1.1323  0.3468  1.1491
 6102SOL     OW29767   4.691   3.216   9.271 -0.9022 -0.0757  0.5636
 6102SOL    HW129768   4.649   3.297   9.243 -2.1322 -0.5515  1.0440
 6102SOL    HW229769   4.657   3.159   9.202 -2.3718  1.0167  0.3930
 6103SOL     OW29770   0.118   0.829   3.256 -0.1092  0.5491 -0.1390
 6103SOL    HW129771   0.192   0.812   3.197 -1.7841 -2.1487 -1.4820
 6103SOL    HW229772   0.172   0.806   3.331 -0.0314 -0.7632 -0.5959
 6104SOL     OW29773   3.343   2.634   2.569 -0.3663 -0.2128 -0.7332
 6104SOL    HW129774   3.341   2.592   2.483  0.7185 -0.7749 -0.4840
 6104SOL    HW229775   3.249   2.646   2.582  0.0609 -1.6079  3.5583
 6105SOL     OW29776   4.254   4.235   4.063  0.1699 -0.6513 -0.6156
 6105SOL    HW129777   4.272   4.303   3.999  0.5998 -1.5516 -1.4520
 6105SOL    HW229778   4.338   4.192   4.079  0.3599 -0.1723 -0.3139
 6106SOL     OW29779   1.736   1.531   2.799 -0.2579 -0.2789  0.5640
 6106SOL    HW129780   1.701   1.617   2.822 -0.4044  0.5626 -2.7361
 6106SOL    HW229781   1.657   1.477   2.793 -1.9974  2.2517  0.5595
 6107SOL     OW29782   4.642   3.039   7.588  0.4835  0.2770  0.1836
 6107SOL    HW129783   4.570   2.985   7.621  1.4674  0.3439  2.4025
 6107SOL    HW229784   4.603   3.069   7.505  2.1564 -2.4844 -1.6203
 6108SOL     OW29785   2.371   0.877   8.563  0.1200 -0.1936 -0.6078
 6108SOL    HW129786   2.294   0.857   8.511 -0.7057  1.8756 -0.1580
 6108SOL    HW229787   2.438   0.918   8.508 -0.4660 -0.0483 -1.2021
 6109SOL     OW29788   2.984   1.643   4.270 -0.2116 -0.3264  0.0177
 6109SOL    HW129789   2.943   1.606   4.192 -1.7547  1.8939 -0.2284
 6109SOL    HW229790   2.988   1.733   4.238 -1.0522  0.0696  1.0159
 6110SOL     OW29791   0.514   2.670   3.528  0.0386 -0.3115 -0.0535
 6110SOL    HW129792   0.604   2.692   3.552 -0.3552 -0.2500  1.3513
 6110SOL    HW229793   0.510   2.708   3.440 -0.5201  0.0899  0.1457
 6111SOL     OW29794   2.198   0.110   5.133 -0.2331  0.1231 -0.5162
 6111SOL    HW129795   2.195   0.205   5.139  0.3670  0.2671 -2.5435
 6111SOL    HW229796   2.242   0.101   5.048  1.0881  0.8836  0.0920
 6112SOL     OW29797   0.657   1.118  11.536 -0.3701  0.0093  0.3444
 6112SOL    HW129798   0.623   1.048  11.592  0.1158 -0.0101  0.6146
 6112SOL    HW229799   0.744   1.146  11.564 -1.0276  2.7591 -0.3781
 6113SOL     OW29800   2.082   0.259  14.044 -0.1480  0.1441  0.3883
 6113SOL    HW129801   2.083   0.266  14.140 -0.0496 -1.4389  0.5021
 6113SOL    HW229802   2.176   0.242  14.037 -0.1871 -0.5175  1.4135
 6114SOL     OW29803   2.980   2.050   6.065 -0.0192  0.2679 -0.7791
 6114SOL    HW129804   2.937   1.990   6.125  1.1453 -1.7683 -1.9950
 6114SOL    HW229805   2.905   2.106   6.046 -0.1366  0.6326  0.7470
 6115SOL     OW29806   1.745   2.001   8.810  0.1993  0.2004  0.2346
 6115SOL    HW129807   1.656   1.965   8.810 -0.2819  1.4067 -1.3563
 6115SOL    HW229808   1.778   1.984   8.898  0.8422 -0.1561 -0.0806
 6116SOL     OW29809   3.817   0.220  17.094  0.0210  0.8679 -0.1706
 6116SOL    HW129810   3.908   0.195  17.077 -0.8350 -1.0093 -1.9643
 6116SOL    HW229811   3.778   0.139  17.126  3.0720 -0.7394 -0.4924
 6117SOL     OW29812   2.403   1.758  15.205  0.2133  0.4775  0.1996
 6117SOL    HW129813   2.437   1.726  15.289  0.1232  0.5541  0.2653
 6117SOL    HW229814   2.402   1.678  15.153 -1.9914  0.5979  0.0212
 6118SOL     OW29815   0.180   0.669   8.800 -0.0862 -0.3120 -0.1020
 6118SOL    HW129816   0.127   0.595   8.828 -0.1275 -0.4059 -0.4340
 6118SOL    HW229817   0.150   0.675   8.709  0.4570 -1.5148 -0.3567
 6119SOL     OW29818   4.566   1.087  14.972  0.0544 -0.3111 -0.2111
 6119SOL    HW129819   4.490   1.042  14.935 -0.0884 -1.3331  1.3345
 6119SOL    HW229820   4.636   1.030  14.941  1.1258  0.0121  1.6418
 6120SOL     OW29821   1.946   4.459   6.952 -0.1471  0.6268 -0.0913
 6120SOL    HW129822   1.996   4.466   7.034  0.6749 -0.6187 -0.4917
 6120SOL    HW229823   1.979   4.538   6.909  0.4548  1.9272  2.7100
 6121SOL     OW29824   4.505   0.526   2.797  0.2377 -0.2498 -0.2397
 6121SOL    HW129825   4.540   0.611   2.769  0.1189 -0.4003 -0.8510
 6121SOL    HW229826   4.526   0.470   2.722 -0.1695 -0.8469  0.0933
 6122SOL     OW29827   1.014   1.358   5.900 -0.6381  0.2416 -0.1916
 6122SOL    HW129828   0.988   1.426   5.963 -0.5108 -0.2804  0.4240
 6122SOL    HW229829   1.097   1.329   5.939 -1.1326 -0.3301  0.4312
 6123SOL     OW29830   3.057   2.079   8.913  0.2767 -0.0269 -0.0387
 6123SOL    HW129831   3.070   2.133   8.835  2.2317  0.6177  0.7393
 6123SOL    HW229832   3.146   2.044   8.926  0.6170  0.9032  0.1227
 6124SOL     OW29833   2.218   4.554   0.230 -0.3042  0.9389 -0.2680
 6124SOL    HW129834   2.275   4.586   0.160 -1.1411  1.4466 -0.7245
 6124SOL    HW229835   2.255   4.466   0.219  0.7520  1.4881 -1.0363
 6125SOL     OW29836   1.784   3.196   0.916  0.4287  0.7438  0.3143
 6125SOL    HW129837   1.839   3.128   0.955 -1.1640  0.5873  2.2763
 6125SOL    HW229838   1.850   3.256   0.882 -0.6721  2.4938  1.3216
 6126SOL     OW29839   1.377   4.041   7.904 -0.2059  0.2194  0.4408
 6126SOL    HW129840   1.363   3.955   7.864  0.1562  0.0798  0.6153
 6126SOL    HW229841   1.313   4.042   7.975  0.6282 -1.5430  1.2246
 6127SOL     OW29842   1.959   1.104   4.844 -0.5067  0.3883  0.2096
 6127SOL    HW129843   2.051   1.080   4.847 -0.6170 -0.5428 -3.1809
 6127SOL    HW229844   1.935   1.118   4.936  1.5706  0.3505  0.7618
 6128SOL     OW29845   1.247   0.611   4.954 -0.0382 -0.0077  1.2695
 6128SOL    HW129846   1.200   0.546   4.901 -2.0292  0.5868  2.3065
 6128SOL    HW229847   1.211   0.690   4.914  0.2892 -1.1986 -1.3991
 6129SOL     OW29848   2.509   2.206   9.373 -0.2080  0.2315 -0.0550
 6129SOL    HW129849   2.524   2.149   9.298 -1.3693  1.2447 -1.0685
 6129SOL    HW229850   2.530   2.149   9.446 -3.6550 -0.4390  0.3885
 6130SOL     OW29851   3.538   3.072  13.792 -0.0054  0.2589  0.0820
 6130SOL    HW129852   3.505   3.099  13.878 -2.6900  0.0537 -0.8750
 6130SOL    HW229853   3.472   3.007  13.768  0.6472 -0.3211 -0.1157
 6131SOL     OW29854   4.022   4.660   7.932  0.2390 -0.0598  0.3661
 6131SOL    HW129855   4.072   0.003   7.977 -1.5415  1.7882 -0.4236
 6131SOL    HW229856   3.976   4.625   8.008  0.7320  0.5873  0.9681
 6132SOL     OW29857   1.901   0.337   1.562  0.1953  0.0454  0.3101
 6132SOL    HW129858   1.884   0.258   1.612  0.4553 -0.1657  0.0604
 6132SOL    HW229859   1.949   0.300   1.488  3.9688  0.6433  2.4417
 6133SOL     OW29860   3.388   4.394   6.263  0.0011  0.0330  0.5278
 6133SOL    HW129861   3.477   4.361   6.252  0.1726  0.8613 -0.4781
 6133SOL    HW229862   3.351   4.325   6.319  1.2199 -1.6577 -0.7378
 6134SOL     OW29863   3.636   3.778   8.942 -0.2470  0.1197  0.0726
 6134SOL    HW129864   3.596   3.692   8.929 -0.6229 -0.0699  2.4737
 6134SOL    HW229865   3.710   3.762   8.884  0.2923 -1.0488  1.1010
 6135SOL     OW29866   1.995   3.575   6.341  0.0265  0.0234  0.0802
 6135SOL    HW129867   2.012   3.614   6.427  0.0495  1.0315 -0.3820
 6135SOL    HW229868   1.945   3.633   6.283  1.0332 -0.8765 -1.7001
 6136SOL     OW29869   3.525   0.699   6.066  0.2560  0.2395  0.1880
 6136SOL    HW129870   3.514   0.778   6.119  0.3723 -1.0221  2.1030
 6136SOL    HW229871   3.434   0.670   6.074  0.5988 -1.1600 -0.9551
 6137SOL     OW29872   2.755   3.074   9.029 -0.1354  0.2114 -0.3866
 6137SOL    HW129873   2.738   3.060   9.122 -1.0767  0.6743 -0.4786
 6137SOL    HW229874   2.825   3.011   9.012  2.0557  1.8091  2.8302
 6138SOL     OW29875   4.644   1.738  11.570  0.7913  0.1229  0.3146
 6138SOL    HW129876   4.679   1.782  11.648 -1.7321  0.0673  1.4723
 6138SOL    HW229877   4.659   1.797  11.497  1.5044 -0.6998 -0.2099
 6139SOL     OW29878   1.190   1.385   8.948  0.0605 -0.0945  0.4986
 6139SOL    HW129879   1.272   1.434   8.951 -0.0854  0.1990 -0.1671
 6139SOL    HW229880   1.221   1.319   8.885 -0.8306  1.0145 -1.1136
 6140SOL     OW29881   3.760   0.080   7.814 -0.9228 -0.1088 -0.2391
 6140SOL    HW129882   3.790   4.717   7.793  1.2785  1.2319 -2.7682
 6140SOL    HW229883   3.775   0.095   7.908 -0.3427  0.6994 -0.4608
 6141SOL     OW29884   2.593   1.506  16.984 -0.0298  0.1406 -0.4658
 6141SOL    HW129885   2.674   1.490  16.936  0.3275  1.1351 -0.1941
 6141SOL    HW229886   2.612   1.599  16.994 -3.2163  0.9075 -1.6872
 6142SOL     OW29887   0.100   4.513  10.907 -0.1877  0.0315  0.8133
 6142SOL    HW129888   0.130   4.584  10.851 -0.6015 -0.7187 -0.3465
 6142SOL    HW229889   0.009   4.504  10.877  0.1786  0.7068 -0.4492
 6143SOL     OW29890   2.885   3.200  13.040 -0.3325 -0.5073  0.3353
 6143SOL    HW129891   2.925   3.173  13.122  0.3722 -3.3441 -0.9540
 6143SOL    HW229892   2.799   3.228  13.071 -0.3504  0.0672 -0.2181
 6144SOL     OW29893   4.591   0.177   6.947  0.2806  0.1326  0.3807
 6144SOL    HW129894   4.624   0.096   6.987  1.4206 -0.0824 -0.9975
 6144SOL    HW229895   4.615   0.159   6.856  0.4187 -1.4599  0.7261
 6145SOL     OW29896   4.595   3.974  10.646  0.0696 -0.0327 -0.2566
 6145SOL    HW129897   4.632   3.905  10.701  2.2579  1.6171  0.3353
 6145SOL    HW229898   4.678   4.019  10.632  0.2572  0.1832  1.6228
 6146SOL     OW29899   2.038   2.786  17.556 -0.7491 -0.4800 -0.3042
 6146SOL    HW129900   1.956   2.774  17.510 -0.1957 -0.1844 -1.3624
 6146SOL    HW229901   2.005   2.740  17.634 -2.6811 -2.6935 -2.4447
 6147SOL     OW29902   3.558   0.916   9.837  0.5231 -0.5437 -0.1067
 6147SOL    HW129903   3.588   1.002   9.869  4.0434 -2.1983  1.0075
 6147SOL    HW229904   3.609   0.856   9.891 -0.2803 -2.6884 -1.7616
 6148SOL     OW29905   3.537   0.829  11.514 -0.3930  0.4766  0.1448
 6148SOL    HW129906   3.568   0.748  11.473 -2.2148 -0.3333  0.3752
 6148SOL    HW229907   3.515   0.811  11.605  0.0077 -0.5171  0.0421
 6149SOL     OW29908   3.827   2.277   3.874 -0.0218  0.0672 -0.4647
 6149SOL    HW129909   3.753   2.338   3.877  0.5479  0.8046 -1.2798
 6149SOL    HW229910   3.806   2.205   3.815 -2.2801 -1.0801  1.7346
 6150SOL     OW29911   4.084   0.589  15.923 -0.4090  0.3224 -0.4959
 6150SOL    HW129912   4.074   0.549  16.009  3.5624 -0.1715 -0.2437
 6150SOL    HW229913   3.994   0.571  15.897 -0.1424 -2.2359  0.3947
 6151SOL     OW29914   3.200   2.140   8.503  0.1095 -0.5013 -0.2948
 6151SOL    HW129915   3.201   2.104   8.414  0.1184 -1.6657  0.1789
 6151SOL    HW229916   3.287   2.180   8.512  0.3913 -0.9250 -1.1298
 6152SOL     OW29917   0.834   3.463  13.280 -0.0795  0.6911  0.2896
 6152SOL    HW129918   0.771   3.505  13.221  1.5976 -0.3660 -2.2583
 6152SOL    HW229919   0.828   3.535  13.343  0.7441  0.8705  0.1592
 6153SOL     OW29920   1.549   0.231   2.907 -0.0431  0.4647 -0.4888
 6153SOL    HW129921   1.513   0.250   2.994 -0.1525  0.9744 -0.6424
 6153SOL    HW229922   1.630   0.282   2.895  0.5209 -0.4131 -0.3837
 6154SOL     OW29923   1.688   2.516   9.190 -0.1428 -0.4543  0.2164
 6154SOL    HW129924   1.742   2.477   9.122  0.0303 -4.3616  2.5782
 6154SOL    HW229925   1.661   2.599   9.151 -0.9226 -0.4121  0.8380
 6155SOL     OW29926   3.565   1.908   3.294 -0.1467 -0.0719 -0.1722
 6155SOL    HW129927   3.656   1.897   3.322 -0.3823 -0.7647  0.3400
 6155SOL    HW229928   3.527   1.898   3.382 -0.1458  0.8566 -0.0720
 6156SOL     OW29929   3.868   0.006   3.582  0.0698  0.3605 -0.3156
 6156SOL    HW129930   3.784   0.053   3.587 -0.0100  0.1407  0.4079
 6156SOL    HW229931   3.920   0.058   3.521  1.6341 -0.5171  0.2797
 6157SOL     OW29932   3.885   1.365   7.215  0.0586  1.1861 -0.3109
 6157SOL    HW129933   3.931   1.357   7.132  2.9635 -0.7400  1.4491
 6157SOL    HW229934   3.903   1.279   7.252 -0.4367  2.0773  2.0115
 6158SOL     OW29935   2.306   0.206  17.648  0.1147 -0.7526 -0.2363
 6158SOL    HW129936   2.336   0.244  17.565  0.0197  2.6358  1.2987
 6158SOL    HW229937   2.335   0.275   0.005  1.7811 -0.3811 -1.4936
 6159SOL     OW29938   0.332   3.209   8.198  0.2597  0.2636 -0.7425
 6159SOL    HW129939   0.376   3.169   8.273  1.3356  3.1782  0.1946
 6159SOL    HW229940   0.335   3.139   8.133  1.5542 -0.3063 -0.0726
 6160SOL     OW29941   0.087   1.289  11.307 -0.2102 -0.5046  0.3378
 6160SOL    HW129942   0.151   1.263  11.373 -1.3354 -0.2057  1.5365
 6160SOL    HW229943   0.045   1.363  11.352 -0.2748 -0.1115 -0.3648
 6161SOL     OW29944   4.206   1.634   4.097  0.4753  0.6047  0.2520
 6161SOL    HW129945   4.111   1.621   4.093  0.4032  0.3433  3.1209
 6161SOL    HW229946   4.232   1.566   4.158  2.2459  0.0476 -1.1463
 6162SOL     OW29947   3.190   1.766   8.858 -0.0722 -0.4827 -0.3086
 6162SOL    HW129948   3.223   1.678   8.844 -0.3306 -0.7581  0.8265
 6162SOL    HW229949   3.261   1.810   8.906 -0.9627  1.3471 -0.6581
 6163SOL     OW29950   0.525   4.421  16.830  0.0728  0.0027 -0.1252
 6163SOL    HW129951   0.569   4.501  16.861 -2.7960  2.4509 -2.4248
 6163SOL    HW229952   0.587   4.349  16.841 -0.5320 -0.3817  0.7401
 6164SOL     OW29953   3.939   2.554   9.290  0.3690  1.1799 -0.2291
 6164SOL    HW129954   3.859   2.605   9.281 -0.2142  0.0666 -1.4565
 6164SOL    HW229955   3.909   2.464   9.275  1.4476  0.5218  1.6457
 6165SOL     OW29956   3.678   1.622  10.128 -0.0884  0.2201  0.2046
 6165SOL    HW129957   3.617   1.687  10.094  0.0962 -0.1006 -0.7477
 6165SOL    HW229958   3.672   1.563  10.053 -2.6279  1.3838 -0.4798
 6166SOL     OW29959   2.320   0.877   1.556  0.6009 -0.4887  0.0577
 6166SOL    HW129960   2.236   0.875   1.602 -1.1243 -0.0113 -3.0886
 6166SOL    HW229961   2.317   0.783   1.543  1.4714 -0.4292 -0.5503
 6167SOL     OW29962   3.004   3.709  13.505 -0.0152 -0.0016 -0.4926
 6167SOL    HW129963   3.078   3.701  13.444 -0.5304 -2.0879 -0.8365
 6167SOL    HW229964   2.978   3.801  13.498 -4.0562 -1.0811  0.1507
 6168SOL     OW29965   1.793   2.346   3.719  0.1350  0.3933 -0.6875
 6168SOL    HW129966   1.716   2.292   3.701 -0.5775  0.2923  2.6985
 6168SOL    HW229967   1.758   2.434   3.704  0.5177  0.9994  2.0782
 6169SOL     OW29968   4.692   4.694  12.780 -0.3652 -0.4063  0.2183
 6169SOL    HW129969   0.055   4.691  12.818  0.7248  1.2971 -2.1078
 6169SOL    HW229970   4.709   4.640  12.703  0.6161  0.3869 -0.1265
 6170SOL     OW29971   2.602   2.038   4.780  0.1169  0.6042  0.5245
 6170SOL    HW129972   2.569   2.073   4.697 -2.2395 -1.6064  0.5248
 6170SOL    HW229973   2.619   1.947   4.754  0.5537  0.4337  1.4060
 6171SOL     OW29974   1.294   2.375   5.900  0.4125 -0.1473  0.1590
 6171SOL    HW129975   1.228   2.436   5.867 -1.1878 -2.3123 -0.6033
 6171SOL    HW229976   1.372   2.380   5.845 -0.0988  0.4810 -0.5169
 6172SOL     OW29977   1.707   3.437   9.266 -0.6775 -0.0408 -0.1371
 6172SOL    HW129978   1.655   3.356   9.270 -1.0395  0.1423 -1.1174
 6172SOL    HW229979   1.708   3.467   9.176  0.5189 -2.5685 -0.9677
 6173SOL     OW29980   2.717   1.482   7.292 -0.1146  0.1503 -0.2169
 6173SOL    HW129981   2.676   1.395   7.290 -2.0084  1.0641 -0.4171
 6173SOL    HW229982   2.646   1.534   7.330 -0.6328  0.4462 -1.5953
 6174SOL     OW29983   1.068   1.077  12.188 -0.2824 -0.4882  0.1002
 6174SOL    HW129984   1.125   1.045  12.118  0.1587  5.3025 -2.1247
 6174SOL    HW229985   1.055   0.994  12.235  1.9492 -0.5027  0.6997
 6175SOL     OW29986   0.872   2.228   0.505  0.2612 -0.6349  0.3212
 6175SOL    HW129987   0.960   2.245   0.472 -0.3317  1.3133 -0.2570
 6175SOL    HW229988   0.823   2.233   0.423  0.8442  0.0385  0.0218
 6176SOL     OW29989   3.890   2.305  13.472 -0.6777 -0.5748  0.1190
 6176SOL    HW129990   3.946   2.252  13.416  0.6681  1.1150 -0.1104
 6176SOL    HW229991   3.953   2.363  13.515 -0.6082  0.4847 -1.4148
 6177SOL     OW29992   4.189   2.641   9.266 -0.0272  0.1145  0.1955
 6177SOL    HW129993   4.196   2.674   9.356  1.5782  0.6532 -0.1273
 6177SOL    HW229994   4.102   2.603   9.267 -0.4960  1.1906  0.3440
 6178SOL     OW29995   3.283   3.848   3.920 -0.1720 -0.4283 -0.6274
 6178SOL    HW129996   3.260   3.941   3.928  3.0827  0.2830  0.3754
 6178SOL    HW229997   3.258   3.826   3.830 -1.3106 -1.0322 -0.1630
 6179SOL     OW29998   3.819   0.213   4.855  0.5121  0.1467 -0.5864
 6179SOL    HW129999   3.834   0.272   4.781  0.8237  0.2491 -0.4417
 6179SOL    HW230000   3.867   0.250   4.928 -0.0105  0.5179 -0.4337
 6180SOL     OW30001   2.630   2.471   0.176 -0.3272  0.0279  0.3848
 6180SOL    HW130002   2.689   2.420   0.232 -1.0874 -2.9894 -1.5293
 6180SOL    HW230003   2.679   2.463   0.094 -1.5544 -1.7815 -0.1966
 6181SOL     OW30004   3.707   4.707   5.137  0.5114  0.2218  0.0315
 6181SOL    HW130005   3.712   0.070   5.174  0.3747  0.0192  0.5306
 6181SOL    HW230006   3.689   4.722   5.044 -3.3220 -0.0470  0.7355
 6182SOL     OW30007   0.295   1.147   8.689  0.1067  0.5253  0.1602
 6182SOL    HW130008   0.311   1.103   8.606 -0.3445 -2.7005  1.7819
 6182SOL    HW230009   0.342   1.098   8.757 -1.8988 -1.0163  0.4304
 6183SOL     OW30010   4.280   0.403   9.444 -0.3410 -0.5043  0.3996
 6183SOL    HW130011   4.349   0.337   9.453 -1.8189 -2.0018  0.7933
 6183SOL    HW230012   4.223   0.350   9.388 -1.0432  0.6719 -0.0034
 6184SOL     OW30013   2.255   4.020   5.112  0.3581 -0.0790 -0.2839
 6184SOL    HW130014   2.197   4.094   5.096  1.1543  0.7015  0.4618
 6184SOL    HW230015   2.278   3.991   5.024 -0.1682  0.9992 -0.7730
 6185SOL     OW30016   2.769   0.725  14.815 -0.0284 -0.7208  0.4146
 6185SOL    HW130017   2.812   0.805  14.845  0.8586 -1.3377  0.8059
 6185SOL    HW230018   2.727   0.766  14.740  2.4577  1.9187  0.4843
 6186SOL     OW30019   2.316   4.304   0.439  0.5551 -0.1576  0.2115
 6186SOL    HW130020   2.305   4.238   0.508 -0.6719 -1.2721 -1.0535
 6186SOL    HW230021   2.293   4.387   0.482  2.2840  0.5136 -0.1886
 6187SOL     OW30022   4.415   0.853   6.837  1.1882  0.7593 -0.5052
 6187SOL    HW130023   4.371   0.818   6.759 -0.7215 -0.6988  1.2190
 6187SOL    HW230024   4.349   0.821   6.899  1.5395  1.0264  0.0034
 6188SOL     OW30025   1.644   2.323   8.958  0.3838  0.2017  0.1681
 6188SOL    HW130026   1.548   2.328   8.950  0.4873  0.0739 -1.2755
 6188SOL    HW230027   1.642   2.260   9.030  1.6089  1.2866  1.1396
 6189SOL     OW30028   0.440   2.282   3.519  0.4154  0.6283 -0.3559
 6189SOL    HW130029   0.455   2.190   3.497 -0.9481  0.7284 -1.7275
 6189SOL    HW230030   0.361   2.276   3.573  0.4859  2.8227  0.0173
 6190SOL     OW30031   1.122   3.535  13.289  0.2637  0.4184 -0.5479
 6190SOL    HW130032   1.072   3.470  13.239  0.5714 -2.1761  2.5186
 6190SOL    HW230033   1.059   3.597  13.326 -0.0543 -1.1018  1.4026
 6191SOL     OW30034   1.704   0.157  15.605  0.6072  0.0872  0.3658
 6191SOL    HW130035   1.696   0.075  15.653  0.9677 -1.1728 -1.7503
 6191SOL    HW230036   1.691   0.224  15.672  1.7923  0.3292  0.3462
 6192SOL     OW30037   1.812   1.819   0.958  0.1179  0.1462  0.2935
 6192SOL    HW130038   1.828   1.898   0.907  0.9132  0.0588  0.4182
 6192SOL    HW230039   1.813   1.760   0.883 -1.6501 -0.3836  0.6854
 6193SOL     OW30040   4.000   0.793   4.495 -0.3568  0.4099  0.7196
 6193SOL    HW130041   3.920   0.843   4.510 -0.2147  1.2013 -1.1471
 6193SOL    HW230042   4.058   0.868   4.483  0.4231  0.0305  2.1670
 6194SOL     OW30043   0.503   2.022   3.500 -0.2889 -0.2269  0.1464
 6194SOL    HW130044   0.476   1.958   3.565 -0.8553  1.4580  1.5660
 6194SOL    HW230045   0.458   1.984   3.425  1.1746 -1.7916  0.0430
 6195SOL     OW30046   0.620   0.586   8.968  0.0125 -0.3520  0.4453
 6195SOL    HW130047   0.671   0.508   8.991 -0.2545 -0.8019 -0.5166
 6195SOL    HW230048   0.622   0.579   8.873  0.9377  1.1835  0.3515
 6196SOL     OW30049   0.156   2.358   9.313 -0.5954 -0.1785  0.5119
 6196SOL    HW130050   0.067   2.323   9.307  0.7612 -3.4540 -0.4104
 6196SOL    HW230051   0.165   2.399   9.227  0.8257 -0.3596  0.5683
 6197SOL     OW30052   0.707   0.715   9.206  0.3026  0.2165  0.2410
 6197SOL    HW130053   0.695   0.683   9.116  1.9012  0.4599 -0.0486
 6197SOL    HW230054   0.711   0.810   9.197  0.0612  0.1495 -0.5726
 6198SOL     OW30055   0.849   1.736  12.228 -0.2510  0.4925  0.0647
 6198SOL    HW130056   0.925   1.756  12.174  0.0371 -0.4769  0.1108
 6198SOL    HW230057   0.883   1.735  12.317 -2.5780 -2.1602  0.9523
 6199SOL     OW30058   3.201   2.342   5.899  0.6564 -0.6215 -0.4429
 6199SOL    HW130059   3.177   2.362   5.990 -1.1486  1.8893 -1.4810
 6199SOL    HW230060   3.233   2.427   5.869  0.7925 -0.3229  0.5416
 6200SOL     OW30061   1.927   2.576  12.572 -0.7106 -0.5460 -0.4727
 6200SOL    HW130062   1.875   2.654  12.594 -0.1895 -0.2051 -0.4409
 6200SOL    HW230063   1.863   2.505  12.576 -0.4285 -0.7730  0.0270
 6201SOL     OW30064   3.602   2.293   2.303  0.4156 -0.4607  0.2356
 6201SOL    HW130065   3.680   2.302   2.357  0.9993  0.2439 -0.7142
 6201SOL    HW230066   3.632   2.215   2.257 -0.4899 -0.2360 -0.7716
 6202SOL     OW30067   4.551   3.406   9.158  0.2063 -0.4633  0.1107
 6202SOL    HW130068   4.562   3.465   9.083  0.0205 -1.5297 -0.7393
 6202SOL    HW230069   4.475   3.355   9.132  0.7068 -1.8085  1.2693
 6203SOL     OW30070   1.571   0.410   3.335 -0.2707  0.3664  0.1602
 6203SOL    HW130071   1.568   0.465   3.256 -2.4063  0.7412  0.5271
 6203SOL    HW230072   1.484   0.383   3.363 -1.9122  3.0042 -2.3496
 6204SOL     OW30073   4.063   3.534   2.804 -0.4830 -0.0153  0.0856
 6204SOL    HW130074   4.027   3.487   2.728 -1.7418 -0.3546  0.8714
 6204SOL    HW230075   4.156   3.526   2.787 -0.2998 -0.1144  1.1702
 6205SOL     OW30076   1.121   2.980  16.730 -0.1244 -0.7080  0.0205
 6205SOL    HW130077   1.058   2.965  16.659  0.4194 -3.3303  0.0747
 6205SOL    HW230078   1.147   3.068  16.705  0.2935 -1.0151 -0.6420
 6206SOL     OW30079   0.584   0.574   4.969  0.3679  0.0981 -0.4156
 6206SOL    HW130080   0.498   0.543   4.997  1.8942 -2.0530  1.9416
 6206SOL    HW230081   0.637   0.523   5.030 -1.9987  1.0437  2.4550
 6207SOL     OW30082   2.269   3.861   0.953  0.3511 -0.0372 -0.4191
 6207SOL    HW130083   2.176   3.838   0.950  1.0289 -2.6726 -0.7956
 6207SOL    HW230084   2.264   3.956   0.965 -0.8374 -0.1690  0.1526
 6208SOL     OW30085   1.392   4.394   9.346 -0.0961 -0.0253 -0.2185
 6208SOL    HW130086   1.460   4.341   9.304  0.4126  0.0719  0.4910
 6208SOL    HW230087   1.320   4.385   9.284  0.8850  0.1196 -1.3762
 6209SOL     OW30088   1.569   0.886   6.268 -0.6889  0.7552 -0.4773
 6209SOL    HW130089   1.588   0.798   6.237 -0.7235  1.6047 -2.9781
 6209SOL    HW230090   1.474   0.894   6.272 -0.8670 -1.5815 -0.3175
 6210SOL     OW30091   0.686   1.269  10.209 -0.0831 -0.3640 -0.2812
 6210SOL    HW130092   0.730   1.203  10.263  1.1802 -0.8097 -1.8469
 6210SOL    HW230093   0.629   1.316  10.271 -1.6215 -0.6707 -1.4557
 6211SOL     OW30094   0.593   0.738   3.479 -0.3076  0.0609  0.4465
 6211SOL    HW130095   0.526   0.757   3.545 -1.8944 -0.2290 -1.0726
 6211SOL    HW230096   0.641   0.819   3.462 -1.3348  0.9739  1.8847
 6212SOL     OW30097   1.290   2.330   2.365 -0.2560 -0.2201 -0.3102
 6212SOL    HW130098   1.332   2.265   2.309  2.0619  1.7079 -0.8057
 6212SOL    HW230099   1.354   2.399   2.382  1.3493 -2.1038  1.2617
 6213SOL     OW30100   2.018   4.244   5.725 -0.3540 -0.2748  0.2843
 6213SOL    HW130101   1.938   4.297   5.727 -1.6372 -2.2356  0.0062
 6213SOL    HW230102   2.078   4.311   5.760 -0.0247  0.5236 -1.8503
 6214SOL     OW30103   2.084   4.282   8.865 -0.2556  0.2574  0.9041
 6214SOL    HW130104   1.992   4.295   8.841 -0.3171 -1.4543  0.1961
 6214SOL    HW230105   2.079   4.268   8.960 -2.6267  0.0001  0.7616
 6215SOL     OW30106   1.007   1.891  13.458  0.3315 -0.2433  0.1993
 6215SOL    HW130107   1.089   1.866  13.501 -0.3618 -2.1738  0.3911
 6215SOL    HW230108   0.950   1.815  13.466  1.3152 -1.1213 -1.2665
 6216SOL     OW30109   3.876   3.602   4.871 -0.0388  0.3842  0.6799
 6216SOL    HW130110   3.872   3.647   4.955 -2.1870  0.5486  0.4942
 6216SOL    HW230111   3.784   3.577   4.870 -0.5693  2.3150  0.0875
 6217SOL     OW30112   4.576   3.623   7.019 -0.2537  0.2913  0.3799
 6217SOL    HW130113   4.560   3.537   7.058 -2.7800  1.2047  1.3967
 6217SOL    HW230114   4.657   3.591   6.980 -2.9598 -3.5257 -2.0384
 6218SOL     OW30115   1.295   3.639  11.310 -0.0600  0.1796 -0.0804
 6218SOL    HW130116   1.284   3.731  11.334 -1.8921  0.3264 -1.4486
 6218SOL    HW230117   1.202   3.623  11.293  0.1114 -1.9370  0.9549
 6219SOL     OW30118   3.065   1.133   6.519  0.1303  0.5303 -0.1386
 6219SOL    HW130119   3.093   1.060   6.574  1.5973  1.3167  0.1617
 6219SOL    HW230120   2.984   1.107   6.475 -0.1467  1.1776 -0.0219
 6220SOL     OW30121   1.390   0.817   7.454  0.3190 -0.0881  0.3927
 6220SOL    HW130122   1.459   0.882   7.467 -0.0370  0.4640 -0.5321
 6220SOL    HW230123   1.424   0.741   7.501  2.7267  1.8452  1.8433
 6221SOL     OW30124   3.073   1.406   7.411 -0.4557 -0.3974  0.2239
 6221SOL    HW130125   3.015   1.334   7.385  0.7357 -1.5037  0.6471
 6221SOL    HW230126   3.043   1.483   7.363  1.5414  1.0075  1.2362
 6222SOL     OW30127   4.527   2.024   9.880 -0.2378  0.0877 -0.2442
 6222SOL    HW130128   4.497   2.011   9.970  1.9500  0.5970  0.5578
 6222SOL    HW230129   4.528   1.934   9.847 -1.2863  0.0779 -0.2573
 6223SOL     OW30130   1.273   0.985   6.327  0.5144  0.3413  0.2794
 6223SOL    HW130131   1.246   0.926   6.257 -0.8993 -0.2730  1.3421
 6223SOL    HW230132   1.213   1.059   6.321 -0.9253 -0.7961  0.5442
 6224SOL     OW30133   4.137   1.585   7.122  0.3616  0.0629  0.5809
 6224SOL    HW130134   4.049   1.581   7.086  0.3163  0.3545  0.6561
 6224SOL    HW230135   4.190   1.647   7.071 -0.0391 -1.2458 -1.4043
 6225SOL     OW30136   4.629   4.347   8.497 -0.2398  0.0554  0.3207
 6225SOL    HW130137   4.682   4.280   8.454  0.5263 -0.1708  1.6353
 6225SOL    HW230138   4.614   4.309   8.583  0.6333 -0.0902  0.3999
 6226SOL     OW30139   1.659   2.478  10.056 -0.0087  0.2039  0.2474
 6226SOL    HW130140   1.679   2.571  10.044  2.0928 -0.7769 -3.5723
 6226SOL    HW230141   1.673   2.466  10.150 -1.3209  2.2567  0.6982
 6227SOL     OW30142   2.764   3.798   1.547  0.2243  0.2904 -0.0282
 6227SOL    HW130143   2.777   3.714   1.502 -3.1251  0.1278 -0.7166
 6227SOL    HW230144   2.854   3.819   1.572 -0.6387  1.8067  1.8168
 6228SOL     OW30145   1.334   3.006  17.499  0.2850 -0.3476  0.0566
 6228SOL    HW130146   1.305   2.937  17.559 -2.3921  0.8082  0.0583
 6228SOL    HW230147   1.269   3.009  17.429  0.0439 -2.4925  0.1786
 6229SOL     OW30148   4.556   3.916  11.624  0.0959  0.0656 -0.0265
 6229SOL    HW130149   4.548   4.004  11.586 -3.1535 -0.2917 -0.1312
 6229SOL    HW230150   4.618   3.878  11.563  0.3359  0.6503 -0.1477
 6230SOL     OW30151   0.398   4.571   5.507 -0.2290  0.2072 -0.1264
 6230SOL    HW130152   0.379   4.491   5.458  0.8812  0.7251 -1.3946
 6230SOL    HW230153   0.493   4.563   5.522  0.1943  0.7271 -2.4245
 6231SOL     OW30154   1.382   0.823   5.975 -0.6280  0.2537  0.1643
 6231SOL    HW130155   1.344   0.761   6.037  3.2649 -1.4965  0.7856
 6231SOL    HW230156   1.343   0.903   6.011  1.5559  0.8531  1.2150
 6232SOL     OW30157   2.436   3.737   9.978 -0.0611  0.7536 -0.3413
 6232SOL    HW130158   2.445   3.755   9.884  0.8369 -1.1324 -0.6195
 6232SOL    HW230159   2.358   3.789   9.998  0.3433  1.0275  0.5166
 6233SOL     OW30160   2.509   3.568   5.114  0.4778  0.4063  0.6272
 6233SOL    HW130161   2.580   3.536   5.170  0.8140  0.6313  0.3317
 6233SOL    HW230162   2.537   3.548   5.025 -3.3659 -0.0738 -0.4729
 6234SOL     OW30163   1.875   1.329  12.063  0.2419  0.2858 -0.4737
 6234SOL    HW130164   1.965   1.334  12.032  0.2300  0.8365 -0.4199
 6234SOL    HW230165   1.885   1.265  12.134  0.8978 -0.5655 -1.3385
 6235SOL     OW30166   1.385   2.326   8.970 -0.0712 -0.0145  0.3640
 6235SOL    HW130167   1.317   2.306   9.035  0.4930 -1.2339  0.5837
 6235SOL    HW230168   1.334   2.349   8.892 -0.0840 -2.3682 -0.3281
 6236SOL     OW30169   4.621   4.595   8.648  0.2773  0.2639 -0.2929
 6236SOL    HW130170   4.618   4.525   8.584 -3.2666 -0.7281  0.9589
 6236SOL    HW230171   4.710   4.578   8.680 -0.7983 -0.0665  2.6031
 6237SOL     OW30172   4.165   3.674   0.843  0.0172  0.3246  0.3893
 6237SOL    HW130173   4.078   3.695   0.807 -0.5538 -4.7453 -1.2165
 6237SOL    HW230174   4.220   3.746   0.814  1.9290 -1.3079 -0.0272
 6238SOL     OW30175   3.896   3.439  10.019  0.2247  0.2235  0.3233
 6238SOL    HW130176   3.834   3.474  10.083 -0.3096  0.6641 -0.4353
 6238SOL    HW230177   3.964   3.406  10.078  0.2138  0.1044  0.2692
 6239SOL     OW30178   4.467   3.163  14.967 -0.1347 -0.3375 -0.5385
 6239SOL    HW130179   4.433   3.239  15.014  0.0881  0.5770 -1.8561
 6239SOL    HW230180   4.527   3.133  15.035 -1.9438  0.9981  1.6792
 6240SOL     OW30181   2.427   0.424   7.928 -0.0117 -0.7533 -0.1702
 6240SOL    HW130182   2.357   0.362   7.947  1.4307 -2.2286  0.3208
 6240SOL    HW230183   2.493   0.358   7.908  1.6136 -0.0318  2.8008
 6241SOL     OW30184   2.826   2.427  15.439 -0.0845 -0.2702 -0.2133
 6241SOL    HW130185   2.881   2.407  15.364 -0.3898 -1.4208 -0.1223
 6241SOL    HW230186   2.864   2.508  15.474 -1.1356  1.2087 -2.4977
 6242SOL     OW30187   3.991   2.141   6.905  0.2352 -0.0949  0.7070
 6242SOL    HW130188   4.057   2.211   6.900  0.4700 -0.2608  1.4705
 6242SOL    HW230189   4.035   2.072   6.954 -0.0408  0.0251  1.1302
 6243SOL     OW30190   2.286   4.226   8.364  0.1010  0.0013 -0.5140
 6243SOL    HW130191   2.214   4.165   8.378  0.2007  0.3362  1.4629
 6243SOL    HW230192   2.324   4.222   8.452 -0.2187  0.8278 -0.3365
 6244SOL     OW30193   2.946   2.390   5.654  0.0853 -0.0774  0.1855
 6244SOL    HW130194   2.980   2.301   5.638 -1.2225 -1.0489  2.8459
 6244SOL    HW230195   2.859   2.383   5.615  0.1237  1.8424 -0.2244
 6245SOL     OW30196   3.040   0.813  15.014  0.1800 -0.4472 -0.1805
 6245SOL    HW130197   3.074   0.751  14.950 -0.1239 -1.1013  0.2895
 6245SOL    HW230198   3.002   0.751  15.077 -2.3407 -0.7191 -1.9261
 6246SOL     OW30199   1.174   2.417   8.803 -0.1076 -0.1238  0.1269
 6246SOL    HW130200   1.104   2.475   8.832 -1.2826 -0.4590 -2.0631
 6246SOL    HW230201   1.143   2.370   8.726 -1.3569 -1.8079  1.6689
 6247SOL     OW30202   0.770   4.641   8.058 -0.4958  0.0731  0.0240
 6247SOL    HW130203   0.844   4.584   8.075 -0.6422 -0.6492 -1.7169
 6247SOL    HW230204   0.703   4.572   8.055  1.7969 -2.1167 -0.6531
 6248SOL     OW30205   1.475   3.038  14.017 -0.3065  0.6650 -0.7095
 6248SOL    HW130206   1.429   3.015  14.098  2.6525 -0.1668  0.7500
 6248SOL    HW230207   1.541   2.971  13.999 -2.4322 -1.3827 -0.9553
 6249SOL     OW30208   3.152   1.523   3.056  0.4253 -0.1474  0.2061
 6249SOL    HW130209   3.152   1.587   3.128  2.0927 -1.1686  1.1122
 6249SOL    HW230210   3.063   1.489   3.048  0.7076 -0.4201 -1.6213
 6250SOL     OW30211   2.275   3.563  16.340  0.3852 -0.4956  0.5258
 6250SOL    HW130212   2.339   3.547  16.410  1.6535 -2.5559 -1.1267
 6250SOL    HW230213   2.324   3.620  16.281  0.7423 -2.7350 -1.3574
 6251SOL     OW30214   0.466   1.667   1.191  0.1278  0.4659 -0.0457
 6251SOL    HW130215   0.519   1.625   1.259  1.4471  1.4628 -0.4525
 6251SOL    HW230216   0.481   1.611   1.115  0.1148  2.0405 -1.2132
 6252SOL     OW30217   2.317   4.296   2.176  0.3162  0.0437  0.4637
 6252SOL    HW130218   2.312   4.214   2.127  1.3498  0.1157  0.2338
 6252SOL    HW230219   2.404   4.327   2.151  0.1681  0.4815  0.4945
 6253SOL     OW30220   2.264   1.157  11.343 -0.2656 -0.0675 -0.1511
 6253SOL    HW130221   2.349   1.183  11.379 -0.4011 -1.4618  1.1786
 6253SOL    HW230222   2.256   1.069  11.380  2.4702  0.2152  1.0913
 6254SOL     OW30223   4.193   2.346   7.864 -0.3680 -0.0646  0.4767
 6254SOL    HW130224   4.162   2.437   7.866  0.2326  0.1876 -1.8138
 6254SOL    HW230225   4.251   2.341   7.788  0.7334 -1.1086  1.3743
 6255SOL     OW30226   1.805   1.140  11.896  0.5672 -0.1170  0.0533
 6255SOL    HW130227   1.824   1.198  11.823  0.8024  0.1251  0.3052
 6255SOL    HW230228   1.817   1.200  11.970  1.3028 -0.1023 -0.0699
 6256SOL     OW30229   1.495   1.708   9.245  0.0072  0.2088 -0.1297
 6256SOL    HW130230   1.435   1.781   9.231 -1.4810 -0.6736  1.5317
 6256SOL    HW230231   1.488   1.688   9.339 -0.3954  0.7344 -0.0496
 6257SOL     OW30232   1.727   4.594  14.553 -0.4897  0.4614  0.5239
 6257SOL    HW130233   1.777   4.577  14.474 -1.9204  1.0905 -0.5162
 6257SOL    HW230234   1.739   4.519  14.611 -2.6143 -0.2862 -0.0087
 6258SOL     OW30235   1.494   3.103   7.632  0.1172 -0.9237 -0.5290
 6258SOL    HW130236   1.476   3.197   7.641 -0.1745 -1.1293  1.0666
 6258SOL    HW230237   1.455   3.070   7.713  0.9790 -1.4762 -0.3403
 6259SOL     OW30238   1.092   3.909   6.175  0.2411 -0.2085  0.1675
 6259SOL    HW130239   1.068   3.840   6.113 -1.5643 -0.4500  1.1560
 6259SOL    HW230240   1.073   3.860   6.255  1.4632 -1.9365 -0.5878
 6260SOL     OW30241   1.692   3.451   6.131 -0.3743  0.1755  0.2724
 6260SOL    HW130242   1.709   3.507   6.207  0.7212 -1.7947  1.5063
 6260SOL    HW230243   1.646   3.508   6.070 -0.3972 -0.3784 -0.2185
 6261SOL     OW30244   3.002   0.158   5.185 -0.0694  0.0406  0.0893
 6261SOL    HW130245   3.060   0.132   5.114  0.5268 -0.7481  0.8561
 6261SOL    HW230246   3.030   0.249   5.195  1.2009 -0.3497  0.1355
 6262SOL     OW30247   2.724   4.165   2.821  0.4091  0.0066  0.6898
 6262SOL    HW130248   2.721   4.239   2.881 -0.8646  0.4565  0.0611
 6262SOL    HW230249   2.820   4.157   2.821  0.5058  1.2822 -0.0933
 6263SOL     OW30250   2.705   1.524   2.787 -0.7836 -0.0648 -0.6363
 6263SOL    HW130251   2.780   1.467   2.772 -1.3683 -1.2490  0.8804
 6263SOL    HW230252   2.746   1.609   2.795  3.4145 -2.0129 -1.4831
 6264SOL     OW30253   1.908   0.034   0.880 -0.2116  0.2534 -0.6448
 6264SOL    HW130254   1.958   0.098   0.829  0.0442  0.2690 -0.3739
 6264SOL    HW230255   1.973   4.697   0.912 -0.8378 -0.4304 -0.7266
 6265SOL     OW30256   2.487   0.092  11.590 -0.2798  0.0731 -0.3858
 6265SOL    HW130257   2.462   0.169  11.642  1.4731 -0.0293  0.5855
 6265SOL    HW230258   2.409   0.102  11.535 -0.4974 -1.0846 -0.2761
 6266SOL     OW30259   2.693   1.223  17.203  0.0692  0.1427  0.0306
 6266SOL    HW130260   2.631   1.223  17.276  0.0487  2.3762  0.0148
 6266SOL    HW230261   2.620   1.222  17.141  1.1797  0.2300 -1.2734
 6267SOL     OW30262   0.785   0.977   5.052  0.7664  1.0367  0.0076
 6267SOL    HW130263   0.876   0.971   5.081  0.6858 -0.0540  0.0073
 6267SOL    HW230264   0.804   0.998   4.960 -0.7758  3.2305  0.1948
 6268SOL     OW30265   3.704   3.783  17.302 -0.4548 -0.1837 -0.1565
 6268SOL    HW130266   3.723   3.869  17.339 -0.8205 -0.1028 -0.1561
 6268SOL    HW230267   3.646   3.744  17.367 -1.3760 -1.3644 -1.6945
 6269SOL     OW30268   3.801   0.791   3.337 -0.0335  0.6115  0.5174
 6269SOL    HW130269   3.804   0.736   3.259 -1.7160  2.6264 -0.9829
 6269SOL    HW230270   3.877   0.759   3.386 -3.3841 -1.5261  4.2375
 6270SOL     OW30271   2.393   1.169  11.842 -0.4908  0.6525 -0.5769
 6270SOL    HW130272   2.365   1.110  11.773 -1.4085  1.1740 -0.6561
 6270SOL    HW230273   2.487   1.172  11.824 -0.3104  3.9753  0.8783
 6271SOL     OW30274   3.903   2.849   5.482 -0.3350  0.6525 -0.3348
 6271SOL    HW130275   3.908   2.937   5.520  0.7519 -0.1098  1.3051
 6271SOL    HW230276   3.819   2.813   5.513  1.1997 -0.8381  2.1393
 6272SOL     OW30277   0.697   2.859   7.935 -0.0610  0.8657 -0.3173
 6272SOL    HW130278   0.677   2.886   8.024  1.4361  0.7976  0.0365
 6272SOL    HW230279   0.775   2.915   7.926  1.2774 -1.3182 -2.4016
 6273SOL     OW30280   3.620   2.175   9.032  0.0413  0.3614 -0.0303
 6273SOL    HW130281   3.676   2.120   8.978  1.8623  0.9584  1.2460
 6273SOL    HW230282   3.603   2.239   8.963 -2.6349  1.0155  1.2147
 6274SOL     OW30283   1.241   1.996  13.156 -0.2323 -0.0276  0.6177
 6274SOL    HW130284   1.228   1.995  13.061  1.6848 -2.3239  0.3748
 6274SOL    HW230285   1.300   1.922  13.171  0.5832  0.0476 -2.0999
 6275SOL     OW30286   3.981   1.427  13.941 -0.4682  0.0310  0.5425
 6275SOL    HW130287   4.051   1.385  13.992  0.5646  1.1956  0.0841
 6275SOL    HW230288   3.937   1.346  13.915 -2.3511  1.1799  0.1559
 6276SOL     OW30289   2.818   3.286   6.031  0.6043 -0.6763 -0.6885
 6276SOL    HW130290   2.828   3.264   5.938 -0.5307 -0.7144 -0.7990
 6276SOL    HW230291   2.896   3.242   6.064  2.1888  0.7884 -2.5096
 6277SOL     OW30292   2.824   3.000  16.130  0.0287  0.4373 -0.3812
 6277SOL    HW130293   2.794   2.936  16.065 -1.2821  1.6084 -0.9354
 6277SOL    HW230294   2.836   2.950  16.211 -0.9679  0.1559 -0.4023
 6278SOL     OW30295   1.244   4.525   5.517  0.0910 -0.8506 -0.1208
 6278SOL    HW130296   1.260   4.496   5.606 -0.4676 -2.8828 -0.6831
 6278SOL    HW230297   1.290   4.459   5.466  0.6406  0.4373 -1.3065
 6279SOL     OW30298   1.293   1.294  15.380 -0.4875  0.4831 -0.0370
 6279SOL    HW130299   1.290   1.284  15.475  1.2665  3.1292  0.3145
 6279SOL    HW230300   1.303   1.203  15.354 -3.5847 -0.1481  1.0248
 6280SOL     OW30301   0.238   1.793  14.352  0.0055 -0.0291  0.2925
 6280SOL    HW130302   0.233   1.882  14.388  0.1789  1.2575 -2.8977
 6280SOL    HW230303   0.189   1.736  14.411 -2.4397  2.8750  1.0742
 6281SOL     OW30304   4.397   1.428   7.794  0.1897 -0.0641  0.5956
 6281SOL    HW130305   4.425   1.519   7.806  0.3737 -0.1330  0.6818
 6281SOL    HW230306   4.470   1.384   7.838 -0.4806 -1.3462  0.4149
 6282SOL     OW30307   4.564   1.978   9.356 -0.2384 -0.4345 -0.2591
 6282SOL    HW130308   4.478   1.953   9.390  0.9889 -0.5278  2.7672
 6282SOL    HW230309   4.618   1.901   9.376  0.4354  0.1378  0.1437
 6283SOL     OW30310   2.959   1.387   6.610  0.1040  0.2502 -0.3551
 6283SOL    HW130311   2.871   1.399   6.574 -0.3880  1.0814  1.1083
 6283SOL    HW230312   2.967   1.292   6.606  0.3586  0.2745 -0.4074
 6284SOL     OW30313   2.120   1.849   7.875  0.4042 -0.0389 -0.7410
 6284SOL    HW130314   2.169   1.809   7.804  0.6833  0.4643 -0.8364
 6284SOL    HW230315   2.101   1.776   7.933  1.9719  2.7711  3.3365
 6285SOL     OW30316   0.009   2.524   7.454 -0.3969  0.2165 -0.2323
 6285SOL    HW130317   0.088   2.579   7.447  0.7124 -1.3830 -0.2193
 6285SOL    HW230318   4.674   2.595   7.478 -3.6061 -2.2843 -0.9468
 6286SOL     OW30319   0.525   0.621   2.807 -0.3422  0.6175 -0.1202
 6286SOL    HW130320   0.587   0.594   2.739  1.5563 -0.2860  1.9551
 6286SOL    HW230321   0.448   0.647   2.756  1.1070  2.5503 -1.3590
 6287SOL     OW30322   0.898   1.872  10.705 -0.5313  0.3256  0.7200
 6287SOL    HW130323   0.885   1.822  10.786  1.4880 -0.4493  0.5627
 6287SOL    HW230324   0.921   1.796  10.651  0.7086  1.6545 -0.6133
 6288SOL     OW30325   0.158   4.634   4.529 -0.3238 -0.1289 -0.0729
 6288SOL    HW130326   0.202   4.606   4.609  1.3769  0.8366 -0.6665
 6288SOL    HW230327   0.230   4.615   4.468 -1.0003  0.9127 -1.1900
 6289SOL     OW30328   3.775   4.083  15.253 -0.3221  0.4630 -0.0190
 6289SOL    HW130329   3.824   4.097  15.171  0.7138 -0.9603  0.3472
 6289SOL    HW230330   3.758   3.989  15.265  0.2950  0.2547 -0.7543
 6290SOL     OW30331   0.532   4.129   4.381 -0.0487  0.1777 -0.3283
 6290SOL    HW130332   0.579   4.130   4.297  0.4920  0.8010 -0.0276
 6290SOL    HW230333   0.598   4.171   4.437 -0.5863 -1.9787  1.9065
 6291SOL     OW30334   0.321   2.006  10.194 -0.2974 -0.0806 -0.7322
 6291SOL    HW130335   0.278   2.091  10.199  2.0220  1.0884 -0.8281
 6291SOL    HW230336   0.404   2.011  10.242 -0.8183  0.4321  0.1110
 6292SOL     OW30337   1.969   0.522   5.741 -0.0156  0.4554 -1.1033
 6292SOL    HW130338   2.005   0.611   5.739  1.4474 -0.2050 -3.6131
 6292SOL    HW230339   2.023   0.474   5.678 -1.0975 -1.6327 -0.4528
 6293SOL     OW30340   1.702   3.916   9.710  0.0283  0.3261 -0.3612
 6293SOL    HW130341   1.764   3.866   9.657  0.1778  0.8444 -0.6678
 6293SOL    HW230342   1.653   3.842   9.747  0.4876  0.5841  0.7686
 6294SOL     OW30343   3.979   4.514   6.044 -0.3897 -0.1729  0.3910
 6294SOL    HW130344   4.044   4.542   5.980 -0.9326  0.0429 -0.0629
 6294SOL    HW230345   4.033   4.473   6.112  1.8931  1.4330 -0.4679
 6295SOL     OW30346   2.092   0.869   8.864  0.0068  0.4729  0.3496
 6295SOL    HW130347   2.079   0.921   8.785  0.8986  1.1072  0.6208
 6295SOL    HW230348   2.188   0.867   8.859 -0.0961 -0.3280 -1.4265
 6296SOL     OW30349   3.607   4.235  10.056  0.5417 -0.3036 -0.3937
 6296SOL    HW130350   3.592   4.261   9.965  2.0323  1.9413 -0.0029
 6296SOL    HW230351   3.581   4.317  10.100  2.5776  0.7244 -1.0895
 6297SOL     OW30352   3.920   0.410   2.522  0.1789  0.1024 -0.7368
 6297SOL    HW130353   3.988   0.476   2.514 -1.4708  2.0016  1.0550
 6297SOL    HW230354   3.912   0.381   2.431  1.7283 -0.5632 -0.6522
 6298SOL     OW30355   2.410   2.219   5.115 -0.1632  0.1920  0.7787
 6298SOL    HW130356   2.467   2.280   5.067 -0.7586 -0.5245 -0.8531
 6298SOL    HW230357   2.453   2.136   5.097 -2.4461 -0.6074 -1.0159
 6299SOL     OW30358   0.424   4.672   6.780  0.0974 -0.3931  0.2313
 6299SOL    HW130359   0.350   0.007   6.783  0.3674 -0.0210 -0.5908
 6299SOL    HW230360   0.495   0.012   6.781 -1.5277  1.3610  0.9632
 6300SOL     OW30361   0.367   1.816   1.462 -0.2261 -0.0456 -0.0881
 6300SOL    HW130362   0.291   1.779   1.416  0.5101 -1.6487 -0.0292
 6300SOL    HW230363   0.394   1.746   1.521  0.3068  0.9403  0.8274
 6301SOL     OW30364   1.145   4.422   0.482  0.1408  0.0120  0.3018
 6301SOL    HW130365   1.150   4.444   0.575  2.7792 -2.7396  0.7979
 6301SOL    HW230366   1.140   4.515   0.460 -2.2184  0.2494  1.8500
 6302SOL     OW30367   2.794   2.614   1.120  0.8609 -0.1177  0.1573
 6302SOL    HW130368   2.727   2.597   1.054  2.4028 -1.9068 -0.9441
 6302SOL    HW230369   2.753   2.575   1.197  1.5660  1.1161  1.1662
 6303SOL     OW30370   0.882   1.791   9.141 -0.1011 -0.2690  0.2252
 6303SOL    HW130371   0.808   1.739   9.175 -1.9033  0.5608 -2.4312
 6303SOL    HW230372   0.935   1.794   9.220 -1.3035  1.0418  0.9885
 6304SOL     OW30373   0.980   0.100   8.204  0.0256 -0.4152  0.2887
 6304SOL    HW130374   0.932   0.028   8.245 -2.0773  1.1841  0.6510
 6304SOL    HW230375   1.040   0.123   8.275  0.4783 -0.2620 -0.1486
 6305SOL     OW30376   0.159   4.578  17.128  0.1394  0.4666 -0.1391
 6305SOL    HW130377   0.118   4.524  17.196  2.5030 -0.4979  0.4995
 6305SOL    HW230378   0.246   4.539  17.126  0.4603  1.1525  0.5875
 6306SOL     OW30379   2.944   0.899   3.194 -0.5384 -0.3493 -0.0568
 6306SOL    HW130380   3.026   0.854   3.213  1.5305  2.5711 -1.9620
 6306SOL    HW230381   2.887   0.845   3.140  0.7196 -0.3551 -1.3785
 6307SOL     OW30382   3.921   4.550   8.167 -0.1144 -0.3109  0.3253
 6307SOL    HW130383   3.909   4.614   8.237  0.0021  1.0259 -0.8729
 6307SOL    HW230384   3.984   4.494   8.213  0.8324 -1.0914 -1.9308
 6308SOL     OW30385   3.844   4.264   9.506  0.1385 -0.0394 -0.2605
 6308SOL    HW130386   3.855   4.228   9.594  0.3422  1.6962  0.4404
 6308SOL    HW230387   3.749   4.261   9.496  0.3703 -1.0327 -2.0911
 6309SOL     OW30388   3.386   1.102   8.933 -0.0217 -0.0502  0.2845
 6309SOL    HW130389   3.434   1.177   8.897 -0.8459 -0.0903 -0.8691
 6309SOL    HW230390   3.305   1.128   8.889 -0.8156 -2.4308  0.3904
 6310SOL     OW30391   4.559   4.430   4.044  0.5068  0.7139  0.3116
 6310SOL    HW130392   4.471   4.444   4.008  0.3064  0.0036  0.5106
 6310SOL    HW230393   4.563   4.338   4.070 -2.2453  0.2883 -0.7723
 6311SOL     OW30394   2.986   0.633   0.031  0.0749  0.2675 -0.0631
 6311SOL    HW130395   3.021   0.722   0.026  0.5805  0.3795  4.6606
 6311SOL    HW230396   2.902   0.649  17.692  1.1705  1.3844 -1.8694
 6312SOL     OW30397   2.607   3.810   4.251 -0.5083 -0.5239  0.0476
 6312SOL    HW130398   2.556   3.846   4.179 -1.0830 -1.4398 -0.0064
 6312SOL    HW230399   2.661   3.754   4.196 -1.7870 -1.4982 -0.2110
 6313SOL     OW30400   1.708   0.411   9.207 -0.0093  0.6478 -0.1655
 6313SOL    HW130401   1.714   0.375   9.295 -0.0879 -0.8819 -0.7767
 6313SOL    HW230402   1.764   0.488   9.218 -1.3369  1.5231  0.4557
 6314SOL     OW30403   2.946   4.415  13.757  0.2378 -0.0518 -0.3401
 6314SOL    HW130404   2.892   4.337  13.763  0.3288  0.0593  2.0442
 6314SOL    HW230405   3.033   4.382  13.780  0.5001  0.1438 -1.0514
 6315SOL     OW30406   2.801   1.957   8.536  0.0505  0.0908  0.1285
 6315SOL    HW130407   2.769   1.942   8.626  0.2560  0.0441  0.1927
 6315SOL    HW230408   2.722   2.000   8.501 -0.0193  0.2171  0.4371
 6316SOL     OW30409   2.107   1.255  11.113  0.0262 -0.0111 -0.1775
 6316SOL    HW130410   2.175   1.237  11.178 -0.2935 -0.6598 -0.0265
 6316SOL    HW230411   2.050   1.179  11.118  0.0831  0.0429  1.2934
 6317SOL     OW30412   3.930   3.953   8.091 -0.4230 -0.3514  0.0428
 6317SOL    HW130413   3.923   3.958   8.187 -0.5459  2.7056 -0.1258
 6317SOL    HW230414   3.883   4.031   8.063 -0.2291  0.8371  2.9400
 6318SOL     OW30415   0.809   2.663   2.015  0.0358 -0.3672  0.0938
 6318SOL    HW130416   0.723   2.652   1.975 -0.1011  0.9323  0.0118
 6318SOL    HW230417   0.854   2.726   1.958 -1.2350 -0.9671 -1.5982
 6319SOL     OW30418   1.460   4.709   4.356 -0.3557 -0.0288 -0.3143
 6319SOL    HW130419   1.527   4.646   4.386  1.0866  0.0121 -3.4194
 6319SOL    HW230420   1.511   0.043   4.302  1.8217 -0.4579  1.2350
 6320SOL     OW30421   3.070   3.964   4.441  0.2531 -0.4846 -0.1199
 6320SOL    HW130422   3.108   4.038   4.395  2.9614 -0.4201  2.2891
 6320SOL    HW230423   2.978   3.984   4.424  0.0566 -2.0728 -1.0277
 6321SOL     OW30424   1.297   3.189   1.375 -0.2122 -0.1880  0.0872
 6321SOL    HW130425   1.385   3.197   1.410 -0.0641 -0.3752 -0.2442
 6321SOL    HW230426   1.303   3.182   1.279 -0.5510  0.6997 -0.0022
 6322SOL     OW30427   2.705   2.350   2.121 -0.6514 -0.6903 -0.4411
 6322SOL    HW130428   2.682   2.396   2.202 -0.9551  1.3626 -1.6950
 6322SOL    HW230429   2.794   2.382   2.114 -0.4053 -1.2233  0.2135
 6323SOL     OW30430   0.744   0.380   4.014  0.1216  0.0361 -0.1007
 6323SOL    HW130431   0.785   0.294   4.024  1.6263  0.6768 -0.6991
 6323SOL    HW230432   0.667   0.372   3.957 -0.6008  1.3418  0.7092
 6324SOL     OW30433   0.766   1.914   4.080 -0.1873 -0.9057 -0.4967
 6324SOL    HW130434   0.854   1.894   4.046  0.1932 -2.3892  1.4068
 6324SOL    HW230435   0.715   1.922   3.999 -0.4513 -1.0658 -0.3430
 6325SOL     OW30436   2.766   1.401  11.377  0.2067  0.4364 -0.3731
 6325SOL    HW130437   2.733   1.425  11.290 -2.1744  2.4723  1.0788
 6325SOL    HW230438   2.848   1.449  11.387  0.2459  0.1215  0.7712
 6326SOL     OW30439   1.263   2.280   5.225 -0.5043 -0.7471 -0.1962
 6326SOL    HW130440   1.281   2.368   5.257  0.2168 -1.0474  0.2097
 6326SOL    HW230441   1.343   2.228   5.228 -1.2893 -1.9398 -0.0760
 6327SOL     OW30442   4.279   1.674   6.199 -0.3522  0.0790 -0.1847
 6327SOL    HW130443   4.245   1.699   6.285  0.3015 -2.6902  0.8852
 6327SOL    HW230444   4.209   1.619   6.165 -0.5507  1.4181 -1.9201
 6328SOL     OW30445   3.045   0.915  17.658  0.0217 -0.2818  0.1495
 6328SOL    HW130446   3.017   0.933  17.568 -0.0115 -0.7855  0.0606
 6328SOL    HW230447   2.963   0.946  17.697 -0.2834  0.3835 -1.0240
 6329SOL     OW30448   2.427   3.560  14.236 -0.1110 -0.5051  0.2747
 6329SOL    HW130449   2.418   3.569  14.141  0.4464 -0.5288  0.2179
 6329SOL    HW230450   2.411   3.650  14.263 -1.7009 -0.3939 -1.0829
 6330SOL     OW30451   3.103   2.942   5.528 -0.1756 -0.0340  0.4073
 6330SOL    HW130452   3.075   2.933   5.619  0.1833 -0.9911  0.4306
 6330SOL    HW230453   3.150   3.025   5.535 -2.5517  1.4886 -1.7369
 6331SOL     OW30454   2.837   2.428   3.510  0.0205 -0.0342  0.0569
 6331SOL    HW130455   2.894   2.355   3.537  0.5717  0.3688 -0.0023
 6331SOL    HW230456   2.888   2.488   3.455 -0.9462  1.3221  0.6423
 6332SOL     OW30457   2.543   2.735  13.593 -0.2112 -0.4749  0.0108
 6332SOL    HW130458   2.506   2.677  13.659 -0.0135  0.0102  0.5534
 6332SOL    HW230459   2.509   2.688  13.518 -2.9167  0.8198  0.4431
 6333SOL     OW30460   3.357   2.015   4.691  0.0977 -0.7461  0.5920
 6333SOL    HW130461   3.449   2.043   4.685  0.3213 -1.7739 -0.7712
 6333SOL    HW230462   3.308   2.083   4.737  0.5001 -0.9407  1.3145
 6334SOL     OW30463   1.858   4.426   4.148 -0.1119  0.3480 -0.2387
 6334SOL    HW130464   1.889   4.470   4.069  1.5499  1.9248  1.2910
 6334SOL    HW230465   1.819   4.502   4.193  0.9042  2.6837 -3.3362
 6335SOL     OW30466   3.212   1.675   6.260 -0.6836  0.5538  0.0295
 6335SOL    HW130467   3.139   1.660   6.321  0.4967 -2.9802  0.5488
 6335SOL    HW230468   3.273   1.710   6.326 -0.8919  0.3876  0.3117
 6336SOL     OW30469   1.672   3.335   5.383  0.0810  0.4994  0.1615
 6336SOL    HW130470   1.766   3.345   5.364 -0.0060  0.6318 -0.1858
 6336SOL    HW230471   1.649   3.427   5.371 -0.1672  0.5519  1.0168
 6337SOL     OW30472   1.991   2.555   5.952 -0.0077 -0.9759 -0.0641
 6337SOL    HW130473   1.941   2.578   6.031  0.3592  2.2563 -0.7641
 6337SOL    HW230474   2.068   2.534   6.005  1.3004  3.1526 -0.3288
 6338SOL     OW30475   3.526   0.055  15.903 -0.3798  0.1734  0.4328
 6338SOL    HW130476   3.459   0.074  15.838  0.3856  1.3871 -0.0130
 6338SOL    HW230477   3.587   0.120  15.869 -0.5998  0.1696  0.0338
 6339SOL     OW30478   2.363   2.632   3.997 -0.1491 -0.5805 -0.0814
 6339SOL    HW130479   2.268   2.637   4.005 -0.1083 -0.0856  0.0899
 6339SOL    HW230480   2.381   2.550   3.950 -2.2232 -1.9290  1.5234
 6340SOL     OW30481   2.514   1.032   6.742 -0.0307 -0.0999 -0.6620
 6340SOL    HW130482   2.579   1.064   6.805  0.7507 -0.3568 -1.3391
 6340SOL    HW230483   2.451   1.003   6.808 -0.8965  1.7586 -0.7033
 6341SOL     OW30484   2.648   0.365   6.574 -0.3053  0.1193 -0.1217
 6341SOL    HW130485   2.689   0.327   6.651  2.5397  0.5703 -1.4172
 6341SOL    HW230486   2.712   0.337   6.509  0.0134  0.4337  0.0598
 6342SOL     OW30487   4.288   3.016   6.505  0.2820  0.4344  0.4974
 6342SOL    HW130488   4.276   3.060   6.589 -1.6668 -0.2058  0.5649
 6342SOL    HW230489   4.273   3.089   6.445 -3.2645 -1.3740 -0.7955
 6343SOL     OW30490   2.987   4.189   5.736 -0.6441 -0.2568  0.8168
 6343SOL    HW130491   2.973   4.212   5.644  0.5721 -2.2027  0.1522
 6343SOL    HW230492   3.014   4.098   5.733  0.2678  0.0464 -0.1129
 6344SOL     OW30493   4.224   2.324   6.145 -0.3904  0.1155  1.1709
 6344SOL    HW130494   4.212   2.310   6.051  0.6444  1.0711  0.8969
 6344SOL    HW230495   4.153   2.382   6.174 -1.8670 -1.6142  1.0321
 6345SOL     OW30496   3.833   0.678   5.268  0.1206  0.2148  0.5642
 6345SOL    HW130497   3.847   0.645   5.356 -0.4630 -1.4668  0.0374
 6345SOL    HW230498   3.903   0.740   5.253 -2.0425  2.7459  0.8926
 6346SOL     OW30499   0.584   0.368   6.235  0.1551 -0.1988  0.9893
 6346SOL    HW130500   0.623   0.453   6.255 -0.7508  0.8141 -1.5337
 6346SOL    HW230501   0.643   0.312   6.285 -0.2660 -2.6793 -1.2228
 6347SOL     OW30502   1.908   3.804   4.854  0.1012  0.2082 -0.1666
 6347SOL    HW130503   1.970   3.759   4.912 -1.4618  0.1009  1.4177
 6347SOL    HW230504   1.950   3.789   4.769  0.9595  0.0054  0.2890
 6348SOL     OW30505   0.276   0.202   4.601 -0.1813 -0.0122  0.5070
 6348SOL    HW130506   0.274   0.134   4.668 -1.9933  1.0135  1.4929
 6348SOL    HW230507   0.347   0.260   4.630 -0.4347  1.5918 -2.1000
 6349SOL     OW30508   1.605   3.213   1.438  0.4487  0.1870  0.2381
 6349SOL    HW130509   1.680   3.218   1.378 -0.3898  0.3070 -0.8023
 6349SOL    HW230510   1.614   3.307   1.457 -0.5702  0.4054 -0.3454
 6350SOL     OW30511   1.053   3.632   3.514  0.0955 -0.0004  0.2578
 6350SOL    HW130512   1.108   3.663   3.442 -1.5868 -0.3152 -1.1471
 6350SOL    HW230513   1.041   3.541   3.489 -3.4396  0.4693  0.3259
 6351SOL     OW30514   1.454   0.791   0.343  0.3792 -0.5964 -0.3187
 6351SOL    HW130515   1.369   0.832   0.359  0.1166 -0.5841 -1.7790
 6351SOL    HW230516   1.464   0.746   0.427 -1.7803 -0.4632  0.0070
 6352SOL     OW30517   1.203   3.034   5.629  0.7950 -0.0060 -0.1079
 6352SOL    HW130518   1.167   2.997   5.709  1.7138 -0.4224  0.1122
 6352SOL    HW230519   1.284   3.062   5.671 -0.5460  1.6899  1.3768
 6353SOL     OW30520   3.679   1.522   5.116 -0.0559 -0.0271  0.0479
 6353SOL    HW130521   3.591   1.506   5.150 -0.7460  3.0012 -0.3471
 6353SOL    HW230522   3.725   1.539   5.198  0.4123  0.7658 -0.3819
 6354SOL     OW30523   3.911   1.020   1.706  0.3012  0.5760 -0.0538
 6354SOL    HW130524   3.981   1.006   1.642  1.7350 -3.1952  2.3506
 6354SOL    HW230525   3.872   1.096   1.663  0.0747 -1.4378 -3.3386
 6355SOL     OW30526   3.483   3.954  15.247 -0.0085  0.1680  0.1315
 6355SOL    HW130527   3.500   4.005  15.326  0.1662  0.5668 -0.1595
 6355SOL    HW230528   3.387   3.951  15.249  0.0020 -0.6674 -0.9718
 6356SOL     OW30529   3.576   0.049   0.729  0.0546 -0.3694  0.7540
 6356SOL    HW130530   3.505   0.080   0.673 -0.8146 -2.2170  0.8182
 6356SOL    HW230531   3.549   4.684   0.749 -0.8733 -0.2478  0.0522
 6357SOL     OW30532   2.055   3.391   9.026 -0.1199  0.4030  0.0271
 6357SOL    HW130533   2.049   3.323   9.093 -1.3846  0.5340  0.0579
 6357SOL    HW230534   2.144   3.389   8.991 -0.5046 -1.5404 -0.8691
 6358SOL     OW30535   2.817   2.709   3.896  0.2621  0.0863 -0.1698
 6358SOL    HW130536   2.826   2.798   3.864  0.4227 -0.3447 -1.3212
 6358SOL    HW230537   2.727   2.713   3.929  0.6159  1.1502  0.6439
 6359SOL     OW30538   2.068   1.642   5.644 -0.0482  0.2703  0.2275
 6359SOL    HW130539   2.120   1.571   5.681 -1.6262  0.3996  2.6902
 6359SOL    HW230540   1.980   1.610   5.665 -0.4507 -0.0570 -1.8941
 6360SOL     OW30541   4.042   1.024  12.475  0.3532 -0.0822  0.7259
 6360SOL    HW130542   4.020   1.068  12.393  1.7713 -1.9243 -0.6660
 6360SOL    HW230543   4.002   1.086  12.536  1.0408  1.1209 -0.0408
 6361SOL     OW30544   0.824   0.653   4.456  0.0962  0.1200  0.1895
 6361SOL    HW130545   0.819   0.576   4.512 -0.2802 -0.1959 -0.2768
 6361SOL    HW230546   0.761   0.636   4.385  0.3478  0.5694 -0.1441
 6362SOL     OW30547   1.056   0.236   6.857  0.0597 -0.1958  0.1826
 6362SOL    HW130548   1.056   0.141   6.848 -1.1727 -0.2601  0.9037
 6362SOL    HW230549   1.151   0.238   6.868  0.0692  0.9885 -0.1036
 6363SOL     OW30550   3.607   0.057  10.228 -0.1570  0.2589 -0.3882
 6363SOL    HW130551   3.624   0.151  10.223 -2.0643  0.6388  0.2269
 6363SOL    HW230552   3.631   0.039  10.137  1.6072  0.2381  0.0942
 6364SOL     OW30553   1.303   3.198   5.051  0.2974 -0.1161  0.0685
 6364SOL    HW130554   1.341   3.253   5.119  0.3853 -0.5789  0.3910
 6364SOL    HW230555   1.314   3.254   4.973  2.5721 -0.7624 -0.0806
 6365SOL     OW30556   0.016   2.462   6.030  0.4472  0.0250 -0.3484
 6365SOL    HW130557   4.660   2.494   5.991 -0.1294 -0.9054  0.0911
 6365SOL    HW230558   0.070   2.542   6.034  0.2085  0.0240  2.8727
 6366SOL     OW30559   4.073   4.020   9.001  0.0988 -0.3377  0.2907
 6366SOL    HW130560   4.099   3.934   8.969 -1.1503 -0.6615  0.1244
 6366SOL    HW230561   4.097   4.012   9.093  1.7057  0.6866 -0.0304
 6367SOL     OW30562   1.695   2.179   6.840  0.5968 -0.4469  0.2640
 6367SOL    HW130563   1.736   2.223   6.765 -0.0436  0.9679  0.7345
 6367SOL    HW230564   1.736   2.229   6.911 -0.4033 -1.0969  1.3024
 6368SOL     OW30565   2.076   3.192   6.686  0.6204 -0.0994  0.8878
 6368SOL    HW130566   2.006   3.212   6.623  1.0595 -0.6803  0.2166
 6368SOL    HW230567   2.147   3.180   6.623 -0.7092  1.0696 -0.8465
 6369SOL     OW30568   1.515   4.241   3.810 -0.1866 -0.1772 -0.1171
 6369SOL    HW130569   1.574   4.301   3.765 -0.3081 -1.0799 -1.4863
 6369SOL    HW230570   1.576   4.177   3.847 -0.2174  0.2416  0.6569
 6370SOL     OW30571   3.462   1.637   2.240 -0.0809  0.1508 -0.2919
 6370SOL    HW130572   3.461   1.659   2.147  1.2870  1.2116 -0.0509
 6370SOL    HW230573   3.377   1.667   2.274  0.0275 -0.6330  0.6934
 6371SOL     OW30574   2.563   4.316   2.105  0.2816 -0.3347 -0.2987
 6371SOL    HW130575   2.578   4.236   2.055 -1.2382 -0.0422 -1.2431
 6371SOL    HW230576   2.584   4.392   2.051 -1.9046  1.7186  1.7525
 6372SOL     OW30577   3.971   2.704   8.882  0.1404  0.7000  0.4785
 6372SOL    HW130578   3.983   2.751   8.799 -0.0310 -2.0275 -1.1118
 6372SOL    HW230579   4.058   2.715   8.920 -0.3578  1.2736  1.4327
 6373SOL     OW30580   2.619   2.031   4.254 -0.1226 -0.0913  0.0357
 6373SOL    HW130581   2.672   2.038   4.174  1.9820 -0.8876  1.3724
 6373SOL    HW230582   2.543   2.082   4.223 -1.9837 -2.1233  1.2708
 6374SOL     OW30583   3.082   2.234   9.274 -0.2964 -0.2445 -0.3861
 6374SOL    HW130584   3.099   2.328   9.275 -1.1459 -0.1370  1.5300
 6374SOL    HW230585   2.987   2.233   9.281 -0.0984 -0.0621  2.2104
 6375SOL     OW30586   1.934   3.866   3.045  0.4599  0.3172  0.3188
 6375SOL    HW130587   1.855   3.862   3.100  0.5096  1.0964  0.4380
 6375SOL    HW230588   1.992   3.816   3.103 -0.0282  1.4029  1.7530
 6376SOL     OW30589   4.564   2.799   3.353  0.1278 -0.0178 -0.1689
 6376SOL    HW130590   4.592   2.713   3.323 -0.4701 -0.5295  0.7462
 6376SOL    HW230591   4.649   2.838   3.375  0.7080  0.5743 -3.4093
 6377SOL     OW30592   1.501   2.007   6.233  0.4624 -0.5543  0.1493
 6377SOL    HW130593   1.533   2.097   6.225 -0.2413 -0.3019  0.2265
 6377SOL    HW230594   1.534   1.976   6.148 -2.2520 -1.1980 -0.6858
 6378SOL     OW30595   0.099   2.113   7.071 -0.3462 -0.4992  0.3012
 6378SOL    HW130596   0.084   2.031   7.024 -3.2749  0.9230 -1.2284
 6378SOL    HW230597   0.011   2.151   7.068 -0.0082  0.2134 -0.6384
 6379SOL     OW30598   0.756   3.607   5.599  0.2723 -0.0263 -0.8720
 6379SOL    HW130599   0.786   3.642   5.515  0.8490 -0.4656 -0.8452
 6379SOL    HW230600   0.807   3.526   5.593  1.0261  0.4880 -1.4312
 6380SOL     OW30601   0.206   3.762   3.498  0.2261 -0.2152 -0.2393
 6380SOL    HW130602   0.178   3.732   3.585 -0.7081  2.2422  0.3210
 6380SOL    HW230603   0.290   3.717   3.500 -0.8325 -2.2093 -0.4716
 6381SOL     OW30604   1.139   0.151   5.102 -0.0904  0.3035  0.5067
 6381SOL    HW130605   1.066   0.213   5.098  0.0275  0.1932 -3.3231
 6381SOL    HW230606   1.193   0.175   5.178  3.2989 -0.5862 -1.6261
 6382SOL     OW30607   0.022   3.564   1.709  0.2325 -0.0134  0.1115
 6382SOL    HW130608   4.703   3.609   1.781  0.8867 -1.9787  1.7474
 6382SOL    HW230609   0.096   3.517   1.747  0.9718  1.5545  0.6062
 6383SOL     OW30610   3.013   2.123   7.260  0.6762 -0.4942 -0.3234
 6383SOL    HW130611   2.961   2.049   7.229 -3.0965  1.7198  0.6837
 6383SOL    HW230612   3.067   2.138   7.182  2.1501 -1.1977  0.5496
 6384SOL     OW30613   0.819   2.676   4.763  0.4019 -0.4299  0.1782
 6384SOL    HW130614   0.830   2.584   4.789  0.6628 -0.3023  0.5282
 6384SOL    HW230615   0.727   2.671   4.738  0.8033 -0.5025 -1.3068
 6385SOL     OW30616   3.758   1.086   9.012  0.4173  0.2431  0.1667
 6385SOL    HW130617   3.850   1.092   8.985  0.8618 -1.7133  1.1690
 6385SOL    HW230618   3.724   1.060   8.926 -0.9315  3.7378 -0.3626
 6386SOL     OW30619   0.027   0.083   2.823  0.2186 -0.0767  0.3131
 6386SOL    HW130620   0.012   0.000   2.869  0.9787 -0.9180 -0.9537
 6386SOL    HW230621   4.690   0.075   2.751  2.5357  0.9588 -1.7780
 6387SOL     OW30622   2.950   2.523   3.121  0.3017 -1.0491 -0.1335
 6387SOL    HW130623   2.886   2.568   3.066 -0.3323  1.9967  3.1481
 6387SOL    HW230624   2.950   2.561   3.209 -1.1766  0.8245 -0.9309
 6388SOL     OW30625   0.074   1.487   5.425  0.3854  0.0495  0.2870
 6388SOL    HW130626   0.109   1.551   5.487 -0.2530  2.3523 -1.7364
 6388SOL    HW230627   0.103   1.527   5.343  0.8021 -1.1533 -0.1545
 6389SOL     OW30628   2.727   2.878   8.691 -0.3916 -1.0155  0.0426
 6389SOL    HW130629   2.692   2.806   8.639 -0.7126  0.0755 -1.2518
 6389SOL    HW230630   2.660   2.879   8.760  0.9144 -1.5121  1.3088
 6390SOL     OW30631   3.703   2.314  10.468 -0.3328 -0.0057  0.0871
 6390SOL    HW130632   3.618   2.302  10.424 -0.1995  1.2399 -0.5083
 6390SOL    HW230633   3.661   2.383  10.520  0.4125 -0.4481  1.2658
 6391SOL     OW30634   3.052   1.494   4.489  0.0970  0.2979 -0.1873
 6391SOL    HW130635   3.135   1.455   4.461 -1.5286 -2.2176 -1.5455
 6391SOL    HW230636   3.027   1.523   4.401 -0.7554 -0.2331 -0.1162
 6392SOL     OW30637   2.191   1.091  17.609  0.2571 -0.3307 -0.4697
 6392SOL    HW130638   2.227   1.092  17.520 -1.9079 -0.1539 -1.3399
 6392SOL    HW230639   2.185   0.998  17.631  4.8011 -0.6798 -0.8014
 6393SOL     OW30640   0.129   1.122   6.392 -0.0405  0.3751 -0.8290
 6393SOL    HW130641   0.200   1.119   6.457 -0.9096  2.8979  0.2538
 6393SOL    HW230642   0.135   1.041   6.342 -0.1593 -0.0576 -0.1369
 6394SOL     OW30643   3.618   2.207  16.781  0.4525 -0.1345 -0.4394
 6394SOL    HW130644   3.688   2.143  16.780  2.1418  1.7000  1.7710
 6394SOL    HW230645   3.562   2.183  16.854 -0.7354 -1.1467 -1.6897
 6395SOL     OW30646   0.368   3.292  10.771 -0.3104  0.0843  0.1658
 6395SOL    HW130647   0.412   3.288  10.857  1.1119 -1.3714 -0.6340
 6395SOL    HW230648   0.289   3.238  10.777 -0.8253  0.5091 -3.2500
 6396SOL     OW30649   2.391   1.348  16.002  0.6333 -0.4089 -0.1150
 6396SOL    HW130650   2.448   1.353  16.079  1.6283  0.9022 -0.9365
 6396SOL    HW230651   2.458   1.366  15.937 -1.3324  3.5596 -1.0377
 6397SOL     OW30652   4.166   4.281   6.873 -0.1931  0.1515  0.0459
 6397SOL    HW130653   4.129   4.343   6.935  0.3700 -0.4047  0.9392
 6397SOL    HW230654   4.261   4.289   6.884 -0.3247  2.6871 -0.6807
 6398SOL     OW30655   0.607   4.186   4.131  0.7876 -0.0506  0.3045
 6398SOL    HW130656   0.559   4.268   4.128 -0.5517 -0.8288  0.2656
 6398SOL    HW230657   0.563   4.147   4.055  0.7991  0.4407  0.0504
 6399SOL     OW30658   3.116   1.041   2.509 -0.0633 -0.2314 -0.3198
 6399SOL    HW130659   3.058   0.990   2.453  0.1653 -1.6423  0.7249
 6399SOL    HW230660   3.188   0.977   2.508  0.4609  0.3381  1.1698
 6400SOL     OW30661   2.369   3.585   5.759 -0.2103  0.5105 -0.1601
 6400SOL    HW130662   2.277   3.572   5.782 -0.3538  0.0754 -0.9532
 6400SOL    HW230663   2.356   3.651   5.691 -2.8151  0.4068  0.2398
 6401SOL     OW30664   0.882   1.629   5.563 -0.2790  0.1359 -0.1099
 6401SOL    HW130665   0.950   1.585   5.511  0.5011  0.6736  0.4571
 6401SOL    HW230666   0.853   1.552   5.612  1.4936  1.0754  2.4075
 6402SOL     OW30667   3.033   3.754   9.728  0.8705 -0.0856 -0.3067
 6402SOL    HW130668   2.954   3.800   9.757  1.6948 -0.5741  2.7564
 6402SOL    HW230669   2.985   3.673   9.715 -2.2501  1.5849  0.6746
 6403SOL     OW30670   3.356   4.352  17.185  0.4178 -0.0260 -0.5756
 6403SOL    HW130671   3.375   4.446  17.177 -2.0542  0.3709 -1.9553
 6403SOL    HW230672   3.264   4.374  17.200  0.3140  1.2564 -2.9893
 6404SOL     OW30673   0.025   1.330  10.791 -0.3801  0.3164  0.0349
 6404SOL    HW130674   0.073   1.359  10.868  0.0346  0.3852 -0.2439
 6404SOL    HW230675   4.712   1.410  10.753 -0.3430  0.1291 -0.3952
 6405SOL     OW30676   4.611   2.373   3.168 -0.0029 -0.2466 -0.4738
 6405SOL    HW130677   4.626   2.281   3.151  0.3942 -0.0470 -1.1708
 6405SOL    HW230678   4.652   2.416   3.093  1.2124 -0.4798  0.0671
 6406SOL     OW30679   0.309   2.711   1.828  0.3790 -0.1985 -0.6302
 6406SOL    HW130680   0.363   2.739   1.754 -1.4014 -3.1368 -3.0747
 6406SOL    HW230681   0.221   2.736   1.800 -0.0372 -2.8226 -1.6630
 6407SOL     OW30682   0.324   2.176  12.060  0.0991  0.3706  0.0254
 6407SOL    HW130683   0.342   2.155  12.151 -0.7007  2.2827  0.6142
 6407SOL    HW230684   0.395   2.124  12.021  0.7487  2.3271 -1.4182
 6408SOL     OW30685   0.263   3.895   8.647  0.5061 -0.5566  0.1544
 6408SOL    HW130686   0.328   3.950   8.602 -1.6487  1.4950 -0.4692
 6408SOL    HW230687   0.267   3.922   8.739 -0.8682  0.5265 -0.1053
 6409SOL     OW30688   2.654   0.318   5.284  0.0965  0.5786  0.2456
 6409SOL    HW130689   2.669   0.230   5.251  1.4278  0.1239  2.1112
 6409SOL    HW230690   2.746   0.343   5.283  0.3242 -0.2130  2.3136
 6410SOL     OW30691   3.028   3.679   5.294  0.2885 -0.4984  0.1093
 6410SOL    HW130692   3.123   3.669   5.303  0.4228 -0.9676 -1.9843
 6410SOL    HW230693   3.009   3.693   5.201  1.1986 -0.1870 -0.0224
 6411SOL     OW30694   3.076   2.428   7.573  0.6522  0.3824  0.1806
 6411SOL    HW130695   3.033   2.346   7.597  1.3947 -0.0078  0.1865
 6411SOL    HW230696   3.150   2.406   7.517 -0.0727 -2.1601  0.2431
 6412SOL     OW30697   1.905   0.586  17.546  0.0739  0.2043  0.0260
 6412SOL    HW130698   1.865   0.500  17.529 -0.5055  0.2402  1.1719
 6412SOL    HW230699   1.958   0.557  17.621 -2.0725  0.4592  1.6587
 6413SOL     OW30700   0.615   1.162  11.238 -0.2416 -0.4254 -0.2472
 6413SOL    HW130701   0.683   1.112  11.192  0.6274 -0.5443  1.1860
 6413SOL    HW230702   0.653   1.178  11.324 -0.6306 -0.4791 -0.0676
 6414SOL     OW30703   4.635   0.494  16.877 -0.1105 -1.1557  0.3812
 6414SOL    HW130704   4.557   0.525  16.923  0.3331  0.9376 -0.3152
 6414SOL    HW230705   4.635   0.405  16.912  0.0590 -1.2760  0.0748
 6415SOL     OW30706   3.631   0.898   3.526 -0.0254  0.0544 -0.5528
 6415SOL    HW130707   3.669   0.865   3.444 -0.0192  0.0397 -0.5440
 6415SOL    HW230708   3.710   0.926   3.573  0.4670 -1.6183 -0.3846
 6416SOL     OW30709   2.608   0.902  17.487  0.3156 -0.1579  0.9053
 6416SOL    HW130710   2.653   0.981  17.516 -0.2007 -0.0078  1.2951
 6416SOL    HW230711   2.523   0.945  17.477  0.8803  0.0439 -2.8808
 6417SOL     OW30712   1.651   0.210   8.565 -0.4331  0.0076  0.3906
 6417SOL    HW130713   1.598   0.282   8.530 -2.2799 -1.9599 -0.8795
 6417SOL    HW230714   1.644   0.231   8.658  0.9643  0.6874  0.3345
 6418SOL     OW30715   0.864   2.362   2.179  0.1180 -0.2136  0.0654
 6418SOL    HW130716   0.838   2.445   2.219  2.6106  0.9182 -0.6312
 6418SOL    HW230717   0.815   2.351   2.097  0.0848 -0.7411  0.1536
 6419SOL     OW30718   1.668   4.720   6.032  0.2086 -0.0328  0.1966
 6419SOL    HW130719   1.717   0.035   6.104  1.8413 -2.0318  0.1910
 6419SOL    HW230720   1.712   0.040   5.960  0.4527 -1.7258 -0.7164
 6420SOL     OW30721   4.698   2.122  10.279 -0.0150  0.0043 -0.2005
 6420SOL    HW130722   4.644   2.057  10.235  0.7023 -0.1224 -0.8964
 6420SOL    HW230723   0.023   2.157  10.206  3.5056 -1.8717  1.3618
 6421SOL     OW30724   0.797   1.234   7.126 -0.6004 -0.3462  0.0842
 6421SOL    HW130725   0.706   1.259   7.142 -0.9792 -1.8313  0.2626
 6421SOL    HW230726   0.831   1.272   7.206 -1.2529 -1.7938  1.0443
 6422SOL     OW30727   3.588   4.411   4.462 -0.7644 -0.3830 -0.1752
 6422SOL    HW130728   3.579   4.380   4.552  2.3507 -0.3256  0.1513
 6422SOL    HW230729   3.643   4.343   4.422  0.2615  1.9296 -2.7053
 6423SOL     OW30730   4.699   3.916   7.012 -0.0846  0.2478 -0.4335
 6423SOL    HW130731   4.643   3.843   7.040  1.4705 -0.7289  0.1153
 6423SOL    HW230732   4.663   3.926   6.923 -1.1258 -1.3347 -0.2036
 6424SOL     OW30733   3.555   2.201   4.598 -0.0559 -0.4947  0.2997
 6424SOL    HW130734   3.532   2.265   4.531  1.5793  1.1910  1.3177
 6424SOL    HW230735   3.626   2.253   4.636  1.9123 -0.4278 -3.4865
 6425SOL     OW30736   2.248   0.290  12.742  0.0843 -0.0138  0.2404
 6425SOL    HW130737   2.338   0.280  12.776  0.4951 -1.3658 -1.2610
 6425SOL    HW230738   2.256   0.240  12.661 -1.8156 -1.2310  0.8165
 6426SOL     OW30739   4.172   1.001   6.325 -0.3821 -0.6238 -0.2264
 6426SOL    HW130740   4.224   1.053   6.386 -0.3159 -1.1594  0.1710
 6426SOL    HW230741   4.115   1.071   6.293  0.6067  0.3667  0.1612
 6427SOL     OW30742   3.939   4.670   3.849 -1.0710 -0.2351  0.2153
 6427SOL    HW130743   3.996   0.018   3.873 -2.6403  0.8763  0.5117
 6427SOL    HW230744   3.937   4.661   3.754  1.5811  0.2925  0.0972
 6428SOL     OW30745   4.367   2.468   7.449  0.0890  0.2097  0.2071
 6428SOL    HW130746   4.285   2.434   7.414  0.3537  0.7585 -0.9659
 6428SOL    HW230747   4.443   2.442   7.397 -1.5652 -1.7962 -1.2015
 6429SOL     OW30748   2.148   2.002   2.853  0.1030  0.7229  0.2213
 6429SOL    HW130749   2.159   2.012   2.758  0.3169  0.8114  0.2557
 6429SOL    HW230750   2.119   1.911   2.854  4.1686 -0.5891 -0.7448
 6430SOL     OW30751   0.690   4.080   5.481  0.0411  0.0218  0.4701
 6430SOL    HW130752   0.659   3.990   5.482  0.9266 -0.2719  2.9445
 6430SOL    HW230753   0.774   4.077   5.528  0.7098  2.2788 -0.5874
 6431SOL     OW30754   2.202   0.058  17.329  0.4017  0.0088 -0.3697
 6431SOL    HW130755   2.168   4.694  17.338  0.0379  0.3196  1.2826
 6431SOL    HW230756   2.185   0.068  17.235  2.8230 -0.3921 -0.8512
 6432SOL     OW30757   4.345   2.103   8.495 -0.4816 -0.0934 -0.2705
 6432SOL    HW130758   4.317   2.098   8.587 -2.2525  0.5036 -0.7788
 6432SOL    HW230759   4.438   2.121   8.505 -0.0966 -1.9808 -0.3608
 6433SOL     OW30760   1.785   0.066   3.949 -0.1076  0.0575 -0.3350
 6433SOL    HW130761   1.724   4.718   3.939 -0.2170  0.4768 -2.6318
 6433SOL    HW230762   1.726   0.140   3.938  0.5568  0.6830  0.2597
 6434SOL     OW30763   2.090   1.019   7.067  0.5961 -0.5391 -0.0425
 6434SOL    HW130764   2.038   1.081   7.016  1.0712  0.1875  0.3525
 6434SOL    HW230765   2.026   0.970   7.119  0.3525  0.4084  0.5431
 6435SOL     OW30766   0.275   3.660   3.907 -0.6804  0.3208 -0.1874
 6435SOL    HW130767   0.224   3.659   3.826  0.1509  0.4122 -0.7169
 6435SOL    HW230768   0.361   3.647   3.867 -1.1159  0.3971 -1.1388
 6436SOL     OW30769   2.107   1.686   0.864  0.6883 -0.2893 -0.1899
 6436SOL    HW130770   2.102   1.607   0.918  0.9265 -1.5007 -1.9391
 6436SOL    HW230771   2.031   1.674   0.807  0.1911 -0.9274  0.6101
 6437SOL     OW30772   2.792   4.084   7.535 -0.2078 -0.4462  0.2114
 6437SOL    HW130773   2.784   4.069   7.629  0.7094 -0.7880  0.2439
 6437SOL    HW230774   2.854   4.157   7.526  2.2258 -2.5891 -0.6109
 6438SOL     OW30775   3.995   0.544   6.880 -0.0368  0.2012 -0.2411
 6438SOL    HW130776   3.966   0.469   6.828 -3.2620  0.5298  1.0581
 6438SOL    HW230777   4.042   0.498   6.949  0.0182  2.0094  0.9284
 6439SOL     OW30778   1.298   0.256  14.818 -0.0380 -0.4332  0.4611
 6439SOL    HW130779   1.244   0.310  14.875  0.3346 -0.4482  0.8311
 6439SOL    HW230780   1.369   0.230  14.877 -0.4481 -3.0056 -0.1584
 6440SOL     OW30781   0.390   0.951   2.525  0.6804  0.3930 -0.7244
 6440SOL    HW130782   0.484   0.940   2.541  0.5127 -0.2031 -0.1654
 6440SOL    HW230783   0.388   1.033   2.474 -1.2672 -0.1073 -1.4398
 6441SOL     OW30784   0.203   2.431   2.367 -0.5830  0.1862  0.3477
 6441SOL    HW130785   0.217   2.498   2.300  0.0090  0.5159  0.8060
 6441SOL    HW230786   0.217   2.472   2.453  0.5179  1.2006 -0.3167
 6442SOL     OW30787   1.797   4.003   7.907  0.1251  0.6678  0.3604
 6442SOL    HW130788   1.809   4.098   7.908 -0.2787  0.6867  3.0827
 6442SOL    HW230789   1.724   4.003   7.846  1.2924  0.3940 -1.0493
 6443SOL     OW30790   1.318   1.100   8.031  0.0645 -0.3394  0.0981
 6443SOL    HW130791   1.347   1.188   8.005 -0.1770 -0.9231 -2.1957
 6443SOL    HW230792   1.234   1.112   7.988 -0.5403 -1.1978  1.0578
 6444SOL     OW30793   3.807   0.779  10.591 -0.4415 -0.0006  0.5716
 6444SOL    HW130794   3.850   0.765  10.676 -1.7546  1.6884  1.5024
 6444SOL    HW230795   3.811   0.689  10.558 -1.5221  0.4065 -0.6665
 6445SOL     OW30796   4.233   2.545   5.968  0.1172  0.2269 -0.0114
 6445SOL    HW130797   4.165   2.541   6.035 -1.7086 -0.5280 -1.9557
 6445SOL    HW230798   4.178   2.567   5.893  1.7000 -1.0915 -1.5550
 6446SOL     OW30799   3.651   2.380   1.004  0.1436 -0.4252 -0.6327
 6446SOL    HW130800   3.640   2.287   1.024 -2.5028  0.5192  2.1698
 6446SOL    HW230801   3.710   2.410   1.074 -0.3060  1.4290 -1.0504
 6447SOL     OW30802   2.597   4.081   8.002  1.0520  0.7685  0.0550
 6447SOL    HW130803   2.511   4.086   8.043  1.2415 -0.8074  0.6177
 6447SOL    HW230804   2.582   4.038   7.918  1.1610  0.2597  0.3003
 6448SOL     OW30805   0.459   4.310  15.356  0.3156 -0.0214 -0.2023
 6448SOL    HW130806   0.462   4.403  15.333 -0.9744  0.5712  1.9848
 6448SOL    HW230807   0.364   4.298  15.363  0.7082 -1.7812  2.1657
 6449SOL     OW30808   3.472   1.934   2.638  0.1020  0.3413  0.0072
 6449SOL    HW130809   3.524   2.008   2.669  0.7487  0.0428 -0.3454
 6449SOL    HW230810   3.530   1.879   2.585 -1.4477 -0.6927 -0.6282
 6450SOL     OW30811   2.271   1.603  14.584 -0.0894  0.3065  0.7272
 6450SOL    HW130812   2.282   1.680  14.529 -0.4873 -0.4289 -0.3724
 6450SOL    HW230813   2.361   1.570  14.580  0.5538  2.0235  0.6613
 6451SOL     OW30814   1.531   0.179  11.285  0.4218  0.4930 -0.6299
 6451SOL    HW130815   1.547   0.269  11.256 -0.0194  0.5331 -0.7499
 6451SOL    HW230816   1.609   0.129  11.263  0.6549  0.8262 -0.5662
 6452SOL     OW30817   0.637   0.353   7.129 -0.2743  0.3184 -0.0931
 6452SOL    HW130818   0.642   0.268   7.173  0.7355  0.1647 -0.4943
 6452SOL    HW230819   0.730   0.359   7.109 -0.4664 -0.2603 -1.1653
 6453SOL     OW30820   3.524   2.043  15.578  0.0237 -0.0131 -0.0599
 6453SOL    HW130821   3.589   2.066  15.513 -0.0999  2.2261  0.6218
 6453SOL    HW230822   3.568   2.020  15.660 -0.4328 -2.0636 -0.3741
 6454SOL     OW30823   1.370   0.359   7.194 -0.5267  0.2596 -0.1964
 6454SOL    HW130824   1.404   0.447   7.209  1.1838 -0.3321 -0.6615
 6454SOL    HW230825   1.281   0.384   7.168 -0.5060 -0.5880 -1.1058
 6455SOL     OW30826   1.590   3.660   8.662 -0.0188  0.3673 -0.4202
 6455SOL    HW130827   1.609   3.673   8.569 -0.2668  0.4705 -0.4581
 6455SOL    HW230828   1.620   3.571   8.681 -0.8077  0.4420  1.1980
 6456SOL     OW30829   0.776   0.011   3.390 -0.0617  0.0149 -0.2734
 6456SOL    HW130830   0.848   0.055   3.437  0.1822  0.7595 -1.3380
 6456SOL    HW230831   0.780   4.649   3.428  0.8799  0.7361  1.3153
 6457SOL     OW30832   3.995   3.951   9.286  0.1469 -0.2717  0.5554
 6457SOL    HW130833   3.993   3.947   9.382  1.3461 -1.1071  0.5492
 6457SOL    HW230834   4.058   4.022   9.276 -0.7233  0.6201  1.3324
 6458SOL     OW30835   1.885   4.082   4.951  0.1145  0.2665  0.5947
 6458SOL    HW130836   1.900   3.991   4.923 -0.3168  1.0419 -2.2395
 6458SOL    HW230837   1.847   4.120   4.871 -0.5249 -1.3822  0.1084
 6459SOL     OW30838   0.200   4.513  16.012  0.8074  0.0971  0.2848
 6459SOL    HW130839   0.115   4.481  15.981  0.2290  1.6896  0.2202
 6459SOL    HW230840   0.263   4.451  15.976  0.0135 -0.6896  0.2742
 6460SOL     OW30841   1.045   0.807  15.119 -0.4172  0.1123  0.2998
 6460SOL    HW130842   0.952   0.788  15.124 -0.6070  1.0388  0.4005
 6460SOL    HW230843   1.039   0.855  15.037 -2.8908 -1.7628 -0.6084
 6461SOL     OW30844   3.962   2.535   0.968 -0.2925  0.0699 -0.9562
 6461SOL    HW130845   3.889   2.567   0.914 -2.1421  0.6499  1.9116
 6461SOL    HW230846   3.912   2.527   1.049  0.8689  0.9732 -0.1590
 6462SOL     OW30847   1.882   4.500   2.972 -0.1408 -1.0624 -0.0006
 6462SOL    HW130848   1.970   4.538   2.964 -0.0023 -1.5296 -0.7264
 6462SOL    HW230849   1.839   4.578   3.007  0.7308 -0.3146 -0.6100
 6463SOL     OW30850   0.334   2.144  11.638 -0.3870 -0.2690  0.4844
 6463SOL    HW130851   0.428   2.141  11.656 -0.4948 -0.9241  0.9284
 6463SOL    HW230852   0.329   2.228  11.592  0.4174  0.6114  2.0023
 6464SOL     OW30853   2.903   0.336   4.924 -0.5887  0.3882  0.2090
 6464SOL    HW130854   2.956   0.362   4.849  0.5227 -0.1612  0.8027
 6464SOL    HW230855   2.835   0.290   4.874 -2.0700 -0.5952  3.0640
 6465SOL     OW30856   0.423   1.200   6.398  0.0091  0.0877 -0.0651
 6465SOL    HW130857   0.489   1.266   6.375 -0.9747  0.8299 -0.7302
 6465SOL    HW230858   0.410   1.165   6.309 -2.4102 -0.9647  0.7027
 6466SOL     OW30859   4.725   2.341   5.161 -0.4561 -0.0500 -0.4501
 6466SOL    HW130860   4.708   2.434   5.176  1.4638  0.3042 -0.4506
 6466SOL    HW230861   0.084   2.333   5.117 -0.3250 -0.0422 -0.2035
 6467SOL     OW30862   3.897   2.403   6.644  0.1167 -0.0807  0.4112
 6467SOL    HW130863   3.966   2.382   6.581  2.7501 -0.4298  3.3858
 6467SOL    HW230864   3.832   2.450   6.591  1.1644  0.0070 -0.7878
 6468SOL     OW30865   2.563   0.986   1.610  0.3507  0.7071 -0.2779
 6468SOL    HW130866   2.585   0.922   1.543 -0.4402  0.5251 -0.3633
 6468SOL    HW230867   2.468   0.976   1.607  0.0574  3.0863  1.6244
 6469SOL     OW30868   2.168   0.774   0.818 -0.5309 -0.5081  0.1055
 6469SOL    HW130869   2.221   0.816   0.750  0.2308 -0.5502  0.6776
 6469SOL    HW230870   2.220   0.695   0.833  0.7829  0.3251 -0.0687
 6470SOL     OW30871   1.578   0.863  14.539  0.3639 -0.1388  0.3844
 6470SOL    HW130872   1.615   0.831  14.621  0.5184  3.3584  1.6828
 6470SOL    HW230873   1.525   0.790  14.506  1.3423 -1.6552  2.2045
 6471SOL     OW30874   0.836   1.326  11.001 -1.0428 -0.2027  0.3895
 6471SOL    HW130875   0.901   1.314  10.932  1.3428 -1.4635  2.8566
 6471SOL    HW230876   0.822   1.237  11.033  1.2398 -1.2599 -1.5887
 6472SOL     OW30877   1.423   4.584   7.921  0.0783  0.0789  0.2611
 6472SOL    HW130878   1.453   4.664   7.878 -0.8605  0.7099  0.7934
 6472SOL    HW230879   1.488   4.574   7.991  2.2530  0.6575 -1.6642
 6473SOL     OW30880   2.532   4.342  11.422 -0.4006  0.2311 -0.6965
 6473SOL    HW130881   2.509   4.314  11.333 -2.9385 -1.5988  0.5262
 6473SOL    HW230882   2.627   4.337  11.412 -0.4072  2.4164 -1.8247
 6474SOL     OW30883   4.656   2.932  12.681  0.3191  0.5998  0.5760
 6474SOL    HW130884   0.006   2.889  12.641  0.0458  0.7313 -0.0809
 6474SOL    HW230885   4.624   2.995  12.616  0.4201  1.4574  1.3564
 6475SOL     OW30886   3.364   2.041   2.078  0.1848  0.7084  0.1463
 6475SOL    HW130887   3.292   2.065   2.136 -1.6945 -3.5879 -0.4217
 6475SOL    HW230888   3.315   2.032   1.996  1.3922 -0.1242 -0.4939
 6476SOL     OW30889   0.604   3.285   2.528  0.9504 -0.1799 -0.0509
 6476SOL    HW130890   0.664   3.335   2.474  2.1043 -0.4162  1.0121
 6476SOL    HW230891   0.572   3.350   2.591 -2.1753 -1.0738 -0.6829
 6477SOL     OW30892   0.937   3.430   6.833 -0.0718  0.3404  0.2644
 6477SOL    HW130893   0.908   3.457   6.920  0.2230  1.1506  0.1140
 6477SOL    HW230894   0.976   3.345   6.850  0.8756  0.8814  0.7991
 6478SOL     OW30895   3.535   4.646  14.499  0.0700 -0.2305  0.1354
 6478SOL    HW130896   3.575   4.562  14.520  1.8049  0.4301 -0.5177
 6478SOL    HW230897   3.525   4.687  14.585 -0.3696 -0.5685  0.2451
 6479SOL     OW30898   2.954   0.425   1.891 -0.0696 -0.3132 -0.4271
 6479SOL    HW130899   2.900   0.503   1.877  1.4545  0.6832 -0.7343
 6479SOL    HW230900   2.937   0.401   1.982  0.9421 -1.8180 -0.6306
 6480SOL     OW30901   0.848   0.292   5.450  0.6728  0.2310 -0.1225
 6480SOL    HW130902   0.906   0.355   5.409  1.3371 -0.4918 -0.2915
 6480SOL    HW230903   0.772   0.287   5.392  0.4579  0.1243  0.1634
 6481SOL     OW30904   1.655   0.806  14.234  0.1117  0.1404 -0.0811
 6481SOL    HW130905   1.657   0.718  14.273  0.3410  0.9684  1.7661
 6481SOL    HW230906   1.745   0.835  14.248  0.4627 -1.1893  0.4429
 6482SOL     OW30907   4.502   4.685   6.260  0.2761  0.9497 -0.3693
 6482SOL    HW130908   4.489   0.051   6.236 -1.3454  0.7031 -0.3912
 6482SOL    HW230909   4.583   4.691   6.311 -1.3514  0.7884  2.2259
 6483SOL     OW30910   4.010   2.236  10.328  0.0565 -0.3131  0.1341
 6483SOL    HW130911   3.935   2.285  10.296 -0.2870 -0.0344  1.3869
 6483SOL    HW230912   3.996   2.147  10.295  0.9720  1.0932 -4.0476
 6484SOL     OW30913   3.034   4.604   7.822  0.4880 -0.0709 -0.1688
 6484SOL    HW130914   3.020   4.517   7.786  1.2356 -0.2139 -0.1089
 6484SOL    HW230915   3.000   4.583   7.909  1.3218 -0.5399  0.0385
 6485SOL     OW30916   3.506   1.014   2.676 -0.1725 -0.5367  0.0129
 6485SOL    HW130917   3.461   1.005   2.593 -1.9343 -0.2617  0.9484
 6485SOL    HW230918   3.555   0.931   2.680 -1.2589 -1.2398 -1.6286
 6486SOL     OW30919   3.862   2.102   9.584  0.3529 -0.1993 -0.1658
 6486SOL    HW130920   3.857   2.194   9.613 -2.4502 -0.4956  0.3496
 6486SOL    HW230921   3.951   2.100   9.551  0.8113 -0.9431  1.1410
 6487SOL     OW30922   2.955   3.984  13.491  0.4729  0.0709 -0.2569
 6487SOL    HW130923   3.024   4.018  13.548  0.3527  2.3302 -1.4255
 6487SOL    HW230924   2.962   4.043  13.416 -2.4570 -0.9414 -1.3387
 6488SOL     OW30925   0.330   0.266   3.247 -0.1469  0.8183  0.0973
 6488SOL    HW130926   0.386   0.226   3.181  0.7534  0.4431  1.0967
 6488SOL    HW230927   0.333   0.359   3.227  2.7415  0.7189  0.0614
 6489SOL     OW30928   3.746   3.259   0.749  0.3119 -0.4118  0.1142
 6489SOL    HW130929   3.763   3.344   0.790 -0.0005 -0.9589  1.3953
 6489SOL    HW230930   3.706   3.218   0.826 -0.6609  0.2294 -0.0382
 6490SOL     OW30931   2.611   1.246   8.694  0.3134  0.3458  0.3752
 6490SOL    HW130932   2.669   1.318   8.669  1.0061 -0.1716  0.4722
 6490SOL    HW230933   2.590   1.272   8.784  0.3955 -2.1289  1.0983
 6491SOL     OW30934   3.761   2.135   4.896 -0.2017  0.4168  0.0655
 6491SOL    HW130935   3.669   2.135   4.922 -0.7944  1.8368 -1.9682
 6491SOL    HW230936   3.768   2.213   4.840  1.1331 -0.7798 -1.4429
 6492SOL     OW30937   2.299   2.704   2.852  0.3277  0.4863  0.2022
 6492SOL    HW130938   2.270   2.633   2.909 -0.0256  0.0454 -0.5298
 6492SOL    HW230939   2.359   2.641   2.812  0.2193  0.9238 -0.6589
 6493SOL     OW30940   3.945   3.608  13.574 -0.1037 -0.5934 -0.4307
 6493SOL    HW130941   3.873   3.638  13.519 -0.7669 -2.0154 -0.3422
 6493SOL    HW230942   3.908   3.616  13.662  1.3767 -2.4307  0.3536
 6494SOL     OW30943   2.740   0.082   5.228 -0.7200  0.4416  0.3630
 6494SOL    HW130944   2.743   0.024   5.152 -0.9042 -1.4969  1.8277
 6494SOL    HW230945   2.835   0.099   5.232 -0.2999 -1.5196 -1.6744
 6495SOL     OW30946   0.481   0.855  10.091  0.3916  0.3249  0.1339
 6495SOL    HW130947   0.439   0.823  10.171  0.3334  2.7308  1.0747
 6495SOL    HW230948   0.545   0.785  10.077 -0.0346 -0.1128  0.3611
 6496SOL     OW30949   0.576   4.718  13.563  0.2956  0.3063  0.0144
 6496SOL    HW130950   0.672   4.720  13.560  0.2636 -0.1197 -1.2620
 6496SOL    HW230951   0.556   0.087  13.557 -0.9495 -0.0157 -0.8732
 6497SOL     OW30952   3.307   2.049  15.944  0.5377  0.6714 -0.1863
 6497SOL    HW130953   3.358   2.113  15.994 -1.7493  1.9550  0.5217
 6497SOL    HW230954   3.317   2.081  15.854  1.4192  0.0005 -0.3306
 6498SOL     OW30955   3.606   2.022   2.242 -0.2632 -0.3263 -0.0669
 6498SOL    HW130956   3.600   1.933   2.278 -0.7185  0.1359  1.0048
 6498SOL    HW230957   3.522   2.030   2.198 -0.2752 -2.8887 -0.4983
 6499SOL     OW30958   2.484   3.341   7.068  0.2825 -0.2498  0.5550
 6499SOL    HW130959   2.466   3.336   6.974 -0.4298 -0.3032  0.6976
 6499SOL    HW230960   2.397   3.357   7.103 -0.5080 -0.1443 -1.4736
 6500SOL     OW30961   1.847   4.410  10.705 -0.6082 -0.3650 -0.7511
 6500SOL    HW130962   1.817   4.447  10.788 -2.2425  0.2603 -1.6178
 6500SOL    HW230963   1.760   4.386  10.673 -0.7722  0.6378 -1.0527
 6501SOL     OW30964   1.220   0.454  14.597  0.5347 -0.7525 -0.3462
 6501SOL    HW130965   1.232   0.359  14.601 -1.1489 -0.9456  0.4526
 6501SOL    HW230966   1.143   0.457  14.540  1.3880  3.6409 -1.2197
 6502SOL     OW30967   2.951   1.925   5.347  0.1585 -0.1195  0.4889
 6502SOL    HW130968   2.965   2.019   5.343  2.7078 -0.4780  0.7169
 6502SOL    HW230969   2.989   1.900   5.262 -0.0465 -1.5748  0.8301
 6503SOL     OW30970   0.830   1.838   2.929 -0.2556  0.5074  1.0461
 6503SOL    HW130971   0.826   1.757   2.878  1.1833  0.3081  1.2554
 6503SOL    HW230972   0.737   1.849   2.947 -0.6422  0.9671 -1.2428
 6504SOL     OW30973   1.239   2.353  15.412 -0.1942  0.0510  0.4105
 6504SOL    HW130974   1.163   2.296  15.402 -0.8803  1.0516 -0.0431
 6504SOL    HW230975   1.241   2.417  15.341  0.1809  1.3559  1.5844
 6505SOL     OW30976   0.360   1.068  10.639 -0.4166 -0.0719 -0.5355
 6505SOL    HW130977   0.310   1.000  10.594 -2.1176  0.4235  0.6141
 6505SOL    HW230978   0.360   1.029  10.726 -0.4332  1.4054  0.1163
 6506SOL     OW30979   4.333   2.582   4.943 -0.3430  0.3666  0.2123
 6506SOL    HW130980   4.428   2.591   4.935 -0.0842 -2.4107  0.2452
 6506SOL    HW230981   4.301   2.664   4.905 -0.3632  0.0542 -0.4439
 6507SOL     OW30982   4.185   4.149   9.211 -0.3845 -0.1254  0.1355
 6507SOL    HW130983   4.125   4.214   9.173 -1.2487 -0.4991  0.8646
 6507SOL    HW230984   4.211   4.187   9.295  3.0395 -0.2671 -0.8470
 6508SOL     OW30985   3.767   2.570   9.700 -0.5270 -0.3051 -0.1754
 6508SOL    HW130986   3.690   2.571   9.756 -0.0345  1.0393  0.4777
 6508SOL    HW230987   3.771   2.664   9.686 -0.5570 -0.0312  1.6306
 6509SOL     OW30988   2.330   0.073   6.923  0.6004 -0.2922 -0.0196
 6509SOL    HW130989   2.417   0.110   6.928  0.5732 -0.1053 -0.8955
 6509SOL    HW230990   2.291   0.121   6.850  2.2536  0.1346 -0.6199
 6510SOL     OW30991   3.663   0.484   5.169 -0.2043  0.0753  0.4041
 6510SOL    HW130992   3.722   0.560   5.174 -0.5124  0.1409  2.8787
 6510SOL    HW230993   3.642   0.508   5.078  4.2343 -0.7505 -0.8516
 6511SOL     OW30994   0.292   2.384  10.274  0.5448  0.8611 -0.6710
 6511SOL    HW130995   0.363   2.328  10.306 -3.6481 -4.4371 -0.7675
 6511SOL    HW230996   0.266   2.424  10.356  0.1503  0.5290 -0.6350
 6512SOL     OW30997   3.954   1.179   1.210  0.1266  0.2496  0.4171
 6512SOL    HW130998   3.934   1.156   1.300  1.5351  0.9354  0.9098
 6512SOL    HW230999   3.994   1.098   1.178  0.8882  1.0208 -0.5813
 6513SOL     OW31000   2.662   3.135  15.319  0.6172 -0.2109 -0.0466
 6513SOL    HW131001   2.679   3.062  15.261  1.7819  1.7853 -2.2326
 6513SOL    HW231002   2.708   3.207  15.276  4.0869 -1.5927  1.4023
 6514SOL     OW31003   4.501   2.361   6.538  0.4295  0.3815  0.3939
 6514SOL    HW131004   4.428   2.341   6.597 -1.3107 -2.2357 -2.6904
 6514SOL    HW231005   4.460   2.386   6.456  0.1713 -1.3973 -0.0156
 6515SOL     OW31006   2.709   2.137   6.636  0.2400 -0.3618  0.4614
 6515SOL    HW131007   2.657   2.061   6.664  0.2498 -0.4814  0.1579
 6515SOL    HW231008   2.795   2.099   6.654 -0.9358 -2.1939  2.3170
 6516SOL     OW31009   0.399   1.776   3.653  0.1711 -0.4815 -0.8123
 6516SOL    HW131010   0.491   1.750   3.647  0.8121  1.4089  0.9615
 6516SOL    HW231011   0.347   1.696   3.660  1.3496 -1.2353 -0.6622
 6517SOL     OW31012   0.308   2.679   3.695  0.1266  0.2134 -0.5097
 6517SOL    HW131013   0.395   2.659   3.660 -0.0626 -3.8323  1.3654
 6517SOL    HW231014   0.313   2.774   3.703 -0.5035  0.3868 -2.2193
 6518SOL     OW31015   2.416   4.337   3.545  0.7598  0.2245 -0.2009
 6518SOL    HW131016   2.372   4.422   3.541  0.8639  0.3541  1.4409
 6518SOL    HW231017   2.500   4.378   3.526  0.6412  0.4757 -0.1753
 6519SOL     OW31018   0.936   2.810  11.523 -0.2046  0.5583  0.1715
 6519SOL    HW131019   0.945   2.889  11.576 -0.3415 -0.1243  1.2152
 6519SOL    HW231020   1.022   2.802  11.481 -0.3367 -1.5652  0.2764
 6520SOL     OW31021   2.911   4.211   5.428  0.3622 -0.9241  0.1088
 6520SOL    HW131022   2.842   4.145   5.420  0.0988 -0.6261 -0.0804
 6520SOL    HW231023   2.871   4.289   5.388  0.3737 -0.4959  0.9291
 6521SOL     OW31024   2.323   1.382   8.064 -0.1244 -0.1105 -0.4561
 6521SOL    HW131025   2.364   1.315   8.119  1.2643  0.6907 -0.5069
 6521SOL    HW231026   2.257   1.322   8.031 -0.1909 -0.1027 -0.3392
 6522SOL     OW31027   2.416   4.532   8.239 -0.5735  0.7167 -0.5850
 6522SOL    HW131028   2.440   4.450   8.282 -0.4978  1.1710  0.2453
 6522SOL    HW231029   2.445   4.602   8.298 -1.5799 -0.4513  1.3084
 6523SOL     OW31030   1.381   0.655  14.506  0.2924 -0.2032 -0.3611
 6523SOL    HW131031   1.299   0.702  14.487  1.3737  1.7789 -0.0784
 6523SOL    HW231032   1.349   0.565  14.513 -1.7947  0.5007 -0.7524
 6524SOL     OW31033   0.870   2.596  16.755 -0.4368  0.6254 -0.1198
 6524SOL    HW131034   0.954   2.589  16.708 -0.2065 -2.0466  0.6798
 6524SOL    HW231035   0.909   2.601  16.842 -3.0050  1.4798  0.9613
 6525SOL     OW31036   2.149   0.122   1.620  0.1001  0.0291 -0.1517
 6525SOL    HW131037   2.183   0.186   1.558  0.1870 -1.1917 -1.3884
 6525SOL    HW231038   2.145   0.043   1.566  0.0206 -0.0021 -0.0994
 6526SOL     OW31039   3.855   3.658   0.667  0.2897  0.5033  0.6559
 6526SOL    HW131040   3.928   3.622   0.618 -0.3535  2.1974 -1.5569
 6526SOL    HW231041   3.838   3.582   0.722 -1.4897  0.3696 -0.0789
 6527SOL     OW31042   2.885   0.716   7.197  0.1070 -0.7545  0.2308
 6527SOL    HW131043   2.922   0.796   7.234 -0.4194 -1.2238  1.7759
 6527SOL    HW231044   2.965   0.664   7.199  0.5875 -0.0811 -1.3780
 6528SOL     OW31045   1.710   0.062   0.124  0.3432  0.1780  0.6282
 6528SOL    HW131046   1.753   0.006   0.060 -2.7081 -2.9317  1.2991
 6528SOL    HW231047   1.712   0.004   0.200  0.7533  0.1422  0.5880
 6529SOL     OW31048   2.577   1.362   6.975  0.0030  0.6254  0.5628
 6529SOL    HW131049   2.488   1.386   7.004 -0.2634 -1.5657  1.5968
 6529SOL    HW231050   2.637   1.430   7.006 -1.0844  1.6908  0.3516
 6530SOL     OW31051   3.606   2.420   3.003 -0.7583 -0.0271 -0.2774
 6530SOL    HW131052   3.531   2.377   3.042  0.5209 -2.5495 -0.6354
 6530SOL    HW231053   3.566   2.463   2.928  0.0135  0.4213 -0.4400
 6531SOL     OW31054   4.115   4.107   9.816  0.1267  0.0564 -0.2213
 6531SOL    HW131055   4.158   4.057   9.886  0.0313  4.0297  2.6680
 6531SOL    HW231056   4.179   4.176   9.798  1.5325 -1.0820  0.4050
 6532SOL     OW31057   1.699   2.188   0.917  0.7217 -0.8212  0.0875
 6532SOL    HW131058   1.788   2.164   0.891  0.2037 -0.8607 -1.6514
 6532SOL    HW231059   1.665   2.214   0.832 -0.2204 -0.6103  0.5298
 6533SOL     OW31060   4.350   2.740   4.118 -0.1381  0.6361 -0.1265
 6533SOL    HW131061   4.256   2.758   4.128 -0.4943 -0.0578 -2.2919
 6533SOL    HW231062   4.388   2.806   4.176  0.2174 -1.3416  1.8821
 6534SOL     OW31063   1.576   2.935   5.231  0.1384 -0.5111 -0.2688
 6534SOL    HW131064   1.619   2.855   5.260  0.2179  0.1904  1.5408
 6534SOL    HW231065   1.495   2.937   5.282  0.5845 -0.1747  0.4292
 6535SOL     OW31066   4.218   0.290   5.310 -0.0946  0.1894 -0.1927
 6535SOL    HW131067   4.219   0.337   5.226  0.4348  1.4478  0.5159
 6535SOL    HW231068   4.202   0.198   5.287  0.5043  0.0084  0.1261
 6536SOL     OW31069   1.986   1.406   4.856 -0.4397 -0.0618 -0.1207
 6536SOL    HW131070   2.005   1.313   4.841  0.6057  0.3447 -1.2673
 6536SOL    HW231071   2.063   1.443   4.897 -2.6586 -0.3912  4.3417
 6537SOL     OW31072   1.278   3.524   7.052 -0.0844  0.7352 -0.7606
 6537SOL    HW131073   1.367   3.489   7.048 -0.7760 -1.3985  1.8761
 6537SOL    HW231074   1.235   3.459   6.996  0.9623 -0.0398 -0.6578
 6538SOL     OW31075   0.531   0.905   2.958  0.4904 -0.6103 -0.1052
 6538SOL    HW131076   0.611   0.940   2.998 -0.9357  2.9561 -0.3729
 6538SOL    HW231077   0.564   0.830   2.909  0.0048 -1.4400  0.8340
 6539SOL     OW31078   4.186   1.667   5.205 -0.3223  0.6142  0.1474
 6539SOL    HW131079   4.261   1.724   5.221 -0.6138  1.1149 -0.2575
 6539SOL    HW231080   4.194   1.655   5.110  0.5840 -2.1332  0.5931
 6540SOL     OW31081   0.468   3.550   1.833  0.0928 -0.5753  0.2162
 6540SOL    HW131082   0.548   3.602   1.823 -2.4311  3.2195 -0.4548
 6540SOL    HW231083   0.446   3.544   1.740 -1.9103 -1.0266  0.7195
 6541SOL     OW31084   0.459   2.051   6.456  0.1719  0.0652  0.1321
 6541SOL    HW131085   0.441   2.128   6.402  0.6667  1.3698  1.8074
 6541SOL    HW231086   0.526   2.071   6.521  0.3765  1.3699 -0.4652
 6542SOL     OW31087   0.820   2.233   5.442  0.3660  0.2622 -0.2114
 6542SOL    HW131088   0.838   2.197   5.529 -1.3634  0.2821  0.1450
 6542SOL    HW231089   0.901   2.202   5.401 -0.8498 -2.3505 -0.6161
 6543SOL     OW31090   3.074   4.214  15.366 -0.5097  0.3445 -0.5727
 6543SOL    HW131091   3.089   4.289  15.424 -2.5400 -0.5619  1.0868
 6543SOL    HW231092   3.033   4.261  15.293  1.5869  0.8730 -1.4174
 6544SOL     OW31093   3.836   2.053   7.145  1.0033  0.3744  0.5083
 6544SOL    HW131094   3.910   1.998   7.119 -0.2196 -0.1240 -1.8470
 6544SOL    HW231095   3.810   2.100   7.066 -3.7102 -0.8714  1.3537
 6545SOL     OW31096   1.850   1.941  11.968 -0.1056 -0.8646  0.1082
 6545SOL    HW131097   1.930   1.899  12.001  1.1996  0.3822 -1.4815
 6545SOL    HW231098   1.830   2.008  12.033 -3.6802  1.1593 -3.1052
 6546SOL     OW31099   0.860   2.392   8.383  0.3962  0.6017  0.3675
 6546SOL    HW131100   0.902   2.430   8.305  1.4875 -2.1340 -0.3765
 6546SOL    HW231101   0.866   2.464   8.445 -0.9753  0.9560  0.1062
 6547SOL     OW31102   4.024   2.261   1.345 -0.5389 -0.0672  1.0449
 6547SOL    HW131103   4.020   2.356   1.334 -0.7250 -0.0389  1.3641
 6547SOL    HW231104   3.942   2.241   1.392 -0.4318 -1.0392  0.8237
 6548SOL     OW31105   0.449   0.996   8.878  0.7711  0.2855 -0.1422
 6548SOL    HW131106   0.540   1.026   8.885  0.3741  1.3601  0.3561
 6548SOL    HW231107   0.436   0.965   8.968  1.9626  2.1957  0.6838
 6549SOL     OW31108   0.422   1.584   7.831  0.1655  0.4919  0.6258
 6549SOL    HW131109   0.395   1.662   7.784  0.9532 -0.4503 -1.3985
 6549SOL    HW231110   0.415   1.621   7.919  0.9582  2.7962 -0.2869
 6550SOL     OW31111   1.356   0.235   4.742 -0.3102  0.6453  0.3089
 6550SOL    HW131112   1.365   0.141   4.724  0.1785  0.6688  0.4204
 6550SOL    HW231113   1.421   0.247   4.811  0.4175  1.5279 -0.5400
 6551SOL     OW31114   3.119   0.873   6.650  0.9148  0.1478 -0.6567
 6551SOL    HW131115   3.040   0.901   6.695  0.1872  1.0724 -2.5426
 6551SOL    HW231116   3.170   0.859   6.730  2.0088  2.7423 -0.8924
 6552SOL     OW31117   3.822   2.729  10.165  0.3572 -0.0316 -0.0682
 6552SOL    HW131118   3.788   2.764  10.247  0.1620 -0.8591  0.1970
 6552SOL    HW231119   3.756   2.665  10.140  2.0687 -2.2337  1.1175
 6553SOL     OW31120   2.055   3.997   8.770  0.3062  0.8041  0.1133
 6553SOL    HW131121   1.997   4.018   8.696 -0.8575 -0.9999  0.5122
 6553SOL    HW231122   2.062   4.087   8.801  2.0533  1.2072 -1.4672
 6554SOL     OW31123   2.619   1.902   6.991  0.1010 -0.2887 -0.3353
 6554SOL    HW131124   2.568   1.926   6.913 -2.4198 -0.9823  1.0908
 6554SOL    HW231125   2.566   1.829   7.023 -1.0112  0.6197 -0.1106
 6555SOL     OW31126   4.066   4.220   3.312 -0.6491 -0.0996 -0.9252
 6555SOL    HW131127   3.979   4.180   3.322  0.3923 -1.7001  1.7159
 6555SOL    HW231128   4.068   4.226   3.217 -0.0709 -0.8417 -0.9598
 6556SOL     OW31129   2.660   0.024   4.577  0.1703  0.5781  0.5936
 6556SOL    HW131130   2.693   4.660   4.587  1.8795  1.4934  3.0050
 6556SOL    HW231131   2.656   0.025   4.481 -1.4678 -2.0131  0.6229
 6557SOL     OW31132   3.833   2.366  10.161  0.0791  0.4899 -0.7080
 6557SOL    HW131133   3.777   2.443  10.170 -0.4964 -0.1847  1.3853
 6557SOL    HW231134   3.771   2.294  10.166 -0.2310  0.8816  1.1891
 6558SOL     OW31135   3.205   2.128   5.728  0.2385 -0.0903  0.3605
 6558SOL    HW131136   3.188   2.176   5.809  1.0393  3.6460 -1.6696
 6558SOL    HW231137   3.272   2.189   5.697  0.1565 -0.9443 -1.4687
 6559SOL     OW31138   3.078   3.465   2.256 -0.2849 -0.0102  0.1502
 6559SOL    HW131139   3.043   3.451   2.168  1.1517  0.4693 -0.5036
 6559SOL    HW231140   3.059   3.555   2.282 -0.4016 -0.3874  1.3644
 6560SOL     OW31141   1.975   1.784   3.099 -0.1379 -0.0639  0.6062
 6560SOL    HW131142   2.060   1.818   3.128  0.1497 -0.5724  0.3681
 6560SOL    HW231143   1.965   1.719   3.168  1.0167  0.3703  1.1859
 6561SOL     OW31144   3.010   4.694   5.397 -0.2483  0.1049  0.0898
 6561SOL    HW131145   2.998   0.034   5.328  0.3177  0.3069  0.1735
 6561SOL    HW231146   3.041   0.024   5.470 -0.8978  1.6830 -0.8179
 6562SOL     OW31147   3.778   2.880   3.223 -0.2657  0.6747  0.2815
 6562SOL    HW131148   3.703   2.823   3.203  0.7855  0.3240 -2.6320
 6562SOL    HW231149   3.736   2.934   3.290  1.9430  0.7704  1.5911
 6563SOL     OW31150   1.930   0.504   7.689 -0.1939 -0.0534 -0.5933
 6563SOL    HW131151   1.958   0.413   7.687 -0.8171 -0.3475  2.9630
 6563SOL    HW231152   1.940   0.525   7.597  0.0706 -0.7608 -0.7233
 6564SOL     OW31153   3.451   4.003   2.150 -0.2769 -0.5994 -0.8910
 6564SOL    HW131154   3.480   3.934   2.211 -2.5989  0.6860  1.6487
 6564SOL    HW231155   3.434   4.078   2.207  0.8087 -1.1365  0.1387
 6565SOL     OW31156   4.350   4.448   5.669  0.5445  0.3590 -0.1311
 6565SOL    HW131157   4.354   4.525   5.612 -0.4376  1.4815  1.3354
 6565SOL    HW231158   4.437   4.415   5.688 -0.0733 -1.7947 -1.0255
 6566SOL     OW31159   0.273   0.913  12.669  0.3980  0.2202  0.5647
 6566SOL    HW131160   0.202   0.972  12.696 -0.5707 -0.6809 -0.0149
 6566SOL    HW231161   0.242   0.884  12.584 -0.8656 -0.5838  1.2917
 6567SOL     OW31162   3.012   4.109   8.126 -0.7156 -0.2052  0.5355
 6567SOL    HW131163   3.029   4.015   8.132  3.0817  0.4089 -0.8822
 6567SOL    HW231164   2.938   4.101   8.065 -0.0108 -1.5699 -0.1643
 6568SOL     OW31165   3.314   1.424   1.911  0.0907  0.3666  1.0165
 6568SOL    HW131166   3.271   1.383   1.986 -2.2162 -3.4446 -2.3754
 6568SOL    HW231167   3.238   1.469   1.873 -0.3699 -0.0191  1.4732
 6569SOL     OW31168   0.653   4.484  12.930  0.9376 -0.1938  0.8042
 6569SOL    HW131169   0.707   4.412  12.960  1.1937 -0.2584  0.1844
 6569SOL    HW231170   0.601   4.511  13.006 -1.2995  0.6414 -1.0222
 6570SOL     OW31171   3.157   4.603   9.676  0.0606  0.0116 -0.4575
 6570SOL    HW131172   3.252   4.612   9.685 -0.0908 -0.2379  1.5156
 6570SOL    HW231173   3.117   4.689   9.685  0.0227 -0.0970  0.4326
 6571SOL     OW31174   4.269   3.542   4.537  0.0633  0.4570 -0.9719
 6571SOL    HW131175   4.313   3.626   4.555  0.9611  0.0667 -1.3499
 6571SOL    HW231176   4.187   3.546   4.586  0.1385  0.5303 -0.8506
 6572SOL     OW31177   4.480   1.978  10.996 -0.1174  0.0556 -0.4613
 6572SOL    HW131178   4.529   1.904  11.032 -0.4807  0.3305  0.6149
 6572SOL    HW231179   4.417   1.928  10.944  0.3840 -1.5071  0.4428
 6573SOL     OW31180   3.830   1.031   4.449  0.2709 -0.5250 -0.5412
 6573SOL    HW131181   3.802   1.083   4.524  0.4009 -0.5339 -0.4866
 6573SOL    HW231182   3.782   1.078   4.380  1.1838 -0.5562 -1.1978
 6574SOL     OW31183   2.057   2.377   3.631  0.3995 -0.1281 -0.2424
 6574SOL    HW131184   1.972   2.368   3.673  0.2905 -0.8257 -0.6079
 6574SOL    HW231185   2.075   2.283   3.639 -0.4498 -0.3135 -0.5290
 6575SOL     OW31186   1.167   2.144  12.614  0.0404  0.5221 -0.4696
 6575SOL    HW131187   1.125   2.161  12.530 -0.0487  0.6126 -0.4063
 6575SOL    HW231188   1.174   2.230  12.653 -0.9027  0.5947 -0.4480
 6576SOL     OW31189   2.518   2.280  11.890 -0.0916  0.5575 -0.2871
 6576SOL    HW131190   2.483   2.362  11.926 -1.3173 -0.2878  0.4296
 6576SOL    HW231191   2.607   2.265  11.921  0.8979  1.5696 -2.6247
 6577SOL     OW31192   4.442   1.952   7.144 -0.1558  0.4160 -0.5208
 6577SOL    HW131193   4.502   2.014   7.100 -1.3228 -0.2408 -3.0594
 6577SOL    HW231194   4.393   2.021   7.189  1.2206  1.0989 -0.0529
 6578SOL     OW31195   2.187   3.020   9.914  0.2612 -0.0078  0.2687
 6578SOL    HW131196   2.186   3.113   9.935  0.6670 -0.5300  2.6250
 6578SOL    HW231197   2.126   2.987   9.980  0.8044  0.6023  1.0734
 6579SOL     OW31198   1.597   3.429   5.064 -0.3505 -0.2905 -0.1467
 6579SOL    HW131199   1.635   3.506   5.021 -0.3999  0.2350  0.7726
 6579SOL    HW231200   1.516   3.468   5.096 -0.1101  0.1637 -0.0900
 6580SOL     OW31201   2.026   3.185   7.959  0.4020  0.7178 -0.3994
 6580SOL    HW131202   2.108   3.200   7.912  0.7545 -0.1802 -0.0730
 6580SOL    HW231203   2.016   3.279   7.975  1.4871  0.7898 -0.1417
 6581SOL     OW31204   2.882   0.472   5.162 -0.0207 -0.1941 -0.3385
 6581SOL    HW131205   2.972   0.474   5.195 -0.7875  3.4817  1.4453
 6581SOL    HW231206   2.893   0.421   5.081  1.5183 -1.4588  0.6613
 6582SOL     OW31207   3.261   2.587   6.547  0.3884  0.0652  0.2840
 6582SOL    HW131208   3.286   2.678   6.562 -1.5987  0.6188  0.3212
 6582SOL    HW231209   3.289   2.560   6.635  1.3624 -1.7439 -0.5904
 6583SOL     OW31210   1.906   1.239   5.476  0.1437 -0.1152 -0.0056
 6583SOL    HW131211   1.992   1.235   5.519  0.1754 -3.1419 -0.3702
 6583SOL    HW231212   1.910   1.315   5.417 -2.6542 -0.2351 -0.3488
 6584SOL     OW31213   3.784   0.521  17.402 -0.5438 -0.6578  0.3273
 6584SOL    HW131214   3.748   0.535  17.490  0.7493  0.6082  0.6567
 6584SOL    HW231215   3.855   0.462  17.427 -0.3664 -0.7679 -0.4569
 6585SOL     OW31216   2.294   3.281  14.248  0.0354  0.2112  0.3024
 6585SOL    HW131217   2.270   3.280  14.155  0.8465  0.9287  0.0882
 6585SOL    HW231218   2.324   3.370  14.267  0.9414  0.1074 -0.6553
 6586SOL     OW31219   3.823   3.806   5.815  0.0895 -0.0227 -0.2925
 6586SOL    HW131220   3.728   3.803   5.804  0.1068 -0.1824 -0.3837
 6586SOL    HW231221   3.836   3.899   5.835 -0.3128 -0.3475  1.5329
 6587SOL     OW31222   2.857   1.896   5.818 -0.2455 -0.1643 -0.0917
 6587SOL    HW131223   2.918   1.855   5.879  1.1171  0.1370 -1.2480
 6587SOL    HW231224   2.894   1.868   5.734 -0.1130  1.2323 -0.5028
 6588SOL     OW31225   3.893   3.754   8.826 -0.2907 -0.1644  0.1606
 6588SOL    HW131226   3.960   3.775   8.891  0.3317 -1.2074 -0.1390
 6588SOL    HW231227   3.948   3.745   8.748  0.6138 -1.3359  0.9356
 6589SOL     OW31228   3.818   4.113  12.108 -0.2570  0.2204  0.2579
 6589SOL    HW131229   3.848   4.148  12.025 -0.7883  2.1350  0.8818
 6589SOL    HW231230   3.751   4.180  12.118  0.3876  1.1515 -1.5771
 6590SOL     OW31231   1.532   1.773   2.226  0.0390 -0.2210 -0.0688
 6590SOL    HW131232   1.553   1.792   2.134 -2.1779 -0.6194 -0.6675
 6590SOL    HW231233   1.472   1.839   2.261 -0.6647 -0.9892  0.1711
 6591SOL     OW31234   1.504   0.004   5.040  0.0003  0.1638 -0.3133
 6591SOL    HW131235   1.595   4.712   5.015 -0.1430  3.4564 -3.0907
 6591SOL    HW231236   1.468   4.680   4.967 -0.0905 -0.9371  0.4790
 6592SOL     OW31237   1.477   2.372   6.265  0.4515 -0.4498 -0.4377
 6592SOL    HW131238   1.386   2.369   6.237  0.7822  0.0471 -1.5475
 6592SOL    HW231239   1.496   2.460   6.231  0.2638 -0.1646  0.1962
 6593SOL     OW31240   0.954   3.877   3.561 -0.1846 -0.4377 -0.3573
 6593SOL    HW131241   0.909   3.901   3.480  0.7447  0.8009 -0.5038
 6593SOL    HW231242   0.984   3.787   3.550 -1.7154 -1.0287  0.2560
 6594SOL     OW31243   0.166   1.572   2.026  0.1943 -1.1222 -0.1458
 6594SOL    HW131244   0.084   1.533   2.056  0.6979 -1.4135  0.8331
 6594SOL    HW231245   0.185   1.631   2.098  0.6044 -0.9709 -0.3808
 6595SOL     OW31246   1.177   4.208  12.927  0.1356 -0.4751  0.5046
 6595SOL    HW131247   1.143   4.231  13.013 -0.0256  1.8418 -0.1756
 6595SOL    HW231248   1.170   4.114  12.910  0.1118 -0.5259  0.7919
 6596SOL     OW31249   4.724   4.193   6.150 -0.0395 -0.3688  0.5585
 6596SOL    HW131250   0.034   4.281   6.136 -1.7795  0.2852  0.2250
 6596SOL    HW231251   4.639   4.194   6.106 -0.0402  0.0049  0.5659
 6597SOL     OW31252   1.624   1.223   9.321 -0.2417 -0.1142  0.6658
 6597SOL    HW131253   1.639   1.317   9.320  2.3725 -0.5453  0.2356
 6597SOL    HW231254   1.702   1.196   9.369  1.5774  1.6048 -1.3321
 6598SOL     OW31255   3.803   2.557   2.497 -0.0495 -0.1549 -0.6168
 6598SOL    HW131256   3.850   2.488   2.450 -0.7354 -0.6305 -0.6112
 6598SOL    HW231257   3.804   2.632   2.438 -1.5526 -0.8205 -1.4829
 6599SOL     OW31258   0.585   3.223   7.990 -0.3211  0.3989  0.0632
 6599SOL    HW131259   0.619   3.155   8.048 -2.3400 -1.5170 -1.0193
 6599SOL    HW231260   0.604   3.301   8.043  0.1705  0.0554  0.3975
 6600SOL     OW31261   0.496   1.898  12.762  0.5502  0.0782 -0.1414
 6600SOL    HW131262   0.577   1.863  12.799  0.7162  0.0472 -0.5272
 6600SOL    HW231263   0.482   1.969  12.825  0.3863 -0.2484  0.1884
 6601SOL     OW31264   1.849   0.754   6.454  0.2517 -0.0540  0.7536
 6601SOL    HW131265   1.828   0.842   6.485  0.6943  1.0676 -2.1279
 6601SOL    HW231266   1.764   0.711   6.464  0.6148 -0.6413  1.3150
 6602SOL     OW31267   2.218   1.935   3.177  0.8323 -0.2211 -0.4923
 6602SOL    HW131268   2.183   1.997   3.113  0.3247 -1.2224 -1.1914
 6602SOL    HW231269   2.176   1.964   3.257  0.7529 -0.7067 -0.3532
 6603SOL     OW31270   3.934   4.181  13.911  0.9731  0.4667 -0.0595
 6603SOL    HW131271   3.945   4.244  13.982 -3.2976 -1.1070  1.9938
 6603SOL    HW231272   3.854   4.214  13.870  0.2105  0.4242  1.3953
 6604SOL     OW31273   3.384   4.495  17.484  0.2946 -0.1041 -0.3176
 6604SOL    HW131274   3.325   4.430  17.448  0.3972  0.8700 -2.2059
 6604SOL    HW231275   3.384   4.567  17.422  0.4925 -0.6050 -0.8936
 6605SOL     OW31276   3.764   3.917  13.794  0.6469 -0.1062  0.1517
 6605SOL    HW131277   3.735   3.989  13.737 -0.4523 -0.3920  0.3385
 6605SOL    HW231278   3.686   3.864  13.810  0.7467 -0.2075  0.3062
 6606SOL     OW31279   4.494   2.474   7.971  0.5449 -0.0466 -0.5778
 6606SOL    HW131280   4.477   2.473   7.877 -1.1067 -1.4976 -0.2599
 6606SOL    HW231281   4.576   2.524   7.972  1.6029 -1.7586 -0.9366
 6607SOL     OW31282   3.772   1.131  12.309 -0.3374 -0.3105 -0.1416
 6607SOL    HW131283   3.701   1.124  12.246 -1.5050  2.9281  0.8188
 6607SOL    HW231284   3.852   1.105  12.265  0.7197  1.5017  0.7076
 6608SOL     OW31285   1.061   2.147   5.319 -0.1246  0.3559  0.6983
 6608SOL    HW131286   1.129   2.196   5.273  2.7057 -2.2403  2.0787
 6608SOL    HW231287   1.042   2.080   5.253  0.0384  1.8375 -0.8292
 6609SOL     OW31288   0.534   2.069  17.145  0.1794  0.1399 -0.6113
 6609SOL    HW131289   0.459   2.119  17.115 -0.3971 -0.9721 -1.0433
 6609SOL    HW231290   0.570   2.038  17.061 -1.9831 -0.9599 -1.1218
 6610SOL     OW31291   1.571   2.064  16.082  0.2461 -0.4618  0.0913
 6610SOL    HW131292   1.546   2.156  16.091 -2.0483 -1.1697  1.1142
 6610SOL    HW231293   1.578   2.039  16.174 -1.3478 -0.3326  0.2494
 6611SOL     OW31294   0.924   3.337   1.109  0.2498 -0.5866  0.1887
 6611SOL    HW131295   0.867   3.412   1.091 -0.2168 -0.7713  0.8759
 6611SOL    HW231296   0.970   3.373   1.185 -1.3732  0.6011  0.6123
 6612SOL     OW31297   1.715   1.357   1.627  0.3032 -0.5474 -0.3849
 6612SOL    HW131298   1.666   1.439   1.629  2.0028  0.4417  0.5998
 6612SOL    HW231299   1.797   1.382   1.671  0.4991 -0.1950 -0.9488
 6613SOL     OW31300   3.370   0.645   8.228 -0.4685 -0.3915 -0.2273
 6613SOL    HW131301   3.293   0.690   8.263  0.4130  1.0487 -0.1450
 6613SOL    HW231302   3.372   0.581   8.299 -0.4567  2.5260  2.3796
 6614SOL     OW31303   1.722   2.744   7.464 -0.3906 -0.3669 -0.1019
 6614SOL    HW131304   1.753   2.674   7.522  1.2974  0.9713  0.6154
 6614SOL    HW231305   1.630   2.736   7.487 -0.3963 -1.1610 -0.4296
 6615SOL     OW31306   0.781   3.134  16.735  0.5039  0.3884  0.1323
 6615SOL    HW131307   0.819   3.162  16.819  0.1052  0.5623  0.2555
 6615SOL    HW231308   0.775   3.039  16.741 -1.3202  0.3949 -1.5280
 6616SOL     OW31309   1.260   0.426   2.280 -0.2453 -0.2143  0.3891
 6616SOL    HW131310   1.176   0.472   2.280 -0.1824 -0.1171 -1.9168
 6616SOL    HW231311   1.247   0.345   2.232  0.1523 -0.5945  0.9318
 6617SOL     OW31312   1.277   1.224   0.228 -0.1473 -0.4334  0.2963
 6617SOL    HW131313   1.345   1.269   0.178 -1.9855  2.2840  0.2358
 6617SOL    HW231314   1.256   1.161   0.159 -0.5144  2.8921 -2.5959
 6618SOL     OW31315   4.242   3.972   0.807 -0.0349  0.3098  0.1221
 6618SOL    HW131316   4.175   3.990   0.741 -0.4898 -0.8115  0.2856
 6618SOL    HW231317   4.313   3.935   0.755 -1.2690 -0.4488 -0.9938
 6619SOL     OW31318   2.293   3.437   5.254  0.3282  0.2019  0.6358
 6619SOL    HW131319   2.358   3.501   5.225  0.8847 -0.1308  1.1345
 6619SOL    HW231320   2.225   3.496   5.288  1.9147  0.9391  2.5107
 6620SOL     OW31321   3.849   0.086   3.129  0.2622  0.3112  0.2445
 6620SOL    HW131322   3.908   0.076   3.204  1.2511  2.2418 -0.2674
 6620SOL    HW231323   3.907   0.133   3.069 -0.9654  1.0575 -0.3500
 6621SOL     OW31324   3.098   3.149   3.628 -0.5931 -0.3508  0.1865
 6621SOL    HW131325   3.076   3.064   3.666 -1.1481  1.5457  4.1104
 6621SOL    HW231326   3.013   3.188   3.611  0.1878  0.1892 -2.5974
 6622SOL     OW31327   0.275   1.398   4.267  0.3500  0.9897 -0.1101
 6622SOL    HW131328   0.282   1.357   4.180 -1.9487 -0.9886  0.6370
 6622SOL    HW231329   0.207   1.463   4.248  0.7780  1.2699 -0.6930
 6623SOL     OW31330   1.619   0.105   4.596  0.2136 -0.0892  0.5776
 6623SOL    HW131331   1.562   0.043   4.642 -1.9120  1.2123 -0.3027
 6623SOL    HW231332   1.578   0.189   4.615  0.8344  0.1540  0.8356
 6624SOL     OW31333   3.929   1.506   7.462  0.0734 -0.2502  0.1882
 6624SOL    HW131334   3.916   1.469   7.374  2.8845 -0.4830 -0.1262
 6624SOL    HW231335   3.984   1.443   7.507 -1.0066 -2.4492 -1.5329
 6625SOL     OW31336   4.160   1.234   1.560 -0.3489  0.4514  0.2506
 6625SOL    HW131337   4.182   1.141   1.563 -0.1825  0.5108  0.9499
 6625SOL    HW231338   4.065   1.226   1.566 -0.5254  1.0832 -1.7701
 6626SOL     OW31339   2.936   1.532   5.583 -0.1907 -0.2750  0.3148
 6626SOL    HW131340   2.865   1.468   5.582  0.4069 -0.9002 -1.9091
 6626SOL    HW231341   3.004   1.481   5.538  0.7366  0.2335  1.1316
 6627SOL     OW31342   3.952   3.814   7.512  0.0125 -0.2323  0.0688
 6627SOL    HW131343   3.949   3.906   7.540  0.5530 -0.3765  0.6266
 6627SOL    HW231344   3.877   3.778   7.559 -1.7180  1.3742 -1.4654
 6628SOL     OW31345   3.048   2.377   2.376 -0.3066  0.1869 -0.4786
 6628SOL    HW131346   3.141   2.394   2.395  0.6187 -1.0673 -3.8098
 6628SOL    HW231347   3.041   2.410   2.286 -0.0576 -1.8079 -1.2272
 6629SOL     OW31348   2.174   2.067  13.001  0.3008 -0.0664  0.5474
 6629SOL    HW131349   2.263   2.081  13.033  1.5761  1.3324 -3.5323
 6629SOL    HW231350   2.184   2.059  12.906 -0.3264 -1.5756  0.6224
 6630SOL     OW31351   4.438   2.478  16.269  0.0507  0.1765  0.3143
 6630SOL    HW131352   4.460   2.511  16.356 -2.8292 -0.1553  1.1487
 6630SOL    HW231353   4.429   2.553  16.210  0.2470  0.1321  0.2270
 6631SOL     OW31354   0.025   2.396  11.140 -0.2541 -0.5597 -0.2791
 6631SOL    HW131355   4.704   2.322  11.100 -2.4548 -1.0791  3.2246
 6631SOL    HW231356   0.007   2.459  11.070  2.9772 -1.0086 -1.5511
 6632SOL     OW31357   0.510   1.005  12.773  0.0327 -0.1989  0.2021
 6632SOL    HW131358   0.445   0.953  12.726 -2.1215  0.3121  2.6178
 6632SOL    HW231359   0.509   0.963  12.859 -3.4486 -1.4567 -0.4801
 6633SOL     OW31360   1.891   4.025  13.765  0.3722 -0.6333  0.3997
 6633SOL    HW131361   1.843   4.107  13.777  2.1440  0.6552 -1.2865
 6633SOL    HW231362   1.977   4.065  13.750 -0.5261  0.3958 -1.8658
 6634SOL     OW31363   3.435   3.528   7.405 -0.1197 -0.1503  0.4360
 6634SOL    HW131364   3.359   3.569   7.364  0.8231  1.1920  0.0659
 6634SOL    HW231365   3.483   3.607   7.430  1.3926 -0.9001 -0.0941
 6635SOL     OW31366   1.050   2.471   9.206  0.3107  0.1425 -0.7647
 6635SOL    HW131367   1.097   2.430   9.279  1.1684 -0.3514 -1.5940
 6635SOL    HW231368   1.007   2.545   9.249 -0.4335 -0.9195  0.3252
 6636SOL     OW31369   4.405   3.252   5.897 -0.1284  0.6201  0.1343
 6636SOL    HW131370   4.312   3.267   5.878  0.0142 -0.7245 -1.5943
 6636SOL    HW231371   4.391   3.187   5.965 -0.0810  1.3597  0.8540
 6637SOL     OW31372   1.138   4.265   3.061  0.4491  0.3223 -0.0599
 6637SOL    HW131373   1.142   4.199   2.991 -1.1037  1.1731 -0.9520
 6637SOL    HW231374   1.117   4.218   3.141  1.7016 -0.1278  0.0005
 6638SOL     OW31375   1.716   3.405   2.346  0.1579 -0.1480  0.3636
 6638SOL    HW131376   1.665   3.343   2.398 -0.1810 -1.2400 -1.2632
 6638SOL    HW231377   1.654   3.419   2.274  0.2930  2.4088  0.7467
 6639SOL     OW31378   1.266   0.399   6.698 -0.0914 -0.1210 -0.2124
 6639SOL    HW131379   1.290   0.308   6.714 -0.4914  0.0373  1.3184
 6639SOL    HW231380   1.314   0.451   6.763 -1.8023 -0.1899  1.1203
 6640SOL     OW31381   3.015   3.907   5.724 -0.1630 -0.2195 -0.0729
 6640SOL    HW131382   2.994   3.888   5.633 -2.0886  0.0372  0.3246
 6640SOL    HW231383   2.972   3.835   5.770 -0.1102  0.4760  1.0861
 6641SOL     OW31384   3.756   0.894  12.955 -0.0323  0.6203  0.3054
 6641SOL    HW131385   3.837   0.945  12.956 -0.1828  0.8937 -2.2633
 6641SOL    HW231386   3.775   0.842  12.878  2.0500 -0.0183  1.2573
 6642SOL     OW31387   4.404   3.242   6.656  0.5907 -0.0363 -0.3204
 6642SOL    HW131388   4.459   3.218   6.581  0.4140  2.1186 -1.1450
 6642SOL    HW231389   4.438   3.332   6.653  1.1042 -0.2085  0.2210
 6643SOL     OW31390   0.923   4.655   6.454  0.0315 -0.4015  0.2949
 6643SOL    HW131391   0.958   4.634   6.368  1.3909  0.7984  0.5560
 6643SOL    HW231392   0.934   4.574   6.503  0.8288  0.1506  1.0282
 6644SOL     OW31393   3.283   3.486   3.477  0.0186 -0.1606  0.1114
 6644SOL    HW131394   3.324   3.471   3.392  0.0165 -0.9951  0.2606
 6644SOL    HW231395   3.330   3.421   3.529 -1.0773  1.1689  2.8164
 6645SOL     OW31396   3.593   4.480   0.751 -0.3318 -0.3233 -0.1652
 6645SOL    HW131397   3.613   4.424   0.826 -2.8138  0.8577  1.3695
 6645SOL    HW231398   3.530   4.425   0.703 -1.2718  0.1593  0.5151
 6646SOL     OW31399   0.282   1.098  16.825 -0.1771 -0.5955  0.3157
 6646SOL    HW131400   0.211   1.097  16.760 -1.2305  2.3829  1.4567
 6646SOL    HW231401   0.332   1.018  16.808  0.6598  0.2382 -1.2407
 6647SOL     OW31402   4.044   2.902  14.952 -0.0359  0.3156 -0.1054
 6647SOL    HW131403   4.075   2.892  15.042 -0.6483 -3.9013 -0.3637
 6647SOL    HW231404   4.084   2.986  14.930  0.8258 -0.8574 -3.0657
 6648SOL     OW31405   3.973   1.699   4.372 -0.1338 -0.5398 -0.1900
 6648SOL    HW131406   3.878   1.707   4.384 -0.1725  0.6268 -1.2754
 6648SOL    HW231407   3.979   1.650   4.290 -0.1941 -0.5663 -0.1790
 6649SOL     OW31408   1.891   0.894  16.590  0.4676 -0.7160  0.0671
 6649SOL    HW131409   1.838   0.969  16.615 -1.5160 -2.1130  0.0309
 6649SOL    HW231410   1.836   0.845  16.529 -2.8133  1.3736  1.3397
 6650SOL     OW31411   4.370   1.586   2.539 -0.0064 -0.4062  0.0049
 6650SOL    HW131412   4.337   1.675   2.524 -0.4548 -0.5018  0.4244
 6650SOL    HW231413   4.409   1.576   2.453  0.7543 -0.4757  0.3612
 6651SOL     OW31414   2.696   3.732   8.525  0.0280  0.4315  0.2910
 6651SOL    HW131415   2.715   3.802   8.587  1.4682 -0.0684  0.4103
 6651SOL    HW231416   2.773   3.675   8.521 -0.9209 -0.9097  1.0630
 6652SOL     OW31417   1.440   0.390   8.498 -0.0313  0.6487 -0.3146
 6652SOL    HW131418   1.377   0.461   8.481 -1.4345 -0.4177  0.3783
 6652SOL    HW231419   1.392   0.357   8.575  0.0426 -1.5751 -1.2215
 6653SOL     OW31420   3.893   2.754   6.941 -0.1304 -0.1208  0.0409
 6653SOL    HW131421   3.899   2.846   6.916  0.7804  0.4679  2.3965
 6653SOL    HW231422   3.949   2.752   7.019 -0.8718  0.8063  0.6014
 6654SOL     OW31423   4.642   2.245   9.348  0.1411 -0.0106 -0.3967
 6654SOL    HW131424   4.605   2.157   9.342 -2.3522  0.9738  0.4444
 6654SOL    HW231425   4.586   2.289   9.412 -0.0997 -0.2854 -0.4212
 6655SOL     OW31426   3.109   4.035   5.327  0.2024  0.3618 -0.7735
 6655SOL    HW131427   3.068   4.113   5.366  2.8776  1.4619 -0.2087
 6655SOL    HW231428   3.123   4.070   5.238  0.0295  0.0879 -0.9096
 6656SOL     OW31429   2.410   4.144  13.088  0.3210  0.3459  0.0059
 6656SOL    HW131430   2.500   4.111  13.091  0.2074  0.2360  1.9539
 6656SOL    HW231431   2.417   4.238  13.106 -0.7391  0.9795 -2.8888
 6657SOL     OW31432   3.841   0.525   4.259  0.1328  0.4299 -0.5024
 6657SOL    HW131433   3.856   0.523   4.165  0.2638  1.6910 -0.5144
 6657SOL    HW231434   3.770   0.589   4.263 -1.0386 -0.8932 -0.1535
 6658SOL     OW31435   0.922   1.986   8.934 -0.6319  0.0295  0.3281
 6658SOL    HW131436   0.923   1.919   9.002  1.8622 -1.0055 -0.7202
 6658SOL    HW231437   0.944   2.060   8.990  0.5902 -0.5140  0.5669
 6659SOL     OW31438   2.175   3.585   8.667 -0.3392 -0.2294 -0.2138
 6659SOL    HW131439   2.097   3.535   8.689 -0.5086 -0.3923 -1.2306
 6659SOL    HW231440   2.181   3.569   8.573 -0.6042  0.4667 -0.3471
 6660SOL     OW31441   1.787   3.601   2.607 -0.3068 -0.2109 -0.4298
 6660SOL    HW131442   1.822   3.651   2.534  0.9695 -2.0639 -1.1128
 6660SOL    HW231443   1.861   3.540   2.614  0.8437  1.1557 -0.6298
 6661SOL     OW31444   1.316   3.735   5.910  0.3881  0.8099 -0.1630
 6661SOL    HW131445   1.315   3.647   5.872  0.3054 -0.2508  2.3242
 6661SOL    HW231446   1.264   3.713   5.988  0.6208  0.2532 -0.1647
 6662SOL     OW31447   1.352   3.536   9.539 -0.7561 -0.0687  0.1584
 6662SOL    HW131448   1.324   3.452   9.575  1.0584 -0.4123  0.7972
 6662SOL    HW231449   1.309   3.537   9.454 -0.0791 -0.9174 -0.1885
 6663SOL     OW31450   2.913   2.701   5.547  0.4318  0.1839  0.3525
 6663SOL    HW131451   2.968   2.777   5.526 -0.1416  1.2724  2.8097
 6663SOL    HW231452   2.983   2.638   5.529 -0.7140 -1.1985  0.7726
 6664SOL     OW31453   2.059   4.072   9.440  0.3116  0.2026  0.2551
 6664SOL    HW131454   2.100   3.986   9.436 -0.4181 -0.1017 -0.8023
 6664SOL    HW231455   1.994   4.066   9.370  0.8692 -1.7149 -0.0818
 6665SOL     OW31456   0.117   2.650  16.856 -0.6422 -0.3162  0.5225
 6665SOL    HW131457   0.167   2.726  16.825 -0.4539 -0.1853  1.1652
 6665SOL    HW231458   0.141   2.641  16.948  2.2292  0.8321 -0.1140
 6666SOL     OW31459   2.885   0.651   6.566  0.2998  0.1337  0.5294
 6666SOL    HW131460   2.937   0.717   6.519 -0.1373 -1.3704 -2.0359
 6666SOL    HW231461   2.923   0.564   6.555 -0.9020 -0.3146 -0.0299
 6667SOL     OW31462   2.644   4.295   5.787 -0.2221 -0.0749  0.2268
 6667SOL    HW131463   2.703   4.371   5.792  1.5889 -1.2415 -3.4523
 6667SOL    HW231464   2.686   4.223   5.739  1.1983  1.1603 -0.4033
 6668SOL     OW31465   3.526   3.457   7.704  0.1950  0.3483  0.6619
 6668SOL    HW131466   3.620   3.467   7.687  0.1069  0.3028  0.1471
 6668SOL    HW231467   3.494   3.541   7.735 -0.1706 -0.0159  1.2767
 6669SOL     OW31468   1.476   4.286  14.783 -0.3823 -0.3531  0.3335
 6669SOL    HW131469   1.417   4.356  14.754  1.5438  0.2672 -2.1283
 6669SOL    HW231470   1.411   4.218  14.799  0.1903 -0.4565  2.2165
 6670SOL     OW31471   2.753   1.581   1.858  0.0181  0.1386  0.0847
 6670SOL    HW131472   2.680   1.637   1.886  0.0578 -0.0844  0.6414
 6670SOL    HW231473   2.760   1.635   1.779  1.2606 -0.1922 -0.0275
 6671SOL     OW31474   2.455   4.127   2.801 -0.8812  0.2772  0.5836
 6671SOL    HW131475   2.531   4.115   2.857  0.2928 -2.0894 -1.5424
 6671SOL    HW231476   2.489   4.172   2.724  0.5170 -0.3210  0.8580
 6672SOL     OW31477   3.243   0.457   6.775 -0.4757 -0.4118 -0.4380
 6672SOL    HW131478   3.259   0.370   6.740 -0.2997 -1.2397  1.6964
 6672SOL    HW231479   3.243   0.446   6.870  0.1106 -0.9524 -0.5048
 6673SOL     OW31480   1.163   3.491   9.308  0.4051 -0.1915  0.5842
 6673SOL    HW131481   1.236   3.477   9.248 -0.7577 -1.5475 -0.5217
 6673SOL    HW231482   1.181   3.417   9.366 -1.8642 -0.7123  0.6279
 6674SOL     OW31483   3.512   1.293  15.836  0.0858  0.1029  0.3644
 6674SOL    HW131484   3.539   1.371  15.885  0.2552 -0.5651  1.3253
 6674SOL    HW231485   3.594   1.248  15.814 -0.1370 -0.2160  0.1930
 6675SOL     OW31486   0.632   1.991  14.421  0.5125  0.4530  0.0455
 6675SOL    HW131487   0.591   1.912  14.457 -0.2399  0.4631 -0.7921
 6675SOL    HW231488   0.587   2.063  14.465  0.8203  0.5452  0.2080
 6676SOL     OW31489   0.345   3.600   8.654  0.2741  0.0340  0.5442
 6676SOL    HW131490   0.365   3.669   8.717 -1.9019 -0.2150  1.5367
 6676SOL    HW231491   0.258   3.624   8.621  0.4869 -0.5450 -0.4472
 6677SOL     OW31492   1.975   2.120  11.767 -0.8310  0.0638 -0.1250
 6677SOL    HW131493   1.942   2.075  11.845 -1.7414  3.1435  1.2662
 6677SOL    HW231494   2.026   2.050  11.726  0.1200 -0.0653  1.2892
 6678SOL     OW31495   4.113   2.431  10.693  0.8339 -0.4399  0.0138
 6678SOL    HW131496   4.043   2.366  10.685  1.3257 -0.4343 -4.2295
 6678SOL    HW231497   4.177   2.379  10.645 -2.5251 -2.1966 -2.5955
 6679SOL     OW31498   3.466   3.485   6.521  0.4488 -0.7538  0.2457
 6679SOL    HW131499   3.481   3.536   6.441 -0.4814  0.6586  0.9559
 6679SOL    HW231500   3.456   3.555   6.585 -0.2407  0.3662 -1.0639
 6680SOL     OW31501   1.367   1.225   1.639  0.4123 -0.0134 -0.4847
 6680SOL    HW131502   1.372   1.206   1.546  1.4927  0.4320 -0.5278
 6680SOL    HW231503   1.360   1.135   1.671 -0.4667 -0.6791 -2.5895
 6681SOL     OW31504   1.116   4.136  17.430 -0.6355  0.3656 -0.1764
 6681SOL    HW131505   1.151   4.151  17.342  1.0244  0.1765  0.4493
 6681SOL    HW231506   1.100   4.041  17.426  1.8627 -0.2211  3.3005
 6682SOL     OW31507   4.324   4.706   3.594  0.3403  0.1811 -0.8733
 6682SOL    HW131508   4.339   0.054   3.654 -1.5879  0.5830 -0.8828
 6682SOL    HW231509   4.327   0.034   3.514  1.2296  1.0444 -0.2594
 6683SOL     OW31510   3.687   3.208   3.415 -0.7959 -0.2898 -0.0843
 6683SOL    HW131511   3.711   3.124   3.454 -0.0968  0.3107  0.7652
 6683SOL    HW231512   3.662   3.256   3.494 -1.8384 -0.4833 -0.2873
 6684SOL     OW31513   3.587   1.395   5.593  0.5624  0.2797  0.0024
 6684SOL    HW131514   3.537   1.340   5.653 -2.0255  0.1188 -2.2456
 6684SOL    HW231515   3.570   1.486   5.616  0.2093  0.1644  0.2112
 6685SOL     OW31516   4.577   1.236  14.417 -0.7870  0.1652 -0.4638
 6685SOL    HW131517   4.661   1.282  14.406 -1.5538  1.1223 -2.4050
 6685SOL    HW231518   4.609   1.150  14.442 -2.4756  0.4128  2.5434
 6686SOL     OW31519   0.719   0.781  13.760  0.1941  0.6045  0.4436
 6686SOL    HW131520   0.808   0.810  13.781  0.5449 -0.1904  0.0424
 6686SOL    HW231521   0.750   0.737  13.681 -1.0994 -0.8866  0.7597
 6687SOL     OW31522   1.988   4.249   0.139  0.0214  0.0349 -0.0790
 6687SOL    HW131523   1.911   4.247   0.196  0.4278  0.1687  0.4724
 6687SOL    HW231524   1.954   4.304   0.069 -0.3680 -3.5213 -2.6998
 6688SOL     OW31525   2.661   2.185   1.910  0.4507  0.2850 -0.1823
 6688SOL    HW131526   2.670   2.239   1.988 -0.7237  0.1875  0.0236
 6688SOL    HW231527   2.570   2.155   1.910  0.1069  1.3235  3.3050
 6689SOL     OW31528   2.031   1.742   2.443 -0.6228 -0.1229 -0.0824
 6689SOL    HW131529   2.066   1.698   2.520  2.5584  0.3515 -1.2511
 6689SOL    HW231530   1.940   1.711   2.434 -0.4200 -1.7289  3.6137
 6690SOL     OW31531   4.621   2.378   8.353 -0.4911  0.2527  0.2893
 6690SOL    HW131532   4.530   2.348   8.352 -1.0349  1.9199  0.3480
 6690SOL    HW231533   4.615   2.441   8.281  2.2297  2.5042  2.0315
 6691SOL     OW31534   1.955   2.609  12.864 -0.3525 -0.5562 -0.3658
 6691SOL    HW131535   2.043   2.641  12.841  0.6994 -2.5494  0.8495
 6691SOL    HW231536   1.969   2.519  12.834 -1.8793 -0.6549 -0.7466
 6692SOL     OW31537   0.847   3.965   1.716 -0.2258  0.4717  0.4617
 6692SOL    HW131538   0.881   3.949   1.804 -0.2676 -0.8085  0.2415
 6692SOL    HW231539   0.925   4.009   1.682 -1.3983  0.6368 -2.0153
 6693SOL     OW31540   2.569   1.883   3.494  0.2371 -0.1551  0.1880
 6693SOL    HW131541   2.524   1.967   3.487 -0.1387 -0.3798 -0.0712
 6693SOL    HW231542   2.547   1.850   3.407  0.9292  0.1087 -0.0885
 6694SOL     OW31543   0.577   0.980  13.932 -0.6618 -0.4557  0.1931
 6694SOL    HW131544   0.536   0.913  13.987 -0.4543  0.8349  1.8933
 6694SOL    HW231545   0.621   0.919  13.872 -1.9981  0.3606 -1.5997
 6695SOL     OW31546   4.365   2.314   8.326  0.9851 -0.5204  0.2272
 6695SOL    HW131547   4.365   2.246   8.393  0.5924 -2.0587 -1.3309
 6695SOL    HW231548   4.307   2.278   8.258 -0.7447  1.1987  0.7965
 6696SOL     OW31549   2.716   2.074   3.755  0.3284 -0.2433  0.0363
 6696SOL    HW131550   2.726   1.993   3.704  1.2793  0.1194 -0.3622
 6696SOL    HW231551   2.653   2.125   3.703 -0.3635 -1.0243  0.1095
 6697SOL     OW31552   0.711   2.959   5.792  0.1582 -0.0783  0.3768
 6697SOL    HW131553   0.659   3.026   5.837 -0.9382 -0.5418 -0.2087
 6697SOL    HW231554   0.675   2.951   5.704  0.0107 -0.2450  0.4524
 6698SOL     OW31555   2.587   2.556   1.962  0.0556  0.1127  0.1086
 6698SOL    HW131556   2.647   2.630   1.974 -2.4237  2.2123 -0.4564
 6698SOL    HW231557   2.642   2.479   1.976  0.5074  0.3486 -0.3485
 6699SOL     OW31558   0.856   2.715   2.659 -0.0878  0.1906  0.0763
 6699SOL    HW131559   0.858   2.799   2.612 -2.5449  0.5680  0.6263
 6699SOL    HW231560   0.762   2.706   2.674  0.1352 -1.1895  0.6208
 6700SOL     OW31561   3.931   2.639   4.024 -0.3658 -0.0470  0.2277
 6700SOL    HW131562   3.856   2.634   3.965 -0.2903 -1.7518  0.2711
 6700SOL    HW231563   3.982   2.564   3.992  0.6920  1.0218 -0.6149
 6701SOL     OW31564   3.324   2.336   9.854  0.2927 -0.2247 -0.0830
 6701SOL    HW131565   3.383   2.335   9.778  0.0412 -5.1370 -0.1921
 6701SOL    HW231566   3.259   2.403   9.834 -1.3381 -1.9146 -0.4603
 6702SOL     OW31567   3.342   1.706   3.193  0.1417 -0.1208 -0.5317
 6702SOL    HW131568   3.311   1.779   3.247 -0.5435 -0.3034 -0.6792
 6702SOL    HW231569   3.423   1.748   3.163  2.2347 -2.0703  2.4278
 6703SOL     OW31570   0.234   1.041  14.305 -0.1877 -1.2611  0.3367
 6703SOL    HW131571   0.155   1.054  14.357  0.2808  1.2300  0.4009
 6703SOL    HW231572   0.273   1.128  14.310  1.4880 -1.9943  0.1917
 6704SOL     OW31573   0.653   3.003  11.256  0.2142  0.2463 -0.1654
 6704SOL    HW131574   0.653   3.066  11.328 -2.6316 -0.3953  0.3890
 6704SOL    HW231575   0.577   2.951  11.280  0.4644 -0.1384 -0.2106
 6705SOL     OW31576   4.139   2.855  13.890  0.0579 -0.3463  0.4768
 6705SOL    HW131577   4.211   2.895  13.840  0.3660 -0.8647  0.5074
 6705SOL    HW231578   4.130   2.932  13.947 -0.0526 -1.8127  2.4477
 6706SOL     OW31579   0.931   0.022   3.806  0.4485  0.2077  0.6604
 6706SOL    HW131580   1.027   0.019   3.801  0.3340 -1.8862 -0.4352
 6706SOL    HW231581   0.932   0.053   3.896  0.2587  0.7031  0.4939
 6707SOL     OW31582   1.193   0.691   5.576  0.4126  0.2584 -0.6744
 6707SOL    HW131583   1.139   0.741   5.636  0.1499  2.2938 -2.5991
 6707SOL    HW231584   1.215   0.616   5.632  2.8260  0.9981 -0.6447
 6708SOL     OW31585   3.997   2.044   7.463 -0.5417  0.1602 -0.1673
 6708SOL    HW131586   4.038   1.962   7.436  1.8188  1.1642  0.4431
 6708SOL    HW231587   3.959   2.013   7.545 -1.5623 -0.8273 -1.0115
 6709SOL     OW31588   4.300   1.204   4.285  0.4925 -0.6791 -0.4393
 6709SOL    HW131589   4.337   1.275   4.337 -0.4278 -0.6799  0.2201
 6709SOL    HW231590   4.288   1.240   4.198  0.0391  2.0403  0.7552
 6710SOL     OW31591   3.013   3.445   0.857  0.1205  0.3974 -0.3583
 6710SOL    HW131592   3.096   3.469   0.899 -0.1625 -0.1837  0.5332
 6710SOL    HW231593   2.953   3.436   0.931  0.9459 -0.9302  0.1494
 6711SOL     OW31594   3.337   0.462   8.470  0.2711 -0.2604 -0.2292
 6711SOL    HW131595   3.428   0.449   8.443 -0.7198 -1.7096 -2.8428
 6711SOL    HW231596   3.348   0.526   8.541  0.2911 -1.7802  1.1415
 6712SOL     OW31597   2.065   1.903   8.774  0.8518 -0.4049  0.1245
 6712SOL    HW131598   2.041   1.848   8.699  1.1795  1.9689 -1.7213
 6712SOL    HW231599   1.985   1.887   8.823 -0.0481  0.1873 -1.1729
 6713SOL     OW31600   3.607   0.903  17.509  0.1572 -0.6601 -0.1825
 6713SOL    HW131601   3.526   0.891  17.459  0.5803  1.0638 -1.2910
 6713SOL    HW231602   3.682   0.874  17.458  0.9475  4.5776 -2.0255
 6714SOL     OW31603   4.552   0.434   8.614  0.1072  0.0905 -0.3482
 6714SOL    HW131604   4.563   0.345   8.583 -0.0244 -0.0953  0.1442
 6714SOL    HW231605   4.477   0.425   8.672  0.9936  0.6554  0.8953
 6715SOL     OW31606   3.501   0.005   1.291  0.4110 -0.2347  0.3937
 6715SOL    HW131607   3.545   4.662   1.343  1.8100 -1.0653 -1.9067
 6715SOL    HW231608   3.455   0.051   1.362 -0.4265  0.5163 -0.6432
 6716SOL     OW31609   0.656   2.082   9.712 -0.5316  0.3214  0.1354
 6716SOL    HW131610   0.561   2.072   9.704 -0.2755 -1.2930 -0.8222
 6716SOL    HW231611   0.648   2.174   9.738  0.8482  0.4802 -0.0362
 6717SOL     OW31612   2.749   4.631  14.932 -0.0267  0.1894  0.0532
 6717SOL    HW131613   2.787   4.718  14.932  1.1797 -0.3425 -0.4576
 6717SOL    HW231614   2.663   4.650  14.970  0.4331 -0.8963  1.6554
 6718SOL     OW31615   1.043   3.041   7.551 -0.2883 -0.5578  0.2038
 6718SOL    HW131616   0.950   3.048   7.530  0.3744  0.0538 -2.4775
 6718SOL    HW231617   1.042   2.947   7.569 -1.2873 -0.6909 -0.5642
 6719SOL     OW31618   1.289   3.588   6.146  0.1000  0.2976 -0.1889
 6719SOL    HW131619   1.296   3.642   6.225  0.3631 -1.3919  0.9316
 6719SOL    HW231620   1.324   3.506   6.182  0.9510 -0.3440 -2.4733
 6720SOL     OW31621   2.552   1.769  10.818  0.0791 -0.3248  0.3704
 6720SOL    HW131622   2.647   1.766  10.824  0.0101 -0.7792  1.3660
 6720SOL    HW231623   2.533   1.847  10.767  0.5867  0.5862  1.6010
 6721SOL     OW31624   4.333   2.192  13.800 -0.4710 -0.1765  0.1504
 6721SOL    HW131625   4.335   2.098  13.819 -1.0662 -0.2590 -0.1885
 6721SOL    HW231626   4.407   2.208  13.742 -1.6688 -0.3075 -1.4350
 6722SOL     OW31627   3.230   2.604  14.879  0.3257  0.3483 -0.0578
 6722SOL    HW131628   3.219   2.687  14.834  0.8079 -1.6161 -3.7726
 6722SOL    HW231629   3.290   2.560  14.819  1.0515  2.6477 -1.0165
 6723SOL     OW31630   1.978   0.730   2.467  0.8375  0.1931  0.3175
 6723SOL    HW131631   2.007   0.645   2.432  1.3216  1.0961 -1.4303
 6723SOL    HW231632   1.903   0.747   2.411 -0.2121 -1.7373  1.1227
 6724SOL     OW31633   1.806   0.825   2.261  0.3927  0.3427 -0.0761
 6724SOL    HW131634   1.771   0.914   2.261  2.2809  1.0823 -0.8606
 6724SOL    HW231635   1.720   0.782   2.256  1.2110 -1.3703  0.6728
 6725SOL     OW31636   4.036   1.049  14.648  0.5568 -0.4023 -0.0146
 6725SOL    HW131637   4.021   1.093  14.565 -2.1924 -0.2204  0.5962
 6725SOL    HW231638   4.100   0.982  14.625 -0.1369 -1.3079  0.7534
 6726SOL     OW31639   1.779   2.740   5.893  0.8283 -0.3907 -0.1439
 6726SOL    HW131640   1.698   2.780   5.862  2.3650  1.9907 -1.0568
 6726SOL    HW231641   1.779   2.669   5.829 -0.3546 -0.4577 -0.0732
 6727SOL     OW31642   1.808   3.763   0.199 -0.3930 -0.3081  0.6663
 6727SOL    HW131643   1.770   3.759   0.287 -0.3252 -0.8217  0.6714
 6727SOL    HW231644   1.790   3.854   0.173 -1.4239  0.2647  3.3599
 6728SOL     OW31645   2.018   3.692  16.448 -0.2309 -0.0950  0.4170
 6728SOL    HW131646   2.098   3.644  16.429 -3.0379 -4.3136 -0.9091
 6728SOL    HW231647   1.996   3.733  16.365 -0.1295 -0.4496  0.2136
 6729SOL     OW31648   3.825   1.252  12.876 -0.4727 -0.2942  0.0545
 6729SOL    HW131649   3.744   1.205  12.896  0.5873 -2.1126  0.1010
 6729SOL    HW231650   3.881   1.217  12.945 -0.0730 -1.4436 -0.8362
 6730SOL     OW31651   4.568   2.685   8.762  0.4070  0.0109 -0.2776
 6730SOL    HW131652   4.577   2.651   8.673  1.7908 -1.1611  0.3101
 6730SOL    HW231653   4.525   2.604   8.793 -0.9284  0.2567 -1.4889
 6731SOL     OW31654   2.994   4.333   4.702 -0.1484  0.4448  0.1373
 6731SOL    HW131655   2.996   4.237   4.708  2.2553  0.6217  2.0331
 6731SOL    HW231656   3.080   4.353   4.736  0.0317 -1.0757  0.5758
 6732SOL     OW31657   2.969   3.898   6.444 -0.5552  0.1192  0.2549
 6732SOL    HW131658   2.951   3.884   6.351 -2.8220  3.8006  0.1630
 6732SOL    HW231659   2.908   3.966   6.472 -0.2631  0.7788 -0.7431
 6733SOL     OW31660   4.504   2.627   3.600 -0.0540 -0.1371  0.9904
 6733SOL    HW131661   4.597   2.605   3.606 -0.0764 -0.6363 -0.3300
 6733SOL    HW231662   4.512   2.701   3.540 -0.5138 -1.1187 -0.2858
 6734SOL     OW31663   3.789   3.729   7.693 -0.0278 -0.2241 -0.2550
 6734SOL    HW131664   3.786   3.738   7.788 -1.1076  0.0331 -0.3138
 6734SOL    HW231665   3.816   3.637   7.690  3.4217  0.7767 -0.3361
 6735SOL     OW31666   4.408   0.254   4.715 -0.8118 -0.3541  0.1110
 6735SOL    HW131667   4.488   0.203   4.704 -1.4295 -1.1745 -0.5297
 6735SOL    HW231668   4.450   0.339   4.728  2.4353 -1.8779 -0.4742
 6736SOL     OW31669   1.422   1.523   1.956  0.2351  0.0554 -0.3146
 6736SOL    HW131670   1.507   1.479   1.946  0.9156  1.7211 -1.9870
 6736SOL    HW231671   1.396   1.511   1.865 -0.7891 -1.3424  0.1591
 6737SOL     OW31672   3.104   1.694   3.859  0.2340  0.6663 -0.4470
 6737SOL    HW131673   3.191   1.732   3.875  0.8766 -1.3547  0.8942
 6737SOL    HW231674   3.100   1.721   3.767  0.0039 -0.4869 -0.7674
 6738SOL     OW31675   0.182   3.635  14.063 -0.2269 -0.2777 -0.3223
 6738SOL    HW131676   0.164   3.542  14.055  1.0447 -0.5138 -0.4958
 6738SOL    HW231677   0.161   3.651  14.155 -0.6077  0.1672 -0.4895
 6739SOL     OW31678   0.435   3.082  15.513  0.7298 -0.2777 -0.0911
 6739SOL    HW131679   0.419   3.172  15.543  1.3331 -0.0975 -0.3190
 6739SOL    HW231680   0.528   3.073  15.532  0.7741  1.8476  0.6384
 6740SOL     OW31681   3.293   4.392   0.922 -0.6534 -0.0643 -0.4318
 6740SOL    HW131682   3.340   4.469   0.953  0.5692 -0.8831 -0.2506
 6740SOL    HW231683   3.203   4.419   0.938 -0.2476  1.7320 -1.2788
 6741SOL     OW31684   2.482   1.976   7.402  0.1841  0.3656 -0.0871
 6741SOL    HW131685   2.388   1.962   7.392 -0.0673  1.8902  0.1237
 6741SOL    HW231686   2.495   2.061   7.359  0.3419  0.8654  0.9527
 6742SOL     OW31687   0.108   1.577   1.689  0.1514 -0.2730  0.9814
 6742SOL    HW131688   0.116   1.519   1.614  0.5293  0.2323  0.6324
 6742SOL    HW231689   0.161   1.542   1.761 -0.9856 -0.2355  1.8350
 6743SOL     OW31690   4.513   3.948   6.782 -0.8055 -0.8157 -0.6666
 6743SOL    HW131691   4.496   4.033   6.741 -0.0025 -0.3652 -0.0644
 6743SOL    HW231692   4.517   3.887   6.709  2.4582  1.1192 -2.1391
 6744SOL     OW31693   2.288   3.095   3.564 -0.0892 -0.0621  0.0815
 6744SOL    HW131694   2.340   3.161   3.518 -3.7194  1.9592 -1.1021
 6744SOL    HW231695   2.199   3.108   3.532  0.4252 -0.3324 -1.4391
 6745SOL     OW31696   3.368   2.020  12.250 -0.1533  0.0131 -0.0356
 6745SOL    HW131697   3.458   2.019  12.280 -0.4412 -0.2943  0.8356
 6745SOL    HW231698   3.381   2.052  12.161 -2.4997 -2.4758 -1.2816
 6746SOL     OW31699   2.735   0.254   1.059  0.3242  0.8513  0.0833
 6746SOL    HW131700   2.719   0.228   0.968 -0.5635  0.4242  0.3575
 6746SOL    HW231701   2.808   0.312   1.039 -0.0028  0.9766 -0.7739
 6747SOL     OW31702   1.453   2.987   4.905  0.0964 -0.0535  0.0313
 6747SOL    HW131703   1.395   2.914   4.882 -0.0091 -0.2355  0.8913
 6747SOL    HW231704   1.394   3.032   4.964  0.0178  0.0722 -0.1455
 6748SOL     OW31705   2.811   0.263   8.896  0.4355 -0.3189 -0.3762
 6748SOL    HW131706   2.777   0.340   8.850  1.0098  0.8477  1.1521
 6748SOL    HW231707   2.737   0.236   8.952 -0.4940 -1.3002 -2.0829
 6749SOL     OW31708   2.454   4.298   0.774 -0.6177 -0.0930 -0.2904
 6749SOL    HW131709   2.363   4.271   0.768 -1.1919  1.5943  0.8991
 6749SOL    HW231710   2.498   4.214   0.762 -1.1688 -0.3507 -0.5358
 6750SOL     OW31711   3.814   3.534  17.294 -0.2616 -0.3549  0.1865
 6750SOL    HW131712   3.849   3.500  17.211  0.6344 -0.7683  0.7326
 6750SOL    HW231713   3.794   3.627  17.282 -0.2431 -0.2697  0.8051
 6751SOL     OW31714   1.787   1.187   5.879 -0.3207 -0.4752  0.0317
 6751SOL    HW131715   1.692   1.176   5.880 -0.4446  0.7763  1.5990
 6751SOL    HW231716   1.809   1.118   5.815 -0.3966 -0.7693  0.3226
 6752SOL     OW31717   1.904   1.377   0.340 -0.4344 -0.4468 -0.1265
 6752SOL    HW131718   1.843   1.311   0.373  2.7188 -2.0795  2.4559
 6752SOL    HW231719   1.929   1.346   0.253  2.1970 -0.6698  0.6776
 6753SOL     OW31720   2.559   3.120   7.488 -0.1154 -0.6492 -0.2279
 6753SOL    HW131721   2.650   3.118   7.459  0.1343  0.5504  0.4745
 6753SOL    HW231722   2.529   3.205   7.455  2.0171 -0.1751 -0.9558
 6754SOL     OW31723   4.636   1.121   4.733  0.2130 -0.0372  0.1668
 6754SOL    HW131724   4.720   1.132   4.777  0.1891 -0.4841  0.3270
 6754SOL    HW231725   4.644   1.178   4.656 -0.8939  0.2217  0.2385
 6755SOL     OW31726   3.526   2.865   7.417  0.4234 -0.5552  0.3491
 6755SOL    HW131727   3.526   2.834   7.326 -1.9478  1.6723 -0.3822
 6755SOL    HW231728   3.441   2.829   7.442 -0.5922  0.4756 -1.5852
 6756SOL     OW31729   1.009   2.244   1.607  0.2776 -0.4889  0.2652
 6756SOL    HW131730   0.984   2.239   1.514  2.5668 -0.0639 -0.3662
 6756SOL    HW231731   0.944   2.180   1.636 -1.3056  0.8429 -0.3048
 6757SOL     OW31732   4.243   2.210   8.097  0.1212 -0.3457 -0.3917
 6757SOL    HW131733   4.286   2.126   8.084  1.1911  0.4997 -2.3089
 6757SOL    HW231734   4.226   2.241   8.008 -0.6804 -1.0870 -0.4920
 6758SOL     OW31735   2.105   1.031   7.812  0.4730  0.4151 -0.2353
 6758SOL    HW131736   2.199   1.046   7.813  0.8363 -1.8288  0.1246
 6758SOL    HW231737   2.104   0.953   7.757 -0.3825  0.7181 -0.6523
 6759SOL     OW31738   4.484   0.626  16.647 -0.3262 -0.4023  0.3633
 6759SOL    HW131739   4.475   0.532  16.634  1.0320 -0.3327 -0.9665
 6759SOL    HW231740   4.576   0.634  16.623 -0.6970  0.7973 -0.7061
 6760SOL     OW31741   1.498   2.568   2.298  0.4441  0.3555  0.3103
 6760SOL    HW131742   1.427   2.618   2.259  1.8777  1.6349 -0.6740
 6760SOL    HW231743   1.560   2.571   2.225  0.6561 -0.4130  0.4614
 6761SOL     OW31744   0.565   4.431   5.930  0.1514  0.2593  0.0060
 6761SOL    HW131745   0.533   4.352   5.973  0.2913 -0.0024 -0.3742
 6761SOL    HW231746   0.574   4.394   5.842  3.0712  0.1253  0.3502
 6762SOL     OW31747   3.976   3.028   9.076 -0.0981  0.2556 -0.0290
 6762SOL    HW131748   3.954   3.052   8.986  0.8294 -0.0055 -0.3276
 6762SOL    HW231749   4.001   2.939   9.051  0.2494 -0.0089  1.3012
 6763SOL     OW31750   4.064   0.945  17.369 -0.2752  0.2129  0.8077
 6763SOL    HW131751   3.984   0.998  17.356 -0.2206 -0.4270 -2.3061
 6763SOL    HW231752   4.045   0.857  17.337 -0.7506  1.3693 -2.1399
 6764SOL     OW31753   0.917   2.652   8.500 -0.1562 -0.4621 -0.5012
 6764SOL    HW131754   0.902   2.677   8.591  1.4074  0.7614 -0.5659
 6764SOL    HW231755   1.006   2.686   8.494 -1.2456  2.0876 -2.1300
 6765SOL     OW31756   2.144   4.510   2.005 -0.1624  0.4419 -0.2049
 6765SOL    HW131757   2.189   4.490   1.923 -0.5654 -1.3605 -0.0020
 6765SOL    HW231758   2.191   4.459   2.071  0.5027  0.6121 -0.5424
 6766SOL     OW31759   3.414   0.229   5.831 -0.0817  0.1110  0.1009
 6766SOL    HW131760   3.391   0.287   5.904 -4.0593 -0.0117 -1.0140
 6766SOL    HW231761   3.415   0.148   5.881  0.1526  0.5702  0.8359
 6767SOL     OW31762   4.254   1.199   6.143 -0.4115 -0.0642 -0.5226
 6767SOL    HW131763   4.182   1.261   6.153 -0.5135 -0.5661  1.7807
 6767SOL    HW231764   4.223   1.132   6.082 -1.7598  0.7774 -0.7653
 6768SOL     OW31765   3.132   4.109   5.066 -0.2512  0.3562 -0.0298
 6768SOL    HW131766   3.184   4.148   4.996  2.1034  1.2098  2.2213
 6768SOL    HW231767   3.070   4.179   5.087 -2.9088 -2.1952  0.7122
 6769SOL     OW31768   1.846   2.115  15.144  0.2026  0.1555  0.1087
 6769SOL    HW131769   1.895   2.033  15.136  2.2184  1.4275 -0.6310
 6769SOL    HW231770   1.919   2.165  15.180 -0.1220  0.1061  0.8217
 6770SOL     OW31771   4.414   1.446   2.763 -0.5551 -0.5284 -0.3587
 6770SOL    HW131772   4.421   1.372   2.703  1.1960 -0.0865 -0.6849
 6770SOL    HW231773   4.395   1.510   2.695 -1.4938 -0.1271  0.2786
 6771SOL     OW31774   1.313   1.343   9.833  0.1415 -0.5149 -0.0580
 6771SOL    HW131775   1.256   1.410   9.868 -1.8946 -2.0915 -0.3733
 6771SOL    HW231776   1.285   1.329   9.742  0.1054  1.5337 -0.3607
 6772SOL     OW31777   1.056   2.649   1.807 -0.1542  0.0134 -0.4795
 6772SOL    HW131778   1.148   2.641   1.832 -0.2996  1.8266  0.6532
 6772SOL    HW231779   1.054   2.720   1.743 -2.4488 -0.2971 -0.7671
 6773SOL     OW31780   3.546   0.460  14.709 -0.3639 -0.3178  0.1760
 6773SOL    HW131781   3.524   0.385  14.654  0.1906  0.0595 -0.5552
 6773SOL    HW231782   3.600   0.518  14.656 -0.5969 -0.9412 -0.7444
 6774SOL     OW31783   2.817   2.986   2.535  0.7589 -0.3329  0.5106
 6774SOL    HW131784   2.803   3.069   2.580 -3.6261 -0.2042 -1.1015
 6774SOL    HW231785   2.802   3.016   2.446  0.2946 -1.3839  0.2306
 6775SOL     OW31786   3.769   3.962  17.042  0.3403 -0.2127  0.2378
 6775SOL    HW131787   3.733   3.984  17.128 -0.4746  0.8357 -0.3669
 6775SOL    HW231788   3.730   4.030  16.987  2.6881  0.6515 -0.3139
 6776SOL     OW31789   2.548   0.181   0.199 -0.2249  0.0785  0.1063
 6776SOL    HW131790   2.544   0.191   0.103 -0.6105 -0.5480  0.0592
 6776SOL    HW231791   2.504   0.257   0.237 -0.3390 -0.1674  0.4546
 6777SOL     OW31792   3.831   1.145   3.934  0.1809  0.3842  0.4920
 6777SOL    HW131793   3.758   1.107   3.983  0.8578  1.4883  2.4010
 6777SOL    HW231794   3.825   1.104   3.848  2.9993  0.6539  0.1884
 6778SOL     OW31795   3.101   0.274   8.434 -0.1536  0.3197 -0.4085
 6778SOL    HW131796   3.174   0.336   8.436 -0.8226  1.0901 -0.4039
 6778SOL    HW231797   3.110   0.242   8.524  1.9409  0.7610 -0.4567
 6779SOL     OW31798   0.511   0.651   9.424 -0.6790  0.4328 -0.3640
 6779SOL    HW131799   0.598   0.687   9.409 -0.2148 -0.7714 -0.5751
 6779SOL    HW231800   0.460   0.722   9.386  0.2708  0.8882 -0.7742
 6780SOL     OW31801   1.679   2.561   5.700  0.1165 -0.1954 -0.0875
 6780SOL    HW131802   1.741   2.490   5.686 -0.8069 -0.9667 -0.2312
 6780SOL    HW231803   1.632   2.538   5.780 -2.2638  3.4595 -0.4343
 6781SOL     OW31804   2.349   2.252   5.382 -0.0080  0.9068 -0.2976
 6781SOL    HW131805   2.389   2.232   5.467 -0.3786 -0.0587 -0.3439
 6781SOL    HW231806   2.411   2.232   5.312  1.0120 -0.3230  0.9694
 6782SOL     OW31807   1.335   4.638  15.853 -0.0617  0.5664  0.1950
 6782SOL    HW131808   1.338   0.007  15.836  1.9085  0.5595  0.5461
 6782SOL    HW231809   1.403   4.610  15.792 -0.3830 -0.5105  0.3246
 6783SOL     OW31810   0.856   3.497   6.143 -0.1830 -0.3630  0.0240
 6783SOL    HW131811   0.767   3.476   6.116 -0.0690 -0.8499  0.0177
 6783SOL    HW231812   0.862   3.478   6.237  1.2507  0.7829  0.1658
 6784SOL     OW31813   4.485   4.129   8.176  0.7044  0.0586  1.2558
 6784SOL    HW131814   4.532   4.070   8.235 -0.0220 -3.5514 -1.7426
 6784SOL    HW231815   4.394   4.115   8.201  1.3167 -3.7867  1.3939
 6785SOL     OW31816   2.598   3.740   8.233 -0.3876  0.1865  0.3852
 6785SOL    HW131817   2.609   3.835   8.224 -0.2524  0.2015  0.7297
 6785SOL    HW231818   2.688   3.714   8.251 -0.9644 -2.3587 -0.4101
 6786SOL     OW31819   3.854   0.880   4.884  0.5287  0.1110  0.0630
 6786SOL    HW131820   3.890   0.791   4.886 -0.9540 -0.5137 -0.7597
 6786SOL    HW231821   3.920   0.921   4.940  0.2253 -0.3242  0.7373
 6787SOL     OW31822   2.186   0.595  16.227 -0.1534  0.0212  0.0823
 6787SOL    HW131823   2.255   0.624  16.168 -0.4097 -3.4085 -1.9349
 6787SOL    HW231824   2.222   0.639  16.304  0.8988  0.2980 -0.5668
 6788SOL     OW31825   1.744   2.501   5.427 -0.1504  0.4025 -0.3080
 6788SOL    HW131826   1.689   2.531   5.355 -2.1611  1.6396  1.7268
 6788SOL    HW231827   1.721   2.568   5.492  1.0002  0.2217  0.2830
 6789SOL     OW31828   0.909   3.521   8.624 -0.2448  0.5178 -0.1731
 6789SOL    HW131829   0.823   3.531   8.664 -0.4205  0.4470 -0.5363
 6789SOL    HW231830   0.962   3.567   8.690  0.2508  1.2058 -1.0379
 6790SOL     OW31831   1.843   4.336   8.797 -0.2382  0.1044  0.5138
 6790SOL    HW131832   1.786   4.318   8.723  0.5569  0.0448 -0.0873
 6790SOL    HW231833   1.828   4.429   8.812 -0.4816 -0.0098  0.9855
 6791SOL     OW31834   0.995   2.587   7.359  0.1462  0.5447 -0.6682
 6791SOL    HW131835   0.941   2.603   7.282 -0.8567 -2.9650 -0.6559
 6791SOL    HW231836   0.921   2.567   7.417 -0.3618  3.5695 -0.2625
 6792SOL     OW31837   2.027   0.004   5.655  0.3090 -0.3366  0.1105
 6792SOL    HW131838   1.964   0.076   5.653  2.4234  1.5614  1.2630
 6792SOL    HW231839   2.067   0.017   5.569  0.5805  0.8071  0.4057
 6793SOL     OW31840   0.140   2.606   4.059 -0.0472 -0.1905 -0.3856
 6793SOL    HW131841   0.085   2.665   4.008 -0.0616 -0.2057 -0.3878
 6793SOL    HW231842   0.104   2.520   4.035 -1.0396  0.1047  0.0308
 6794SOL     OW31843   1.339   2.678   5.949 -0.0339 -0.6681  0.3644
 6794SOL    HW131844   1.244   2.667   5.952 -0.6144  3.9197 -1.2432
 6794SOL    HW231845   1.345   2.691   5.854  0.3554  0.5196  0.5486
 6795SOL     OW31846   2.075   1.416   6.804 -1.1339 -0.1269 -0.1709
 6795SOL    HW131847   2.090   1.473   6.879  0.7416 -0.1588 -0.5328
 6795SOL    HW231848   2.151   1.448   6.756 -0.0654  0.9444  2.2161
 6796SOL     OW31849   1.719   1.666   5.845 -0.2705  0.1569 -0.0294
 6796SOL    HW131850   1.753   1.607   5.911  1.3438  0.9020 -0.2064
 6796SOL    HW231851   1.754   1.748   5.881 -0.4383  0.3010 -0.1892
 6797SOL     OW31852   4.627   3.110  11.933 -0.3712 -0.4683  0.2385
 6797SOL    HW131853   4.572   3.076  11.862 -0.8132 -0.4926  0.5895
 6797SOL    HW231854   4.716   3.091  11.904 -0.2149 -0.2895  0.5950
 6798SOL     OW31855   3.570   3.663  15.919  0.3071  0.1989  0.3973
 6798SOL    HW131856   3.524   3.619  15.846  0.8711 -0.6329  0.5424
 6798SOL    HW231857   3.659   3.634  15.901  0.1509  1.4857 -2.5839
 6799SOL     OW31858   0.252   0.485   4.748 -0.2361 -0.1199 -0.2214
 6799SOL    HW131859   0.324   0.451   4.695  1.6423  0.5487  1.9004
 6799SOL    HW231860   0.283   0.572   4.772  1.6949 -0.6379 -0.8110
 6800SOL     OW31861   2.441   2.393   8.501 -0.2963 -0.6462 -0.2932
 6800SOL    HW131862   2.399   2.310   8.524 -2.2151  0.3116 -0.3213
 6800SOL    HW231863   2.367   2.453   8.509  1.6469  1.4425  1.7725
 6801SOL     OW31864   3.563   4.548  11.818 -0.3099 -0.0797  0.0897
 6801SOL    HW131865   3.621   4.472  11.809 -1.3389 -0.6698 -1.4882
 6801SOL    HW231866   3.526   4.552  11.730  0.8721 -0.5574 -0.4289
 6802SOL     OW31867   1.432   4.253   2.594  0.2820  0.2001  0.2069
 6802SOL    HW131868   1.418   4.348   2.594 -1.8877 -0.1259  0.0854
 6802SOL    HW231869   1.341   4.224   2.591  0.7635 -1.4354  1.5318
 6803SOL     OW31870   0.385   0.478   3.021 -0.3278  0.4247 -0.2448
 6803SOL    HW131871   0.298   0.464   2.984 -0.5328  2.0550 -0.3644
 6803SOL    HW231872   0.429   0.521   2.948  0.4556  0.2118  0.1103
 6804SOL     OW31873   4.175   3.349   5.589 -0.0260 -0.2099  0.2916
 6804SOL    HW131874   4.220   3.283   5.537  3.0074  0.5670  1.9106
 6804SOL    HW231875   4.148   3.292   5.661 -2.6283 -1.1826 -1.4633
 6805SOL     OW31876   0.895   1.865   2.059  0.0250  0.3478  0.0277
 6805SOL    HW131877   0.961   1.905   2.116  0.5815  0.5445 -0.7565
 6805SOL    HW231878   0.846   1.942   2.030  1.6306  1.3513  0.0079
 6806SOL     OW31879   2.419   3.291   3.413  0.0490 -0.2973  0.1425
 6806SOL    HW131880   2.358   3.265   3.343 -1.2760  0.1710  1.1257
 6806SOL    HW231881   2.472   3.362   3.376  0.5472 -0.4250  0.6067
 6807SOL     OW31882   0.296   2.528  10.039 -0.4073  0.0416 -0.7233
 6807SOL    HW131883   0.359   2.504   9.972  0.3251  2.7899 -1.0388
 6807SOL    HW231884   0.313   2.461  10.104  0.5849  1.4856  0.5010
 6808SOL     OW31885   3.314   0.769   9.830  0.0770 -0.2949  0.3676
 6808SOL    HW131886   3.233   0.820   9.827  0.0410 -0.2795  1.7526
 6808SOL    HW231887   3.387   0.832   9.826  1.6511 -2.0396  1.5397
 6809SOL     OW31888   4.652   3.493  10.767 -0.0202  0.4424  0.2212
 6809SOL    HW131889   4.659   3.412  10.717 -0.1648 -0.0002  0.9117
 6809SOL    HW231890   0.011   3.500  10.813  0.0469  1.9951 -0.1241
 6810SOL     OW31891   3.681   2.217   7.627  0.0534  0.0540 -0.1927
 6810SOL    HW131892   3.618   2.148   7.650  1.8987 -2.0366 -1.4359
 6810SOL    HW231893   3.761   2.200   7.676 -2.8701 -1.1526  4.1931
 6811SOL     OW31894   1.017   0.712   9.454  0.2565  0.6551 -0.3353
 6811SOL    HW131895   1.070   0.653   9.402  2.5241  2.7240 -0.3430
 6811SOL    HW231896   1.085   0.776   9.476 -1.5469  2.1284  1.0262
 6812SOL     OW31897   0.644   4.461   3.308  0.4153 -0.3080  0.4101
 6812SOL    HW131898   0.633   4.389   3.247 -2.5303  1.1861 -0.7982
 6812SOL    HW231899   0.594   4.531   3.267 -1.6420 -2.1666 -0.2767
 6813SOL     OW31900   4.205   1.447  11.678  0.4078 -0.6385 -0.2823
 6813SOL    HW131901   4.220   1.412  11.590 -0.7059  0.3928 -0.8821
 6813SOL    HW231902   4.124   1.497  11.667  0.7082  0.0781  0.7267
 6814SOL     OW31903   0.958   2.831   3.066 -0.1514 -0.0596  0.0389
 6814SOL    HW131904   1.023   2.778   3.019 -0.4669 -0.6555  0.2698
 6814SOL    HW231905   1.000   2.824   3.151  0.8063  2.0204 -0.2874
 6815SOL     OW31906   1.376   4.604   3.813 -0.2602  0.1544 -0.2655
 6815SOL    HW131907   1.301   4.659   3.791 -1.5900 -1.9109 -0.9230
 6815SOL    HW231908   1.335   4.540   3.872  2.3244 -1.1577  0.1117
 6816SOL     OW31909   4.512   4.634  11.322  0.4371 -0.2363 -0.2308
 6816SOL    HW131910   4.596   4.665  11.358 -0.0754  0.3939  0.4270
 6816SOL    HW231911   4.518   4.669  11.233  0.1906  0.5282  0.0553
 6817SOL     OW31912   2.560   3.850  17.327 -0.3468  0.3980 -0.5196
 6817SOL    HW131913   2.529   3.769  17.368 -0.0395 -0.2215 -1.4910
 6817SOL    HW231914   2.526   3.831  17.239 -2.1588 -0.4642  0.3648
 6818SOL     OW31915   1.740   2.864  13.823 -0.3490 -0.3727 -0.2227
 6818SOL    HW131916   1.665   2.812  13.852  0.0064 -1.3942 -1.1371
 6818SOL    HW231917   1.814   2.805  13.840 -0.0912  0.3643  1.2544
 6819SOL     OW31918   2.993   3.525  12.173  0.3796 -0.4631  0.0379
 6819SOL    HW131919   2.960   3.574  12.248 -0.5744 -1.0913  0.0351
 6819SOL    HW231920   2.988   3.582  12.096 -0.1214  0.8912  1.0845
 6820SOL     OW31921   1.982   2.726   2.547  0.0306  0.3111  0.3756
 6820SOL    HW131922   2.061   2.730   2.493 -1.8622  2.6136 -2.2310
 6820SOL    HW231923   1.987   2.804   2.603 -1.8185  0.5809  0.1890
 6821SOL     OW31924   2.438   4.316   5.588  0.2544 -0.2400  0.2710
 6821SOL    HW131925   2.486   4.305   5.670  0.7635  0.0170 -0.0005
 6821SOL    HW231926   2.439   4.224   5.559 -0.6226 -1.1698  3.1540
 6822SOL     OW31927   0.699   1.740   4.565  0.4326  0.2919  0.2959
 6822SOL    HW131928   0.625   1.707   4.514  1.1440 -0.4557 -0.2445
 6822SOL    HW231929   0.677   1.702   4.650  1.3835 -0.3187  0.2693
 6823SOL     OW31930   2.232   1.452  15.809  0.1610  0.5450  0.0819
 6823SOL    HW131931   2.295   1.406  15.864 -2.4147 -2.5804  0.3388
 6823SOL    HW231932   2.165   1.384  15.811  0.0886  0.6807  2.4517
 6824SOL     OW31933   2.922   3.868   4.785  0.7037 -0.1143 -0.4129
 6824SOL    HW131934   2.975   3.945   4.768 -0.1539  0.3827 -0.8338
 6824SOL    HW231935   2.840   3.903   4.820  0.2990 -2.1317  0.6784
 6825SOL     OW31936   1.112   2.359   0.507 -0.4471  0.4051  0.3076
 6825SOL    HW131937   1.137   2.392   0.593 -1.7056  0.8476  0.4971
 6825SOL    HW231938   1.199   2.324   0.488 -0.9986 -0.7642 -0.0994
 6826SOL     OW31939   2.612   3.906   2.574 -0.5103 -0.3801 -0.2051
 6826SOL    HW131940   2.659   3.973   2.525  0.3626 -0.1273  0.9855
 6826SOL    HW231941   2.682   3.871   2.629 -0.9147  1.8326  1.6890
 6827SOL     OW31942   1.225   1.133   4.964 -0.0282 -0.2623  0.4975
 6827SOL    HW131943   1.206   1.128   4.870 -2.0208  1.7323  0.8017
 6827SOL    HW231944   1.279   1.212   4.969  0.3432 -0.4725 -0.1735
 6828SOL     OW31945   0.022   2.849   7.758 -0.4958 -0.3248  0.3693
 6828SOL    HW131946   0.115   2.868   7.744 -0.3801  1.2919  3.4043
 6828SOL    HW231947   4.712   2.926   7.713  1.3871 -0.3552 -1.1749
 6829SOL     OW31948   3.721   2.072   8.472 -0.4570  0.1131  0.1847
 6829SOL    HW131949   3.654   2.128   8.433 -0.9679  0.0453  0.9741
 6829SOL    HW231950   3.769   2.134   8.527  1.2019 -1.9453  1.0491
 6830SOL     OW31951   1.643   1.667   7.972 -0.7289  0.1258 -0.4012
 6830SOL    HW131952   1.561   1.716   7.966  0.4219  1.9153 -1.3757
 6830SOL    HW231953   1.605   1.580   7.985  0.5183 -0.3034  0.3366
 6831SOL     OW31954   3.635   3.305   6.337  0.2503  0.1832  0.4377
 6831SOL    HW131955   3.606   3.393   6.362 -0.0241  0.3327 -0.3739
 6831SOL    HW231956   3.675   3.277   6.419  0.4181  2.5038  1.1651
 6832SOL     OW31957   1.785   0.561   4.077 -0.0824 -0.1118  0.1374
 6832SOL    HW131958   1.859   0.609   4.116 -0.2246  1.7369 -1.8790
 6832SOL    HW231959   1.755   0.618   4.007 -0.7564 -3.1234 -2.0025
 6833SOL     OW31960   1.137   0.501   3.523  0.1123  0.8590  0.2110
 6833SOL    HW131961   1.055   0.523   3.568 -1.0461 -0.6080 -1.1722
 6833SOL    HW231962   1.171   0.584   3.490  0.7132  1.3993  2.1759
 6834SOL     OW31963   0.131   2.223  10.087  0.1789  0.0587 -0.4362
 6834SOL    HW131964   0.142   2.210   9.993  2.6632  1.3824 -0.3239
 6834SOL    HW231965   0.178   2.303  10.109  0.0682  0.5184 -1.8897
 6835SOL     OW31966   2.801   3.255   2.489  0.2166 -0.8589 -0.4645
 6835SOL    HW131967   2.789   3.254   2.394  1.5095 -0.4009 -0.6287
 6835SOL    HW231968   2.896   3.266   2.484  0.0763 -0.1449 -1.4576
 6836SOL     OW31969   3.343   3.407   4.885  0.3549 -0.1349 -0.3487
 6836SOL    HW131970   3.255   3.421   4.919  0.6836 -3.2279  1.8040
 6836SOL    HW231971   3.359   3.476   4.820  1.7814 -0.2406 -0.1195
 6837SOL     OW31972   3.116   2.979  10.136  0.3517 -0.0052 -0.2112
 6837SOL    HW131973   3.084   3.064  10.106  0.2832  0.9578  2.5518
 6837SOL    HW231974   3.039   2.935  10.172  0.0756  0.7567  0.1235
 6838SOL     OW31975   3.452   0.115  13.421 -0.3408 -0.4463  0.0785
 6838SOL    HW131976   3.409   0.200  13.410  0.3944 -0.2903 -1.5944
 6838SOL    HW231977   3.402   0.071  13.489 -2.2020 -2.4386 -2.5450
 6839SOL     OW31978   3.959   2.714   8.207  0.6024 -0.3755  0.0225
 6839SOL    HW131979   3.960   2.643   8.142  1.2678  0.1690 -0.5588
 6839SOL    HW231980   3.879   2.762   8.183  0.6566  0.0054  0.6116
 6840SOL     OW31981   0.909   0.086   3.157  0.2861 -0.6065  0.2762
 6840SOL    HW131982   0.848   0.064   3.227  1.1278 -1.6373  0.6826
 6840SOL    HW231983   0.988   0.040   3.187 -0.9263 -1.6387  1.8777
 6841SOL     OW31984   4.644   1.726   4.355  0.0703  0.1885  0.4917
 6841SOL    HW131985   4.636   1.822   4.358  1.0963  0.3548 -2.1334
 6841SOL    HW231986   4.571   1.707   4.414  0.4893  0.8637  1.2310
 6842SOL     OW31987   1.532   0.262   0.758  0.2287  0.1919 -0.0044
 6842SOL    HW131988   1.444   0.273   0.793 -0.2075  2.2958 -1.7247
 6842SOL    HW231989   1.555   0.180   0.802  0.1922  0.1187 -0.1217
 6843SOL     OW31990   2.170   0.788   7.640 -0.0124  0.2908 -0.1893
 6843SOL    HW131991   2.253   0.765   7.598  0.4165  0.4170  0.5928
 6843SOL    HW231992   2.122   0.705   7.644  0.0182  0.2569 -0.4824
 6844SOL     OW31993   3.309   3.209   8.157  0.0018  0.3185  0.3152
 6844SOL    HW131994   3.213   3.203   8.162  0.0293 -1.0188 -0.7333
 6844SOL    HW231995   3.328   3.236   8.067  0.2324  0.3450  0.3716
 6845SOL     OW31996   0.032   0.424   9.136 -0.7602  0.1954 -0.4019
 6845SOL    HW131997   0.033   0.448   9.043  0.7852  0.3960 -0.3489
 6845SOL    HW231998   0.015   0.515   9.161 -1.2761 -0.8214  2.8953
 6846SOL     OW31999   2.064   4.647   2.832  0.6313 -0.2323  0.2119
 6846SOL    HW132000   2.110   4.589   2.772  1.4989 -0.3712  1.0118
 6846SOL    HW232001   1.983   4.659   2.783 -0.0029 -1.1536  1.0422
 6847SOL     OW32002   2.487   4.660   7.733  0.0479 -0.5621 -0.0577
 6847SOL    HW132003   2.523   4.618   7.655  4.3392  0.3597  1.3991
 6847SOL    HW232004   2.517   4.599   7.800  0.9809 -0.6148 -0.5215
 6848SOL     OW32005   3.364   4.422   8.482 -0.0406 -0.1704  0.5847
 6848SOL    HW132006   3.271   4.431   8.503 -0.1500 -3.5986  1.4758
 6848SOL    HW232007   3.367   4.491   8.415 -0.0291 -0.7247  0.0180
 6849SOL     OW32008   3.668   4.078   1.500  0.2900  0.1472  0.0084
 6849SOL    HW132009   3.687   3.986   1.480  1.0084  0.5227 -1.0464
 6849SOL    HW232010   3.687   4.124   1.418  1.7134  0.6221  0.6060
 6850SOL     OW32011   2.894   1.564  11.660 -0.5255 -0.1519  0.1426
 6850SOL    HW132012   2.883   1.654  11.691 -0.4457  0.0151 -0.3110
 6850SOL    HW232013   2.917   1.529  11.746  2.7620  0.7334 -0.3837
 6851SOL     OW32014   1.000   3.390  16.726 -0.2202  0.1664 -0.2739
 6851SOL    HW132015   0.963   3.329  16.789 -1.8965 -0.2661 -1.6476
 6851SOL    HW232016   0.939   3.386  16.652 -1.4527 -2.4941  0.8982
 6852SOL     OW32017   2.038   1.985   6.201  0.1123 -0.2755 -0.2301
 6852SOL    HW132018   1.956   1.983   6.151 -0.5351  1.0162  0.7886
 6852SOL    HW232019   2.078   1.901   6.180  3.6798  1.0791  1.1073
 6853SOL     OW32020   1.941   3.423   7.653  0.5521 -0.2765 -0.4994
 6853SOL    HW132021   2.018   3.432   7.597  0.4932  1.0705 -0.3575
 6853SOL    HW232022   1.978   3.428   7.741 -0.8418 -0.7198  0.1079
 6854SOL     OW32023   1.719   4.377  14.721 -0.3396 -0.4609  0.4371
 6854SOL    HW132024   1.633   4.345  14.747 -0.3221 -2.0953 -1.5230
 6854SOL    HW232025   1.748   4.306  14.664 -0.7297 -0.3668  0.1234
 6855SOL     OW32026   2.096   0.116   3.818 -0.3527  0.3174  0.0085
 6855SOL    HW132027   2.182   0.156   3.832 -0.0161 -0.3241 -0.1981
 6855SOL    HW232028   2.038   0.184   3.851  2.0801  1.8733  1.1124
 6856SOL     OW32029   3.885   1.177   7.454 -0.2345 -0.3857 -0.2244
 6856SOL    HW132030   3.817   1.239   7.480 -2.1040 -2.7629  0.5746
 6856SOL    HW232031   3.952   1.200   7.518  0.1746 -0.7370 -0.5226
 6857SOL     OW32032   1.071   0.866  16.258 -0.2102  0.0998 -0.3033
 6857SOL    HW132033   1.109   0.856  16.345 -2.1983  0.6044  0.6423
 6857SOL    HW232034   1.151   0.853  16.208 -0.8725  0.3516 -1.4291
 6858SOL     OW32035   4.361   2.597   5.220  0.0216 -0.1158 -0.1375
 6858SOL    HW132036   4.377   2.556   5.135  2.0071 -1.5025  0.8941
 6858SOL    HW232037   4.325   2.683   5.197  0.1190 -0.1399 -0.3829
 6859SOL     OW32038   2.549   2.543   1.034 -0.7865  0.1636  0.6647
 6859SOL    HW132039   2.541   2.449   1.013  0.4581  0.1744  0.1601
 6859SOL    HW232040   2.460   2.578   1.037 -0.7326  0.2909  0.7421
 6860SOL     OW32041   0.229   0.648   5.764  0.2515  0.0209 -0.4872
 6860SOL    HW132042   0.222   0.705   5.688  3.9053  0.2476 -0.6872
 6860SOL    HW232043   0.268   0.718   5.816  0.8436 -0.7627  0.1176
 6861SOL     OW32044   4.384   0.561  17.612 -0.1159 -0.5886  0.0567
 6861SOL    HW132045   4.399   0.650  17.642  1.5103 -0.5901 -0.7631
 6861SOL    HW232046   4.293   0.559  17.583  0.4702  1.0680 -1.9137
 6862SOL     OW32047   2.217   2.567   8.136 -0.5137 -0.1812 -0.1274
 6862SOL    HW132048   2.211   2.567   8.040 -0.2801 -1.4971 -0.1296
 6862SOL    HW232049   2.235   2.475   8.155 -1.2935 -0.3356 -0.1311
 6863SOL     OW32050   4.103   0.594   0.384 -0.6364  0.0070  0.2040
 6863SOL    HW132051   4.061   0.610   0.300 -0.1036 -1.9254 -0.4280
 6863SOL    HW232052   4.179   0.543   0.356 -0.2124  0.9773 -0.4104
 6864SOL     OW32053   2.057   0.030   7.425 -0.1414 -0.2334 -0.0250
 6864SOL    HW132054   2.113   0.028   7.503  0.8271  1.2575 -0.6826
 6864SOL    HW232055   2.120   0.054   7.357  1.4917 -1.1618  1.1678
 6865SOL     OW32056   0.725   2.642   3.096 -0.3421 -0.5543  0.2973
 6865SOL    HW132057   0.813   2.679   3.082 -1.5770  2.3614  0.2096
 6865SOL    HW232058   0.744   2.552   3.123 -0.2532 -1.2045 -1.9361
 6866SOL     OW32059   2.304   1.007  17.376 -0.3622 -0.3325 -0.1510
 6866SOL    HW132060   2.222   0.996  17.327  0.2007  0.1312 -1.1954
 6866SOL    HW232061   2.371   1.006  17.308 -1.0053 -0.6447 -0.7863
 6867SOL     OW32062   1.841   1.300   3.343  0.6201  0.1380 -0.2327
 6867SOL    HW132063   1.813   1.347   3.422  0.4873 -0.6127  0.1702
 6867SOL    HW232064   1.856   1.379   3.291  1.8464 -0.5861 -0.9793
 6868SOL     OW32065   4.101   3.643   1.116  0.1501 -0.1565 -0.3174
 6868SOL    HW132066   4.103   3.549   1.100  2.1071 -0.0116 -0.8611
 6868SOL    HW232067   4.140   3.668   1.033  1.3821 -1.2055 -0.0608
 6869SOL     OW32068   1.027   1.771   7.944 -0.8931 -0.0547 -0.1727
 6869SOL    HW132069   1.065   1.784   8.031  1.7539 -0.5527 -1.2545
 6869SOL    HW232070   0.969   1.698   7.964 -0.0751 -1.1205 -1.6892
 6870SOL     OW32071   2.605   3.443   4.582 -0.1079 -0.1661  0.4661
 6870SOL    HW132072   2.667   3.514   4.600 -0.1028  0.1524 -0.8428
 6870SOL    HW232073   2.561   3.440   4.667 -0.0329 -4.1486  0.3499
 6871SOL     OW32074   1.328   1.434   4.088  0.0413 -0.5333 -0.0133
 6871SOL    HW132075   1.319   1.443   4.182 -0.6076  0.1082 -0.1357
 6871SOL    HW232076   1.356   1.343   4.073 -1.0567 -0.4308 -2.8488
 6872SOL     OW32077   1.424   1.708   1.000 -0.2951 -0.2168 -0.1956
 6872SOL    HW132078   1.372   1.684   1.077 -2.1146  3.0296 -0.4223
 6872SOL    HW232079   1.505   1.672   1.036  0.3980 -0.1645 -1.6743
 6873SOL     OW32080   2.538   4.629   9.601  0.2834  0.7016 -0.3397
 6873SOL    HW132081   2.464   4.572   9.622  0.0850  1.9957  2.4802
 6873SOL    HW232082   2.496   4.708   9.635 -0.5133  0.3750 -0.5670
 6874SOL     OW32083   1.870   1.849   2.197  0.4011  0.2967 -0.1521
 6874SOL    HW132084   1.965   1.849   2.200  0.3638 -0.1703  1.1112
 6874SOL    HW232085   1.840   1.912   2.263 -0.5753 -0.0390 -0.2769
 6875SOL     OW32086   2.536   4.695   6.199  0.0780  0.0607 -0.1262
 6875SOL    HW132087   2.615   4.661   6.242 -0.0323  0.4544  0.3904
 6875SOL    HW232088   2.541   4.677   6.105 -0.4807  1.0781 -0.3452
 6876SOL     OW32089   1.659   2.261   0.664  0.4720 -0.7143 -0.1286
 6876SOL    HW132090   1.696   2.340   0.625 -1.1193 -0.7161 -1.6177
 6876SOL    HW232091   1.680   2.201   0.592  3.0996  3.4081 -2.8222
 6877SOL     OW32092   3.542   1.688   8.962  0.6377 -0.4978  0.0583
 6877SOL    HW132093   3.573   1.637   8.887 -1.3830 -1.5007 -0.1065
 6877SOL    HW232094   3.591   1.769   8.944  0.0793 -0.0992  0.3192
 6878SOL     OW32095   4.134   3.910  14.055  0.1158 -0.0191  0.0967
 6878SOL    HW132096   4.144   3.868  13.970 -0.6917 -0.7001  0.3392
 6878SOL    HW232097   4.218   3.956  14.062 -1.5077  2.9698 -0.1174
 6879SOL     OW32098   0.335   2.059   5.750 -0.1817  0.4646  0.1312
 6879SOL    HW132099   0.306   1.974   5.784 -0.9723 -0.3275 -2.4790
 6879SOL    HW232100   0.406   2.085   5.809 -0.5240  0.1873  0.6628
 6880SOL     OW32101   2.404   4.213   5.924  0.5609  0.2166  0.1591
 6880SOL    HW132102   2.372   4.283   5.981  0.1566  0.2926 -0.1566
 6880SOL    HW232103   2.489   4.246   5.894  1.7818 -2.5761  0.6272
 6881SOL     OW32104   2.478   1.833   3.248 -0.0970  0.0359  0.0301
 6881SOL    HW132105   2.391   1.854   3.215 -0.1509 -2.4753 -1.4058
 6881SOL    HW232106   2.483   1.739   3.232  0.7712 -0.2583  2.0569
 6882SOL     OW32107   0.595   0.288   9.120  0.4025 -0.0407 -0.0738
 6882SOL    HW132108   0.567   0.213   9.173  2.2732 -1.4673 -1.1417
 6882SOL    HW232109   0.585   0.248   9.033 -1.3744  2.5360 -1.0487
 6883SOL     OW32110   0.464   2.017   5.999  0.5354  0.4740  0.2277
 6883SOL    HW132111   0.489   1.926   5.979 -2.4156 -0.3324  0.2487
 6883SOL    HW232112   0.393   2.009   6.062 -0.9650  1.3452 -1.3520
 6884SOL     OW32113   1.348   3.959   3.374  0.2060 -0.0714 -0.6615
 6884SOL    HW132114   1.432   3.997   3.348  0.3684  0.2153  0.2890
 6884SOL    HW232115   1.289   4.015   3.324  1.2498  2.0842  0.5222
 6885SOL     OW32116   1.403   0.012  13.145 -0.1781 -0.0098 -0.2149
 6885SOL    HW132117   1.315   0.035  13.175  0.2811  1.5998 -0.0979
 6885SOL    HW232118   1.440   0.099  13.130  0.7724 -0.3872 -0.0674
 6886SOL     OW32119   2.423   2.002   6.833  0.2610  0.1654 -0.2536
 6886SOL    HW132120   2.478   2.023   6.758 -1.0558 -0.5493 -1.4235
 6886SOL    HW232121   2.341   1.979   6.789  2.2882  1.0469 -4.4914
 6887SOL     OW32122   4.035   2.125   1.121 -0.0897  0.4545  0.3159
 6887SOL    HW132123   4.039   2.179   1.201 -1.9054  0.4930  0.3719
 6887SOL    HW232124   4.003   2.047   1.168  0.1125 -0.0903 -0.4475
 6888SOL     OW32125   3.464   1.508   6.402  0.1064  0.3575  0.0520
 6888SOL    HW132126   3.480   1.449   6.329  0.5206  0.1068  0.3475
 6888SOL    HW232127   3.429   1.454   6.473  0.0443  1.1264  0.6076
 6889SOL     OW32128   0.607   3.289   6.278 -0.4143  0.0714  0.5755
 6889SOL    HW132129   0.621   3.310   6.186 -1.0162 -0.2739  0.4001
 6889SOL    HW232130   0.520   3.318   6.305 -1.8754 -1.2251 -2.7008
 6890SOL     OW32131   3.345   1.487   2.640 -0.0013  0.2358  0.2151
 6890SOL    HW132132   3.291   1.416   2.604  0.1267 -0.3958  1.2845
 6890SOL    HW232133   3.415   1.439   2.683 -1.0037 -0.6385  0.8496
 6891SOL     OW32134   3.204   3.350  12.927 -0.5052  0.8169  0.2325
 6891SOL    HW132135   3.150   3.429  12.922  2.4229  2.7259 -1.2265
 6891SOL    HW232136   3.155   3.271  12.947 -1.2156  1.1530 -0.1684
 6892SOL     OW32137   0.596   2.062   8.144  0.2034  0.5408  0.3567
 6892SOL    HW132138   0.619   2.155   8.144 -0.8177  0.7941  0.2913
 6892SOL    HW232139   0.583   2.050   8.050 -1.9292  3.3912  0.2853
 6893SOL     OW32140   4.185   2.765   9.028  0.0181  0.1669  0.0728
 6893SOL    HW132141   4.259   2.827   9.026 -0.3676  0.5717 -1.5502
 6893SOL    HW232142   4.193   2.721   9.112 -1.1175 -1.6262 -0.7629
 6894SOL     OW32143   2.283   0.082   6.277  0.2852  0.2118  0.0144
 6894SOL    HW132144   2.271   0.139   6.353 -1.2791 -2.4344  1.7320
 6894SOL    HW232145   2.378   0.071   6.274  0.4558  1.5797  0.5360
 6895SOL     OW32146   1.852   3.928  13.510  0.0478 -0.0667  0.0584
 6895SOL    HW132147   1.827   3.839  13.535  0.4613  0.4735  2.4006
 6895SOL    HW232148   1.852   3.976  13.593  0.0322 -1.3482  0.7951
 6896SOL     OW32149   4.216   2.549   4.621  0.4052 -0.1506  1.1017
 6896SOL    HW132150   4.246   2.584   4.705  1.6544 -0.4993  0.8040
 6896SOL    HW232151   4.246   2.619   4.563 -0.0616  0.6786  1.8501
 6897SOL     OW32152   1.987   1.516   3.610  0.0366 -0.5537 -0.3588
 6897SOL    HW132153   1.997   1.584   3.676  1.3646 -2.0742  1.0207
 6897SOL    HW232154   2.050   1.456   3.649  0.2811 -1.2334 -1.7747
 6898SOL     OW32155   0.055   4.321  13.411  0.0860 -0.3630  0.1045
 6898SOL    HW132156   0.144   4.326  13.376 -0.2341 -2.4361 -1.0393
 6898SOL    HW232157   0.062   4.229  13.439  0.2529 -0.5410 -0.5190
 6899SOL     OW32158   3.957   1.185  10.628  0.1679 -0.4543 -0.1640
 6899SOL    HW132159   4.016   1.138  10.687 -1.3975 -1.6171  0.4528
 6899SOL    HW232160   4.018   1.254  10.601 -0.3341  0.7591  1.8308
 6900SOL     OW32161   0.962   3.520  14.909 -0.0460  0.0942 -0.3073
 6900SOL    HW132162   0.923   3.591  14.959 -0.0599 -1.9317  2.5970
 6900SOL    HW232163   0.933   3.441  14.955  0.7026 -0.4863 -0.8313
 6901SOL     OW32164   1.033   3.597   4.521 -0.1615  0.0566  0.0262
 6901SOL    HW132165   1.046   3.502   4.530 -2.1198 -0.1191  1.0299
 6901SOL    HW232166   1.067   3.643   4.598  1.1433  0.3278 -0.7159
 6902SOL     OW32167   2.117   3.507   5.793 -0.3154  0.3179  0.1068
 6902SOL    HW132168   2.084   3.418   5.808 -2.7800  1.9449  4.6071
 6902SOL    HW232169   2.083   3.553   5.870  3.5954  3.0477  0.1612
 6903SOL     OW32170   2.523   0.643   8.430 -0.6071  0.6463 -0.6770
 6903SOL    HW132171   2.569   0.716   8.472 -1.6565  0.2690  1.1464
 6903SOL    HW232172   2.492   0.602   8.511  1.5948 -0.1038 -0.2152
 6904SOL     OW32173   0.929   1.924  16.937  0.2483  0.9494  0.6444
 6904SOL    HW132174   0.936   2.018  16.920  1.8983  0.9327  1.2616
 6904SOL    HW232175   0.943   1.889  16.849 -1.8086  1.6220  0.0544
 6905SOL     OW32176   2.771   1.074  16.989  0.2497 -0.3017  0.1981
 6905SOL    HW132177   2.742   1.151  16.939  0.6866 -0.1644  0.1491
 6905SOL    HW232178   2.771   1.113  17.076  1.8950 -0.8743  0.4518
 6906SOL     OW32179   2.841   3.798   3.567  0.0995  0.2809  0.2233
 6906SOL    HW132180   2.890   3.861   3.619 -0.1582  1.6018 -1.1567
 6906SOL    HW232181   2.905   3.727   3.569  0.3398  0.4509 -1.8721
 6907SOL     OW32182   0.451   3.338   7.123  0.0083 -0.5782 -0.1981
 6907SOL    HW132183   0.379   3.303   7.071 -1.4602  0.5111  1.1058
 6907SOL    HW232184   0.484   3.409   7.067  1.6143 -0.4619  0.8977
 6908SOL     OW32185   2.011   2.430   1.365  0.3831 -0.1888 -0.4064
 6908SOL    HW132186   1.982   2.437   1.274  1.0619  1.4956 -0.4906
 6908SOL    HW232187   2.038   2.338   1.363 -1.0154 -0.5996 -0.9290
 6909SOL     OW32188   2.608   2.673   5.989 -0.0335  0.0638  0.2988
 6909SOL    HW132189   2.567   2.749   6.032  1.2238  0.1163  1.4177
 6909SOL    HW232190   2.675   2.651   6.054 -0.3733 -0.9206  0.3001
 6910SOL     OW32191   2.720   0.397   3.258 -0.3065 -0.0680 -0.5533
 6910SOL    HW132192   2.725   0.306   3.288  0.5671  0.4189  0.7912
 6910SOL    HW232193   2.631   0.397   3.223 -1.0526 -1.5176  1.3208
 6911SOL     OW32194   4.052   2.011  16.288 -0.5382 -0.2624  0.4834
 6911SOL    HW132195   3.957   2.007  16.280 -0.2600 -3.3006 -1.2254
 6911SOL    HW232196   4.075   1.945  16.354  1.5361  0.6298  0.6531
 6912SOL     OW32197   3.366   4.652  17.264  0.0013  0.5899  0.6267
 6912SOL    HW132198   3.412   0.008  17.287  0.4644  0.1102  1.3659
 6912SOL    HW232199   3.290   4.691  17.221 -0.6658 -0.9737  0.4147
 6913SOL     OW32200   1.295   4.582   2.424  0.3697  0.2644  0.1056
 6913SOL    HW132201   1.255   4.621   2.346 -2.7395  0.6029  1.8862
 6913SOL    HW232202   1.315   4.661   2.475  1.4052 -0.2749  0.5370
 6914SOL     OW32203   4.549   1.488  15.354  0.2271  0.0802  0.5880
 6914SOL    HW132204   4.575   1.442  15.274  0.0374  0.1996  0.4575
 6914SOL    HW232205   4.620   1.464  15.413 -0.6589  1.1757  2.0958
 6915SOL     OW32206   2.412   2.642   8.781 -0.4205  0.7898 -0.3753
 6915SOL    HW132207   2.424   2.596   8.698  0.1319 -1.8405  1.1628
 6915SOL    HW232208   2.383   2.573   8.841  1.4584  1.0648  0.8675
 6916SOL     OW32209   0.068   2.942   3.165 -0.1091 -0.1270  0.3641
 6916SOL    HW132210   4.710   2.953   3.119 -0.4922  0.6323  1.2286
 6916SOL    HW232211   0.061   2.850   3.190  1.4526 -1.1993 -3.2113
 6917SOL     OW32212   4.691   3.294   3.165  0.3641  0.4192  0.0978
 6917SOL    HW132213   4.647   3.372   3.197 -0.4469  0.7863 -1.9391
 6917SOL    HW232214   4.649   3.237   3.230  1.6065  0.6652  1.1173
 6918SOL     OW32215   2.330   2.924  13.009  0.4139 -0.2167  0.4893
 6918SOL    HW132216   2.327   2.880  12.924  2.0662  3.4931 -1.4743
 6918SOL    HW232217   2.365   3.010  12.987  2.0668 -1.0854 -0.3043
 6919SOL     OW32218   1.413   1.521   2.227 -0.2431 -0.2603 -0.2777
 6919SOL    HW132219   1.393   1.520   2.134 -2.7863 -4.2398  0.3105
 6919SOL    HW232220   1.430   1.615   2.234 -2.7193  0.2409 -1.1203
 6920SOL     OW32221   4.125   1.354   7.990  0.0427  0.9722  0.1310
 6920SOL    HW132222   4.082   1.289   7.935  2.2905 -0.6096  0.2539
 6920SOL    HW232223   4.209   1.316   8.014 -0.0892  0.2532 -0.5241
 6921SOL     OW32224   1.115   3.254   9.526  0.1769 -0.6392  0.0410
 6921SOL    HW132225   1.097   3.217   9.612 -1.6468  0.2587  0.0465
 6921SOL    HW232226   1.045   3.318   9.516  0.8215  0.3682  1.9037
 6922SOL     OW32227   1.879   1.860  11.595 -0.4237  0.1989 -0.2208
 6922SOL    HW132228   1.869   1.766  11.611  0.7423 -0.2065 -1.8277
 6922SOL    HW232229   1.934   1.863  11.517 -1.3172  2.6776 -0.7296
 6923SOL     OW32230   2.310   3.878   2.759  0.1016  0.2451  0.0008
 6923SOL    HW132231   2.235   3.858   2.815  1.3039  0.3092  1.6171
 6923SOL    HW232232   2.351   3.948   2.809  1.6430 -2.2660  2.2381
 6924SOL     OW32233   3.880   1.908   5.193  0.3062 -1.2800  0.3303
 6924SOL    HW132234   3.920   1.943   5.113  1.5512 -2.6937  0.3429
 6924SOL    HW232235   3.883   1.986   5.248 -0.2234 -1.1200  0.1285
 6925SOL     OW32236   4.213   1.591   9.289 -0.1003 -0.4056  0.1828
 6925SOL    HW132237   4.309   1.590   9.291 -0.1584 -2.8608  2.0628
 6925SOL    HW232238   4.186   1.538   9.214 -0.0157  0.1337 -0.2304
 6926SOL     OW32239   3.304   1.967   4.274  0.5216 -0.0734 -0.2138
 6926SOL    HW132240   3.258   2.047   4.250  2.3731  0.9045 -0.4904
 6926SOL    HW232241   3.266   1.947   4.359  1.4557  0.1988  0.2628
 6927SOL     OW32242   0.623   4.166   3.532 -0.3791  0.6390  0.2546
 6927SOL    HW132243   0.614   4.073   3.556 -1.4100  0.4942 -0.6839
 6927SOL    HW232244   0.638   4.161   3.437 -2.9779  0.7659 -0.1600
 6928SOL     OW32245   3.272   3.848   2.366  0.4626 -0.1856  0.1284
 6928SOL    HW132246   3.360   3.815   2.345  0.1276 -0.7729 -0.3566
 6928SOL    HW232247   3.283   3.891   2.451  3.0141  0.0119 -0.3050
 6929SOL     OW32248   4.343   1.542   8.098  0.1667  0.0971  0.6000
 6929SOL    HW132249   4.384   1.456   8.103  0.4212  0.2278  0.7365
 6929SOL    HW232250   4.271   1.519   8.039  1.5986  0.6268 -1.3312
 6930SOL     OW32251   2.330   1.420   7.101  0.3155  0.6098  0.3479
 6930SOL    HW132252   2.271   1.490   7.072  0.2663  0.0308 -0.9404
 6930SOL    HW232253   2.341   1.447   7.192 -2.5674  2.5005  0.1511
 6931SOL     OW32254   0.131   2.427  14.016 -0.2177 -0.1406 -0.0626
 6931SOL    HW132255   0.072   2.434  14.091 -1.7410  1.4240 -1.3975
 6931SOL    HW232256   0.209   2.464  14.056 -0.5430 -1.1031  1.4686
 6932SOL     OW32257   4.158   4.173   8.792  0.4830 -0.4386  0.3100
 6932SOL    HW132258   4.164   4.263   8.826 -0.1309  0.0627 -0.8944
 6932SOL    HW232259   4.132   4.122   8.868 -3.0029  0.0216 -0.5693
 6933SOL     OW32260   1.611   2.008  15.221 -0.2707  0.0963  0.0796
 6933SOL    HW132261   1.584   2.095  15.190  0.4448 -0.4564 -2.0726
 6933SOL    HW232262   1.702   2.029  15.241 -0.3746 -0.1894  0.8811
 6934SOL     OW32263   3.518   1.820  10.008 -0.2329  0.1744 -0.0445
 6934SOL    HW132264   3.467   1.759   9.956 -1.4880  1.3230 -0.1499
 6934SOL    HW232265   3.463   1.898  10.019 -0.0866  0.3468 -0.5418
 6935SOL     OW32266   3.742   2.305   2.614 -0.0133  0.4079  0.3435
 6935SOL    HW132267   3.805   2.272   2.678 -0.0351  0.8893  0.6161
 6935SOL    HW232268   3.751   2.401   2.611 -1.2770  0.4432 -2.0920
 6936SOL     OW32269   3.819   3.491  10.279  0.3668  0.1039 -0.1597
 6936SOL    HW132270   3.872   3.427  10.327  0.0540 -0.9805 -1.2554
 6936SOL    HW232271   3.787   3.537  10.356  1.2432  1.2210 -0.4744
 6937SOL     OW32272   2.206   0.050  11.468  0.1433 -0.4481 -0.0820
 6937SOL    HW132273   2.243   0.069  11.382 -1.9363 -0.6188 -1.0016
 6937SOL    HW232274   2.242   4.687  11.481  1.5668 -0.1520 -2.0245
 6938SOL     OW32275   4.430   2.869   2.544  0.1449  0.6759 -0.0928
 6938SOL    HW132276   4.401   2.871   2.636 -1.2250 -2.6135 -0.4391
 6938SOL    HW232277   4.356   2.910   2.500 -0.8695  1.8862  2.7573
 6939SOL     OW32278   3.471   0.003   3.729  0.1340  0.0192 -0.0240
 6939SOL    HW132279   3.536   0.047   3.674  1.3422 -3.4842 -1.4523
 6939SOL    HW232280   3.530   4.707   3.802 -0.3347  0.4919  0.4888
 6940SOL     OW32281   2.078   1.158   4.249 -0.5269 -0.5154  0.5724
 6940SOL    HW132282   2.018   1.129   4.181  1.4556  2.4267 -2.3989
 6940SOL    HW232283   2.048   1.098   4.317 -0.7392  0.7309  1.5832
 6941SOL     OW32284   3.344   1.387   7.429  0.3593 -0.0675  0.3079
 6941SOL    HW132285   3.253   1.395   7.456  0.4690 -0.8463  0.9055
 6941SOL    HW232286   3.379   1.471   7.459 -2.3395  1.0099  0.4864
 6942SOL     OW32287   3.735   2.904   1.881 -0.0134  0.0927  0.5324
 6942SOL    HW132288   3.830   2.906   1.868 -0.5333 -0.8900 -3.5299
 6942SOL    HW232289   3.711   2.931   1.970 -0.5960  4.1556 -0.8700
 6943SOL     OW32290   3.213   3.662   7.302 -0.4167  0.3733 -0.4844
 6943SOL    HW132291   3.159   3.737   7.327  1.2747  1.3852  0.0786
 6943SOL    HW232292   3.232   3.692   7.213 -1.2384 -0.7310 -1.0301
 6944SOL     OW32293   2.204   4.439   6.477 -0.3590 -0.7039 -0.2615
 6944SOL    HW132294   2.281   4.392   6.445  0.1946  0.8616 -1.2482
 6944SOL    HW232295   2.150   4.361   6.490  2.7301 -2.7243  0.3592
 6945SOL     OW32296   4.192   0.438   4.812 -0.4747 -0.0512  0.1988
 6945SOL    HW132297   4.227   0.398   4.891  1.0816 -0.0292 -0.4865
 6945SOL    HW232298   4.237   0.383   4.748 -1.7242 -0.4158 -0.3659
 6946SOL     OW32299   4.153   3.045   8.018  0.1101  0.5530 -0.6487
 6946SOL    HW132300   4.179   3.082   7.933 -0.8124  0.9685 -0.7517
 6946SOL    HW232301   4.084   2.984   7.990 -0.0787  0.7556 -0.6238
 6947SOL     OW32302   2.037   3.414  16.248 -0.0063 -0.0940 -0.2679
 6947SOL    HW132303   1.987   3.493  16.226 -0.7735 -0.3418  0.6175
 6947SOL    HW232304   2.120   3.457  16.270 -0.2012  0.3300 -0.3613
 6948SOL     OW32305   1.274   4.518   2.093 -0.6629  0.0687  0.0436
 6948SOL    HW132306   1.264   4.595   2.148 -0.5329 -1.5236  2.3150
 6948SOL    HW232307   1.200   4.470   2.129  1.0668 -0.9254  2.2524
 6949SOL     OW32308   2.395   1.482  17.620  0.2800  0.2472 -0.5100
 6949SOL    HW132309   2.307   1.486  17.659  0.4413  1.1898 -0.2397
 6949SOL    HW232310   2.403   1.571  17.585 -0.1227  0.1413 -0.8754
 6950SOL     OW32311   4.180   3.237   5.211 -0.2982 -0.1099 -0.1035
 6950SOL    HW132312   4.179   3.255   5.305  3.5655  0.5287 -0.1909
 6950SOL    HW232313   4.268   3.263   5.187  0.1209 -1.0695  0.3948
 6951SOL     OW32314   3.525   3.099  14.698  0.5672  0.1904 -0.2374
 6951SOL    HW132315   3.573   3.126  14.620  3.8275  0.4051  1.8609
 6951SOL    HW232316   3.582   3.028  14.726  0.6393 -0.3346 -1.7224
 6952SOL     OW32317   3.583   3.006   6.410 -0.2811 -0.1636  0.3968
 6952SOL    HW132318   3.536   3.089   6.399  1.8427  0.7673 -1.5091
 6952SOL    HW232319   3.521   2.948   6.455  1.6185 -0.9811  1.9477
 6953SOL     OW32320   0.316   4.654   8.022  0.1345  0.0347 -0.6957
 6953SOL    HW132321   0.294   4.561   8.013  0.3025  0.0595 -1.3042
 6953SOL    HW232322   0.378   4.669   7.952  0.6021 -0.2961 -0.3518
 6954SOL     OW32323   1.053   2.785   7.579 -0.3244  0.0923 -0.1763
 6954SOL    HW132324   0.992   2.737   7.634  0.3251 -0.1495  0.3450
 6954SOL    HW232325   1.052   2.743   7.493  2.1159  1.0761 -0.6875
 6955SOL     OW32326   3.220   3.711  13.363 -0.6243  0.0463 -0.1630
 6955SOL    HW132327   3.298   3.725  13.417 -2.2320 -1.1134  2.4936
 6955SOL    HW232328   3.257   3.653  13.297  0.5036  1.2895 -0.6231
 6956SOL     OW32329   2.603   0.506   2.858  0.1519 -0.1772 -0.0594
 6956SOL    HW132330   2.514   0.491   2.889 -0.6558  1.2046 -1.7652
 6956SOL    HW232331   2.596   0.558   2.779  2.2079  1.0348  0.5427
 6957SOL     OW32332   3.258   3.733   0.871 -0.3733  0.3749 -0.0308
 6957SOL    HW132333   3.263   3.655   0.926  3.2750 -0.7167 -1.9183
 6957SOL    HW232334   3.333   3.779   0.908  0.9153 -1.1363 -0.7638
 6958SOL     OW32335   2.675   1.441  12.859 -0.0967  0.1132 -0.9148
 6958SOL    HW132336   2.585   1.414  12.879 -0.4918  2.3804  0.2848
 6958SOL    HW232337   2.700   1.371  12.799 -0.5022 -0.1235 -0.8101
 6959SOL     OW32338   2.542   2.696   6.907  0.1960  0.1298 -0.2359
 6959SOL    HW132339   2.528   2.776   6.857 -0.9419  0.4171  0.5408
 6959SOL    HW232340   2.566   2.725   6.995  0.6664 -0.3590 -0.2068
 6960SOL     OW32341   3.953   1.208   3.133  0.2577  0.4342  0.4276
 6960SOL    HW132342   4.044   1.220   3.162  0.3107  1.3756 -0.1129
 6960SOL    HW232343   3.973   1.187   3.042 -0.8513  0.2777  0.2280
 6961SOL     OW32344   4.222   0.874  10.585 -0.4871 -0.0688 -0.2884
 6961SOL    HW132345   4.297   0.895  10.529 -0.6369  0.4983 -0.2860
 6961SOL    HW232346   4.214   0.948  10.645 -1.3791 -0.2437 -0.1950
 6962SOL     OW32347   1.788   1.615  16.657 -0.3502 -0.3790  0.2105
 6962SOL    HW132348   1.728   1.618  16.582 -3.7031 -1.2005  2.8659
 6962SOL    HW232349   1.731   1.640  16.729  0.4528 -2.2126  1.4778
 6963SOL     OW32350   0.993   2.632   6.632 -0.3469  0.1164  0.1409
 6963SOL    HW132351   0.924   2.689   6.597 -0.0831  0.4125  0.0995
 6963SOL    HW232352   1.078   2.665   6.602 -0.5552  1.5590  1.1595
 6964SOL     OW32353   2.197   0.503  15.744  0.1751 -0.3641  0.2296
 6964SOL    HW132354   2.234   0.444  15.810  0.4180  0.1386  0.5452
 6964SOL    HW232355   2.108   0.475  15.722  0.0228  2.3855 -2.7101
 6965SOL     OW32356   1.970   0.310  12.764 -0.1418  0.0731  0.3589
 6965SOL    HW132357   2.061   0.284  12.777  0.0225  1.8753  2.9989
 6965SOL    HW232358   1.968   0.337  12.672 -3.7163  3.5080  1.4510
 6966SOL     OW32359   1.383   1.452  11.326  0.4691 -0.6318 -0.7307
 6966SOL    HW132360   1.340   1.522  11.276  1.0427 -0.7598 -1.3995
 6966SOL    HW232361   1.461   1.500  11.354 -0.7263  0.2745  1.0579
 6967SOL     OW32362   1.360   3.068   3.774 -0.2768  0.2439 -0.2113
 6967SOL    HW132363   1.426   3.034   3.714  1.0130 -1.5538  2.2087
 6967SOL    HW232364   1.402   3.090   3.856 -2.3344  1.0311  0.6318
 6968SOL     OW32365   1.429   1.246   8.272 -0.0540 -0.3751  0.0553
 6968SOL    HW132366   1.346   1.273   8.232 -0.1824 -2.6104 -1.1665
 6968SOL    HW232367   1.449   1.327   8.318  1.4384 -0.3079 -0.6868
 6969SOL     OW32368   0.967   2.561   8.948 -0.3770  0.5609 -0.0147
 6969SOL    HW132369   0.883   2.525   8.977  0.2645  0.1697  1.3594
 6969SOL    HW232370   0.980   2.621   9.022 -2.9156  1.9904 -0.7280
 6970SOL     OW32371   2.249   1.155  17.022 -0.2659 -0.8946 -0.6613
 6970SOL    HW132372   2.335   1.194  17.010 -0.2507 -0.5372  0.5517
 6970SOL    HW232373   2.195   1.234  17.011 -0.6988 -0.7267  2.6476
 6971SOL     OW32374   2.254   2.720   5.876  0.0378  0.3661  0.1844
 6971SOL    HW132375   2.302   2.768   5.808  1.2697  1.2117  1.6425
 6971SOL    HW232376   2.169   2.763   5.883  0.0175  0.7758 -2.6211
 6972SOL     OW32377   4.694   1.216   5.477 -0.2204  0.5818  0.4726
 6972SOL    HW132378   0.050   1.266   5.477 -0.4357  0.9218  0.1057
 6972SOL    HW232379   4.717   1.134   5.521 -1.4061  0.3862  0.7363
 6973SOL     OW32380   4.645   1.146  13.027 -0.1403  0.1035 -0.2213
 6973SOL    HW132381   4.724   1.195  13.049 -1.4021  1.3850  1.4102
 6973SOL    HW232382   4.588   1.177  13.098  1.7890  0.0208  1.3590
 6974SOL     OW32383   1.594   3.733   7.015  0.5257  0.2200  0.2713
 6974SOL    HW132384   1.502   3.741   6.988  0.2011  0.1609  1.3886
 6974SOL    HW232385   1.618   3.660   6.959  0.6164 -0.2488  0.9268
 6975SOL     OW32386   4.228   1.633   8.458  0.6345  0.4333  0.0480
 6975SOL    HW132387   4.241   1.716   8.412  1.0836  0.5307  0.3504
 6975SOL    HW232388   4.265   1.568   8.399 -1.3229 -0.9429  0.3003
 6976SOL     OW32389   0.214   2.383   5.542 -0.1713  0.0423  0.5017
 6976SOL    HW132390   0.200   2.317   5.609  0.7846 -1.8220 -1.1537
 6976SOL    HW232391   0.290   2.339   5.504  0.4289  0.2820  1.4114
 6977SOL     OW32392   4.252   4.351  13.266 -0.5248  0.1481  0.1644
 6977SOL    HW132393   4.335   4.398  13.266  0.5094 -1.6645  1.7277
 6977SOL    HW232394   4.270   4.287  13.197 -2.3977  0.3370 -0.5015
 6978SOL     OW32395   2.038   1.145   4.580 -0.4650  0.6858 -0.2087
 6978SOL    HW132396   1.992   1.171   4.659 -2.2017  0.3303 -1.0977
 6978SOL    HW232397   2.104   1.214   4.586 -0.3332  0.6307 -1.0138
 6979SOL     OW32398   0.401   3.341  15.538  0.2236  1.0874 -0.2803
 6979SOL    HW132399   0.416   3.419  15.591 -3.5806  1.1617  0.6694
 6979SOL    HW232400   0.388   3.373  15.449 -0.8723 -1.8626 -1.1788
 6980SOL     OW32401   0.520   2.557   2.413  0.3433  0.0764  0.4071
 6980SOL    HW132402   0.483   2.485   2.466  1.1887 -0.6916 -0.0435
 6980SOL    HW232403   0.530   2.617   2.486  3.3159  0.9356 -0.7325
 6981SOL     OW32404   4.461   1.311  10.308 -0.5673 -0.3509 -0.4810
 6981SOL    HW132405   4.510   1.258  10.245  0.9745  2.0317 -1.2839
 6981SOL    HW232406   4.372   1.284  10.285 -0.4543 -0.1482 -1.1332
 6982SOL     OW32407   1.803   4.175   4.226  0.0725 -0.5382  0.4766
 6982SOL    HW132408   1.722   4.183   4.277 -1.2949 -0.7793 -1.6560
 6982SOL    HW232409   1.819   4.262   4.188 -0.4812 -1.4193 -1.7800
 6983SOL     OW32410   4.229   2.594   2.823  0.5992 -0.2366  0.0350
 6983SOL    HW132411   4.201   2.684   2.807  1.2245 -0.1086 -0.3401
 6983SOL    HW232412   4.185   2.544   2.754  1.7790 -0.1292 -0.7875
 6984SOL     OW32413   4.208   1.254  10.197 -0.1145 -0.1460 -0.4878
 6984SOL    HW132414   4.193   1.160  10.206  1.2263 -0.3945 -0.8735
 6984SOL    HW232415   4.237   1.261  10.106  0.0267 -1.3937 -0.5395
 6985SOL     OW32416   2.337   0.519   2.973 -0.4326  0.3427 -0.4255
 6985SOL    HW132417   2.257   0.547   3.016 -0.1775  0.9009 -0.3159
 6985SOL    HW232418   2.305   0.494   2.886  1.9868  2.0695 -1.8217
 6986SOL     OW32419   3.759   2.781  10.640  0.4048  0.3096 -0.0089
 6986SOL    HW132420   3.835   2.723  10.642  1.0031  1.0312 -1.7078
 6986SOL    HW232421   3.796   2.840  10.575 -0.9247  0.9395 -0.2070
 6987SOL     OW32422   2.420   2.059   1.480 -1.1105 -0.3284  0.0929
 6987SOL    HW132423   2.482   2.060   1.553 -1.5567  1.7387  0.4443
 6987SOL    HW232424   2.476   2.089   1.408 -2.3232 -0.9193 -1.1044
 6988SOL     OW32425   3.251   2.278  12.910  0.3086  0.3967  0.1801
 6988SOL    HW132426   3.232   2.355  12.965 -0.2910 -0.8672  1.7423
 6988SOL    HW232427   3.293   2.220  12.973  3.6924  1.6828 -0.8647
 6989SOL     OW32428   3.384   3.390   9.079  0.2349 -0.8724  0.1344
 6989SOL    HW132429   3.353   3.413   9.167  1.6751 -1.2401  0.7421
 6989SOL    HW232430   3.424   3.304   9.095  1.0495 -0.7935 -1.4749
 6990SOL     OW32431   3.214   0.134   8.206 -0.2797 -0.3256 -0.1592
 6990SOL    HW132432   3.229   0.058   8.263 -1.9469  0.7734  1.7254
 6990SOL    HW232433   3.132   0.172   8.237 -0.6894 -0.7767 -0.6729
 6991SOL     OW32434   1.058   3.026   9.297  0.1838  0.0501  0.7643
 6991SOL    HW132435   0.973   3.036   9.339 -0.8510  0.6320 -1.4880
 6991SOL    HW232436   1.104   3.002   9.378  1.1929  4.5446  1.4881
 6992SOL     OW32437   1.896   2.935   0.687 -0.3456  0.4591 -0.2071
 6992SOL    HW132438   1.873   3.027   0.673  1.2832  0.4668 -2.7489
 6992SOL    HW232439   1.902   2.944   0.782  1.1788 -2.8963  0.0015
 6993SOL     OW32440   4.113   0.209   8.298  0.1615  0.5018  0.0360
 6993SOL    HW132441   4.116   0.190   8.204 -2.1685 -0.2063  0.1052
 6993SOL    HW232442   4.091   0.124   8.337  2.6514 -0.1287  0.0866
 6994SOL     OW32443   3.587   1.168   3.085 -0.2611  0.2775  0.4571
 6994SOL    HW132444   3.560   1.102   3.148  0.7452  1.5023  2.1837
 6994SOL    HW232445   3.666   1.118   3.064 -0.1366  1.1047 -1.0420
 6995SOL     OW32446   4.566   1.324  10.554  0.1786 -0.1270 -0.4473
 6995SOL    HW132447   4.661   1.323  10.558  0.1284  0.8011  0.8119
 6995SOL    HW232448   4.551   1.344  10.461 -0.3897  1.8800  0.0636
 6996SOL     OW32449   1.743   3.493   8.969  0.5636  0.0465 -1.0329
 6996SOL    HW132450   1.825   3.538   8.946 -0.5891  2.4829 -0.3512
 6996SOL    HW232451   1.754   3.410   8.921 -1.5639 -1.2883  0.8189
 6997SOL     OW32452   4.139   1.846   3.791 -0.7495 -0.2010  0.4792
 6997SOL    HW132453   4.211   1.838   3.728 -1.7098 -1.7916 -0.3980
 6997SOL    HW232454   4.167   1.919   3.847 -0.7272 -1.5347  2.2006
 6998SOL     OW32455   1.857   3.950   4.514 -0.2201 -0.1636  0.7773
 6998SOL    HW132456   1.907   3.880   4.557 -0.6923 -1.2665 -0.4546
 6998SOL    HW232457   1.866   3.930   4.421 -0.8888  0.7991  0.5077
 6999SOL     OW32458   0.307   2.550   5.219  0.0837  0.3762 -0.0057
 6999SOL    HW132459   0.398   2.580   5.221 -0.2110  1.2136  1.0819
 6999SOL    HW232460   0.291   2.571   5.311  0.5131 -1.1648  0.4123
 7000SOL     OW32461   0.275   0.991  11.300 -0.0368  0.2146  0.1441
 7000SOL    HW132462   0.261   0.932  11.374  1.3004 -1.6409 -1.0635
 7000SOL    HW232463   0.313   1.067  11.344  1.3626 -1.6581  2.1845
 7001SOL     OW32464   1.828   4.401   0.462  0.1047 -0.0230 -0.1291
 7001SOL    HW132465   1.779   4.474   0.423 -1.9605 -1.3767 -0.0911
 7001SOL    HW232466   1.796   4.402   0.552  0.5522 -2.1239  0.0515
 7002SOL     OW32467   1.908   0.447   0.970 -0.0740  0.4224 -0.1311
 7002SOL    HW132468   1.815   0.425   0.972  0.1367 -0.5710 -1.1696
 7002SOL    HW232469   1.923   0.453   0.876  0.0636 -0.1230 -0.1426
 7003SOL     OW32470   0.245   1.974   6.158  0.0530 -0.2172 -0.1041
 7003SOL    HW132471   0.184   1.920   6.109 -0.5910  1.3702 -1.0274
 7003SOL    HW232472   0.182   2.011   6.220 -0.4819 -1.2906 -0.0165
 7004SOL     OW32473   2.055   3.174   8.557  0.4293  0.0762 -0.1709
 7004SOL    HW132474   2.092   3.097   8.513  0.7129  0.5175 -0.7080
 7004SOL    HW232475   2.130   3.196   8.613 -0.6833  0.2530  1.2429
 7005SOL     OW32476   4.484   2.220   4.594 -0.3841  0.1814 -0.1490
 7005SOL    HW132477   4.559   2.165   4.618 -0.9782 -0.5171  0.1185
 7005SOL    HW232478   4.461   2.256   4.680  1.7175 -0.7153  0.8044
 7006SOL     OW32479   1.445   1.719   9.497 -0.5394  0.0443 -0.3650
 7006SOL    HW132480   1.430   1.700   9.589  0.5202  0.8236 -0.0370
 7006SOL    HW232481   1.356   1.740   9.465 -0.7835  0.9550  0.9201
 7007SOL     OW32482   4.064   2.309  11.699 -0.5550 -0.2323 -0.6256
 7007SOL    HW132483   4.004   2.235  11.694 -3.2212  1.9727 -1.1703
 7007SOL    HW232484   4.000   2.380  11.704 -1.8756 -1.4055 -1.0025
 7008SOL     OW32485   4.478   0.528  15.185 -0.0471  0.0312  1.0164
 7008SOL    HW132486   4.485   0.608  15.237  0.8059 -1.6341  3.4914
 7008SOL    HW232487   4.487   0.563  15.097 -1.8766  2.2135  1.7172
 7009SOL     OW32488   4.442   1.643   1.367 -0.1378 -0.3789  0.0912
 7009SOL    HW132489   4.494   1.694   1.305 -0.5507  0.2021  0.2204
 7009SOL    HW232490   4.429   1.562   1.317 -2.4324  0.9732 -1.4838
 7010SOL     OW32491   0.499   0.029  10.696 -0.6167  0.1448 -0.5494
 7010SOL    HW132492   0.554   0.098  10.660  0.4900  0.7666  2.3047
 7010SOL    HW232493   0.441   0.008  10.622 -1.7032  0.8710  0.0943
 7011SOL     OW32494   4.391   1.588   4.293 -0.7133  0.5200 -0.1955
 7011SOL    HW132495   4.417   1.523   4.357 -1.8268  0.2895  0.0226
 7011SOL    HW232496   4.352   1.652   4.353 -1.1484  1.4488 -1.4779
 7012SOL     OW32497   1.302   1.058   0.900  0.5078 -0.4397  0.3231
 7012SOL    HW132498   1.236   1.113   0.858  0.6387 -1.4662 -1.2161
 7012SOL    HW232499   1.302   1.097   0.987 -1.2498  0.6831 -0.1628
 7013SOL     OW32500   3.838   2.248   7.855 -0.1589 -0.0140 -0.3351
 7013SOL    HW132501   3.793   2.252   7.940  0.1927  0.8075 -0.1818
 7013SOL    HW232502   3.931   2.258   7.875  0.0215  0.2476 -1.3135
 7014SOL     OW32503   3.004   1.200   4.293 -0.4514 -0.0536  1.0907
 7014SOL    HW132504   2.975   1.278   4.339  0.8680  0.2912  1.3429
 7014SOL    HW232505   2.920   1.175   4.255  0.4938 -0.6589 -0.6269
 7015SOL     OW32506   1.908   1.756   0.695 -0.6170 -0.4446  0.4730
 7015SOL    HW132507   1.921   1.843   0.657  0.2079 -0.5208  0.5805
 7015SOL    HW232508   1.899   1.706   0.614 -0.4833  0.8432 -0.3450
 7016SOL     OW32509   3.438   0.228   3.349 -0.0418  0.0183 -0.3450
 7016SOL    HW132510   3.434   0.213   3.254 -1.8620 -0.1960 -0.2224
 7016SOL    HW232511   3.487   0.311   3.347  1.1834 -0.7242 -0.7318
 7017SOL     OW32512   1.942   0.227   7.626 -0.1638  0.9469  0.2611
 7017SOL    HW132513   1.896   0.145   7.641  1.4272  0.1692  0.7984
 7017SOL    HW232514   1.985   0.203   7.544 -1.0582 -0.8664  0.3344
 7018SOL     OW32515   3.791   3.269   6.090  0.4515  0.0653 -0.1573
 7018SOL    HW132516   3.737   3.308   6.021 -0.7369 -0.2205  0.6130
 7018SOL    HW232517   3.741   3.268   6.171  0.4936  1.6259 -0.1232
 7019SOL     OW32518   1.991   2.991   3.973  0.1782 -0.0482 -0.4586
 7019SOL    HW132519   1.937   3.042   4.035 -0.0894  0.5176 -1.1473
 7019SOL    HW232520   1.922   2.948   3.923  1.5433 -0.4360 -2.0026
 7020SOL     OW32521   1.098   3.369   3.452  0.1942 -0.1011 -0.0072
 7020SOL    HW132522   1.139   3.320   3.523 -0.0178  1.9907  1.5562
 7020SOL    HW232523   1.053   3.307   3.394 -1.3126  1.0711 -0.0920
 7021SOL     OW32524   3.320   1.637   4.629  0.6505 -0.5620  0.0414
 7021SOL    HW132525   3.245   1.605   4.680  2.4147 -0.9740  2.3804
 7021SOL    HW232526   3.347   1.562   4.576 -0.1708 -1.4706  0.8827
 7022SOL     OW32527   1.659   1.662   5.073  0.3483 -0.2975  0.3362
 7022SOL    HW132528   1.731   1.711   5.113  1.1591 -1.4868  0.3178
 7022SOL    HW232529   1.621   1.621   5.150  1.2715  1.4287  1.7349
 7023SOL     OW32530   2.013   0.227   9.467  0.1475  0.3084  0.4203
 7023SOL    HW132531   2.054   0.186   9.543  0.9787  2.5934  1.2290
 7023SOL    HW232532   2.030   0.321   9.470  1.6634  0.0960 -1.8393
 7024SOL     OW32533   1.964   3.393   5.010 -0.0616 -0.1678 -0.1911
 7024SOL    HW132534   1.937   3.374   5.100  1.6304 -0.0053  0.3548
 7024SOL    HW232535   1.994   3.312   4.969  1.2036  0.7828 -1.1344
 7025SOL     OW32536   4.363   1.311  13.509  0.1737 -0.0490 -0.2845
 7025SOL    HW132537   4.380   1.368  13.433 -1.5615 -0.2003 -0.7913
 7025SOL    HW232538   4.344   1.366  13.584  0.4066  2.8089 -2.3021
 7026SOL     OW32539   3.449   4.681   4.842  0.6100 -0.4299 -0.3038
 7026SOL    HW132540   3.416   0.021   4.904  1.2252 -0.0790 -0.3519
 7026SOL    HW232541   3.543   4.672   4.855  0.8116  0.9711 -0.8052
 7027SOL     OW32542   2.317   1.777  11.017 -0.1749  0.0592  0.2055
 7027SOL    HW132543   2.359   1.735  11.092  0.3933 -1.9381 -1.2260
 7027SOL    HW232544   2.386   1.769  10.951 -0.3797 -1.4399  0.1619
 7028SOL     OW32545   1.682   3.718   7.886  0.1050  0.3318 -0.1350
 7028SOL    HW132546   1.693   3.811   7.866  1.8517  0.2307  0.3431
 7028SOL    HW232547   1.775   3.694   7.884  0.1782  0.6524 -0.7429
 7029SOL     OW32548   2.965   4.504   3.955  0.1937  0.1381 -0.1329
 7029SOL    HW132549   2.872   4.512   3.975  0.6872  2.0643  1.3769
 7029SOL    HW232550   2.958   4.526   3.862 -0.5834 -1.0741 -0.3536
 7030SOL     OW32551   4.166   3.734   2.968  0.0684  0.6935 -0.1363
 7030SOL    HW132552   4.153   3.807   2.908  0.8422 -0.5669 -1.8330
 7030SOL    HW232553   4.153   3.663   2.906 -1.0610 -0.0314  0.9433
 7031SOL     OW32554   4.452   2.392   6.268  0.4676 -0.0325  0.0249
 7031SOL    HW132555   4.379   2.367   6.211 -0.5684  2.9868  0.0203
 7031SOL    HW232556   4.462   2.482   6.236  1.5645 -0.3385 -0.4723
 7032SOL     OW32557   4.537   2.371  13.746  0.4418 -0.2936 -0.5520
 7032SOL    HW132558   4.489   2.410  13.673  0.7537  3.2188  1.1034
 7032SOL    HW232559   4.630   2.386  13.729  0.0035  1.8248 -1.0922
 7033SOL     OW32560   3.116   2.140   7.023 -0.0033  0.7410 -0.1037
 7033SOL    HW132561   3.204   2.156   6.991  0.2166 -0.2962 -0.0376
 7033SOL    HW232562   3.059   2.114   6.950  0.7704 -1.1904 -0.0359
 7034SOL     OW32563   4.465   2.806   8.159  0.1423  0.1214 -0.0295
 7034SOL    HW132564   4.473   2.880   8.219  0.8692  0.4651 -0.5495
 7034SOL    HW232565   4.540   2.751   8.183 -0.0731  0.0710  0.5215
 7035SOL     OW32566   4.358   1.572  17.381  0.0592 -0.2330 -0.1326
 7035SOL    HW132567   4.264   1.581  17.401 -0.0690  0.8082 -1.1481
 7035SOL    HW232568   4.406   1.601  17.459 -0.6306  0.2792  0.1085
 7036SOL     OW32569   2.783   3.277   3.281 -0.9193  0.8014 -0.2745
 7036SOL    HW132570   2.866   3.322   3.296 -1.3854  1.1620  1.1937
 7036SOL    HW232571   2.737   3.336   3.221  0.3758 -0.1465 -2.2071
 7037SOL     OW32572   2.682   2.547  10.985  0.2955  0.2353  0.2565
 7037SOL    HW132573   2.636   2.491  10.922 -0.8464 -1.1578  2.3416
 7037SOL    HW232574   2.727   2.474  11.028 -1.8016  0.6536  3.1863
 7038SOL     OW32575   3.160   1.051   3.085 -0.1103 -0.0190 -0.5517
 7038SOL    HW132576   3.153   1.072   2.991 -0.5350 -3.2361 -1.2197
 7038SOL    HW232577   3.074   1.018   3.109 -0.5196  0.5245 -1.2544
 7039SOL     OW32578   1.813   3.960   0.501 -0.5173 -0.8301  0.1136
 7039SOL    HW132579   1.813   4.036   0.442 -2.6313  0.2227  1.4452
 7039SOL    HW232580   1.731   3.917   0.475 -0.9040 -1.1395  1.8574
 7040SOL     OW32581   2.266   1.117  14.614  0.1220 -0.0359  0.0382
 7040SOL    HW132582   2.211   1.195  14.613  0.9808  0.5628  0.7384
 7040SOL    HW232583   2.215   1.063  14.675 -1.6041 -0.2367 -1.5732
 7041SOL     OW32584   2.245   4.489   2.712  0.8602  0.1445  0.1548
 7041SOL    HW132585   2.322   4.465   2.660  0.0190 -2.0379 -0.0949
 7041SOL    HW232586   2.229   4.409   2.763  1.5227  1.1912  2.0211
 7042SOL     OW32587   4.105   1.584   6.738 -0.0273 -0.0695  0.4948
 7042SOL    HW132588   4.024   1.624   6.767  0.7378  0.3987  1.9749
 7042SOL    HW232589   4.071   1.516   6.680  0.0510  0.2768  0.0455
 7043SOL     OW32590   0.891   4.725  16.437  0.1660  0.3236 -0.7210
 7043SOL    HW132591   0.942   4.675  16.372  0.1245 -0.3762 -0.2136
 7043SOL    HW232592   0.816   0.020  16.380 -0.5377  1.5233  0.6474
 7044SOL     OW32593   2.899   0.296   9.340 -0.1965 -0.0243 -0.2814
 7044SOL    HW132594   2.893   0.214   9.291  1.0220 -0.0582 -0.3589
 7044SOL    HW232595   2.957   0.271   9.412 -2.2542 -3.9469  0.0329
 7045SOL     OW32596   1.011   0.455   6.624  0.1307  0.1792 -0.0730
 7045SOL    HW132597   1.017   0.422   6.534  1.0106  1.2365 -0.3949
 7045SOL    HW232598   1.071   0.393   6.667 -0.9483 -1.6186 -1.1320
 7046SOL     OW32599   3.393   2.128   7.613 -0.4320  0.3138 -0.1180
 7046SOL    HW132600   3.327   2.095   7.553 -1.7032 -1.1194  2.0685
 7046SOL    HW232601   3.427   2.202   7.562  0.2592 -0.8713 -1.3661
 7047SOL     OW32602   1.614   1.311   3.754  0.4047  0.3903  0.4035
 7047SOL    HW132603   1.611   1.227   3.800  0.8843 -0.5686 -1.3032
 7047SOL    HW232604   1.523   1.308   3.725  0.1336 -1.0749  1.4160
 7048SOL     OW32605   0.574   4.076  12.623 -0.3644 -0.9019 -0.1918
 7048SOL    HW132606   0.662   4.038  12.632 -0.0977 -0.1807  0.2921
 7048SOL    HW232607   0.587   4.156  12.572  2.4920 -1.9155 -1.0888
 7049SOL     OW32608   4.493   0.484  10.559  0.0312  0.2256 -0.2056
 7049SOL    HW132609   4.568   0.426  10.573 -0.3426  0.1853  1.5988
 7049SOL    HW232610   4.534   0.567  10.585  3.0641 -1.0584 -0.9374
 7050SOL     OW32611   1.543   1.199   5.190  0.4747  0.0219  0.1941
 7050SOL    HW132612   1.582   1.199   5.103  0.4635  2.4074  0.2063
 7050SOL    HW232613   1.568   1.113   5.224  0.6943  0.5240  1.2904
 7051SOL     OW32614   4.316   2.293   1.636 -0.4865  0.1460  0.1310
 7051SOL    HW132615   4.334   2.355   1.565  1.9785 -0.7881 -0.0327
 7051SOL    HW232616   4.231   2.263   1.602 -0.6274  1.1538 -0.4240
 7052SOL     OW32617   4.681   4.543   7.388  0.4290 -0.0759  0.6207
 7052SOL    HW132618   4.660   4.450   7.389 -0.7984  0.1912  0.2509
 7052SOL    HW232619   4.609   4.562   7.328 -0.2414 -0.9473  1.1349
 7053SOL     OW32620   0.404   4.015   5.191 -0.3588  0.4559 -0.5250
 7053SOL    HW132621   0.338   4.036   5.258 -1.6254 -0.4357 -1.4782
 7053SOL    HW232622   0.351   3.954   5.139 -0.3648  0.7913 -0.9148
 7054SOL     OW32623   1.461   3.154   8.395  0.1495  0.2487  0.2352
 7054SOL    HW132624   1.393   3.132   8.459  2.0261  0.3646  2.2707
 7054SOL    HW232625   1.516   3.086   8.433 -0.5961 -1.8981 -2.5460
 7055SOL     OW32626   2.037   4.550   2.537  0.3284  0.0921 -0.4275
 7055SOL    HW132627   2.052   4.501   2.456  0.0936  0.2752 -0.5815
 7055SOL    HW232628   2.108   4.512   2.589  1.8222  0.0869 -2.5112
 7056SOL     OW32629   2.182   1.273   3.543  0.0074 -0.0855 -0.5136
 7056SOL    HW132630   2.179   1.323   3.461  0.7712  1.2066  0.2464
 7056SOL    HW232631   2.264   1.311   3.575  0.0752 -2.1796  1.7954
 7057SOL     OW32632   3.425   1.882   7.938 -0.7039  0.4929  0.5598
 7057SOL    HW132633   3.465   1.945   7.998  0.3733  1.0576 -0.7623
 7057SOL    HW232634   3.429   1.800   7.988 -0.4690  0.0809 -0.1369
 7058SOL     OW32635   0.896   0.736   3.269 -0.3772  0.6503  0.4632
 7058SOL    HW132636   0.825   0.673   3.265 -0.0983  0.2751  1.4533
 7058SOL    HW232637   0.961   0.676   3.232 -0.9129 -0.3968  1.2211
 7059SOL     OW32638   1.801   2.349   4.820 -0.3333  0.3080 -0.7936
 7059SOL    HW132639   1.818   2.423   4.762 -0.1763  0.6156 -0.3590
 7059SOL    HW232640   1.768   2.275   4.769 -0.9439 -0.4242  0.6340
 7060SOL     OW32641   1.130   0.445   1.942  0.0191  0.1190 -0.2732
 7060SOL    HW132642   1.219   0.409   1.937 -0.1279 -0.1480 -0.8978
 7060SOL    HW232643   1.088   0.376   1.891 -0.9733  1.0011 -0.6547
 7061SOL     OW32644   2.018   1.626  11.641 -0.5832 -0.1547  0.4137
 7061SOL    HW132645   2.060   1.564  11.701  2.7535  0.0945 -1.6115
 7061SOL    HW232646   2.038   1.595  11.552  0.0353 -0.6622  0.7334
 7062SOL     OW32647   4.261   2.990   1.757  0.6207  0.2896 -0.0071
 7062SOL    HW132648   4.254   3.041   1.676  1.8137  1.0342  0.3618
 7062SOL    HW232649   4.241   2.908   1.712  3.7236 -0.1240 -0.6318
 7063SOL     OW32650   1.278   0.209  17.104 -0.2121  0.3681  0.1287
 7063SOL    HW132651   1.335   0.253  17.042 -1.2574  1.8869  0.2639
 7063SOL    HW232652   1.299   0.120  17.073  1.0665  0.9141 -0.5727
 7064SOL     OW32653   4.024   2.199   8.276  0.3392  0.4677 -0.6818
 7064SOL    HW132654   3.971   2.279   8.272 -0.5640 -0.0214  1.4251
 7064SOL    HW232655   4.093   2.225   8.216  1.8143  0.3173  0.9517
 7065SOL     OW32656   3.395   2.705   6.094 -0.3101 -0.3017  0.0442
 7065SOL    HW132657   3.418   2.791   6.058  0.8026  0.6319  2.9752
 7065SOL    HW232658   3.397   2.727   6.188  0.1859  2.5111 -0.6240
 7066SOL     OW32659   3.664   3.788   6.808 -0.3134  0.2541 -0.6531
 7066SOL    HW132660   3.702   3.791   6.895 -1.2174 -3.8765 -0.1138
 7066SOL    HW232661   3.729   3.834   6.755 -1.3450  0.1446 -2.0045
 7067SOL     OW32662   3.503   0.778  15.881  0.1610  0.0791  1.1786
 7067SOL    HW132663   3.443   0.704  15.885  1.3254 -0.8346  1.6248
 7067SOL    HW232664   3.461   0.842  15.940 -0.0374  0.0696  1.0483
 7068SOL     OW32665   2.821   0.956   2.520 -0.2066 -1.1123  0.5841
 7068SOL    HW132666   2.831   0.861   2.517  1.3660 -0.9313 -0.2984
 7068SOL    HW232667   2.740   0.969   2.471 -0.7299 -2.6649  1.0585
 7069SOL     OW32668   3.291   3.045   5.827  0.4142  0.5182  0.5727
 7069SOL    HW132669   3.197   3.025   5.824  1.1955 -3.4599  2.1005
 7069SOL    HW232670   3.300   3.136   5.801 -0.3450 -0.3756 -2.7482
 7070SOL     OW32671   2.626   1.298   9.292 -0.2337  0.0660 -0.4871
 7070SOL    HW132672   2.716   1.324   9.270 -0.1935  0.5794  0.2968
 7070SOL    HW232673   2.619   1.203   9.286 -4.2916  0.3618 -0.2266
 7071SOL     OW32674   2.197   2.390  13.502 -0.6853  0.2170  0.0992
 7071SOL    HW132675   2.266   2.336  13.538 -2.0017 -2.5942 -1.6160
 7071SOL    HW232676   2.151   2.436  13.572 -1.6369 -1.3836  0.5275
 7072SOL     OW32677   2.800   3.630  13.661 -0.5356 -0.1570  0.4166
 7072SOL    HW132678   2.872   3.650  13.601 -1.4416  0.3698 -0.4909
 7072SOL    HW232679   2.804   3.706  13.719 -0.1651 -1.7016  2.4221
 7073SOL     OW32680   4.299   1.181   6.486 -0.7749 -0.3880  0.4163
 7073SOL    HW132681   4.311   1.275   6.470  0.7345 -0.6529 -0.0184
 7073SOL    HW232682   4.360   1.167   6.559  0.2870 -0.2876 -0.4566
 7074SOL     OW32683   1.276   2.379  16.596 -0.1665 -0.2864  0.1857
 7074SOL    HW132684   1.298   2.313  16.530 -1.7413 -1.9940  1.3485
 7074SOL    HW232685   1.218   2.436  16.545  2.1388  1.2714 -0.6722
 7075SOL     OW32686   0.467   3.649   4.235 -0.6849 -0.6623  0.3841
 7075SOL    HW132687   0.514   3.703   4.298 -1.5056  1.5845 -0.9301
 7075SOL    HW232688   0.485   3.709   4.163  1.4293  0.1329  1.5785
 7076SOL     OW32689   3.493   0.101   2.789  0.0467 -0.4908  0.2887
 7076SOL    HW132690   3.501   0.094   2.884 -1.8759 -1.0299  0.4164
 7076SOL    HW232691   3.453   0.016   2.767 -2.7240  0.3061  2.1949
 7077SOL     OW32692   0.645   2.285   1.493  0.1205  0.1529  0.4390
 7077SOL    HW132693   0.673   2.366   1.451  0.1995  0.6710  1.4786
 7077SOL    HW232694   0.707   2.227   1.447  0.0523 -1.6028  2.5437
 7078SOL     OW32695   2.303   2.818   7.124  0.3676 -0.7833 -0.5664
 7078SOL    HW132696   2.294   2.723   7.113 -0.7290 -0.6525 -0.8956
 7078SOL    HW232697   2.398   2.823   7.132  0.1073  0.0940  1.8918
 7079SOL     OW32698   2.847   1.883  11.491  0.2588 -0.2557  0.6848
 7079SOL    HW132699   2.941   1.893  11.480 -0.0097  0.0416 -1.4711
 7079SOL    HW232700   2.849   1.847  11.579 -2.8802  3.0155  2.1259
 7080SOL     OW32701   0.111   3.575   3.704  0.3202 -0.4147 -0.7434
 7080SOL    HW132702   0.022   3.611   3.706  0.3740 -0.3223  0.0249
 7080SOL    HW232703   0.097   3.501   3.644  1.3743 -0.6163 -0.7301
 7081SOL     OW32704   1.357   3.915   5.059  0.0941  0.1628  1.0978
 7081SOL    HW132705   1.290   3.981   5.079 -0.1608 -0.1526  1.2758
 7081SOL    HW232706   1.343   3.852   5.129  3.8395 -0.6290  1.1382
 7082SOL     OW32707   0.158   1.547   7.010  0.5537  0.2351 -0.4059
 7082SOL    HW132708   0.186   1.515   6.924 -2.0146 -1.5771 -0.5489
 7082SOL    HW232709   0.091   1.483   7.033 -0.8092  1.1543 -1.8597
 7083SOL     OW32710   4.001   0.294   5.070  0.2858 -0.0088  0.2266
 7083SOL    HW132711   4.033   0.381   5.094 -1.5410  0.3794  1.2997
 7083SOL    HW232712   4.079   0.240   5.078  0.3645  0.1860  0.8225
 7084SOL     OW32713   4.556   2.537   5.403  0.9136  0.0277  0.4576
 7084SOL    HW132714   4.488   2.551   5.338  2.3410 -3.1595 -1.6700
 7084SOL    HW232715   4.507   2.499   5.476 -1.0255  1.7622  0.0765
 7085SOL     OW32716   1.213   3.645  14.642  0.1579 -0.0355 -0.1110
 7085SOL    HW132717   1.118   3.644  14.652  0.2609 -0.9593  0.7367
 7085SOL    HW232718   1.227   3.568  14.697 -0.2969  0.5604  0.8449
 7086SOL     OW32719   0.315   0.913   7.717 -0.3841 -0.1255 -0.4361
 7086SOL    HW132720   0.405   0.893   7.692 -0.3946 -1.9848  1.0437
 7086SOL    HW232721   0.305   0.864   7.798 -0.4861  1.8752  0.7767
 7087SOL     OW32722   4.206   1.025   5.878 -0.3795 -0.1856 -0.1314
 7087SOL    HW132723   4.115   0.996   5.884 -1.0632  1.4005 -2.6688
 7087SOL    HW232724   4.203   1.069   5.793 -0.5556  0.0323 -0.0137
 7088SOL     OW32725   0.955   3.391  16.250  0.0434  0.5884  0.1719
 7088SOL    HW132726   0.920   3.334  16.182  0.4874 -1.0332  1.2899
 7088SOL    HW232727   0.929   3.348  16.331  1.1881  0.6305  0.5757
 7089SOL     OW32728   3.043   4.254  10.016  0.3393 -0.3795  0.6098
 7089SOL    HW132729   3.077   4.211   9.937 -0.3918  0.4016 -0.1346
 7089SOL    HW232730   3.091   4.336  10.004  1.1911 -0.4236  3.8901
 7090SOL     OW32731   0.813   3.816   1.500  0.0601  0.2354 -0.1679
 7090SOL    HW132732   0.815   3.866   1.582  2.7638 -0.1195 -0.0155
 7090SOL    HW232733   0.831   3.881   1.432  0.3184 -0.2919 -0.5996
 7091SOL     OW32734   2.549   2.020  10.706  0.2532  0.6064  0.3591
 7091SOL    HW132735   2.561   2.065  10.622  2.0264  2.2326  1.4819
 7091SOL    HW232736   2.475   2.069  10.742  2.0822  3.5405  0.1617
 7092SOL     OW32737   1.718   1.631   1.661 -0.0179 -0.0271  0.1504
 7092SOL    HW132738   1.791   1.671   1.709  1.0519  0.3984 -1.8158
 7092SOL    HW232739   1.649   1.690   1.692  0.5439  1.0485 -0.6564
 7093SOL     OW32740   1.692   4.122   3.975  0.0974  0.2192 -0.0372
 7093SOL    HW132741   1.658   4.033   3.967 -1.3092  0.9800 -2.3079
 7093SOL    HW232742   1.735   4.124   4.061 -0.3886  1.7110  0.1822
 7094SOL     OW32743   0.402   3.372   8.529  0.3344  0.0095  0.1612
 7094SOL    HW132744   0.386   3.461   8.561  1.0488  0.2241 -0.0845
 7094SOL    HW232745   0.391   3.380   8.434 -0.0764  1.1622  0.3059
 7095SOL     OW32746   3.458   1.130   6.050  0.0951  0.0960  0.6840
 7095SOL    HW132747   3.452   1.203   6.113 -0.2515 -0.0537  0.8274
 7095SOL    HW232748   3.471   1.057   6.110 -2.3144  1.4519  2.9159
 7096SOL     OW32749   1.511   1.636   3.190  0.5598  0.1748  0.4911
 7096SOL    HW132750   1.423   1.652   3.156  0.5959 -1.5424 -0.4518
 7096SOL    HW232751   1.530   1.556   3.141  0.7048  0.2046  0.4983
 7097SOL     OW32752   2.207   4.718   7.646  0.3377  0.5107  0.0363
 7097SOL    HW132753   2.298   4.705   7.673 -0.6356 -0.1387  2.9933
 7097SOL    HW232754   2.170   0.020   7.730  1.1192 -2.5185  1.3605
 7098SOL     OW32755   0.687   1.668   1.423  0.5244  0.0095  0.2358
 7098SOL    HW132756   0.673   1.626   1.508  0.4591  1.5752  1.0041
 7098SOL    HW232757   0.680   1.604   1.353 -2.9202 -2.2908  2.7096
 7099SOL     OW32758   0.740   4.243  13.252 -0.3334  0.1644  0.8951
 7099SOL    HW132759   0.679   4.202  13.312 -1.5918 -0.3032 -0.7208
 7099SOL    HW232760   0.824   4.224  13.294  0.0969  0.5834  0.2160
 7100SOL     OW32761   3.224   2.587   7.261  0.3630  0.8638 -0.3216
 7100SOL    HW132762   3.225   2.683   7.258  1.4826  0.7722 -2.1611
 7100SOL    HW232763   3.142   2.568   7.216  0.9381  0.5634 -1.2370
 7101SOL     OW32764   3.116   2.406  15.007 -0.1014  0.3607  0.2082
 7101SOL    HW132765   3.189   2.384  15.065 -0.5336  0.7074  0.8825
 7101SOL    HW232766   3.150   2.480  14.957 -1.5614 -0.0641 -1.4118
 7102SOL     OW32767   0.752   1.793   8.253 -0.5314  0.3868  0.1500
 7102SOL    HW132768   0.755   1.761   8.163  1.1993 -1.2430  0.7851
 7102SOL    HW232769   0.775   1.709   8.293  2.4303  1.1068 -0.1084
 7103SOL     OW32770   0.976   1.618   6.361  0.4436 -0.1334 -0.2172
 7103SOL    HW132771   1.048   1.651   6.307 -0.4401  1.1270 -0.6330
 7103SOL    HW232772   0.958   1.695   6.415  1.3259 -0.7817  1.0132
 7104SOL     OW32773   3.061   1.173  10.102 -0.1468  0.1227  0.1031
 7104SOL    HW132774   3.065   1.268  10.091  0.0522 -0.2002 -2.6998
 7104SOL    HW232775   3.140   1.152  10.151 -1.3522 -1.0773  1.5020
 7105SOL     OW32776   0.731   0.869   8.521 -0.3828 -0.1053 -0.0565
 7105SOL    HW132777   0.811   0.905   8.483 -0.2013  1.3777  1.7336
 7105SOL    HW232778   0.690   0.858   8.435  0.3282 -0.7483 -0.3114
 7106SOL     OW32779   4.652   0.122   0.888  0.0289 -0.3386  0.0658
 7106SOL    HW132780   4.591   0.196   0.898  0.2072 -0.1486 -0.2271
 7106SOL    HW232781   4.632   0.067   0.964 -2.2150  1.5845  0.8898
 7107SOL     OW32782   2.281   3.936   8.889  0.0305  0.6937  0.0901
 7107SOL    HW132783   2.328   4.012   8.853  1.8917 -0.4305  0.1616
 7107SOL    HW232784   2.200   3.957   8.844 -0.2729  2.2956  1.3415
 7108SOL     OW32785   3.147   0.867  13.593 -0.7240 -0.3541 -0.4003
 7108SOL    HW132786   3.191   0.939  13.548  0.7747  0.5275  2.4403
 7108SOL    HW232787   3.065   0.854  13.547 -1.0759  0.4469  0.0095
 7109SOL     OW32788   3.631   3.119   5.245  0.0720 -0.5424  0.4280
 7109SOL    HW132789   3.605   3.171   5.169 -0.8035 -0.1167  1.0164
 7109SOL    HW232790   3.623   3.035   5.201 -0.3016  0.0916 -0.7122
 7110SOL     OW32791   4.505   4.228   9.833 -0.3601  0.0966 -0.0850
 7110SOL    HW132792   4.469   4.184   9.756  1.3361  0.9060 -1.3440
 7110SOL    HW232793   4.600   4.233   9.824 -0.4595 -0.9207 -1.6153
 7111SOL     OW32794   2.387   3.866   3.608  0.8472 -0.2362  0.2165
 7111SOL    HW132795   2.471   3.885   3.649 -0.5512  1.2086  2.4197
 7111SOL    HW232796   2.365   3.944   3.557  0.3689 -1.3519 -1.2811
 7112SOL     OW32797   0.327   4.587  15.562 -0.4279  0.2979 -0.0285
 7112SOL    HW132798   0.320   4.664  15.619 -1.9077 -0.3182  0.6417
 7112SOL    HW232799   0.340   4.626  15.476 -1.0940  0.0603 -0.2361
 7113SOL     OW32800   4.344   1.389   1.718 -0.1425  0.2270  0.2412
 7113SOL    HW132801   4.409   1.411   1.651  1.1756  1.0706  1.7907
 7113SOL    HW232802   4.294   1.333   1.658 -0.0243  1.6552 -1.1847
 7114SOL     OW32803   3.507   4.014   5.592  0.3154 -0.2518  0.1525
 7114SOL    HW132804   3.438   4.071   5.557  1.6458  2.3400  1.7439
 7114SOL    HW232805   3.551   4.064   5.661  0.5003 -1.9150  1.2455
 7115SOL     OW32806   0.686   1.079   8.130  0.0327 -0.5953  0.1955
 7115SOL    HW132807   0.654   1.086   8.040  1.0739  0.3937 -0.0880
 7115SOL    HW232808   0.648   0.993   8.149  0.2458 -1.0363 -1.3135
 7116SOL     OW32809   2.364   0.403  13.922 -0.2861  0.5597  0.5014
 7116SOL    HW132810   2.380   0.365  13.836  0.6363  1.6870  0.1632
 7116SOL    HW232811   2.331   0.330  13.973 -1.4903 -0.2960 -1.5035
 7117SOL     OW32812   1.340   0.388  10.685  0.4586  0.7157  0.2282
 7117SOL    HW132813   1.335   0.448  10.759  2.3273  1.8959 -0.6015
 7117SOL    HW232814   1.326   0.444  10.609 -2.8384  0.9641  1.0483
 7118SOL     OW32815   0.772   3.798   4.483  0.2670  0.2526 -0.2325
 7118SOL    HW132816   0.849   3.754   4.519 -0.1118 -0.2174 -0.0040
 7118SOL    HW232817   0.720   3.720   4.466 -1.5098  1.0284  1.5803
 7119SOL     OW32818   0.194   0.041   1.779 -1.0882  0.2918 -0.1635
 7119SOL    HW132819   0.180   0.014   1.689  0.2001 -1.1452  0.0726
 7119SOL    HW232820   0.141   4.706   1.832 -0.4575 -0.6003 -0.5493
 7120SOL     OW32821   0.959   1.008   9.674 -0.2645 -0.3425 -0.1457
 7120SOL    HW132822   1.035   1.040   9.721 -0.3738  1.1844 -1.0201
 7120SOL    HW232823   0.973   1.049   9.588  1.4165 -1.1024 -0.2338
 7121SOL     OW32824   0.142   1.784   3.356  0.2379  0.2294  0.1304
 7121SOL    HW132825   0.055   1.819   3.334  0.2956  0.0683 -0.3586
 7121SOL    HW232826   0.141   1.689   3.340  2.5419  0.3572 -0.7347
 7122SOL     OW32827   2.160   3.483   3.314  0.4965  0.1038  0.6860
 7122SOL    HW132828   2.175   3.556   3.254 -0.2690 -0.3122 -0.0320
 7122SOL    HW232829   2.214   3.518   3.385  1.1892 -1.8464  1.1148
 7123SOL     OW32830   4.652   2.423  10.399  0.3302  0.4929 -0.3058
 7123SOL    HW132831   4.627   2.458  10.314  2.0765 -0.5135 -1.2282
 7123SOL    HW232832   4.685   2.336  10.379  1.5497  0.9210 -0.1241
 7124SOL     OW32833   2.963   1.780   4.542 -0.6272 -0.1444 -0.3463
 7124SOL    HW132834   3.037   1.840   4.532 -1.0706  0.2164 -1.3974
 7124SOL    HW232835   2.981   1.717   4.473  2.0138  0.0053  0.1773
 7125SOL     OW32836   2.582   4.326   6.594 -0.2812 -0.2698 -0.3381
 7125SOL    HW132837   2.639   4.341   6.669 -1.2536  1.1808  0.1052
 7125SOL    HW232838   2.560   4.415   6.565  2.6876  0.1694 -1.2472
 7126SOL     OW32839   3.950   3.076   5.653 -0.1306  0.0179 -0.3163
 7126SOL    HW132840   3.961   3.025   5.734 -0.2748 -1.0508 -0.9628
 7126SOL    HW232841   3.863   3.113   5.666  0.0450  0.7610 -1.2282
 7127SOL     OW32842   4.151   1.617   1.781  0.3778 -0.1558 -0.6587
 7127SOL    HW132843   4.160   1.522   1.774  1.2791 -0.0924 -0.3257
 7127SOL    HW232844   4.208   1.648   1.710  0.4073  1.1846 -0.0375
 7128SOL     OW32845   1.873   0.998   3.568  0.4527  0.2488  0.3445
 7128SOL    HW132846   1.780   0.989   3.547 -0.0913  0.3711  2.7585
 7128SOL    HW232847   1.868   1.018   3.661 -2.8241  0.1702  0.1863
 7129SOL     OW32848   1.363   0.126  10.500 -0.3876  0.1193  0.0029
 7129SOL    HW132849   1.415   0.046  10.509  1.7926  1.4137 -1.0591
 7129SOL    HW232850   1.430   0.194  10.496  1.0590 -1.2528  0.6349
 7130SOL     OW32851   3.585   0.316   8.148 -0.1525 -0.2889 -0.4007
 7130SOL    HW132852   3.533   0.348   8.074 -0.9892 -1.0123 -0.1204
 7130SOL    HW232853   3.578   0.389   8.208 -0.1708  0.4539 -1.3036
 7131SOL     OW32854   1.208   0.978   9.000 -0.2960 -0.2644 -0.2187
 7131SOL    HW132855   1.113   0.985   8.986 -0.4102 -0.4562  0.4543
 7131SOL    HW232856   1.249   0.911   8.946  0.7158 -0.1657  0.4333
 7132SOL     OW32857   2.123   0.323   8.878  0.4038  0.1055  0.0140
 7132SOL    HW132858   2.163   0.268   8.945  2.8727  0.6701 -0.9770
 7132SOL    HW232859   2.088   0.255   8.821  0.3931  1.4748 -1.6347
 7133SOL     OW32860   3.850   0.051   8.335  0.0198  0.2535  0.5096
 7133SOL    HW132861   3.760   0.037   8.366  0.2229 -0.5415  0.7319
 7133SOL    HW232862   3.882   0.106   8.407 -0.0376 -1.4150  1.8105
 7134SOL     OW32863   0.173   1.596   3.703 -0.1042 -0.0736  0.1038
 7134SOL    HW132864   0.195   1.599   3.796  1.7347 -1.6798 -0.2647
 7134SOL    HW232865   0.084   1.631   3.698  0.3605  1.0720 -0.0754
 7135SOL     OW32866   0.606   3.214   8.537  0.5270 -0.3165 -0.0939
 7135SOL    HW132867   0.592   3.171   8.621  0.1069  0.8585  0.4411
 7135SOL    HW232868   0.531   3.274   8.546  1.5333  0.5648  2.2736
 7136SOL     OW32869   1.605   3.787   7.519 -0.0246 -0.1606  0.0829
 7136SOL    HW132870   1.549   3.710   7.509 -2.9937  1.8971  0.6208
 7136SOL    HW232871   1.659   3.786   7.440  0.6577 -0.8238  0.5705
 7137SOL     OW32872   2.157   1.259   5.562  0.2454  0.4337 -0.3984
 7137SOL    HW132873   2.211   1.203   5.505 -0.4761 -0.6414 -0.0278
 7137SOL    HW232874   2.220   1.328   5.582 -0.0399  0.1172  1.5382
 7138SOL     OW32875   0.783   0.630   9.556  0.8997  0.1673  0.1104
 7138SOL    HW132876   0.762   0.703   9.613 -0.9270 -0.1553 -0.1769
 7138SOL    HW232877   0.862   0.656   9.507 -0.0574  1.6726 -0.6399
 7139SOL     OW32878   3.430   2.863   4.153  0.0672 -0.6469  0.0308
 7139SOL    HW132879   3.399   2.814   4.229  0.8590 -1.5376 -0.2176
 7139SOL    HW232880   3.403   2.952   4.175 -0.3519 -1.0737  1.2369
 7140SOL     OW32881   1.090   3.880   2.972 -0.0921  0.4367  0.4678
 7140SOL    HW132882   1.142   3.959   2.958 -0.6556  0.6631 -0.3332
 7140SOL    HW232883   1.155   3.818   3.006 -0.0132 -1.0117 -2.2840
 7141SOL     OW32884   1.610   4.565   3.947  0.2011 -0.0702 -0.6244
 7141SOL    HW132885   1.587   4.515   4.025  0.7056 -0.8905 -1.0001
 7141SOL    HW232886   1.523   4.598   3.921  0.5984  0.8577 -0.7601
 7142SOL     OW32887   0.545   2.384   8.516  0.2748 -0.2831  0.7114
 7142SOL    HW132888   0.515   2.422   8.433  0.2769 -0.3251  0.6914
 7142SOL    HW232889   0.516   2.449   8.580  2.1608  1.2816 -0.0256
 7143SOL     OW32890   1.873   0.214   5.613 -0.2817 -0.0372  0.2023
 7143SOL    HW132891   1.792   0.263   5.629  0.0263  0.1720  1.1020
 7143SOL    HW232892   1.933   0.279   5.576 -0.4260  0.1986  0.3808
 7144SOL     OW32893   4.607   0.252   1.333  0.2604 -0.0842 -0.2586
 7144SOL    HW132894   4.633   0.173   1.381  0.0739  0.4584  0.7327
 7144SOL    HW232895   4.544   0.283   1.398  0.2426  0.1449 -0.3867
 7145SOL     OW32896   4.084   4.668   0.902  0.1349  1.2810 -0.3561
 7145SOL    HW132897   3.995   4.655   0.869  0.3834  0.3154 -0.6435
 7145SOL    HW232898   4.101   4.593   0.960 -1.4070  1.5565  0.4546
 7146SOL     OW32899   0.670   0.902   2.588  0.3906 -0.4590 -0.0535
 7146SOL    HW132900   0.695   0.812   2.565 -2.2322 -1.8218  2.5214
 7146SOL    HW232901   0.698   0.950   2.509  1.1593 -0.2347  0.3497
 7147SOL     OW32902   3.075   1.157   8.078 -0.8271 -0.1705  0.0200
 7147SOL    HW132903   3.136   1.112   8.136  1.1693  0.2790 -1.7436
 7147SOL    HW232904   3.084   1.244   8.117 -2.5523  0.0247 -0.0215
 7148SOL     OW32905   2.391   0.193   1.457  0.1637  0.1799  0.2309
 7148SOL    HW132906   2.361   0.277   1.422  1.0306 -0.0801 -1.1541
 7148SOL    HW232907   2.440   0.165   1.379  0.3301 -0.9688  0.7510
 7149SOL     OW32908   2.125   4.276   5.213 -0.1378  0.0601  0.0040
 7149SOL    HW132909   2.187   4.344   5.239 -1.4018  1.6796 -1.2621
 7149SOL    HW232910   2.127   4.218   5.290  0.2146  0.5895  0.3915
 7150SOL     OW32911   1.992   0.101   2.448  0.2897 -0.0197  0.1989
 7150SOL    HW132912   2.010   0.015   2.486 -1.2931  0.4594  2.0264
 7150SOL    HW232913   1.933   0.138   2.514  1.0039  0.0137  0.8236
 7151SOL     OW32914   0.863   0.239   9.130  0.3781  0.1044  0.0060
 7151SOL    HW132915   0.771   0.265   9.139  0.4264  0.2226  0.1643
 7151SOL    HW232916   0.902   0.322   9.101 -1.4447  0.6981 -0.7419
 7152SOL     OW32917   2.099   0.289  17.449 -0.6689  0.7774  0.2299
 7152SOL    HW132918   2.127   0.234  17.375  0.4882 -0.6674  1.7316
 7152SOL    HW232919   2.159   0.264  17.519  0.6868 -0.8932 -1.5133
 7153SOL     OW32920   3.908   3.041  12.204 -0.0194 -0.6095 -0.1263
 7153SOL    HW132921   3.827   3.077  12.167 -0.6941 -1.6437  0.3593
 7153SOL    HW232922   3.941   3.113  12.258  0.4081 -1.3623  0.6037
 7154SOL     OW32923   3.186   3.416   6.569 -0.6791 -0.6275  0.4312
 7154SOL    HW132924   3.098   3.377   6.574 -1.8167  1.7909 -0.5944
 7154SOL    HW232925   3.172   3.470   6.647 -0.5554  1.8527 -1.2640
 7155SOL     OW32926   2.595   3.423   6.143 -0.1270 -0.2773 -0.4474
 7155SOL    HW132927   2.638   3.341   6.119 -0.7838 -1.1960  1.4889
 7155SOL    HW232928   2.508   3.410   6.106  0.7040 -2.0206 -1.7597
 7156SOL     OW32929   1.568   0.377   6.860 -0.0347 -0.2378 -0.3099
 7156SOL    HW132930   1.518   0.296   6.867  0.2879 -0.4242 -0.2235
 7156SOL    HW232931   1.496   0.436   6.837  0.4934  0.5084 -0.0400
 7157SOL     OW32932   2.568   4.629   3.236 -0.0510  0.0318 -0.5034
 7157SOL    HW132933   2.487   4.582   3.214  0.2621 -1.4246  1.4682
 7157SOL    HW232934   2.635   4.606   3.171 -1.7986  1.2465 -2.7433
 7158SOL     OW32935   2.835   0.051  12.307 -0.0925 -0.5153 -0.3974
 7158SOL    HW132936   2.923   0.056  12.344 -0.7370  2.0426  0.8205
 7158SOL    HW232937   2.858   0.029  12.217 -0.7953  1.9581 -1.1891
 7159SOL     OW32938   1.760   4.599   5.642  0.2350 -0.2712  0.4108
 7159SOL    HW132939   1.723   4.671   5.591 -0.7358  0.8209  2.6236
 7159SOL    HW232940   1.838   4.636   5.683  0.4199  1.0777 -1.1721
 7160SOL     OW32941   1.943   1.296   1.419  0.4148 -0.6192 -0.0036
 7160SOL    HW132942   2.009   1.262   1.479 -1.0520 -0.4162  1.7149
 7160SOL    HW232943   1.882   1.222   1.419  1.0530 -1.1493  0.1947
 7161SOL     OW32944   2.188   4.708   8.190  0.3530  0.7767  0.5437
 7161SOL    HW132945   2.197   0.034   8.270 -0.6930  4.1490 -1.4561
 7161SOL    HW232946   2.264   4.650   8.199  0.4662  0.9357  0.6176
 7162SOL     OW32947   4.407   4.424  13.781 -0.5100  0.2278 -0.1901
 7162SOL    HW132948   4.316   4.396  13.769 -0.5062 -0.5755  1.6376
 7162SOL    HW232949   4.423   4.441  13.688  1.0654  0.7125  0.1646
 7163SOL     OW32950   4.173   3.682   5.901 -0.5934 -0.1878  0.5728
 7163SOL    HW132951   4.142   3.712   5.816  0.8069  2.7143  1.1075
 7163SOL    HW232952   4.102   3.627   5.933 -0.2955 -2.7965 -3.1867
 7164SOL     OW32953   4.263   0.769   2.883  0.1633  0.4817  0.0762
 7164SOL    HW132954   4.339   0.712   2.893 -0.0811  0.2870  0.8384
 7164SOL    HW232955   4.208   0.752   2.960 -0.5215 -1.2060 -0.8008
 7165SOL     OW32956   4.178   0.195   8.800 -0.3213  0.2132 -0.4402
 7165SOL    HW132957   4.265   0.157   8.814 -0.7123  0.1933  1.9371
 7165SOL    HW232958   4.133   0.179   8.883 -0.4100 -1.4962 -0.8146
 7166SOL     OW32959   0.999   2.294  10.925  0.5747  0.1256 -0.1551
 7166SOL    HW132960   1.016   2.215  10.874  1.7180  0.0918  0.2929
 7166SOL    HW232961   1.028   2.358  10.860  0.0631 -1.7622 -2.2480
 7167SOL     OW32962   2.931   2.925  11.648  0.8035 -0.5385  0.0826
 7167SOL    HW132963   3.009   2.873  11.671  1.8987  1.3756  0.6425
 7167SOL    HW232964   2.943   2.932  11.553 -0.4805  1.7703  0.0922
 7168SOL     OW32965   2.689   4.014  17.095 -0.3432  0.3226 -0.0046
 7168SOL    HW132966   2.626   3.953  17.057 -1.0006  0.4465  0.8671
 7168SOL    HW232967   2.630   4.078  17.134 -0.6653 -0.9295  1.5727
 7169SOL     OW32968   2.881   3.511  15.083  0.6829 -0.0936 -0.2257
 7169SOL    HW132969   2.805   3.560  15.115  0.2603 -0.3113 -0.8880
 7169SOL    HW232970   2.882   3.540  14.992 -0.3294 -0.4598 -0.3474
 7170SOL     OW32971   1.234   1.988   6.286  0.6132  0.1687  0.0868
 7170SOL    HW132972   1.249   2.001   6.379 -1.7155  2.6353  0.1099
 7170SOL    HW232973   1.322   1.977   6.249  0.8425  0.8170  0.4582
 7171SOL     OW32974   3.259   2.679   4.598  0.1076 -0.2953 -0.4816
 7171SOL    HW132975   3.196   2.616   4.633 -0.8618  0.7068 -0.4253
 7171SOL    HW232976   3.307   2.629   4.532 -0.6344 -0.1787 -1.1108
 7172SOL     OW32977   0.385   1.973  13.082 -0.0935 -0.7611 -0.1135
 7172SOL    HW132978   0.448   1.944  13.148  0.9703  2.8110  0.4434
 7172SOL    HW232979   0.423   2.047  13.035 -0.7765  0.7926  1.7893
 7173SOL     OW32980   1.791   0.009   7.376  0.3340  0.1996 -0.4827
 7173SOL    HW132981   1.886   0.009   7.388  0.1348  3.3260  1.1259
 7173SOL    HW232982   1.752   0.018   7.463 -2.1665 -4.1190 -1.1691
 7174SOL     OW32983   0.364   1.954  10.663  0.6488  0.1017  0.3281
 7174SOL    HW132984   0.381   2.048  10.659 -0.4805  0.1936 -2.2218
 7174SOL    HW232985   0.329   1.944  10.752 -0.6636  0.9272 -0.1055
 7175SOL     OW32986   2.114   3.776  11.007  0.0116  0.1854 -0.4826
 7175SOL    HW132987   2.096   3.689  11.043 -1.4924  0.7733  0.1951
 7175SOL    HW232988   2.025   3.802  10.982 -1.0101 -1.3129  1.6355
 7176SOL     OW32989   3.066   2.578   8.672  0.5492  0.1282 -0.0359
 7176SOL    HW132990   3.057   2.542   8.584  2.4704  2.0841 -1.0249
 7176SOL    HW232991   3.072   2.673   8.667 -1.5621  0.2505 -0.4011
 7177SOL     OW32992   2.557   4.534  11.828 -0.4746 -0.0819  0.0728
 7177SOL    HW132993   2.574   4.443  11.803 -2.6905 -0.9980  1.8752
 7177SOL    HW232994   2.609   4.541  11.908  1.1640  0.2242 -1.0241
 7178SOL     OW32995   2.538   1.874  14.330 -0.0528 -0.2248  0.1610
 7178SOL    HW132996   2.631   1.856  14.344  0.3274  0.4079 -1.5737
 7178SOL    HW232997   2.553   1.881  14.236 -1.1745 -0.3594 -0.0275
 7179SOL     OW32998   4.500   0.688   4.528  0.3866  0.1059  0.7281
 7179SOL    HW132999   4.481   0.754   4.594  0.3795  0.1535  0.6784
 7179SOL    HW233000   4.594   0.700   4.512  0.9571 -2.7635  1.8551
 7180SOL     OW33001   3.116   0.663   2.254 -0.0975  0.2124  0.5273
 7180SOL    HW133002   3.165   0.588   2.218 -1.7420 -1.6122  2.1098
 7180SOL    HW233003   3.149   0.728   2.192  3.6169 -3.4132 -1.3583
 7181SOL     OW33004   2.120   0.166   8.384 -0.1153  0.4723 -0.7889
 7181SOL    HW133005   2.100   0.259   8.373  0.6182  0.4782 -2.0115
 7181SOL    HW233006   2.036   0.122   8.400  0.8639 -1.4220 -0.7822
 7182SOL     OW33007   3.975   2.377   2.386 -0.8119 -0.1821 -0.7551
 7182SOL    HW133008   3.951   2.358   2.295  1.1474  0.4773 -1.4042
 7182SOL    HW233009   4.011   2.297   2.423 -1.8797 -1.3466 -2.2277
 7183SOL     OW33010   0.543   4.515  11.331 -0.3048  0.5623 -0.1659
 7183SOL    HW133011   0.533   4.466  11.250 -0.2895  2.4150 -1.2939
 7183SOL    HW233012   0.544   4.605  11.299  1.6730  0.8465  0.6825
 7184SOL     OW33013   3.683   2.697   5.527 -0.1477  0.3614  0.1543
 7184SOL    HW133014   3.649   2.610   5.547 -1.8975  0.4629 -2.3034
 7184SOL    HW233015   3.611   2.731   5.473 -0.4395 -1.0216 -0.3218
 7185SOL     OW33016   0.103   3.054   4.876  0.1859  0.0775 -0.2475
 7185SOL    HW133017   0.056   3.134   4.852  1.0790  1.0623  1.2354
 7185SOL    HW233018   0.193   3.089   4.877  1.0568 -2.1829  0.1712
 7186SOL     OW33019   1.211   2.022   8.361  0.1369 -0.7641 -0.3564
 7186SOL    HW133020   1.133   1.981   8.398 -1.0577  1.7171 -0.1207
 7186SOL    HW233021   1.204   2.111   8.396 -4.6648 -1.4866  0.4221
 7187SOL     OW33022   0.995   3.461   5.304  0.5121 -0.0666 -0.1840
 7187SOL    HW133023   1.020   3.369   5.314 -3.6039 -1.0692  1.3164
 7187SOL    HW233024   1.033   3.490   5.387 -0.6154  1.3973 -0.1888
 7188SOL     OW33025   3.949   1.122  13.111 -0.2881 -0.1396  0.1215
 7188SOL    HW133026   3.976   1.156  13.196 -0.7042  1.0064 -0.2035
 7188SOL    HW233027   4.004   1.046  13.091 -1.5942 -1.2943  0.9910
 7189SOL     OW33028   4.638   1.990   4.953  0.3303 -0.3881  0.7301
 7189SOL    HW133029   4.722   1.982   4.999  0.1130 -0.9683  1.0213
 7189SOL    HW233030   4.584   2.036   5.017 -1.0694 -0.3374 -0.5003
 7190SOL     OW33031   3.548   1.905   8.604  0.3033  0.3746  0.0797
 7190SOL    HW133032   3.590   1.970   8.547  2.2467 -2.8882 -2.2678
 7190SOL    HW233033   3.545   1.833   8.541 -1.8503  0.8098 -0.3002
 7191SOL     OW33034   2.196   4.134   1.036 -0.2683  0.1997  0.1911
 7191SOL    HW133035   2.211   4.102   0.947  0.1644  1.3197 -0.1446
 7191SOL    HW233036   2.139   4.210   1.021  1.0714  0.5439 -3.1816
 7192SOL     OW33037   2.768   1.291   6.240 -0.3924  0.2698 -0.1461
 7192SOL    HW133038   2.831   1.219   6.247  0.1804  0.8777  0.9415
 7192SOL    HW233039   2.697   1.251   6.190  0.0867 -1.2685  0.3902
 7193SOL     OW33040   4.098   2.447   3.850 -0.5001  0.8953 -0.2971
 7193SOL    HW133041   4.069   2.416   3.764  0.2727  1.4775 -0.7692
 7193SOL    HW233042   4.181   2.400   3.853 -0.0776  1.5886 -1.0216
 7194SOL     OW33043   1.179   1.557   3.359 -0.2625  0.4546  0.1842
 7194SOL    HW133044   1.202   1.580   3.269  2.1056  2.2958  1.2462
 7194SOL    HW233045   1.128   1.636   3.378 -0.6726  1.0301 -3.3746
 7195SOL     OW33046   2.051   0.762   6.294 -0.0278 -0.0971 -0.3610
 7195SOL    HW133047   1.985   0.796   6.355  1.4486 -0.6148  1.5346
 7195SOL    HW233048   2.132   0.790   6.337  1.2156 -0.6375 -2.3395
 7196SOL     OW33049   2.693   1.826   8.766  0.1498 -0.6431  0.3196
 7196SOL    HW133050   2.786   1.831   8.785  0.4185 -0.8277 -0.9643
 7196SOL    HW233051   2.665   1.746   8.809 -0.4889 -0.2440  0.6612
 7197SOL     OW33052   2.101   0.041   5.383 -0.0959 -0.4656  0.0654
 7197SOL    HW133053   2.013   0.012   5.358 -0.6068  1.1250  0.0417
 7197SOL    HW233054   2.148   0.070   5.304 -0.2309 -0.4657 -0.0145
 7198SOL     OW33055   2.335   3.293   9.003 -0.2662 -0.2705  0.6174
 7198SOL    HW133056   2.385   3.233   8.948 -2.9960 -1.0731 -1.0175
 7198SOL    HW233057   2.404   3.357   9.018  1.5777 -2.0524 -0.4008
 7199SOL     OW33058   4.251   4.112   4.972  0.0460  0.1550 -0.2110
 7199SOL    HW133059   4.158   4.133   4.980  0.1904  0.9220 -0.5767
 7199SOL    HW233060   4.284   4.177   5.034 -0.3185 -0.5121  0.6866
 7200SOL     OW33061   4.421   4.689  16.920 -0.3582 -0.1653 -0.2083
 7200SOL    HW133062   4.406   4.610  16.868 -0.1383 -0.9163  0.8749
 7200SOL    HW233063   4.517   4.685  16.918 -0.4333 -2.0613 -0.4533
 7201SOL     OW33064   1.757   4.133  15.205  0.3483 -0.2264  0.8994
 7201SOL    HW133065   1.728   4.158  15.117  0.8847 -0.4206  0.6713
 7201SOL    HW233066   1.850   4.141  15.189 -0.2027  2.2781 -0.9835
 7202SOL     OW33067   1.655   3.769   4.460 -0.0874  0.0546  0.3306
 7202SOL    HW133068   1.722   3.767   4.391 -1.1214  1.3068 -0.7077
 7202SOL    HW233069   1.692   3.701   4.517  1.4611 -1.0938 -2.0292
 7203SOL     OW33070   3.220   4.114   3.951 -0.3242 -0.8371 -0.7172
 7203SOL    HW133071   3.293   4.163   3.989 -3.0392  1.3513  1.6111
 7203SOL    HW233072   3.219   4.156   3.865 -0.3426 -0.8246 -0.7106
 7204SOL     OW33073   3.194   1.300   2.124 -0.1350 -0.6555 -0.0935
 7204SOL    HW133074   3.110   1.306   2.170 -0.2442  1.3171 -0.5732
 7204SOL    HW233075   3.248   1.247   2.183 -0.3796 -0.9314 -0.1146
 7205SOL     OW33076   3.574   1.172   3.553 -0.0707  0.5232  0.1299
 7205SOL    HW133077   3.659   1.216   3.550  0.0650  0.2251 -0.3366
 7205SOL    HW233078   3.598   1.085   3.521  1.2760  0.8001  0.4005
 7206SOL     OW33079   3.043   0.119   9.673  0.0401 -0.1199  0.3697
 7206SOL    HW133080   3.059   0.212   9.657  1.8841 -0.5055  0.0179
 7206SOL    HW233081   2.964   0.120   9.727  0.1344 -1.3193  0.5232
 7207SOL     OW33082   0.418   2.047   4.856 -0.2501 -0.4698 -0.1570
 7207SOL    HW133083   0.395   2.126   4.807 -1.2750 -0.0381  1.0204
 7207SOL    HW233084   0.367   1.986   4.802  0.7489  0.7809 -2.4973
 7208SOL     OW33085   3.090   0.499   5.783 -0.5531  0.0980  0.2807
 7208SOL    HW133086   3.084   0.541   5.697 -0.8929 -1.4240 -0.4329
 7208SOL    HW233087   3.091   0.406   5.759  1.8857  0.3971 -0.7346
 7209SOL     OW33088   4.447   0.726  17.335  0.5248  0.3703 -0.5319
 7209SOL    HW133089   4.527   0.773  17.357 -2.0675  3.9759  1.0041
 7209SOL    HW233090   4.379   0.779  17.374  0.0802 -1.1067  0.7188
 7210SOL     OW33091   4.001   2.002   4.944  0.5892 -0.0321 -0.1107
 7210SOL    HW133092   3.929   2.065   4.939  2.3979  1.9263 -1.7737
 7210SOL    HW233093   4.038   2.003   4.856  1.8661  0.0659  0.4214
 7211SOL     OW33094   2.779   1.205   4.092 -0.5448  0.3395 -0.2130
 7211SOL    HW133095   2.802   1.271   4.026 -0.2387 -0.3648 -0.8144
 7211SOL    HW233096   2.690   1.236   4.107 -0.0015  0.9008  1.7638
 7212SOL     OW33097   3.417   2.389   7.872 -0.3752  0.8065  0.2837
 7212SOL    HW133098   3.355   2.461   7.863 -1.4402  0.1839  2.5816
 7212SOL    HW233099   3.464   2.386   7.789  2.1621 -1.4811  1.8011
 7213SOL     OW33100   3.706   0.526   2.637  0.2608  0.3295 -0.6606
 7213SOL    HW133101   3.688   0.442   2.679 -0.3850  1.1343  0.6529
 7213SOL    HW233102   3.781   0.501   2.582  0.3809 -2.6838  0.9265
 7214SOL     OW33103   0.375   2.310   8.889  0.3313  0.2178  0.0048
 7214SOL    HW133104   0.390   2.216   8.898  1.8251  0.4773  0.1386
 7214SOL    HW233105   0.355   2.319   8.796 -1.8591  3.5027  0.8045
 7215SOL     OW33106   2.672   2.548   2.372 -0.3930  0.7704  0.4298
 7215SOL    HW133107   2.708   2.463   2.399 -1.2141  0.3964  0.3706
 7215SOL    HW233108   2.583   2.551   2.408 -0.9066  0.4608 -0.7795
 7216SOL     OW33109   1.969   3.448   6.756  0.1356  0.0640  0.2311
 7216SOL    HW133110   2.046   3.503   6.771  1.3223 -1.2757 -0.9194
 7216SOL    HW233111   1.995   3.374   6.701  1.9477  1.1972 -0.4452
 7217SOL     OW33112   1.209   0.441   4.667 -0.2591  0.1361  0.1906
 7217SOL    HW133113   1.132   0.399   4.706  0.5156 -1.1662  0.3290
 7217SOL    HW233114   1.274   0.376   4.694  0.6047  0.8061 -0.2608
 7218SOL     OW33115   3.519   4.675  12.064  0.2639  0.4367 -0.4479
 7218SOL    HW133116   3.540   4.635  11.979 -0.3197  0.4702 -0.6074
 7218SOL    HW233117   3.463   0.022  12.038 -2.5809 -1.7626 -0.4005
 7219SOL     OW33118   0.402   0.801   3.646  0.0613  0.2452  0.1381
 7219SOL    HW133119   0.379   0.732   3.709 -0.4738 -0.1359 -0.4826
 7219SOL    HW233120   0.409   0.882   3.697  0.1043  0.9778 -1.0263
 7220SOL     OW33121   1.049   4.098   1.523  0.9993  0.1594  0.3523
 7220SOL    HW133122   1.012   4.080   1.437  2.6865  0.0050 -0.3530
 7220SOL    HW233123   1.140   4.093   1.492  0.6601 -1.9643 -0.2578
 7221SOL     OW33124   3.553   3.993   6.084  0.1492 -0.1583  0.2658
 7221SOL    HW133125   3.564   4.025   5.995  2.0182 -0.0476  0.5301
 7221SOL    HW233126   3.645   3.981   6.108  0.3641 -1.3545 -1.1713
 7222SOL     OW33127   1.685   4.055   7.269 -0.5984  0.9158  0.1230
 7222SOL    HW133128   1.616   4.048   7.204 -1.3096  1.4256  0.8191
 7222SOL    HW233129   1.691   3.966   7.303 -3.2655  0.2368 -1.1785
 7223SOL     OW33130   2.916   3.455   7.901 -0.2896 -0.4472  0.4584
 7223SOL    HW133131   2.992   3.464   7.844  2.2357  0.7296  4.0021
 7223SOL    HW233132   2.903   3.360   7.892  0.5877 -0.7076  1.9605
 7224SOL     OW33133   0.917   0.063   0.940  0.1630 -0.3511  0.5823
 7224SOL    HW133134   0.917   0.029   0.851 -0.1726  1.7442 -0.2219
 7224SOL    HW233135   0.937   0.155   0.924  0.7355 -0.3724  1.1802
 7225SOL     OW33136   3.927   1.787   5.515  0.1971  0.1566 -0.5625
 7225SOL    HW133137   3.939   1.705   5.562  2.5745  1.2152  0.6369
 7225SOL    HW233138   3.972   1.764   5.434 -0.5789  1.1222 -1.2797
 7226SOL     OW33139   3.870   4.447   7.345 -0.1247  0.1242 -0.9131
 7226SOL    HW133140   3.780   4.478   7.354 -0.2683 -0.3970 -0.5512
 7226SOL    HW233141   3.921   4.526   7.360 -0.1520 -0.5684  2.8243
 7227SOL     OW33142   2.473   1.218  11.489 -0.1783 -0.2771  0.0790
 7227SOL    HW133143   2.548   1.184  11.538 -0.0037  0.6086  0.4266
 7227SOL    HW233144   2.447   1.288  11.549  2.2556  1.1723 -0.5840
 7228SOL     OW33145   2.669   3.508   5.595 -0.0338 -0.2037  0.6113
 7228SOL    HW133146   2.717   3.439   5.641 -0.6951 -0.1574  1.3772
 7228SOL    HW233147   2.594   3.524   5.653 -0.9507 -2.4498  0.0532
 7229SOL     OW33148   3.114   1.972   0.346 -0.3336  0.0800  0.0548
 7229SOL    HW133149   3.052   2.037   0.312  0.2575  1.1772  1.0421
 7229SOL    HW233150   3.204   2.000   0.332  0.4855 -1.7392  1.6633
 7230SOL     OW33151   4.616   0.843  11.667 -0.6290 -0.0712 -0.4115
 7230SOL    HW133152   4.577   0.848  11.580 -0.5108  1.1953 -0.3929
 7230SOL    HW233153   4.697   0.797  11.645  0.7852  1.6032  1.2522
 7231SOL     OW33154   1.224   1.865   2.721  0.0559 -0.3669 -0.0501
 7231SOL    HW133155   1.210   1.939   2.662 -0.3847 -0.2536  0.2041
 7231SOL    HW233156   1.289   1.808   2.679 -0.4759  0.5100 -2.0355
 7232SOL     OW33157   0.023   2.362   4.762 -0.1768  0.0503  0.1031
 7232SOL    HW133158   0.117   2.346   4.762 -0.1339  0.3141  2.3607
 7232SOL    HW233159   0.029   2.454   4.734 -0.8399  0.5734  1.6435
 7233SOL     OW33160   0.975   0.147  10.517 -0.2527 -0.5465 -0.0722
 7233SOL    HW133161   0.948   0.237  10.536 -0.0148 -0.2928 -0.9169
 7233SOL    HW233162   1.035   0.133  10.590  0.2543 -1.2065 -0.6204
 7234SOL     OW33163   2.821   2.157   8.220 -0.2498 -0.4694 -0.1585
 7234SOL    HW133164   2.844   2.236   8.171 -0.6804  0.9261  1.8952
 7234SOL    HW233165   2.865   2.095   8.162 -0.5383 -1.1592  0.3496
 7235SOL     OW33166   2.672   1.736   4.109  0.1028 -0.2663 -0.0567
 7235SOL    HW133167   2.701   1.827   4.122  0.3646 -0.0223 -2.3785
 7235SOL    HW233168   2.761   1.706   4.091 -0.6453 -1.8642 -1.0790
 7236SOL     OW33169   1.894   4.468   1.313  0.6058  0.1498  0.1711
 7236SOL    HW133170   1.929   4.523   1.383  1.0777 -0.8281  0.6940
 7236SOL    HW233171   1.930   4.519   1.240  1.2224  1.3531  1.3081
 7237SOL     OW33172   3.382   4.188   2.317 -0.2388 -0.1175  0.1089
 7237SOL    HW133173   3.348   4.260   2.263 -0.4627  0.3686  0.8845
 7237SOL    HW233174   3.454   4.226   2.368 -3.0261  0.8949  3.3092
 7238SOL     OW33175   0.043   4.388   7.790  0.4407 -0.2803  0.4845
 7238SOL    HW133176   0.090   4.346   7.718  0.5972 -0.2211  0.5508
 7238SOL    HW233177   0.001   4.317   7.838  1.6837 -1.0343  0.4566
 7239SOL     OW33178   0.799   4.258  12.996  0.1664  0.1675 -0.1058
 7239SOL    HW133179   0.855   4.182  13.012  0.8146  1.1798  2.4065
 7239SOL    HW233180   0.754   4.251  13.080  0.9153 -0.2888  0.2547
 7240SOL     OW33181   2.837   3.854  11.272  0.3159 -0.4163  0.4184
 7240SOL    HW133182   2.930   3.845  11.250  0.5776 -1.1330  1.8054
 7240SOL    HW233183   2.835   3.798  11.350  0.9254 -1.5738 -0.3920
 7241SOL     OW33184   4.009   4.067  14.332 -0.2949  0.2893  0.5083
 7241SOL    HW133185   4.010   4.162  14.340 -3.0612  0.2702  0.7446
 7241SOL    HW233186   3.968   4.057  14.246  0.0286  0.6306  0.3123
 7242SOL     OW33187   2.850   3.000   3.797  0.2029 -0.1083  0.4961
 7242SOL    HW133188   2.868   3.081   3.843  1.8567 -0.2888  0.1666
 7242SOL    HW233189   2.831   3.031   3.708 -0.0972  0.9298  0.9214
 7243SOL     OW33190   2.883   2.254  13.499 -0.6969 -0.3470  0.1708
 7243SOL    HW133191   2.940   2.250  13.422  0.8295 -1.6789  1.3892
 7243SOL    HW233192   2.841   2.340  13.490  0.1474  0.2135  1.7652
 7244SOL     OW33193   4.666   2.013   1.787 -0.1835 -0.2433 -0.1092
 7244SOL    HW133194   4.615   2.068   1.727  0.6263  1.4255  0.7268
 7244SOL    HW233195   4.687   2.071   1.860  1.0306  1.3220 -1.6826
 7245SOL     OW33196   1.929   2.890   2.763  0.3416 -0.2281 -0.0484
 7245SOL    HW133197   1.998   2.928   2.817  0.2721 -2.4586  1.6205
 7245SOL    HW233198   1.847   2.914   2.807  0.4446  1.7322 -0.9496
 7246SOL     OW33199   4.338   4.448   4.434  0.5387 -0.1277 -0.0077
 7246SOL    HW133200   4.389   4.508   4.380 -1.0519 -0.4389 -1.8523
 7246SOL    HW233201   4.251   4.446   4.394 -0.2936  0.9481  1.7493
 7247SOL     OW33202   4.640   4.459   4.343  0.0041 -0.3039  0.4135
 7247SOL    HW133203   4.665   4.551   4.352  1.0926 -0.7338  1.7432
 7247SOL    HW233204   4.571   4.468   4.278  2.5447 -0.7337 -2.3417
 7248SOL     OW33205   4.604   0.632   5.976 -0.0215  0.3302 -0.0966
 7248SOL    HW133206   4.532   0.656   6.034 -0.3607 -0.9217 -0.0190
 7248SOL    HW233207   4.621   0.724   5.955  1.2698  0.4414  1.3877
 7249SOL     OW33208   2.464   4.617   7.235  0.0413  0.3638  0.3228
 7249SOL    HW133209   2.542   4.648   7.188  0.4408 -3.1811 -1.3769
 7249SOL    HW233210   2.469   4.649   7.325  0.5278 -1.4919  0.9587
 7250SOL     OW33211   4.249   1.480   4.706 -0.0170 -0.0507 -0.5297
 7250SOL    HW133212   4.178   1.423   4.675  0.4436  0.4888 -2.5955
 7250SOL    HW233213   4.320   1.417   4.692 -1.2630 -1.0671 -2.3026
 7251SOL     OW33214   1.861   2.980   8.433 -0.9385 -0.0517  0.3003
 7251SOL    HW133215   1.953   2.961   8.449  0.0171  0.8845 -4.2214
 7251SOL    HW233216   1.865   3.006   8.341 -0.8315 -0.7344  0.1150
 7252SOL     OW33217   4.192   1.153   8.591 -0.5419  0.3308 -0.1242
 7252SOL    HW133218   4.213   1.164   8.498 -0.6426  0.4880 -0.1284
 7252SOL    HW233219   4.268   1.108   8.630  0.0323  2.0437  0.7105
 7253SOL     OW33220   3.721   1.414   2.196 -0.2294  0.2565  0.1439
 7253SOL    HW133221   3.788   1.383   2.257 -0.5390  0.5526  0.6348
 7253SOL    HW233222   3.657   1.432   2.264 -0.2920  3.6520 -0.7837
 7254SOL     OW33223   1.035   3.604   6.652  0.4176 -0.1980  0.1300
 7254SOL    HW133224   0.993   3.540   6.709 -3.9948  1.9184 -0.7374
 7254SOL    HW233225   1.115   3.552   6.642  0.9562  0.8362 -0.9128
 7255SOL     OW33226   3.224   3.835   5.061 -0.0826  0.1103  0.0521
 7255SOL    HW133227   3.197   3.927   5.065 -2.8252 -0.6753 -0.4726
 7255SOL    HW233228   3.250   3.811   5.150 -0.3746 -0.9179 -0.1406
 7256SOL     OW33229   1.849   1.594  11.228 -0.0304 -0.4753 -0.1036
 7256SOL    HW133230   1.784   1.659  11.200  0.1360  1.4704  4.0350
 7256SOL    HW233231   1.919   1.624  11.169  0.0665 -0.8326 -0.1675
 7257SOL     OW33232   3.565   1.070   5.405 -0.1922  0.4870 -0.5135
 7257SOL    HW133233   3.595   1.160   5.391 -1.2465  1.1709  1.6415
 7257SOL    HW233234   3.573   1.028   5.319  0.3562 -1.0787  0.3052
 7258SOL     OW33235   3.649   2.211   9.812  0.4302 -0.2414 -0.1152
 7258SOL    HW133236   3.619   2.135   9.763  1.1929 -0.5914 -0.0433
 7258SOL    HW233237   3.595   2.281   9.775  3.1030  1.8785 -0.0963
 7259SOL     OW33238   3.003   3.932   9.083  0.3414 -0.0776 -0.3563
 7259SOL    HW133239   2.912   3.905   9.100  0.6528  0.2864  1.9633
 7259SOL    HW233240   3.021   3.860   9.022  0.1301 -0.5485  0.1277
 7260SOL     OW33241   3.837   3.821   2.359  0.3379 -0.6657 -0.4866
 7260SOL    HW133242   3.791   3.750   2.314 -0.8622 -0.2432  0.0721
 7260SOL    HW233243   3.856   3.881   2.287  1.3638 -2.2786 -1.5695
 7261SOL     OW33244   4.583   2.971   6.031  0.2791  0.1808 -0.0459
 7261SOL    HW133245   4.551   2.929   5.951  1.6698  1.5972 -1.3392
 7261SOL    HW233246   4.501   2.993   6.075 -0.0727  0.9416 -1.0898
 7262SOL     OW33247   0.263   1.872   6.440 -0.4529 -0.0953  0.0226
 7262SOL    HW133248   0.262   1.837   6.351 -1.0119  0.7305 -0.2998
 7262SOL    HW233249   0.339   1.930   6.431 -1.0894  0.5445 -1.2548
 7263SOL     OW33250   1.654   1.213   5.621  0.1370  0.5834  0.1072
 7263SOL    HW133251   1.730   1.271   5.616  0.8715 -0.3168  0.7309
 7263SOL    HW233252   1.671   1.177   5.533  0.0768  3.1398 -0.9634
 7264SOL     OW33253   2.008   3.216   5.797 -0.4584  0.1820  0.2384
 7264SOL    HW133254   1.913   3.209   5.798 -0.5089  1.1106  3.5369
 7264SOL    HW233255   2.016   3.269   5.877  0.0598  0.2267  0.1552
 7265SOL     OW33256   4.156   4.270  14.598  0.3370  0.2939  0.0492
 7265SOL    HW133257   4.184   4.333  14.532 -1.8192  0.8685 -0.3135
 7265SOL    HW233258   4.074   4.308  14.629 -1.1351 -1.7056 -1.4198
 7266SOL     OW33259   0.501   2.246   6.258 -0.1022 -0.2657  0.3234
 7266SOL    HW133260   0.493   2.209   6.170 -1.6862 -0.3581  0.5028
 7266SOL    HW233261   0.582   2.208   6.292  1.9785  2.0416 -2.0773
 7267SOL     OW33262   4.522   3.058   7.351  0.0113 -0.0885  0.5588
 7267SOL    HW133263   4.467   3.111   7.294  1.4190  0.3208 -0.4173
 7267SOL    HW233264   4.608   3.084   7.318 -0.0172 -2.8783 -1.7453
 7268SOL     OW33265   3.269   0.562   4.537  0.3436 -0.3330  0.0006
 7268SOL    HW133266   3.249   0.653   4.517 -1.9584 -1.2184 -1.7608
 7268SOL    HW233267   3.346   0.563   4.593  1.6516  3.1882 -1.8937
 7269SOL     OW33268   3.729   3.651   2.599  0.2586  0.2166  0.8055
 7269SOL    HW133269   3.751   3.558   2.609 -1.5534  0.1464  4.1835
 7269SOL    HW233270   3.728   3.670   2.505  0.6319 -2.7707  0.2110
 7270SOL     OW33271   1.014   1.663  10.559 -0.0199  0.2675  0.2177
 7270SOL    HW133272   1.030   1.573  10.587 -1.8833 -0.3174 -0.6170
 7270SOL    HW233273   1.036   1.668  10.466  0.0904  2.7067  0.3750
 7271SOL     OW33274   3.382   4.553   8.782 -0.0918  0.5052  0.4517
 7271SOL    HW133275   3.394   4.459   8.792 -0.2597  0.5935  1.4984
 7271SOL    HW233276   3.292   4.555   8.815  0.2585  1.2745  1.3645
 7272SOL     OW33277   1.849   1.475   3.060 -0.5263 -0.4191  0.1684
 7272SOL    HW133278   1.944   1.480   3.047 -1.0804 -1.5015 -4.3788
 7272SOL    HW233279   1.817   1.497   2.972  0.1134  1.8555  0.5064
 7273SOL     OW33280   0.918   2.750   9.460  0.3540 -0.2091 -0.1731
 7273SOL    HW133281   0.943   2.807   9.532  0.5762  0.7706 -1.0263
 7273SOL    HW233282   0.910   2.667   9.507  3.1905 -0.0338  0.6163
 7274SOL     OW33283   4.532   4.691   7.598 -0.1445  0.3629 -0.4326
 7274SOL    HW133284   4.590   4.650   7.534 -0.3999 -0.6230 -0.0402
 7274SOL    HW233285   4.497   4.607   7.630 -0.4239  0.3226 -0.8344
 7275SOL     OW33286   0.430   3.908   9.441 -0.6922 -0.2581 -0.2416
 7275SOL    HW133287   0.395   3.942   9.524  1.9746  0.0281  0.7615
 7275SOL    HW233288   0.521   3.887   9.460 -0.5452 -0.6205 -1.3826
 7276SOL     OW33289   1.418   2.381  10.232 -0.0411 -0.2513 -0.5384
 7276SOL    HW133290   1.443   2.348  10.318  0.2986 -0.9364 -0.9069
 7276SOL    HW233291   1.446   2.473  10.236  2.8426 -1.2273  1.0404
 7277SOL     OW33292   3.925   1.700   9.579 -0.0349 -0.5938 -0.1029
 7277SOL    HW133293   3.960   1.624   9.531 -2.1971 -1.3788 -0.4204
 7277SOL    HW233294   3.880   1.732   9.501 -0.6945 -0.4202  0.3570
 7278SOL     OW33295   2.498   2.914  12.102 -0.1308 -0.2887  0.0031
 7278SOL    HW133296   2.416   2.881  12.138  0.3631 -0.3076  1.1257
 7278SOL    HW233297   2.483   2.916  12.008 -1.3859 -1.9265  0.1709
 7279SOL     OW33298   3.989   4.179   3.997  0.0929 -0.0859  0.2776
 7279SOL    HW133299   3.988   4.259   3.945  1.1698 -1.7346 -2.3075
 7279SOL    HW233300   4.072   4.191   4.043  0.2772  1.1271 -0.3680
 7280SOL     OW33301   0.437   0.520  16.863  0.1883  0.4661  0.2300
 7280SOL    HW133302   0.480   0.600  16.895  0.5178  0.8955 -1.2975
 7280SOL    HW233303   0.343   0.533  16.867  0.2565  0.3116  2.5810
 7281SOL     OW33304   1.141   4.210   0.872 -0.5030 -0.2148 -0.8177
 7281SOL    HW133305   1.162   4.137   0.930 -1.8655  1.7013  2.1134
 7281SOL    HW233306   1.222   4.233   0.828 -0.3815  0.9438  0.0035
 7282SOL     OW33307   0.863   3.063   4.986  0.6610 -0.3198  0.4021
 7282SOL    HW133308   0.831   3.008   5.058  1.4882  0.8337  1.6336
 7282SOL    HW233309   0.843   3.006   4.912 -2.1507  1.1625  0.0013
 7283SOL     OW33310   1.893   0.459  14.206 -0.3669 -0.5321 -0.0830
 7283SOL    HW133311   1.814   0.499  14.242  0.3525  0.2991  0.5693
 7283SOL    HW233312   1.905   0.372  14.246 -2.8004 -0.5335  0.6217
 7284SOL     OW33313   4.092   2.240  11.321  0.2866 -0.0527 -0.0590
 7284SOL    HW133314   4.101   2.145  11.316 -0.2140 -0.1722  1.3227
 7284SOL    HW233315   4.053   2.265  11.237 -0.6376  1.2493  0.7645
 7285SOL     OW33316   4.147   1.992  14.642 -0.3029 -0.1591  0.7654
 7285SOL    HW133317   4.239   2.016  14.644 -1.0466  2.8531 -0.0280
 7285SOL    HW233318   4.113   2.074  14.604 -1.1181 -1.7033 -1.8196
 7286SOL     OW33319   3.865   3.988   4.208  0.0991  0.2748 -0.3591
 7286SOL    HW133320   3.863   4.031   4.122 -0.8351 -1.7672 -1.3566
 7286SOL    HW233321   3.943   4.024   4.251  0.5547 -0.4881 -0.5457
 7287SOL     OW33322   3.949   4.392   0.669  0.9289 -0.3596 -0.1075
 7287SOL    HW133323   3.926   4.343   0.748 -0.0525 -0.0045 -0.1769
 7287SOL    HW233324   4.045   4.400   0.671  0.8805  0.0077  0.7130
 7288SOL     OW33325   3.204   2.844   7.145  0.2564 -0.2717 -0.1204
 7288SOL    HW133326   3.163   2.902   7.080 -0.6649  0.1473  0.8525
 7288SOL    HW233327   3.297   2.853   7.123  0.5130  3.5446  2.5302
 7289SOL     OW33328   3.630   0.675   9.185  0.5309  0.3270  0.1776
 7289SOL    HW133329   3.562   0.678   9.253  0.3087  1.0794 -0.0783
 7289SOL    HW233330   3.683   0.751   9.210  1.8134 -0.7240  0.5904
 7290SOL     OW33331   3.674   1.738  12.892 -0.5042  0.4789 -0.1908
 7290SOL    HW133332   3.654   1.644  12.899 -2.5697  0.9866  0.8901
 7290SOL    HW233333   3.738   1.736  12.821 -0.9693  1.9368 -0.6456
 7291SOL     OW33334   4.687   4.472   9.773  0.5160  0.5956  0.2130
 7291SOL    HW133335   4.696   4.401   9.708  0.1392 -0.0640  0.8754
 7291SOL    HW233336   4.713   4.419   9.848  0.0354 -2.9533 -2.1140
 7292SOL     OW33337   2.644   2.236   6.385  0.2811  0.0129  0.2937
 7292SOL    HW133338   2.673   2.186   6.461  2.2589  0.5661 -0.1132
 7292SOL    HW233339   2.572   2.180   6.355  1.8487 -2.0981  0.4765
 7293SOL     OW33340   1.935   3.314   5.264  0.6433 -0.2246  0.3811
 7293SOL    HW133341   1.947   3.219   5.262 -0.2526 -0.3078 -0.8172
 7293SOL    HW233342   1.984   3.312   5.346 -0.8908  1.2448  1.3155
 7294SOL     OW33343   2.605   1.528  11.677  0.1892 -0.1191  0.2265
 7294SOL    HW133344   2.697   1.526  11.650  0.5994  0.5131  1.5819
 7294SOL    HW233345   2.569   1.603  11.630 -2.0297 -1.2276  0.1344
 7295SOL     OW33346   1.009   4.619   5.826  0.5685 -0.5944 -0.0618
 7295SOL    HW133347   0.921   4.658   5.826  0.2904 -1.2292 -2.8107
 7295SOL    HW233348   1.071   4.689   5.843 -0.3547 -0.0101  0.8929
 7296SOL     OW33349   1.277   3.090   6.981 -0.3803  0.0367  0.7154
 7296SOL    HW133350   1.267   3.034   7.058  0.6800 -1.1285  0.0096
 7296SOL    HW233351   1.337   3.040   6.925 -0.3859 -0.8282  1.4686
 7297SOL     OW33352   2.029   3.153   1.031 -0.0675 -0.0814  0.3773
 7297SOL    HW133353   1.981   3.076   1.001 -0.2377  0.1363  0.0876
 7297SOL    HW233354   2.099   3.157   0.966  1.2769  0.3935  1.8600
 7298SOL     OW33355   2.247   0.892   5.146  0.0823  0.7209 -0.4163
 7298SOL    HW133356   2.178   0.847   5.195 -1.0054  0.8491 -1.8274
 7298SOL    HW233357   2.280   0.822   5.090 -1.0586  0.2569 -0.5046
 7299SOL     OW33358   2.927   1.043  14.927  0.3206  0.7227 -0.2617
 7299SOL    HW133359   3.014   1.074  14.902 -0.4162  0.9205 -2.6182
 7299SOL    HW233360   2.960   0.956  14.952  1.1944  1.2668  0.4596
 7300SOL     OW33361   3.166   2.601   8.149 -0.2022 -0.0430 -0.2612
 7300SOL    HW133362   3.227   2.650   8.093 -0.6669 -1.0315 -1.6359
 7300SOL    HW233363   3.214   2.519   8.156  0.2781  0.2248 -0.4074
 7301SOL     OW33364   2.766   0.420   3.550 -0.0180 -0.2046  0.5099
 7301SOL    HW133365   2.709   0.490   3.582 -0.0236 -0.0962  0.2703
 7301SOL    HW233366   2.754   0.423   3.455 -0.2838  0.5984  0.5630
 7302SOL     OW33367   1.057   2.195   5.947 -0.0465  0.4447 -0.5860
 7302SOL    HW133368   0.986   2.211   5.885 -0.4957  1.7151  0.2626
 7302SOL    HW233369   1.127   2.249   5.912 -2.3462  1.7232 -3.2606
 7303SOL     OW33370   3.175   1.314  15.801 -0.4724 -0.6043 -0.7671
 7303SOL    HW133371   3.096   1.355  15.766  0.3805 -0.3954 -2.4664
 7303SOL    HW233372   3.208   1.390  15.849 -2.3308 -0.8435  0.8896
 7304SOL     OW33373   3.614   1.128  10.064  0.4370 -0.2469 -0.5173
 7304SOL    HW133374   3.653   1.118  10.151  1.8923 -0.8724 -1.2456
 7304SOL    HW233375   3.694   1.123  10.012  0.7420  0.7498 -0.1629
 7305SOL     OW33376   1.906   4.228   0.829 -0.0680 -1.0222 -0.3448
 7305SOL    HW133377   1.956   4.250   0.750 -0.6521 -0.1125 -0.4633
 7305SOL    HW233378   1.947   4.286   0.893 -1.2456 -0.2380 -0.3071
 7306SOL     OW33379   3.138   4.052   6.138 -0.5226  0.2382 -0.1494
 7306SOL    HW133380   3.219   4.060   6.089 -1.3450 -0.3899 -1.5915
 7306SOL    HW233381   3.159   4.087   6.225  1.1226 -0.7673 -0.1437
 7307SOL     OW33382   1.443   3.568   8.054  0.0374  0.2121 -0.4791
 7307SOL    HW133383   1.348   3.576   8.060  0.0311 -0.1377 -0.0790
 7307SOL    HW233384   1.451   3.486   8.103 -1.2873  0.1768 -0.3286
 7308SOL     OW33385   2.265   0.593   3.436  0.2350  0.1067  0.0073
 7308SOL    HW133386   2.282   0.687   3.443  1.3702 -0.1642  0.8674
 7308SOL    HW233387   2.264   0.579   3.341  1.1859 -0.5784  0.0965
 7309SOL     OW33388   3.346   1.947   1.307  0.2542  0.2500 -0.0402
 7309SOL    HW133389   3.282   2.004   1.350 -0.0784 -0.5143  0.4899
 7309SOL    HW233390   3.383   2.012   1.247  1.5991 -0.9498 -0.5136
 7310SOL     OW33391   4.382   0.991  10.166 -0.3528 -0.3795 -1.7027
 7310SOL    HW133392   4.418   1.068  10.122 -2.9905  1.7038 -0.1547
 7310SOL    HW233393   4.386   0.929  10.093 -0.8698  1.5847 -3.3958
 7311SOL     OW33394   0.892   0.730   2.953 -0.0544 -0.2432 -0.1162
 7311SOL    HW133395   0.849   0.781   3.021 -0.2685 -2.1521  1.2067
 7311SOL    HW233396   0.849   0.644   2.950 -1.6093  0.6193 -1.9520
 7312SOL     OW33397   0.517   4.273   7.212  0.4031  0.0800  0.4059
 7312SOL    HW133398   0.604   4.310   7.201 -0.0416  1.8228  2.8063
 7312SOL    HW233399   0.505   4.246   7.121  0.3980  1.5972 -0.0265
 7313SOL     OW33400   4.427   0.484   5.059 -0.7295  0.5059 -0.3881
 7313SOL    HW133401   4.485   0.489   4.983 -1.0765 -0.9372 -0.7458
 7313SOL    HW233402   4.465   0.405   5.097 -1.9211  0.5059  0.8004
 7314SOL     OW33403   4.005   1.322   6.924 -0.3510 -0.0854 -0.1241
 7314SOL    HW133404   3.992   1.245   6.869 -0.1396 -1.3741  1.6130
 7314SOL    HW233405   4.085   1.361   6.890 -0.5621 -0.9513 -1.6137
 7315SOL     OW33406   3.434   3.695   6.723  0.1831 -0.1020 -0.1877
 7315SOL    HW133407   3.370   3.765   6.731  1.6770  1.0681  1.5426
 7315SOL    HW233408   3.512   3.735   6.761 -0.4118 -1.1271  2.1087
 7316SOL     OW33409   2.136   1.948   5.102 -0.0422  1.0159  0.1981
 7316SOL    HW133410   2.179   1.991   5.029  3.2439  0.5364  1.8519
 7316SOL    HW233411   2.148   2.005   5.178 -2.0868  0.3037  1.0443
 7317SOL     OW33412   1.583   1.888   3.286 -0.2125  0.1714  0.0547
 7317SOL    HW133413   1.632   1.921   3.210 -0.4032  1.1877  0.3632
 7317SOL    HW233414   1.560   1.805   3.246  0.6357 -1.1844  2.4099
 7318SOL     OW33415   4.233   3.342   8.237  0.0345 -0.0190  0.5191
 7318SOL    HW133416   4.187   3.422   8.261 -0.8927 -0.4566  0.2396
 7318SOL    HW233417   4.281   3.367   8.158  1.1934 -1.4908  0.7521
 7319SOL     OW33418   2.923   1.348   2.850 -0.4992  0.6721 -0.0646
 7319SOL    HW133419   2.905   1.254   2.841 -0.7714  0.5268  1.9458
 7319SOL    HW233420   2.993   1.356   2.785 -0.1707  2.1496  0.4804
 7320SOL     OW33421   2.428   0.439   5.280  0.4168  0.3334  0.7884
 7320SOL    HW133422   2.413   0.379   5.353  1.4773 -1.3800 -0.4173
 7320SOL    HW233423   2.516   0.406   5.262  1.0347  0.0597  4.1859
 7321SOL     OW33424   1.494   1.283   0.777  0.4356 -0.3550 -0.6861
 7321SOL    HW133425   1.514   1.297   0.870 -2.5280 -0.5807 -0.0133
 7321SOL    HW233426   1.566   1.320   0.727  1.1407  0.1776  0.7116
 7322SOL     OW33427   3.193   3.537   3.881  0.2796  0.2977  0.2208
 7322SOL    HW133428   3.256   3.608   3.866 -1.1574  1.5250  0.0330
 7322SOL    HW233429   3.129   3.584   3.933 -0.8367 -2.0566  0.9708
 7323SOL     OW33430   1.633   3.748   0.404  0.1542 -0.4251 -0.0412
 7323SOL    HW133431   1.557   3.721   0.352  0.3566 -0.0212 -0.5477
 7323SOL    HW233432   1.605   3.699   0.481 -1.1560  0.8316  0.2865
 7324SOL     OW33433   0.069   2.617   6.305 -1.0118 -0.0636  0.2051
 7324SOL    HW133434   0.051   2.653   6.218  2.3538  2.7812  0.7194
 7324SOL    HW233435   0.119   2.536   6.293  3.3456  2.5333  1.3504
 7325SOL     OW33436   1.722   0.878   0.941 -0.3164 -0.5632  0.0089
 7325SOL    HW133437   1.664   0.921   0.878 -1.2095  0.1010  1.2658
 7325SOL    HW233438   1.742   0.958   0.989  1.8061 -2.0543  1.5962
 7326SOL     OW33439   3.280   3.953   9.966 -0.5227 -0.1562  0.4324
 7326SOL    HW133440   3.313   3.866   9.989 -2.6832 -0.5461  2.0358
 7326SOL    HW233441   3.367   3.994   9.969 -0.2126 -0.8854  1.2749
 7327SOL     OW33442   4.183   0.747   2.575  0.9299  0.1215 -0.5951
 7327SOL    HW133443   4.122   0.726   2.504  2.0981 -1.2306 -1.2011
 7327SOL    HW233444   4.211   0.658   2.599  0.0856 -0.1132 -0.4812
 7328SOL     OW33445   1.985   1.844  15.931 -0.3811  0.1446 -0.1029
 7328SOL    HW133446   1.991   1.770  15.871 -0.0239  0.9977 -1.1252
 7328SOL    HW233447   2.066   1.888  15.904  0.0338 -0.1205  0.7107
 7329SOL     OW33448   2.948   0.852   5.907  0.0699 -0.0647 -0.0778
 7329SOL    HW133449   2.868   0.801   5.922  0.2517 -0.2552  0.2435
 7329SOL    HW233450   2.920   0.929   5.858 -0.4960 -1.8501 -2.5400
 7330SOL     OW33451   0.281   3.147   6.996  0.0862 -0.3975 -0.5679
 7330SOL    HW133452   0.359   3.101   6.963  1.0853 -0.3268  1.6717
 7330SOL    HW233453   0.217   3.076   7.003  1.0611 -1.3524 -1.4301
 7331SOL     OW33454   1.583   0.850   4.052  0.1568 -0.2825  0.4724
 7331SOL    HW133455   1.636   0.849   3.972 -2.4124  1.9669 -1.2959
 7331SOL    HW233456   1.649   0.866   4.119  1.7007  0.7260 -1.3068
 7332SOL     OW33457   0.692   0.647   7.037 -0.4588  0.1457  0.2299
 7332SOL    HW133458   0.729   0.631   6.950  1.4058  2.5632  0.5619
 7332SOL    HW233459   0.602   0.618   7.023 -0.4840  0.2127  0.2543
 7333SOL     OW33460   3.000   0.452   4.516 -0.2312  0.2147  0.2007
 7333SOL    HW133461   3.023   0.407   4.435  3.2699  1.8017  0.3047
 7333SOL    HW233462   3.071   0.516   4.525  0.5727 -0.4807 -1.1713
 7334SOL     OW33463   2.787   0.998   9.651  0.0359 -0.6435  0.2458
 7334SOL    HW133464   2.699   1.026   9.627  0.7492  0.5658 -0.9771
 7334SOL    HW233465   2.779   1.040   9.736  3.3359 -0.2773  0.3827
 7335SOL     OW33466   2.746   0.488   7.018  0.5059 -0.5769 -0.1883
 7335SOL    HW133467   2.831   0.498   7.061 -0.5480 -0.1606  1.7624
 7335SOL    HW233468   2.713   0.577   7.027 -1.5260 -1.3623  0.1392
 7336SOL     OW33469   2.666   3.571   3.755  0.4056 -0.3122  0.2280
 7336SOL    HW133470   2.655   3.494   3.699  0.1322  0.7846 -1.2399
 7336SOL    HW233471   2.742   3.549   3.808  2.3340  1.4470 -1.8066
 7337SOL     OW33472   1.420   2.381  12.493  0.4668 -0.9538  0.1090
 7337SOL    HW133473   1.361   2.456  12.503  0.7597 -1.1413  3.2613
 7337SOL    HW233474   1.393   2.325  12.566 -2.0865  0.9759  0.6726
 7338SOL     OW33475   0.449   0.709  12.703 -0.4372  0.1923  0.0590
 7338SOL    HW133476   0.370   0.752  12.672  0.0617  2.2046  1.5780
 7338SOL    HW233477   0.450   0.744  12.792  0.4885 -0.2838  0.2399
 7339SOL     OW33478   3.487   0.386   8.767  0.1043  0.3244  0.0230
 7339SOL    HW133479   3.517   0.476   8.779  2.6730 -0.4202 -1.0824
 7339SOL    HW233480   3.393   0.405   8.767 -0.1786 -0.9759  1.2149
 7340SOL     OW33481   0.170   2.243   7.339 -0.1753 -0.2282  0.0817
 7340SOL    HW133482   0.114   2.248   7.261 -0.4684  2.1121  0.4459
 7340SOL    HW233483   0.107   2.261   7.408 -1.3816 -0.6603 -0.9080
 7341SOL     OW33484   0.240   4.111  15.432  0.2158 -0.2125 -0.0990
 7341SOL    HW133485   0.206   4.041  15.488 -1.5206  0.4930 -0.3016
 7341SOL    HW233486   0.326   4.129  15.469 -0.4270  2.2233  0.1594
 7342SOL     OW33487   3.269   4.717   5.557 -0.1130 -0.0867  0.5619
 7342SOL    HW133488   3.242   4.662   5.630 -0.5111 -0.7384 -0.0761
 7342SOL    HW233489   3.283   4.654   5.486 -3.2373  0.6400 -0.6926
 7343SOL     OW33490   0.350   4.348   3.303 -0.2458 -0.8450 -0.0978
 7343SOL    HW133491   0.359   4.255   3.281  2.2685 -1.1223  2.0109
 7343SOL    HW233492   0.393   4.346   3.389 -1.0483  2.3765  0.3674
 7344SOL     OW33493   1.472   2.205   4.645  0.0062 -0.3705 -0.5948
 7344SOL    HW133494   1.565   2.181   4.651 -0.3867 -1.2502  1.6721
 7344SOL    HW233495   1.435   2.148   4.712 -0.5543  0.9468  0.2182
 7345SOL     OW33496   3.993   4.353  14.104  0.6090  0.0752  0.0513
 7345SOL    HW133497   3.991   4.445  14.078 -0.9411  0.2678  0.8625
 7345SOL    HW233498   4.049   4.352  14.182 -0.9900  0.5996  1.2120
 7346SOL     OW33499   2.299   0.617  17.157  0.1523 -0.3737 -0.5107
 7346SOL    HW133500   2.326   0.525  17.152  0.0187 -0.4624  0.3743
 7346SOL    HW233501   2.225   0.621  17.218  1.8034 -1.4742  1.5818
 7347SOL     OW33502   2.130   1.407   1.007 -0.0850 -0.0286  0.6557
 7347SOL    HW133503   2.097   1.459   1.080 -1.7055  0.8022 -0.6868
 7347SOL    HW233504   2.218   1.387   1.039  0.2911 -0.3885 -0.6189
 7348SOL     OW33505   2.156   1.452   4.133 -0.1744  0.3838  0.1815
 7348SOL    HW133506   2.067   1.450   4.169 -0.0894  0.2463  0.3798
 7348SOL    HW233507   2.141   1.424   4.043 -2.3641  1.7116  0.1508
 7349SOL     OW33508   2.424   1.786   4.027  0.5204  0.3960 -0.1607
 7349SOL    HW133509   2.416   1.871   4.070  1.9702  0.0752  0.7342
 7349SOL    HW233510   2.512   1.757   4.052 -0.1085 -1.7027 -0.3946
 7350SOL     OW33511   2.918   1.902   4.118  0.3900  0.8157 -0.5049
 7350SOL    HW133512   2.870   1.984   4.104 -1.1240  0.1794  0.8672
 7350SOL    HW233513   2.997   1.918   4.067  2.1301 -1.5372  1.4150
 7351SOL     OW33514   1.177   0.842   7.284  0.0303  0.1743 -0.0640
 7351SOL    HW133515   1.262   0.854   7.327  0.0225 -3.7307  1.0440
 7351SOL    HW233516   1.150   0.934   7.275 -0.1323 -0.0961 -2.3729
 7352SOL     OW33517   3.573   3.022   8.711 -0.1783  0.1011 -0.0327
 7352SOL    HW133518   3.634   2.995   8.642  1.7178  0.6095  1.4519
 7352SOL    HW233519   3.488   3.038   8.670  0.1923  1.7645 -0.1450
 7353SOL     OW33520   4.590   1.231   6.908 -0.2060  0.4534 -0.0022
 7353SOL    HW133521   4.543   1.198   6.984 -0.6353 -0.3291 -0.6006
 7353SOL    HW233522   4.676   1.199   6.936 -0.9448 -1.4893  0.0449
 7354SOL     OW33523   3.895   0.897   7.807  0.1219  0.2610 -0.0897
 7354SOL    HW133524   3.866   0.806   7.796  1.8385 -0.6513  2.9558
 7354SOL    HW233525   3.985   0.896   7.774 -0.1060 -0.1028 -0.7087
 7355SOL     OW33526   0.302   4.230   4.281 -0.2552 -0.3325 -0.2081
 7355SOL    HW133527   0.376   4.195   4.331 -1.3020 -0.1570  1.4506
 7355SOL    HW233528   0.345   4.309   4.247 -0.3215 -0.2156 -0.0233
 7356SOL     OW33529   4.079   1.727  14.749 -0.2572  0.1259 -0.0773
 7356SOL    HW133530   4.091   1.821  14.738 -2.0873  0.0394 -2.8084
 7356SOL    HW233531   4.144   1.690  14.689  0.7232  0.4214  0.8200
 7357SOL     OW33532   2.424   0.653  14.033  0.0638  0.4393 -0.2002
 7357SOL    HW133533   2.501   0.671  13.978  1.1421  3.2632  2.2194
 7357SOL    HW233534   2.400   0.564  14.007 -1.3524  0.4402  1.1490
 7358SOL     OW33535   1.495   2.050  10.629 -0.0617 -0.4489  0.5171
 7358SOL    HW133536   1.549   2.025  10.554 -1.2130 -1.0366 -0.1066
 7358SOL    HW233537   1.548   2.005  10.696 -1.3417 -0.6029  1.4124
 7359SOL     OW33538   1.730   4.410   2.646  0.1985  0.0719  0.4557
 7359SOL    HW133539   1.727   4.505   2.656 -2.5713  0.2564 -1.9871
 7359SOL    HW233540   1.759   4.407   2.555 -1.5307  1.7267 -0.1531
 7360SOL     OW33541   4.498   1.494   9.239 -0.0692  0.4581  0.2716
 7360SOL    HW133542   4.535   1.553   9.174  0.3546 -1.1283 -0.9111
 7360SOL    HW233543   4.575   1.463   9.285 -0.4124 -0.1608  0.4298
 7361SOL     OW33544   2.892   4.341   7.477  0.2276 -0.0733  0.0263
 7361SOL    HW133545   2.820   4.360   7.416 -0.8225  2.2993  2.0083
 7361SOL    HW233546   2.963   4.315   7.419  1.0464  2.4612 -0.0867
 7362SOL     OW33547   2.466   1.306   6.034 -0.1509 -0.3438  0.3469
 7362SOL    HW133548   2.452   1.220   6.073  1.4928  0.8498  3.6119
 7362SOL    HW233549   2.374   1.333   6.039 -0.1561 -0.5166  1.1237
 7363SOL     OW33550   4.405   4.033   9.566 -0.2344 -0.6600  0.1448
 7363SOL    HW133551   4.495   4.003   9.553  0.7188  2.8145 -1.2080
 7363SOL    HW233552   4.367   3.969   9.625 -1.1308 -2.2092 -2.1008
 7364SOL     OW33553   4.136   3.093   6.753  0.0480 -0.1517 -0.3324
 7364SOL    HW133554   4.131   3.186   6.732 -1.7030 -0.1457  0.2126
 7364SOL    HW233555   4.045   3.078   6.775  0.5172 -1.2029  0.8857
 7365SOL     OW33556   4.049   3.543   7.099  0.4049  0.1385 -0.1057
 7365SOL    HW133557   3.982   3.516   7.161  0.3395 -1.1131 -0.7070
 7365SOL    HW233558   4.091   3.607   7.156 -1.1847  1.8157 -0.8034
 7366SOL     OW33559   4.214   1.462   2.928  0.4896  0.1117 -0.3990
 7366SOL    HW133560   4.290   1.442   2.874  1.9481  1.8838  0.9857
 7366SOL    HW233561   4.219   1.557   2.918 -2.6253  0.5881  2.3067
 7367SOL     OW33562   3.780   3.992   0.500 -0.6237 -0.5048 -0.2475
 7367SOL    HW133563   3.717   3.935   0.542 -0.6800 -0.5359 -0.3742
 7367SOL    HW233564   3.729   4.072   0.487  0.5665  0.4025  0.6669
 7368SOL     OW33565   2.364   0.010  11.870  0.7123 -0.1728 -0.0922
 7368SOL    HW133566   2.419   4.657  11.862  0.5316 -0.1226 -1.8730
 7368SOL    HW233567   2.419   0.064  11.926 -0.5524 -1.3508  2.2502
 7369SOL     OW33568   0.812   3.751   5.370  0.2959 -0.4744 -0.0644
 7369SOL    HW133569   0.881   3.733   5.307 -0.4069 -1.4929 -0.5350
 7369SOL    HW233570   0.736   3.776   5.318  1.1379  2.1454 -0.0230
 7370SOL     OW33571   0.657   1.794   3.271 -1.0242 -0.0249  0.7467
 7370SOL    HW133572   0.725   1.727   3.262 -1.2134 -0.1375  0.1323
 7370SOL    HW233573   0.602   1.753   3.204  0.5803  0.3252 -0.7586
 7371SOL     OW33574   3.041   3.399   8.333  0.3839 -0.7076  0.4338
 7371SOL    HW133575   3.097   3.371   8.260  1.0662  1.8004 -0.0342
 7371SOL    HW233576   3.093   3.359   8.402  0.0861 -3.7517 -1.1235
 7372SOL     OW33577   2.316   1.120   5.416 -0.3502  0.0857 -0.5168
 7372SOL    HW133578   2.385   1.122   5.350  0.6216 -1.4129  0.4803
 7372SOL    HW233579   2.303   1.028   5.437 -0.5682  0.5662  1.4015
 7373SOL     OW33580   2.493   2.324   0.396  0.1638 -0.1633  0.1103
 7373SOL    HW133581   2.502   2.242   0.348 -3.0006 -0.3928 -0.0841
 7373SOL    HW233582   2.475   2.379   0.319 -1.3831 -0.2618  0.4117
 7374SOL     OW33583   3.226   4.264   3.314 -0.7111 -0.4712  0.5926
 7374SOL    HW133584   3.153   4.222   3.269 -1.9766  0.2712  1.9460
 7374SOL    HW233585   3.304   4.237   3.266 -0.4826  1.4975 -0.1476
 7375SOL     OW33586   2.332   0.522   6.898 -0.2273  0.3470 -0.3005
 7375SOL    HW133587   2.342   0.520   6.803  3.5185  0.4168  0.0928
 7375SOL    HW233588   2.272   0.448   6.910 -3.4363  2.9500 -0.2582
 7376SOL     OW33589   3.751   4.670   9.255  0.5900  0.3870  0.4639
 7376SOL    HW133590   3.804   4.591   9.246 -0.9910 -0.5981 -0.2031
 7376SOL    HW233591   3.764   4.706   9.343  0.7170  1.4381  0.0039
 7377SOL     OW33592   3.572   4.443  16.139  0.1166 -0.2948  0.5392
 7377SOL    HW133593   3.606   4.359  16.172  0.4906 -0.5080 -0.3905
 7377SOL    HW233594   3.540   4.478  16.222  2.1772 -0.9839  1.6251
 7378SOL     OW33595   1.765   1.149  14.644  0.2171 -0.2692 -0.3183
 7378SOL    HW133596   1.799   1.234  14.617 -2.0906  0.3124 -1.3811
 7378SOL    HW233597   1.844   1.097  14.659 -1.1463 -1.8737  1.2917
 7379SOL     OW33598   2.372   0.891   6.075  0.6803 -0.1897 -1.1960
 7379SOL    HW133599   2.384   0.803   6.113 -1.6164 -0.6759 -1.5974
 7379SOL    HW233600   2.299   0.880   6.014  0.4707 -1.8180 -0.6715
 7380SOL     OW33601   4.099   0.141  15.920  0.2964  0.1528 -0.7407
 7380SOL    HW133602   4.041   0.172  15.990 -1.2055 -1.9164 -1.0845
 7380SOL    HW233603   4.040   0.107  15.854 -0.1735  3.3815 -2.0084
 7381SOL     OW33604   1.967   2.779   3.454 -0.0210  0.7228 -0.1050
 7381SOL    HW133605   1.948   2.787   3.360 -1.4457 -0.7802  0.0754
 7381SOL    HW233606   1.910   2.706   3.477 -0.6360  0.4911 -2.3234
 7382SOL     OW33607   3.952   0.592   4.882  0.3258  0.1623  0.7418
 7382SOL    HW133608   4.009   0.546   4.820  1.4188 -0.1312  1.9413
 7382SOL    HW233609   4.013   0.599   4.956  0.8907 -0.5880  0.3453
 7383SOL     OW33610   4.152   2.827   9.789  0.1129  0.1382 -0.3050
 7383SOL    HW133611   4.195   2.910   9.811 -0.3158  0.7893 -1.8530
 7383SOL    HW233612   4.075   2.835   9.845  0.7550  0.0675  0.5734
 7384SOL     OW33613   1.460   1.500   5.899 -0.3921 -0.6780  0.0128
 7384SOL    HW133614   1.538   1.551   5.876 -1.3852 -0.5463 -2.9639
 7384SOL    HW233615   1.400   1.572   5.918  1.7683  1.3614 -0.8577
 7385SOL     OW33616   0.647   1.788   3.577  0.2121  0.2271 -0.1580
 7385SOL    HW133617   0.672   1.817   3.489  0.8801  1.4430  0.4325
 7385SOL    HW233618   0.704   1.850   3.623  0.5803 -0.5557  0.4282
 7386SOL     OW33619   3.187   0.771   3.227  0.0207 -0.7296 -0.1014
 7386SOL    HW133620   3.260   0.823   3.261 -1.7147  0.7888  1.2908
 7386SOL    HW233621   3.218   0.685   3.254  1.9553  0.0149  0.0726
 7387SOL     OW33622   4.702   0.132   1.576  0.4094  0.7761 -0.6278
 7387SOL    HW133623   0.020   0.217   1.587  2.1623 -0.3624  1.1184
 7387SOL    HW233624   0.053   0.078   1.555  0.3519  0.1250  0.8594
 7388SOL     OW33625   2.699   0.887  15.773  0.5052  0.4039  0.1238
 7388SOL    HW133626   2.699   0.794  15.798  0.5242  0.1907 -0.6582
 7388SOL    HW233627   2.644   0.874  15.695  1.5628  0.6010 -0.6545
 7389SOL     OW33628   2.235   3.188   6.459  0.6815 -0.5841  0.2598
 7389SOL    HW133629   2.263   3.111   6.409  0.9390 -0.8829  0.8618
 7389SOL    HW233630   2.222   3.249   6.387 -2.2963 -1.9596 -0.3563
 7390SOL     OW33631   2.529   0.898   0.161  0.3409 -0.3315  0.2893
 7390SOL    HW133632   2.494   0.899   0.250 -0.2315  0.1979  0.0638
 7390SOL    HW233633   2.487   0.980   0.132 -3.1464 -1.5650  1.8939
 7391SOL     OW33634   3.412   4.634  11.128  0.2800  0.5221 -0.4303
 7391SOL    HW133635   3.347   4.625  11.198  0.0980  0.2983 -0.6291
 7391SOL    HW233636   3.362   4.614  11.049 -1.2302  2.5085  0.0232
 7392SOL     OW33637   0.373   1.388   8.611 -0.2663 -0.0384  0.6622
 7392SOL    HW133638   0.444   1.345   8.563 -1.3085 -1.2339  0.1699
 7392SOL    HW233639   0.335   1.308   8.648 -0.8131  1.0097  2.3491
 7393SOL     OW33640   0.922   3.166   6.112 -0.5046 -0.0946 -0.3042
 7393SOL    HW133641   0.847   3.194   6.060 -1.8040 -2.4322  0.3093
 7393SOL    HW233642   0.872   3.134   6.187  2.0199  0.5997  1.7000
 7394SOL     OW33643   2.738   1.651   6.509 -0.2349  0.6540 -0.3841
 7394SOL    HW133644   2.709   1.657   6.418 -0.3975  2.9545 -0.2026
 7394SOL    HW233645   2.716   1.562   6.534  0.1922 -0.3875 -3.7809
 7395SOL     OW33646   3.007   0.947   2.264  0.4945 -0.3587 -0.1957
 7395SOL    HW133647   3.076   0.975   2.204  0.1643 -0.6263 -0.7022
 7395SOL    HW233648   3.019   0.852   2.273 -2.1851 -0.7086 -0.2577
 7396SOL     OW33649   3.159   4.698   8.404 -0.0326  0.3624  0.3388
 7396SOL    HW133650   3.166   0.007   8.493 -0.8091  2.6072 -0.4872
 7396SOL    HW233651   3.101   4.621   8.411  3.3060 -2.1504  0.4573
 7397SOL     OW33652   2.479   0.039   5.364  0.2422  0.2003 -0.0170
 7397SOL    HW133653   2.476   4.671   5.340 -0.4047 -0.2426  1.7975
 7397SOL    HW233654   2.556   0.063   5.312 -0.2085  1.6934  0.0025
 7398SOL     OW33655   3.062   3.557   6.775 -0.1674 -0.6983 -0.1246
 7398SOL    HW133656   3.068   3.620   6.846  0.1415 -0.8145 -0.0492
 7398SOL    HW233657   2.985   3.595   6.734 -0.0512  0.9787  1.2269
 7399SOL     OW33658   2.780   0.905   0.196  0.0028 -0.2280 -0.5653
 7399SOL    HW133659   2.780   1.000   0.181 -0.0903  0.0333  1.1346
 7399SOL    HW233660   2.688   0.886   0.178 -0.4663  1.2364  0.2891
 7400SOL     OW33661   1.528   4.502   3.610 -0.6908 -0.3429 -0.4140
 7400SOL    HW133662   1.498   4.534   3.695  0.6274 -0.3690  0.0598
 7400SOL    HW233663   1.607   4.454   3.633  0.4739  1.1570 -1.2797
 7401SOL     OW33664   3.149   0.470   8.000  0.3183 -0.0154  0.2308
 7401SOL    HW133665   3.223   0.416   8.028  0.5050  0.3386  0.4120
 7401SOL    HW233666   3.188   0.551   8.032 -1.6974  0.7520  0.7656
 7402SOL     OW33667   0.156   4.173   5.711  0.2484  0.0390 -0.1203
 7402SOL    HW133668   0.152   4.087   5.754 -0.7713 -0.2431 -0.7772
 7402SOL    HW233669   0.160   4.234   5.784 -0.3266  0.2469 -0.2647
 7403SOL     OW33670   4.506   0.238   5.121  0.4318 -0.4431  0.1259
 7403SOL    HW133671   4.537   0.260   5.209 -0.1702 -1.3328  0.5622
 7403SOL    HW233672   4.586   0.205   5.081 -0.3206 -2.0940 -0.0465
 7404SOL     OW33673   3.254   2.499   8.896 -0.2389  0.3499  0.0414
 7404SOL    HW133674   3.205   2.480   8.815 -0.0655 -1.0130  0.2646
 7404SOL    HW233675   3.273   2.592   8.882  3.3008 -0.2530  0.7737
 7405SOL     OW33676   1.828   0.883   8.437 -0.0194 -0.0080  0.5566
 7405SOL    HW133677   1.757   0.935   8.400  1.1678  0.0999 -1.5889
 7405SOL    HW233678   1.815   0.794   8.406  1.4307  0.9570 -2.8368
 7406SOL     OW33679   1.665   1.387  14.320  0.0349  0.0529 -0.2035
 7406SOL    HW133680   1.701   1.419  14.403 -0.0804 -0.4510  0.0400
 7406SOL    HW233681   1.680   1.296  14.346 -0.3085 -0.2277 -1.0020
 7407SOL     OW33682   3.260   0.509   3.256 -0.0044  0.1345  0.3201
 7407SOL    HW133683   3.186   0.451   3.239 -0.8689  0.6281  2.3697
 7407SOL    HW233684   3.260   0.536   3.165  0.5810 -0.9723 -0.0105
 7408SOL     OW33685   2.630   3.831   3.747 -0.0938  0.0822  0.2195
 7408SOL    HW133686   2.699   3.831   3.680  1.5721 -1.4351  1.9431
 7408SOL    HW233687   2.614   3.737   3.745 -0.2841  0.0994  1.0278
 7409SOL     OW33688   3.342   0.663   8.676 -0.3643  0.1011  0.2183
 7409SOL    HW133689   3.258   0.699   8.647  0.0863 -0.5421 -1.8819
 7409SOL    HW233690   3.370   0.737   8.729 -0.2701 -0.0477  0.3753
 7410SOL     OW33691   0.966   3.986   8.334 -0.0979 -0.4509 -0.2678
 7410SOL    HW133692   0.932   3.954   8.417 -0.0770 -1.9447 -0.8349
 7410SOL    HW233693   0.889   4.014   8.284 -0.6530 -2.5221 -0.5641
 7411SOL     OW33694   2.144   1.829   7.149 -0.1676 -0.1343 -0.1587
 7411SOL    HW133695   2.073   1.812   7.210 -0.6021  0.3691 -0.5244
 7411SOL    HW233696   2.158   1.919   7.176 -1.1728 -0.7190  2.2590
 7412SOL     OW33697   0.435   4.537   3.144 -0.8115 -0.1257  0.4460
 7412SOL    HW133698   0.406   4.454   3.182 -1.0761 -2.0204 -3.8572
 7412SOL    HW233699   0.368   4.554   3.077  1.1645  0.8665 -1.2727
 7413SOL     OW33700   4.568   3.301   8.487  0.5286  0.5633 -0.1294
 7413SOL    HW133701   4.607   3.267   8.407 -1.5524  0.8522 -1.2668
 7413SOL    HW233702   4.643   3.304   8.546  0.2303  0.8876  0.2319
 7414SOL     OW33703   3.532   2.069   6.324 -0.4545 -0.3191  0.4823
 7414SOL    HW133704   3.478   2.012   6.269  2.1498 -1.3083 -1.0109
 7414SOL    HW233705   3.468   2.109   6.383 -0.2574  0.9266 -0.1325
 7415SOL     OW33706   4.369   0.765   2.182 -0.0736  0.1237  0.3072
 7415SOL    HW133707   4.399   0.708   2.252 -0.5791  1.2352  1.4277
 7415SOL    HW233708   4.313   0.831   2.223  0.4688 -0.6692  2.2832
 7416SOL     OW33709   1.135   1.437  10.046 -0.0413  0.3064 -0.5670
 7416SOL    HW133710   1.159   1.516  10.094  0.4870 -0.5724  0.6346
 7416SOL    HW233711   1.046   1.457  10.018 -0.8633 -1.3479  0.8761
 7417SOL     OW33712   0.224   0.295   3.811  0.3540 -0.3276  0.0526
 7417SOL    HW133713   0.224   0.316   3.904  1.6421 -0.8862  0.1808
 7417SOL    HW233714   0.144   0.243   3.802 -0.8443  1.6649 -0.6552
 7418SOL     OW33715   3.200   4.465   5.759 -0.1560  0.2562 -0.1781
 7418SOL    HW133716   3.126   4.426   5.805 -0.3211 -0.7216 -1.2644
 7418SOL    HW233717   3.194   4.415   5.677  0.2005 -0.9046  0.5170
 7419SOL     OW33718   1.086   2.515   5.831  0.0727 -0.2973 -0.1794
 7419SOL    HW133719   1.070   2.577   5.760 -0.2892 -1.1014 -0.7936
 7419SOL    HW233720   0.991   2.507   5.834  0.2339 -2.2262 -0.6357
 7420SOL     OW33721   3.087   0.523   2.477 -0.2630 -0.2956 -0.5335
 7420SOL    HW133722   3.103   0.582   2.403 -1.4206  0.5804 -0.0809
 7420SOL    HW233723   3.073   0.436   2.439  3.0027 -0.0598 -2.2696
 7421SOL     OW33724   2.584   1.871   6.627  0.0388  0.1151 -0.1785
 7421SOL    HW133725   2.657   1.828   6.581 -1.5082 -0.9367 -1.6387
 7421SOL    HW233726   2.530   1.799   6.659  0.9707 -0.0366  1.0844
 7422SOL     OW33727   3.824   3.318   7.960 -0.2554  0.6801 -0.4763
 7422SOL    HW133728   3.918   3.336   7.955  0.4212 -3.1251 -0.8411
 7422SOL    HW233729   3.801   3.368   8.038  2.0720  1.6000 -0.3709
 7423SOL     OW33730   1.369   3.535   5.138 -0.2435 -0.1237 -0.0802
 7423SOL    HW133731   1.349   3.602   5.202  1.1908 -0.7168  0.9898
 7423SOL    HW233732   1.297   3.553   5.078 -2.4781 -2.0533  2.0071
 7424SOL     OW33733   0.897   1.565  11.156  0.0140  0.5767  0.3657
 7424SOL    HW133734   0.894   1.483  11.107  0.2276  1.2379 -0.7470
 7424SOL    HW233735   0.966   1.541  11.217 -0.0873  0.0643  0.2863
 7425SOL     OW33736   4.541   1.300   6.641  0.3276  0.0254  0.9015
 7425SOL    HW133737   4.483   1.374   6.658  1.5548  1.3818 -0.9361
 7425SOL    HW233738   4.561   1.278   6.732  0.7945 -2.7256  0.1264
 7426SOL     OW33739   3.729   0.276   3.817 -0.0412 -0.3710 -0.1125
 7426SOL    HW133740   3.783   0.279   3.738  0.9810 -2.2441  0.5194
 7426SOL    HW233741   3.725   0.366   3.848 -1.1981 -0.4680  0.0301
 7427SOL     OW33742   1.094   3.072   8.162  0.0900 -0.0300 -0.2824
 7427SOL    HW133743   1.058   3.050   8.248 -2.7909 -0.7207 -1.6487
 7427SOL    HW233744   1.157   3.001   8.153  0.6663  0.2170  1.7937
 7428SOL     OW33745   2.361   3.567  12.279  0.3679 -0.5375 -0.4710
 7428SOL    HW133746   2.320   3.630  12.219 -1.1069 -1.2280 -0.1982
 7428SOL    HW233747   2.282   3.535  12.323  1.1284 -1.5916  0.1330
 7429SOL     OW33748   0.169   0.509   8.053 -0.1228  0.2137  0.0204
 7429SOL    HW133749   0.193   0.442   7.990 -0.6124  0.1139 -0.0579
 7429SOL    HW233750   0.089   0.472   8.089  0.4827 -0.9744  0.1555
 7430SOL     OW33751   3.250   4.040   7.413 -0.0528 -0.0282  0.0357
 7430SOL    HW133752   3.198   4.107   7.369 -2.0651 -0.5118  1.6728
 7430SOL    HW233753   3.321   4.092   7.453  0.5074  0.0461 -1.0715
 7431SOL     OW33754   3.695   3.536  10.767  0.2784  0.2070 -0.1308
 7431SOL    HW133755   3.763   3.487  10.813  1.0423  1.4950  0.1009
 7431SOL    HW233756   3.614   3.486  10.778 -0.9758  2.9239  2.7558
 7432SOL     OW33757   2.698   4.561   4.003  0.5192 -0.6943  0.1889
 7432SOL    HW133758   2.709   4.656   3.993  1.2843 -0.6357  1.5644
 7432SOL    HW233759   2.672   4.556   3.911  0.9012 -0.3286  0.0640
 7433SOL     OW33760   1.428   1.808  15.288  0.0310 -0.0205  0.2113
 7433SOL    HW133761   1.497   1.873  15.274  0.2313 -0.0273  1.1435
 7433SOL    HW233762   1.463   1.732  15.241  1.9912 -0.4984  2.3883
 7434SOL     OW33763   1.264   1.013   3.838  0.0494 -0.4296 -0.1225
 7434SOL    HW133764   1.254   1.096   3.885 -0.0332 -0.0536 -0.8047
 7434SOL    HW233765   1.285   0.969   3.920 -1.1306  1.2354  1.0667
 7435SOL     OW33766   3.187   0.800   0.242 -0.2498  0.4709 -0.0875
 7435SOL    HW133767   3.101   0.765   0.220 -0.1134 -0.4326  0.7990
 7435SOL    HW233768   3.191   0.794   0.338  0.7712  2.3397 -0.0041
 7436SOL     OW33769   4.169   4.416   1.725  0.1723 -0.1850 -0.3676
 7436SOL    HW133770   4.237   4.484   1.730  0.4754 -0.4870 -0.3768
 7436SOL    HW233771   4.112   4.438   1.799  0.3011 -1.9455  0.2614
 7437SOL     OW33772   0.414   4.559  13.159 -0.4558  0.4128  0.0816
 7437SOL    HW133773   0.437   4.524  13.245 -0.8327 -1.6072 -0.6310
 7437SOL    HW233774   0.351   4.627  13.180 -0.2674  0.5910  0.0737
 7438SOL     OW33775   2.173   1.447  11.417  0.3842  0.6041  0.4745
 7438SOL    HW133776   2.222   1.446  11.499 -0.5527  1.0743  1.0381
 7438SOL    HW233777   2.178   1.356  11.387  1.7742  0.4829  1.0824
 7439SOL     OW33778   1.486   1.094   8.596 -0.5615  0.3882  0.2154
 7439SOL    HW133779   1.552   1.040   8.640 -1.4484  0.4252  1.5788
 7439SOL    HW233780   1.468   1.040   8.520  3.1280  1.1754 -1.2515
 7440SOL     OW33781   2.864   0.088   1.297 -0.0352  0.3119  0.1725
 7440SOL    HW133782   2.821   0.120   1.218  1.2716  0.6717 -0.3980
 7440SOL    HW233783   2.846   4.719   1.291 -0.9064  0.5260 -0.4568
 7441SOL     OW33784   4.101   3.383   1.052  0.1550  0.5005 -0.2639
 7441SOL    HW133785   4.080   3.295   1.083 -1.0132  0.6723 -0.5503
 7441SOL    HW233786   4.106   3.370   0.957  1.9181  1.3009 -0.2711
 7442SOL     OW33787   3.541   2.990   4.845 -0.2927 -0.4298  0.0711
 7442SOL    HW133788   3.517   2.917   4.902 -0.0037 -0.2553  0.4193
 7442SOL    HW233789   3.636   2.989   4.860 -0.5341 -1.1849  1.5283
 7443SOL     OW33790   4.108   1.202   8.241 -0.8065 -0.4656 -0.4620
 7443SOL    HW133791   4.175   1.138   8.264 -1.1550 -1.5576 -2.4515
 7443SOL    HW233792   4.058   1.141   8.185 -0.2469 -4.6691  3.5983
 7444SOL     OW33793   1.582   1.808   2.844 -0.0129 -0.6815 -0.2642
 7444SOL    HW133794   1.601   1.848   2.929  1.9989 -2.4923  0.1514
 7444SOL    HW233795   1.631   1.864   2.784 -0.9338 -1.8461 -2.1265
 7445SOL     OW33796   0.827   2.118   3.197 -0.7200 -0.7969  0.0514
 7445SOL    HW133797   0.922   2.108   3.195 -0.2590  3.2963  0.7525
 7445SOL    HW233798   0.797   2.068   3.273  1.3084 -0.1901  1.2347
 7446SOL     OW33799   3.738   4.350   4.992 -0.2451  0.0579 -0.1095
 7446SOL    HW133800   3.688   4.273   4.961 -1.4797  1.0684 -0.6514
 7446SOL    HW233801   3.774   4.376   4.907 -3.0136 -2.1396 -2.0177
 7447SOL     OW33802   1.994   1.161   6.826 -0.3113 -0.1431  0.4899
 7447SOL    HW133803   1.951   1.148   6.742 -2.3878  0.6578  1.4346
 7447SOL    HW233804   2.027   1.251   6.820 -3.0482  0.8369  0.2408
 7448SOL     OW33805   0.272   0.640   3.830  0.1543 -0.2817  0.1911
 7448SOL    HW133806   0.214   0.580   3.784  0.5937  0.8144 -1.7776
 7448SOL    HW233807   0.207   0.708   3.844 -0.8562 -0.9215 -1.3561
 7449SOL     OW33808   4.450   1.851  14.460  0.0582  0.1978  0.2529
 7449SOL    HW133809   4.493   1.872  14.542 -1.7114 -3.6672  2.1681
 7449SOL    HW233810   4.519   1.887  14.404  0.2947 -0.2153  0.2803
 7450SOL     OW33811   1.046   1.186  10.276  0.0990 -0.7805  0.1689
 7450SOL    HW133812   1.037   1.279  10.297  1.6531 -0.6374  0.1621
 7450SOL    HW233813   0.966   1.145  10.310 -0.2187  1.3479  2.0303
 7451SOL     OW33814   4.699   2.946   8.027  0.7285 -0.0420 -0.1138
 7451SOL    HW133815   4.609   2.922   8.048 -0.1903  0.9472 -2.8985
 7451SOL    HW233816   4.705   2.908   7.940  0.4754  0.4009 -0.3261
 7452SOL     OW33817   3.421   0.889   6.557 -0.1177  0.5590  0.2866
 7452SOL    HW133818   3.388   0.799   6.563 -0.3489  0.5098 -1.5151
 7452SOL    HW233819   3.514   0.867   6.552  0.4129  3.1232 -1.1342
 7453SOL     OW33820   2.811   1.102  14.581  0.5410 -0.2685  0.6024
 7453SOL    HW133821   2.826   1.009  14.561 -0.0538  0.1724 -1.9282
 7453SOL    HW233822   2.727   1.114  14.536 -0.0481 -1.2834  1.4276
 7454SOL     OW33823   4.588   2.951   8.531  0.6438  0.2662 -0.0462
 7454SOL    HW133824   4.534   2.982   8.459  0.8402  3.1496  1.0246
 7454SOL    HW233825   4.527   2.978   8.600 -0.3568 -0.1274 -0.7862
 7455SOL     OW33826   4.335   2.002   8.784  0.4117 -0.7091  0.8518
 7455SOL    HW133827   4.337   1.913   8.819 -1.1645  0.0037  2.7195
 7455SOL    HW233828   4.291   2.046   8.856 -1.7030 -1.7547  0.1809
 7456SOL     OW33829   4.330   0.712   7.832 -0.3338  0.3943  0.0749
 7456SOL    HW133830   4.356   0.659   7.757  2.0277  0.6048  0.7412
 7456SOL    HW233831   4.387   0.671   7.897 -1.1564  0.7674  1.0221
 7457SOL     OW33832   4.196   4.007   0.071 -0.4052 -0.2710  0.3141
 7457SOL    HW133833   4.174   3.936   0.011 -2.2691 -0.7095  1.5311
 7457SOL    HW233834   4.111   4.032   0.106 -0.0163  1.8035 -0.2442
 7458SOL     OW33835   0.186   0.480  16.738  0.0749 -0.6389 -0.0124
 7458SOL    HW133836   0.107   0.518  16.776 -0.4759 -2.1974  0.4152
 7458SOL    HW233837   0.171   0.467  16.645 -0.5122  2.1842 -0.2995
 7459SOL     OW33838   0.257   3.129   1.314 -0.3130  0.3428  0.5820
 7459SOL    HW133839   0.254   3.048   1.263 -1.1385  0.2836  0.7220
 7459SOL    HW233840   0.347   3.157   1.300 -0.5770  0.4488 -0.9134
 7460SOL     OW33841   1.725   1.474   0.658 -0.4223  0.1997  0.1312
 7460SOL    HW133842   1.781   1.448   0.731 -0.1502  1.3665  0.3406
 7460SOL    HW233843   1.769   1.547   0.614 -0.2359 -0.4617 -0.7732
 7461SOL     OW33844   4.456   4.043   9.266  0.1451 -0.0673  0.0586
 7461SOL    HW133845   4.523   4.107   9.289 -1.6457  1.4847  0.9900
 7461SOL    HW233846   4.377   4.095   9.246 -1.2833 -1.7106  1.4626
 7462SOL     OW33847   4.603   1.173   8.347 -0.7505 -0.2737  0.0643
 7462SOL    HW133848   4.686   1.160   8.391 -1.2956 -0.3820  1.0616
 7462SOL    HW233849   4.622   1.257   8.306 -0.2809 -0.1637  0.5219
 7463SOL     OW33850   4.267   4.703   9.243  0.8939 -0.5663 -0.6428
 7463SOL    HW133851   4.305   0.062   9.220  0.5121 -0.3695 -0.5467
 7463SOL    HW233852   4.232   4.716   9.332 -2.0453 -2.7564 -1.4485
 7464SOL     OW33853   1.955   0.943   4.448 -0.0254  0.0166  0.0152
 7464SOL    HW133854   1.974   0.865   4.500  2.2076  0.8288  0.4296
 7464SOL    HW233855   1.983   1.021   4.496 -0.6231 -1.0998  2.2045
 7465SOL     OW33856   2.590   3.818  10.576 -0.1277  0.0496 -0.0607
 7465SOL    HW133857   2.657   3.840  10.512 -0.1935  1.3202  0.3052
 7465SOL    HW233858   2.537   3.896  10.562 -0.3980 -0.2917 -0.9346
 7466SOL     OW33859   3.387   0.820   8.901  0.2759  0.6071  0.5496
 7466SOL    HW133860   3.372   0.908   8.936 -1.6014  0.3017  0.4829
 7466SOL    HW233861   3.332   0.765   8.956 -2.2373  0.4676 -2.0829
 7467SOL     OW33862   0.535   0.323   7.959 -0.3511  0.5095  0.1364
 7467SOL    HW133863   0.543   0.418   7.955  0.5456  0.4995  1.5199
 7467SOL    HW233864   0.624   0.302   7.987 -0.2302  0.7099 -0.0966
 7468SOL     OW33865   0.786   3.624   9.692 -0.3455  0.2617 -0.1067
 7468SOL    HW133866   0.841   3.573   9.752 -0.0958  0.1114 -0.4660
 7468SOL    HW233867   0.720   3.656   9.755 -1.9738 -0.5903 -1.3791
 7469SOL     OW33868   0.285   0.897   4.074  0.1004  0.0772  0.4713
 7469SOL    HW133869   0.344   0.968   4.098 -0.5747  0.6601  0.3876
 7469SOL    HW233870   0.342   0.820   4.066 -2.0121 -1.6848  2.1992
 7470SOL     OW33871   0.347   1.741   8.057 -0.4556 -0.2757  0.4977
 7470SOL    HW133872   0.286   1.698   8.118  1.1287 -1.1337  1.4922
 7470SOL    HW233873   0.406   1.793   8.112  1.3475  0.3063 -2.0108
 7471SOL     OW33874   1.744   4.024  11.608  0.5013 -0.7168 -0.4188
 7471SOL    HW133875   1.695   3.951  11.645  0.1710 -0.0726  0.4226
 7471SOL    HW233876   1.817   3.981  11.565  1.2575 -1.2536  1.4066
 7472SOL     OW33877   4.591   1.518   5.730  0.0033  0.2100  0.1094
 7472SOL    HW133878   4.633   1.471   5.658 -3.7534 -2.6074 -0.2074
 7472SOL    HW233879   4.499   1.501   5.710  0.4844 -1.5601 -0.5399
 7473SOL     OW33880   1.113   0.213   7.175 -0.2062 -0.1943  0.3288
 7473SOL    HW133881   1.080   0.290   7.127  0.0053 -0.3602 -0.0831
 7473SOL    HW233882   1.112   0.140   7.113 -1.1806 -0.4917  0.6977
 7474SOL     OW33883   0.035   3.771  13.840 -0.3081  0.5003  1.0293
 7474SOL    HW133884   0.070   3.777  13.929 -1.5217  2.4511  1.3638
 7474SOL    HW233885   0.114   3.788  13.789 -1.3123  1.3808 -0.2254
 7475SOL     OW33886   1.203   2.811   7.815  0.6061 -1.0514 -0.4634
 7475SOL    HW133887   1.165   2.814   7.727 -0.3418  0.2312 -0.0059
 7475SOL    HW233888   1.286   2.852   7.793  0.2484  0.2835  0.6420
 7476SOL     OW33889   0.382   1.897   9.653 -0.0687  0.2111 -0.2631
 7476SOL    HW133890   0.394   1.990   9.638 -1.5578  0.5602  0.7399
 7476SOL    HW233891   0.326   1.896   9.731 -1.3919 -2.0557 -1.2058
 7477SOL     OW33892   2.249   1.267   3.118  0.7177  0.4684 -0.3977
 7477SOL    HW133893   2.313   1.199   3.139  0.5543  1.2046  2.5424
 7477SOL    HW233894   2.273   1.285   3.027 -0.1262 -0.8176 -0.8637
 7478SOL     OW33895   2.082   1.722   3.800  0.6057 -0.7651  0.9467
 7478SOL    HW133896   2.030   1.797   3.771 -0.2152 -0.4287  3.3103
 7478SOL    HW233897   2.169   1.762   3.810  1.2298 -2.0193  0.5990
 7479SOL     OW33898   2.326   1.872  13.385  0.4513  0.1271 -0.0234
 7479SOL    HW133899   2.266   1.797  13.388 -0.6979  0.9488 -3.0393
 7479SOL    HW233900   2.381   1.845  13.311 -0.2609  0.3065 -0.6189
 7480SOL     OW33901   0.002   4.575  17.556 -0.3411  0.0734  0.5333
 7480SOL    HW133902   4.653   4.559  17.497 -0.4329  0.8640  0.4372
 7480SOL    HW233903   0.049   4.495  17.533  0.6745  0.6541  0.5793
 7481SOL     OW33904   1.504   0.343   1.511  0.3106  0.5860  0.0316
 7481SOL    HW133905   1.554   0.419   1.480  3.0126 -1.0550  0.3666
 7481SOL    HW233906   1.563   0.290   1.565  2.1963  0.5135 -2.0502
 7482SOL     OW33907   4.705   1.011  14.477  0.5101 -0.1700  0.0214
 7482SOL    HW133908   0.051   1.013  14.542  1.5674 -0.9898 -1.1057
 7482SOL    HW233909   4.662   0.927  14.490 -0.8812  0.3751 -1.0850
 7483SOL     OW33910   2.338   0.332  15.906  0.5211  0.0478  0.0379
 7483SOL    HW133911   2.270   0.267  15.924  0.0395  0.6089  0.2616
 7483SOL    HW233912   2.409   0.275  15.878  2.6589  1.1137  3.3206
 7484SOL     OW33913   4.100   0.616  10.588 -0.5503  0.3037 -0.2794
 7484SOL    HW133914   4.164   0.571  10.643 -2.1301 -1.1633  0.3805
 7484SOL    HW233915   4.142   0.702  10.590 -0.7272  0.3664  0.7577
 7485SOL     OW33916   2.155   1.637   8.391  0.2456  0.2822 -0.3860
 7485SOL    HW133917   2.167   1.542   8.387  0.9229  0.3019  1.2031
 7485SOL    HW233918   2.113   1.643   8.477 -0.7052  2.8488 -1.0442
 7486SOL     OW33919   1.041   1.119   7.876 -0.8954 -0.1079 -0.3334
 7486SOL    HW133920   1.050   1.181   7.803 -2.2564  0.3909 -0.0754
 7486SOL    HW233921   1.001   1.169   7.947 -0.2058  1.6209 -1.1623
 7487SOL     OW33922   3.375   4.538   4.541 -0.3987  0.4041  0.0341
 7487SOL    HW133923   3.335   4.558   4.456 -0.7900 -1.4972 -0.2197
 7487SOL    HW233924   3.456   4.513   4.497 -0.2530  2.6048 -0.9610
 7488SOL     OW33925   1.979   3.449  13.339  0.2840 -0.4485 -0.2504
 7488SOL    HW133926   1.992   3.436  13.245  0.4124  0.7917 -0.4010
 7488SOL    HW233927   1.952   3.541  13.344  1.8752 -0.0325  0.4776
 7489SOL     OW33928   1.987   1.942  13.953  0.4419  0.4883  0.1986
 7489SOL    HW133929   2.019   1.959  13.865 -0.1563  0.6560  0.0174
 7489SOL    HW233930   1.974   1.847  13.953  1.2554  0.3778 -2.4990
 7490SOL     OW33931   4.353   0.913   5.634 -0.0275  0.1262  0.0524
 7490SOL    HW133932   4.312   0.988   5.593  0.1778  1.3115  1.9969
 7490SOL    HW233933   4.327   0.844   5.573 -0.6687  0.6275 -0.2311
 7491SOL     OW33934   3.151   0.226  10.372  0.4069  0.4792  0.1569
 7491SOL    HW133935   3.236   0.259  10.344 -0.1140  2.3391  0.7179
 7491SOL    HW233936   3.165   0.132  10.361 -1.5870  0.4683 -2.3410
 7492SOL     OW33937   2.427   3.516   9.229  0.1080  0.1057 -0.3582
 7492SOL    HW133938   2.407   3.608   9.208  0.2423  0.0945 -0.5320
 7492SOL    HW233939   2.471   3.490   9.149 -0.2530 -1.0104 -0.1874
 7493SOL     OW33940   0.886   0.599   6.848  0.4501  0.0985  0.0419
 7493SOL    HW133941   0.909   0.552   6.768  0.7771  1.8699 -0.9229
 7493SOL    HW233942   0.969   0.645   6.864  0.8722 -1.2608  1.7473
 7494SOL     OW33943   3.411   3.270   8.400 -0.7102  0.2771  0.4920
 7494SOL    HW133944   3.370   3.256   8.314 -2.8742  0.1141  1.5586
 7494SOL    HW233945   3.336   3.238   8.449 -0.7817  1.0595  0.8803
 7495SOL     OW33946   2.573   4.415   4.484  0.1222  0.8283 -0.1127
 7495SOL    HW133947   2.486   4.392   4.516  0.0693 -0.4757 -1.1596
 7495SOL    HW233948   2.566   4.445   4.393 -0.7928  1.1163  0.0551
 7496SOL     OW33949   0.554   4.503   4.542  0.1534 -0.0834 -0.1535
 7496SOL    HW133950   0.566   4.464   4.455  0.8073  1.0842 -0.5786
 7496SOL    HW233951   0.634   4.471   4.584  0.1084 -3.0843 -2.3352
 7497SOL     OW33952   3.192   3.194   2.110  0.9530 -0.8860  0.1542
 7497SOL    HW133953   3.150   3.271   2.074 -1.9885 -1.6711  1.8721
 7497SOL    HW233954   3.159   3.123   2.056  0.5301 -0.4209 -0.1890
 7498SOL     OW33955   3.055   4.343   2.952 -0.4018 -0.1810 -0.2535
 7498SOL    HW133956   3.071   4.254   2.980 -0.7053 -0.9431 -2.4458
 7498SOL    HW233957   3.133   4.358   2.899 -1.1965  1.0683 -1.0777
 7499SOL     OW33958   4.217   4.223  16.507  0.5751 -0.2084  0.5985
 7499SOL    HW133959   4.218   4.182  16.593  0.3410  0.5414  0.9575
 7499SOL    HW233960   4.241   4.314  16.523  2.8448 -0.9930  1.4928
 7500SOL     OW33961   1.106   4.081   3.262 -0.8595  0.2453  0.0241
 7500SOL    HW133962   1.058   4.119   3.335 -1.6956  1.0903 -0.9806
 7500SOL    HW233963   1.040   4.022   3.224  0.2797 -0.6264 -0.6333
 7501SOL     OW33964   3.830   0.842   9.254 -0.8438  0.1524  0.3958
 7501SOL    HW133965   3.836   0.938   9.263 -0.9423  0.4071 -2.0388
 7501SOL    HW233966   3.895   0.838   9.183 -1.5608  0.0696 -0.2616
 7502SOL     OW33967   3.157   2.320  15.538 -0.0335 -0.0316 -0.0251
 7502SOL    HW133968   3.208   2.399  15.519 -1.3248 -0.1195 -3.9902
 7502SOL    HW233969   3.097   2.336  15.465 -0.4481 -0.4659  0.2163
 7503SOL     OW33970   4.255   1.225   9.899 -1.0206 -0.0538 -0.1141
 7503SOL    HW133971   4.165   1.257   9.891 -0.6463  0.6677 -1.4588
 7503SOL    HW233972   4.261   1.143   9.849 -1.0738 -0.1156 -0.0193
 7504SOL     OW33973   0.441   2.596   5.471  0.0738 -0.1139  0.3189
 7504SOL    HW133974   0.410   2.596   5.562 -1.5088  0.6614 -0.2153
 7504SOL    HW233975   0.508   2.528   5.465  0.3274  0.0301  1.6451
 7505SOL     OW33976   0.477   0.555   9.668  0.4742 -0.3689  0.0636
 7505SOL    HW133977   0.473   0.598   9.582 -4.1791  1.1592  1.1024
 7505SOL    HW233978   0.482   0.636   9.719 -0.1748 -0.2494 -0.0620
 7506SOL     OW33979   0.306   2.961   3.694 -0.4663  0.3074  0.2265
 7506SOL    HW133980   0.389   2.987   3.733 -1.0030  1.5334  0.5704
 7506SOL    HW233981   0.288   3.042   3.646 -1.0185  0.1758  0.2142
 7507SOL     OW33982   2.749   3.889   6.952 -0.4811  0.3723  0.3953
 7507SOL    HW133983   2.747   3.975   6.910  0.1657 -2.2270 -4.9548
 7507SOL    HW233984   2.670   3.895   7.006 -0.9553  0.1952 -0.2855
 7508SOL     OW33985   3.911   0.831   2.704  0.3761  0.2459  0.8958
 7508SOL    HW133986   3.923   0.885   2.782  1.3627  2.3145 -0.7078
 7508SOL    HW233987   4.002   0.822   2.678  0.5678  1.5742  1.0970
 7509SOL     OW33988   0.273   3.386   2.732 -0.3566 -0.1208  0.3286
 7509SOL    HW133989   0.251   3.331   2.656 -0.2537 -1.1592  1.0567
 7509SOL    HW233990   0.246   3.332   2.806  0.6486  1.0700  1.5460
 7510SOL     OW33991   3.578   1.778   4.653  0.3998 -0.3706  0.2447
 7510SOL    HW133992   3.494   1.733   4.647  1.2208 -1.7858 -0.3425
 7510SOL    HW233993   3.613   1.778   4.743 -0.0806 -1.5519  0.4309
 7511SOL     OW33994   4.308   2.061   6.797  0.5439  0.2871 -0.0822
 7511SOL    HW133995   4.382   2.053   6.857 -0.6787  2.0700  1.6598
 7511SOL    HW233996   4.292   1.971   6.768 -2.5528  1.7345 -2.8541
 7512SOL     OW33997   0.184   4.573  12.598  1.0634  0.0085  0.0822
 7512SOL    HW133998   0.212   4.608  12.514  0.7106 -0.9477 -0.4374
 7512SOL    HW233999   0.257   4.546  12.655  1.8825  1.7340 -0.1520
 7513SOL     OW34000   4.575   2.358  14.625  0.2258  0.1168  0.4061
 7513SOL    HW134001   4.559   2.440  14.578  0.1404 -0.6560 -0.9026
 7513SOL    HW234002   4.608   2.387  14.711  0.9537 -1.5367  0.6735
 7514SOL     OW34003   0.755   0.828   8.839  0.6159 -0.4679  0.0298
 7514SOL    HW134004   0.720   0.743   8.865 -0.7463  0.8954  2.5921
 7514SOL    HW234005   0.733   0.834   8.746 -0.4214  2.2721  0.4319
 7515SOL     OW34006   0.918   3.777   2.378 -0.1831  0.2331  0.6321
 7515SOL    HW134007   0.961   3.747   2.298 -0.0991 -1.5785  1.3635
 7515SOL    HW234008   0.827   3.791   2.350  0.1816 -0.6396 -1.0153
 7516SOL     OW34009   0.262   4.284   4.809  0.1123  0.8055 -0.6537
 7516SOL    HW134010   0.228   4.304   4.897 -1.5294  0.4259 -1.2011
 7516SOL    HW234011   0.204   4.214   4.779 -0.3404  0.0242  2.0305
 7517SOL     OW34012   3.178   1.314   2.517 -0.1843 -0.2135 -0.3208
 7517SOL    HW134013   3.142   1.226   2.507 -1.3937  0.0412  1.7005
 7517SOL    HW234014   3.107   1.365   2.478 -0.2213 -1.3946 -1.7784
 7518SOL     OW34015   1.182   3.410  14.767  0.2198 -0.6609 -0.2111
 7518SOL    HW134016   1.169   3.335  14.710 -0.8286  0.7641 -1.8806
 7518SOL    HW234017   1.100   3.426  14.814 -0.2349 -1.6741 -0.6832
 7519SOL     OW34018   1.739   0.799  10.439 -0.0486  0.3102 -0.0558
 7519SOL    HW134019   1.816   0.746  10.417 -0.3530  0.2577 -1.0063
 7519SOL    HW234020   1.672   0.742  10.402 -1.7044  3.3380 -1.7257
 7520SOL     OW34021   1.695   4.291   7.637  0.3960  0.6884 -0.0091
 7520SOL    HW134022   1.756   4.327   7.573 -1.2704  1.7626 -1.0011
 7520SOL    HW234023   1.746   4.224   7.681 -1.4018  0.2487  1.3844
 7521SOL     OW34024   3.973   4.717   6.780  0.5392 -0.3738  0.1087
 7521SOL    HW134025   3.920   4.676   6.848 -0.7675 -1.6066 -1.6290
 7521SOL    HW234026   4.047   4.659   6.760  0.3239 -0.5290 -0.2537
 7522SOL     OW34027   0.603   2.048   7.865  0.1110  0.2491  0.3874
 7522SOL    HW134028   0.578   1.974   7.811  0.2400  1.7553 -1.7507
 7522SOL    HW234029   0.575   2.128   7.820  0.1237  0.1294  0.1651
 7523SOL     OW34030   4.506   2.825   5.811  0.0280 -0.2109  0.1475
 7523SOL    HW134031   4.500   2.849   5.718 -1.6939 -0.4250  0.2104
 7523SOL    HW234032   4.529   2.734   5.793 -1.4323 -0.2846 -1.3692
 7524SOL     OW34033   4.396   3.573  10.048 -0.3044 -0.0935 -0.1494
 7524SOL    HW134034   4.429   3.520  10.121 -1.5342 -0.5272  0.0787
 7524SOL    HW234035   4.319   3.610  10.090 -0.1291  2.1894 -1.7921
 7525SOL     OW34036   3.590   4.044   1.092 -0.2677 -0.3203 -0.5489
 7525SOL    HW134037   3.664   4.049   1.152 -1.1791 -2.5516  0.7578
 7525SOL    HW234038   3.558   3.962   1.131 -0.7469 -0.3284 -0.9511
 7526SOL     OW34039   2.050   2.008   2.500 -0.0857  0.0699 -0.0299
 7526SOL    HW134040   1.987   2.033   2.432 -2.4343 -0.0891  2.0829
 7526SOL    HW234041   2.042   1.913   2.493  0.8708 -0.0653  0.7682
 7527SOL     OW34042   3.705   0.312   4.339  0.4720  0.4543 -0.2518
 7527SOL    HW134043   3.774   0.255   4.372  0.9079  1.6352  0.8651
 7527SOL    HW234044   3.758   0.391   4.332  0.4202  0.5676  0.6388
 7528SOL     OW34045   2.080   3.726  14.397 -0.7100 -0.6091 -0.5832
 7528SOL    HW134046   2.076   3.789  14.325 -1.7736  0.0918  0.0839
 7528SOL    HW234047   2.161   3.684  14.370 -0.3055 -0.5849  0.5807
 7529SOL     OW34048   3.572   4.354   9.831  0.4512 -0.0313 -0.1377
 7529SOL    HW134049   3.651   4.403   9.850 -0.7116  1.1679  1.5729
 7529SOL    HW234050   3.543   4.398   9.751  1.5392  0.1857 -0.4122
 7530SOL     OW34051   3.592   3.904  14.356 -0.3385 -0.4617 -0.3439
 7530SOL    HW134052   3.517   3.963  14.351  0.4090  0.5111 -0.0026
 7530SOL    HW234053   3.558   3.848  14.426  2.6037 -2.7856 -0.7521
 7531SOL     OW34054   1.495   1.803  17.174 -0.0378  0.4187 -0.1782
 7531SOL    HW134055   1.565   1.853  17.132  0.2315 -0.3094 -0.6025
 7531SOL    HW234056   1.418   1.859  17.166 -0.3747 -0.2978 -2.0160
 7532SOL     OW34057   3.052   4.615   3.027  0.2031  0.4340  0.0227
 7532SOL    HW134058   3.042   4.521   3.010  0.9853  0.4405 -0.4517
 7532SOL    HW234059   3.147   4.617   3.018  0.1375  2.2411 -0.3564
 7533SOL     OW34060   0.326   1.209   6.649  0.5289 -0.5409  0.0847
 7533SOL    HW134061   0.233   1.229   6.638  0.1567 -1.4631  1.5502
 7533SOL    HW234062   0.363   1.222   6.561  1.2660 -1.0939  0.3118
 7534SOL     OW34063   4.222   0.773   8.523  0.0356  0.2463  0.1012
 7534SOL    HW134064   4.256   0.782   8.434 -0.0718  0.8523  0.1200
 7534SOL    HW234065   4.246   0.682   8.541  0.1133  0.1542 -0.4448
 7535SOL     OW34066   4.179   4.445   8.907 -0.0207  0.5997  0.0863
 7535SOL    HW134067   4.261   4.471   8.866 -0.0672  0.3897 -0.1406
 7535SOL    HW234068   4.176   4.522   8.964 -1.5874 -0.2841  1.1797
 7536SOL     OW34069   1.347   3.146   4.678  0.6827  0.0222  0.1824
 7536SOL    HW134070   1.306   3.222   4.719  0.6355  0.2143 -0.2241
 7536SOL    HW234071   1.375   3.096   4.755  0.3818  2.2270  1.7248
 7537SOL     OW34072   2.510   0.846  16.264  0.0799 -0.3925  0.0579
 7537SOL    HW134073   2.555   0.867  16.346 -0.1865  2.5993 -0.5645
 7537SOL    HW234074   2.425   0.885  16.284  0.8497  1.5941 -0.5203
 7538SOL     OW34075   2.419   2.085   4.067  0.0870 -0.2869 -0.0336
 7538SOL    HW134076   2.333   2.127   4.068 -0.0531 -0.6126  1.7355
 7538SOL    HW234077   2.456   2.110   3.982  0.4123  0.0255  0.2022
 7539SOL     OW34078   4.477   2.093   3.726  0.0446  0.1568  0.2249
 7539SOL    HW134079   4.454   2.006   3.694  0.7079  0.5540 -1.3239
 7539SOL    HW234080   4.551   2.081   3.786 -0.0925  0.3327  0.4322
 7540SOL     OW34081   1.694   4.023  10.082 -0.2305 -0.0383  0.1406
 7540SOL    HW134082   1.708   4.053  10.172  1.4929  0.9357 -0.4810
 7540SOL    HW234083   1.599   4.005  10.082 -0.1617 -0.4258  0.5049
 7541SOL     OW34084   0.782   1.636  16.051 -0.0163 -0.2935 -0.6283
 7541SOL    HW134085   0.813   1.707  15.996  0.0480  0.5718  0.5203
 7541SOL    HW234086   0.839   1.660  16.124 -0.3122 -2.6232  0.3652
 7542SOL     OW34087   1.948   3.942  11.446 -0.2845  0.0884 -0.0936
 7542SOL    HW134088   2.008   3.875  11.478  1.2770  2.0077  1.0462
 7542SOL    HW234089   1.986   3.955  11.359  0.8774  0.9867  0.5560
 7543SOL     OW34090   2.124   0.839   8.420  0.3521  0.0099 -0.2244
 7543SOL    HW134091   2.114   0.766   8.481 -1.9094 -0.9324 -1.6821
 7543SOL    HW234092   2.033   0.870   8.427 -0.7544 -2.9611 -1.2077
 7544SOL     OW34093   4.326   4.203  12.485  0.3995 -1.2564  0.2129
 7544SOL    HW134094   4.286   4.126  12.444 -0.1472  0.0196 -1.6681
 7544SOL    HW234095   4.298   4.277  12.431  1.5982 -1.4364 -0.6599
 7545SOL     OW34096   3.895   3.201   5.312  0.2956 -0.2623 -0.3217
 7545SOL    HW134097   3.916   3.244   5.395 -3.3553  2.3483 -0.7173
 7545SOL    HW234098   3.821   3.145   5.338 -0.7661  0.6598 -1.3805
 7546SOL     OW34099   1.620   3.186  15.124  0.3976  0.2792  0.1724
 7546SOL    HW134100   1.641   3.093  15.134 -0.4778 -0.0668 -1.2661
 7546SOL    HW234101   1.694   3.217  15.072  1.1970 -0.3098  0.9438
 7547SOL     OW34102   0.037   0.634  10.366  0.0223  0.1447  0.0367
 7547SOL    HW134103   0.106   0.674  10.420 -4.0317  2.4487  3.5426
 7547SOL    HW234104   0.043   0.547  10.407  0.0509 -0.7660 -1.9267
 7548SOL     OW34105   1.675   3.207   2.604 -0.3872  0.1437 -0.5075
 7548SOL    HW134106   1.762   3.168   2.614 -0.6228  0.0624  1.2825
 7548SOL    HW234107   1.666   3.246   2.691  0.0565 -2.2767  0.6324
 7549SOL     OW34108   2.670   0.587   4.981  0.1689  0.1910  0.3557
 7549SOL    HW134109   2.688   0.638   5.060  2.2567 -0.1823  0.1020
 7549SOL    HW234110   2.751   0.541   4.959  0.7786  0.5227  1.8891
 7550SOL     OW34111   4.391   1.424  10.721  0.0032  0.2537 -0.3479
 7550SOL    HW134112   4.468   1.379  10.687 -0.4870 -0.2000 -0.8304
 7550SOL    HW234113   4.420   1.502  10.769 -0.2570 -0.1682  0.4910
 7551SOL     OW34114   1.262   3.066   2.753  0.4876  0.0353 -0.0106
 7551SOL    HW134115   1.176   3.070   2.711  0.9578 -0.2732 -0.9981
 7551SOL    HW234116   1.318   3.084   2.677  1.5765 -0.0745  0.7615
 7552SOL     OW34117   2.581   1.315  13.834 -0.4757  0.2967  0.0767
 7552SOL    HW134118   2.587   1.404  13.869 -0.6291 -0.2097  1.3782
 7552SOL    HW234119   2.673   1.297  13.819 -0.4549 -0.0179  0.6142
 7553SOL     OW34120   2.523   0.726   6.995  1.3140  0.5322 -0.1949
 7553SOL    HW134121   2.568   0.742   6.912  0.4798  1.5286 -0.4585
 7553SOL    HW234122   2.475   0.647   6.971  1.1977 -0.1862  2.4531
 7554SOL     OW34123   4.374   3.352  10.262  0.2252 -0.4466  0.6738
 7554SOL    HW134124   4.379   3.384  10.352 -0.4824 -0.7993  0.8449
 7554SOL    HW234125   4.462   3.316  10.249  0.4931  0.2448  0.5713
 7555SOL     OW34126   1.042   1.184  11.878 -0.1639 -0.2753 -0.2387
 7555SOL    HW134127   1.105   1.234  11.826 -1.2638  2.1952  0.8417
 7555SOL    HW234128   1.036   1.232  11.960  1.9087  0.3092 -0.4203
 7556SOL     OW34129   4.312   1.118  14.369 -0.2304  0.6005  0.4932
 7556SOL    HW134130   4.400   1.154  14.372  0.2234 -0.4358 -0.4929
 7556SOL    HW234131   4.264   1.192  14.406 -0.3558  1.6729 -1.8849
 7557SOL     OW34132   2.133   2.981   2.895  0.0365  0.3720  0.8246
 7557SOL    HW134133   2.135   2.982   2.990  0.3912 -2.3419  0.8552
 7557SOL    HW234134   2.187   2.904   2.877 -1.5935 -0.6690  0.3810
 7558SOL     OW34135   2.407   4.129   7.279  0.1529  0.2595 -0.0775
 7558SOL    HW134136   2.316   4.148   7.302 -0.4416 -0.9386 -1.4875
 7558SOL    HW234137   2.442   4.081   7.354  1.3352 -0.7716 -1.2919
 7559SOL     OW34138   1.677   1.812  15.005 -0.0043 -0.6707 -0.0108
 7559SOL    HW134139   1.617   1.839  15.074  1.1945 -0.8821  1.1242
 7559SOL    HW234140   1.752   1.868  15.027 -0.6635  0.9068 -1.7554
 7560SOL     OW34141   4.325   1.235  11.806  0.3789 -0.4264  0.1925
 7560SOL    HW134142   4.402   1.289  11.823  0.9630 -0.6232 -1.8169
 7560SOL    HW234143   4.286   1.296  11.744  4.0643  1.5078 -0.2467
 7561SOL     OW34144   1.377   2.008  15.494  0.3282 -0.1807 -0.0492
 7561SOL    HW134145   1.381   1.929  15.440  1.6188 -0.2541  0.1697
 7561SOL    HW234146   1.362   2.067  15.420 -1.0464  1.3708  1.4675
 7562SOL     OW34147   2.221   2.981  15.277 -0.9865 -0.3596 -0.4529
 7562SOL    HW134148   2.229   2.898  15.325 -2.5256  1.3987  2.8812
 7562SOL    HW234149   2.261   3.050  15.330  0.8081 -1.4264 -0.4236
 7563SOL     OW34150   3.579   4.061   6.919 -0.0476 -0.5165  0.5108
 7563SOL    HW134151   3.647   4.015   6.968 -2.7401 -2.4319  2.4607
 7563SOL    HW234152   3.633   4.117   6.863 -1.6941  0.4963 -0.0727
 7564SOL     OW34153   3.415   0.013   8.067  0.3392 -0.0125  0.0059
 7564SOL    HW134154   3.481   0.023   8.136  1.0689  0.3267 -0.7446
 7564SOL    HW234155   3.351   0.078   8.096 -0.2093  0.2165 -1.7669
 7565SOL     OW34156   0.089   1.416   1.413 -0.3998  0.0281 -0.7860
 7565SOL    HW134157   0.134   1.340   1.449  0.0339  0.8429  0.4014
 7565SOL    HW234158   0.115   1.426   1.322 -0.6183  1.1119 -0.7324
 7566SOL     OW34159   4.320   4.167   6.640  0.0255 -0.2558  0.1244
 7566SOL    HW134160   4.235   4.172   6.684  0.2812 -0.1422  0.6108
 7566SOL    HW234161   4.338   4.261   6.642  1.6134 -0.5628 -0.5245
 7567SOL     OW34162   1.133   1.133   9.851  0.2511 -0.4449  0.0740
 7567SOL    HW134163   1.188   1.198   9.894  3.5519 -1.3195 -2.8693
 7567SOL    HW234164   1.206   1.081   9.819  2.4437  2.6318  0.0776
 7568SOL     OW34165   0.955   2.951  17.002  0.0327  0.8391  0.1551
 7568SOL    HW134166   0.959   2.858  17.022  1.1462  1.0070  0.6797
 7568SOL    HW234167   0.951   2.960  16.907  1.2638 -2.5664 -0.2165
 7569SOL     OW34168   1.221   4.079   2.865 -0.9074  0.0448  0.5224
 7569SOL    HW134169   1.314   4.056   2.864 -0.4845  1.7975 -1.8600
 7569SOL    HW234170   1.192   4.103   2.777  1.5355  0.4657 -0.1753
 7570SOL     OW34171   4.473   0.012   2.946 -0.5179 -0.0816  0.9420
 7570SOL    HW134172   4.417   4.699   3.013 -1.4877  0.1409  0.2608
 7570SOL    HW234173   4.404   0.039   2.885  0.3843  1.7860  0.7327
 7571SOL     OW34174   0.728   3.503   9.253  0.7704 -0.0388 -0.2590
 7571SOL    HW134175   0.704   3.411   9.239  1.0263 -0.1031 -0.2819
 7571SOL    HW234176   0.681   3.535   9.330  0.3764  2.0763 -1.4061
 7572SOL     OW34177   0.064   3.483   6.104  0.2384 -0.2776  0.2025
 7572SOL    HW134178   0.024   3.397   6.093 -1.7173  0.6933 -0.1560
 7572SOL    HW234179   0.066   3.489   6.200  1.2322 -1.2863  0.2414
 7573SOL     OW34180   3.180   2.947  13.217 -0.3559  0.2226  0.2446
 7573SOL    HW134181   3.237   2.986  13.283  0.0140  0.8167 -0.4244
 7573SOL    HW234182   3.103   3.002  13.233 -1.7864 -0.8156 -3.1352
 7574SOL     OW34183   2.597   4.503   0.654  0.3867 -0.4263  0.4904
 7574SOL    HW134184   2.531   4.454   0.704 -2.0257  1.6390 -0.6370
 7574SOL    HW234185   2.633   4.553   0.727  0.6782 -1.7051  1.2163
 7575SOL     OW34186   2.680   0.129   3.314 -0.4366  0.5032 -0.0224
 7575SOL    HW134187   2.637   0.053   3.274  0.5277 -0.1258  0.1220
 7575SOL    HW234188   2.771   0.099   3.309 -1.4017 -2.6454  1.1629
 7576SOL     OW34189   1.498   4.557   6.558  0.0606 -0.0178 -0.4948
 7576SOL    HW134190   1.585   4.572   6.521 -0.2582  0.6691 -0.9654
 7576SOL    HW234191   1.448   4.589   6.483  3.1486 -2.3114 -3.5058
 7577SOL     OW34192   0.193   1.537   6.395 -0.0796  0.0544  0.1493
 7577SOL    HW134193   0.118   1.581   6.434  1.3252 -0.6503  3.6677
 7577SOL    HW234194   0.153   1.465   6.347  1.1288  0.2510 -1.1705
 7578SOL     OW34195   3.936   4.657   8.817 -0.7214 -0.1207  0.8666
 7578SOL    HW134196   3.970   4.648   8.907  0.3657 -0.8644  0.3867
 7578SOL    HW234197   3.848   4.623   8.831 -1.2771  1.6580  1.6877
 7579SOL     OW34198   2.722   3.947   9.150 -0.0592 -0.0983  0.6569
 7579SOL    HW134199   2.639   3.971   9.191  1.0271  0.9025  2.2864
 7579SOL    HW234200   2.684   3.880   9.094 -0.0074  1.5733 -1.3577
 7580SOL     OW34201   1.908   2.480  17.596  0.1147 -0.2397  0.1124
 7580SOL    HW134202   1.862   2.548  17.645  0.1689  0.2773 -0.5546
 7580SOL    HW234203   1.980   2.460  17.655 -0.9970  0.1759  1.6022
 7581SOL     OW34204   2.353   3.863  10.891 -0.1367 -0.4097 -0.1228
 7581SOL    HW134205   2.284   3.840  10.953  0.7487  4.4145  2.6955
 7581SOL    HW234206   2.417   3.793  10.901 -1.2580 -0.8287  4.0170
 7582SOL     OW34207   4.223   3.850  11.789  0.0601 -0.1122  0.4985
 7582SOL    HW134208   4.184   3.763  11.778 -1.9256  0.8070  0.3302
 7582SOL    HW234209   4.152   3.903  11.753  0.9248  2.0089  1.8984
 7583SOL     OW34210   2.507   3.281   4.113  0.0002 -0.6848  0.7187
 7583SOL    HW134211   2.427   3.244   4.151 -0.2998 -0.8274 -0.0345
 7583SOL    HW234212   2.515   3.359   4.168 -1.5555  1.5225 -2.1770
 7584SOL     OW34213   2.244   1.292   4.649  0.1734 -0.3110  0.2057
 7584SOL    HW134214   2.274   1.330   4.731  0.1099  0.0984  0.0450
 7584SOL    HW234215   2.314   1.331   4.596  0.6629  0.4788  1.4465
 7585SOL     OW34216   2.756   3.638   6.056 -0.0304 -1.0135 -0.0825
 7585SOL    HW134217   2.706   3.560   6.081 -0.5764 -0.6172  0.0473
 7585SOL    HW234218   2.686   3.687   6.014  0.3056 -1.6950 -1.4601
 7586SOL     OW34219   3.902   1.742  10.578 -0.6323  0.0929 -0.0719
 7586SOL    HW134220   3.943   1.826  10.559 -0.9070  0.1290 -0.4992
 7586SOL    HW234221   3.883   1.694  10.497 -1.7218  0.1264  0.1699
 7587SOL     OW34222   3.444   1.809  16.018  0.6597  0.7479 -0.3105
 7587SOL    HW134223   3.499   1.743  16.059  0.0056  1.0135  0.9806
 7587SOL    HW234224   3.470   1.802  15.926 -2.6689  1.9255 -1.3822
 7588SOL     OW34225   3.623   3.817   5.400 -0.2220  0.3673 -0.3657
 7588SOL    HW134226   3.692   3.773   5.451 -1.7471 -1.5411  0.0243
 7588SOL    HW234227   3.580   3.880   5.459 -2.3812 -2.1551  0.7559
 7589SOL     OW34228   4.056   1.339   6.549 -0.2338  0.2079  0.2633
 7589SOL    HW134229   4.135   1.339   6.494 -0.4217  1.3558 -0.0048
 7589SOL    HW234230   4.051   1.250   6.583 -1.2502  0.6273  1.1992
 7590SOL     OW34231   4.586   2.613   4.906  0.1058 -0.2327 -0.1965
 7590SOL    HW134232   4.653   2.659   4.856  0.9385  0.4108  1.5108
 7590SOL    HW234233   4.621   2.636   4.992 -0.9564 -0.6723  0.3441
 7591SOL     OW34234   0.109   0.506   5.234  0.4113  0.0861 -0.8075
 7591SOL    HW134235   0.097   0.455   5.154  0.6879 -3.7434  1.6078
 7591SOL    HW234236   0.119   0.442   5.305  0.5188 -0.5743 -1.4151
 7592SOL     OW34237   2.974   0.368  17.507 -0.2802 -0.9707 -0.4973
 7592SOL    HW134238   3.065   0.339  17.504  1.0322  2.9535  1.5176
 7592SOL    HW234239   2.984   0.448  17.455  0.4370  0.4917  1.8966
 7593SOL     OW34240   0.710   3.527   4.710 -0.3584  0.4531  0.2817
 7593SOL    HW134241   0.686   3.511   4.618  0.9601 -0.5800  0.1218
 7593SOL    HW234242   0.655   3.460   4.750  0.5878 -0.1744  0.5246
 7594SOL     OW34243   2.513   2.897   4.014 -0.3756  0.5722  0.1471
 7594SOL    HW134244   2.494   2.811   4.051  2.0611 -0.1530 -0.2560
 7594SOL    HW234245   2.438   2.912   3.956  0.1861  0.6656 -0.5598
 7595SOL     OW34246   1.270   3.809   6.934  0.1648  0.4906 -0.4248
 7595SOL    HW134247   1.265   3.721   6.972  2.2681  0.5315 -0.0509
 7595SOL    HW234248   1.180   3.839   6.944  0.2060  0.6006 -0.3828
 7596SOL     OW34249   0.754   2.255   8.653 -0.0943 -0.2391 -0.2529
 7596SOL    HW134250   0.699   2.283   8.580  0.5679 -3.3229 -1.9552
 7596SOL    HW234251   0.710   2.305   8.722 -1.2455 -2.2108  0.4257
 7597SOL     OW34252   0.122   3.825   4.081  0.6707  0.3503 -0.0498
 7597SOL    HW134253   0.182   3.761   4.042 -0.7412 -0.9096 -0.1375
 7597SOL    HW234254   0.102   3.876   4.003  1.8970 -0.3674 -0.8390
 7598SOL     OW34255   0.323   4.566   8.369 -0.6060  0.2118 -0.3886
 7598SOL    HW134256   0.388   4.503   8.398 -0.7629 -0.4816 -1.5300
 7598SOL    HW234257   0.255   4.508   8.334 -1.0162 -0.7078  1.9702
 7599SOL     OW34258   1.730   1.445   1.980  0.0463  0.1976 -0.6278
 7599SOL    HW134259   1.748   1.513   2.045 -3.6446  2.1508 -1.6414
 7599SOL    HW234260   1.806   1.442   1.923  1.7207  1.5241  1.5293
 7600SOL     OW34261   3.128   2.418   4.994 -0.5014 -0.1647 -0.4809
 7600SOL    HW134262   3.036   2.434   5.018  0.1595 -0.0796  2.0198
 7600SOL    HW234263   3.172   2.383   5.071 -1.7594 -0.9414 -0.1065
 7601SOL     OW34264   4.131   3.034   4.614  0.1671  0.0880 -0.2321
 7601SOL    HW134265   4.202   3.060   4.555 -0.8795  0.0914 -1.5065
 7601SOL    HW234266   4.093   2.971   4.552 -1.8612 -0.5938  1.6785
 7602SOL     OW34267   3.538   1.649  13.776 -0.1301  0.1007  0.4583
 7602SOL    HW134268   3.586   1.648  13.693  2.7412 -1.9744  2.1909
 7602SOL    HW234269   3.527   1.742  13.796 -1.8387 -0.2566  1.2142
 7603SOL     OW34270   4.414   3.834   6.997  0.0718 -0.2718  0.7776
 7603SOL    HW134271   4.455   3.891   6.932 -1.7049  1.2797  1.0146
 7603SOL    HW234272   4.464   3.753   6.994  1.1254  0.3742  0.7376
 7604SOL     OW34273   4.332   3.177   7.523  0.1614  0.4733 -0.4182
 7604SOL    HW134274   4.378   3.111   7.471  0.2377  2.2241 -2.5429
 7604SOL    HW234275   4.394   3.249   7.512 -0.0224  0.7931  0.6145
 7605SOL     OW34276   2.318   1.854   3.778  0.1268 -0.2480 -0.3116
 7605SOL    HW134277   2.378   1.827   3.848 -1.7441 -0.3160  1.2659
 7605SOL    HW234278   2.367   1.817   3.705  1.0090 -2.1431  1.2019
 7606SOL     OW34279   1.008   1.491   4.817 -0.5738 -0.1102 -0.4555
 7606SOL    HW134280   0.975   1.480   4.728  0.3627 -0.5058 -0.7542
 7606SOL    HW234281   1.094   1.531   4.802 -0.7757  0.4124 -0.2361
 7607SOL     OW34282   2.820   1.842   1.127 -0.2626 -0.1348  0.9996
 7607SOL    HW134283   2.864   1.919   1.165  0.8877  1.1300 -2.9230
 7607SOL    HW234284   2.764   1.799   1.192  0.0829 -1.5210  0.3733
 7608SOL     OW34285   0.254   2.501   0.540  0.3367  0.2767  0.0951
 7608SOL    HW134286   0.338   2.499   0.586  0.2076  1.5001  0.3753
 7608SOL    HW234287   0.200   2.452   0.602  3.2214 -3.9402 -0.6919
 7609SOL     OW34288   3.619   3.896   8.274 -0.4349  0.2750  0.2948
 7609SOL    HW134289   3.571   3.814   8.280  0.5713 -0.5135 -2.2749
 7609SOL    HW234290   3.553   3.961   8.250  0.4942  0.7048 -1.1172
 7610SOL     OW34291   3.185   2.286   6.722  0.0506 -0.2919  0.4974
 7610SOL    HW134292   3.184   2.355   6.788  2.3077 -1.2594  1.5265
 7610SOL    HW234293   3.121   2.334   6.669  1.2265 -0.7589 -1.3598
 7611SOL     OW34294   2.652   2.722  16.265 -0.5088 -0.5152 -0.2239
 7611SOL    HW134295   2.722   2.780  16.295 -1.6482  0.0249  1.4228
 7611SOL    HW234296   2.680   2.640  16.305 -4.5883 -1.0303  1.5367
 7612SOL     OW34297   3.465   4.161   3.207 -0.3161 -0.7567  0.1566
 7612SOL    HW134298   3.540   4.219   3.206 -2.0506  1.5048  0.5914
 7612SOL    HW234299   3.493   4.119   3.126  1.8524 -2.4915  1.8164
 7613SOL     OW34300   2.196   3.069   2.292 -0.2996 -0.3208 -0.3298
 7613SOL    HW134301   2.226   3.159   2.275  2.1730 -0.8730  1.1383
 7613SOL    HW234302   2.182   3.053   2.199  1.4477  3.3316 -1.2428
 7614SOL     OW34303   2.235   3.324   7.190  0.0648 -0.7449  0.2798
 7614SOL    HW134304   2.243   3.254   7.254 -1.8613  0.1182  1.4737
 7614SOL    HW234305   2.153   3.309   7.142 -0.0625 -2.0436  0.9009
 7615SOL     OW34306   3.256   3.486   1.618  0.2611  0.6368 -0.1777
 7615SOL    HW134307   3.314   3.458   1.546 -0.3950  2.1222 -1.2874
 7615SOL    HW234308   3.192   3.528   1.561 -0.3623 -1.4927 -1.0619
 7616SOL     OW34309   3.371   1.348   4.681  0.3464  0.7519 -0.6399
 7616SOL    HW134310   3.350   1.256   4.696  0.5398  0.7667 -0.2829
 7616SOL    HW234311   3.439   1.361   4.747 -1.2526 -0.2465  1.2099
 7617SOL     OW34312   3.603   3.606   7.083 -0.2076 -0.3766 -0.1319
 7617SOL    HW134313   3.625   3.558   7.004 -2.6328 -1.6822 -0.0168
 7617SOL    HW234314   3.622   3.539   7.148 -0.7443 -2.3891 -2.0781
 7618SOL     OW34315   2.426   2.535  13.730  0.6574 -0.0442 -0.2212
 7618SOL    HW134316   2.331   2.529  13.725  0.6904 -0.5097 -0.3355
 7618SOL    HW234317   2.436   2.448  13.692 -1.0237 -0.5490  0.4928
 7619SOL     OW34318   0.600   0.271  10.564 -0.0241  0.3192  0.0756
 7619SOL    HW134319   0.591   0.357  10.605  1.6005  0.2452  0.5989
 7619SOL    HW234320   0.619   0.297  10.474 -1.8453 -1.8039 -0.9299
 7620SOL     OW34321   2.872   3.059   5.212  0.0187  0.8366  0.0510
 7620SOL    HW134322   2.827   3.108   5.143  3.5305  0.6164 -2.4064
 7620SOL    HW234323   2.891   3.132   5.271  1.5857  0.5786 -0.1336
 7621SOL     OW34324   0.010   1.862   9.607  0.1676 -0.1466  0.3565
 7621SOL    HW134325   0.069   1.937   9.605 -0.3186  0.2225 -0.3252
 7621SOL    HW234326   0.032   1.812   9.528 -0.3023 -0.2907  0.3182
 7622SOL     OW34327   4.371   4.587   0.832  0.3443 -0.0064  0.5214
 7622SOL    HW134328   4.401   4.587   0.923 -0.8985 -1.8743  0.9333
 7622SOL    HW234329   4.289   4.635   0.839 -0.2360 -0.4478 -3.1637
 7623SOL     OW34330   2.542   1.555   6.040 -0.0353  0.6064  0.4139
 7623SOL    HW134331   2.528   1.460   6.041  0.3001  0.5473 -0.6026
 7623SOL    HW234332   2.587   1.570   5.957 -2.2770  0.5480 -0.7975
 7624SOL     OW34333   3.829   4.478   2.707 -0.0364 -0.4604 -0.0999
 7624SOL    HW134334   3.833   4.534   2.629 -1.5047 -0.4459 -0.1708
 7624SOL    HW234335   3.895   4.522   2.760  2.0915 -3.7494 -0.0428
 7625SOL     OW34336   0.503   0.827   4.407 -0.8126  0.4528 -0.2478
 7625SOL    HW134337   0.583   0.792   4.446 -1.2466  0.8814  1.0514
 7625SOL    HW234338   0.474   0.895   4.469 -2.8563  1.7981 -2.6520
 7626SOL     OW34339   0.378   2.865  16.252  0.7781 -0.3036  0.0515
 7626SOL    HW134340   0.402   2.773  16.242 -0.2910 -0.6754  0.8706
 7626SOL    HW234341   0.434   2.898  16.182  1.3801 -0.5372  0.4230
 7627SOL     OW34342   3.488   2.767   3.121 -0.0616 -0.3045  0.3587
 7627SOL    HW134343   3.521   2.770   3.031 -0.9893 -0.3894  0.0159
 7627SOL    HW234344   3.501   2.860   3.141  0.9835  0.3930 -3.5926
 7628SOL     OW34345   1.496   4.723  12.747 -0.0298 -0.1768 -0.2709
 7628SOL    HW134346   1.540   0.072  12.790  0.9995 -1.2099  0.4453
 7628SOL    HW234347   1.555   4.654  12.776 -0.4769 -0.2637  0.4361
 7629SOL     OW34348   1.033   0.788   2.219 -0.0445  0.5035  0.5409
 7629SOL    HW134349   1.020   0.882   2.228 -1.8228  0.4254 -1.3441
 7629SOL    HW234350   0.944   0.759   2.201 -0.2550  0.4074  1.7684
 7630SOL     OW34351   0.916   3.176   5.792  0.2337 -0.2005 -0.1341
 7630SOL    HW134352   0.982   3.108   5.805  0.6390 -0.1170 -1.7036
 7630SOL    HW234353   0.843   3.114   5.791 -1.1211  1.3701  1.7083
 7631SOL     OW34354   1.311   4.539  12.472 -0.5039  0.5386 -0.3361
 7631SOL    HW134355   1.355   4.494  12.399  1.4648 -2.3073  2.6005
 7631SOL    HW234356   1.219   4.517  12.460 -0.8665  0.6177  2.3537
 7632SOL     OW34357   1.781   1.117   2.251 -0.4198 -0.6031 -0.1438
 7632SOL    HW134358   1.858   1.158   2.211 -0.8239  0.5083  0.2484
 7632SOL    HW234359   1.702   1.144   2.204  0.7461 -1.3628 -2.5781
 7633SOL     OW34360   1.396   3.964   9.342  0.5412  0.0436 -0.1352
 7633SOL    HW134361   1.481   3.921   9.327  1.1257  0.3550  2.3682
 7633SOL    HW234362   1.404   4.025   9.268 -3.2585  1.3992  0.5925
 7634SOL     OW34363   4.588   3.009  11.630 -0.3304 -0.0882 -0.4147
 7634SOL    HW134364   4.634   2.964  11.559 -0.2019 -1.7132  0.7185
 7634SOL    HW234365   4.587   3.094  11.586  1.7131 -0.4523 -1.1517
 7635SOL     OW34366   2.807   2.714   6.185 -0.1524 -0.1006  0.3634
 7635SOL    HW134367   2.844   2.672   6.263  2.3053  0.6332 -0.4072
 7635SOL    HW234368   2.879   2.725   6.122 -0.2435 -2.1792 -0.0773
 7636SOL     OW34369   3.222   1.509   8.893 -0.2468  0.1350 -0.5582
 7636SOL    HW134370   3.131   1.484   8.874  0.7894 -3.1313 -1.0502
 7636SOL    HW234371   3.208   1.529   8.986  0.4296 -0.5672 -0.3106
 7637SOL     OW34372   3.629   2.943   8.971 -0.2163  0.0674 -0.3215
 7637SOL    HW134373   3.599   2.963   8.882 -2.4289  1.4440  0.7095
 7637SOL    HW234374   3.578   3.010   9.017  3.0582  2.3964 -0.0705
 7638SOL     OW34375   4.220   1.177   5.565  0.1403 -0.7538 -0.0629
 7638SOL    HW134376   4.282   1.247   5.543 -0.3175  0.2846  1.9470
 7638SOL    HW234377   4.190   1.173   5.474  0.2018 -2.4389 -0.0052
 7639SOL     OW34378   1.612   4.596   7.220  0.2524 -0.0501 -0.2850
 7639SOL    HW134379   1.667   4.616   7.296 -0.7352  3.9888 -0.6640
 7639SOL    HW234380   1.532   4.640   7.249 -0.6298 -2.0617  0.3204
 7640SOL     OW34381   3.460   0.777  16.609 -0.1895 -0.5997  0.2246
 7640SOL    HW134382   3.505   0.860  16.591 -2.7861  0.4218 -1.5545
 7640SOL    HW234383   3.389   0.803  16.668 -1.5274 -2.8028 -0.4058
 7641SOL     OW34384   4.171   4.446   7.824  0.3654  0.1414 -0.0804
 7641SOL    HW134385   4.116   4.501   7.879  1.0235 -1.1583  1.8891
 7641SOL    HW234386   4.257   4.462   7.864 -0.2480  0.7804  0.9972
 7642SOL     OW34387   1.990   3.652   6.016  0.3790 -0.0070  0.2297
 7642SOL    HW134388   1.927   3.724   6.007  1.0311  0.4613 -0.4900
 7642SOL    HW234389   2.048   3.669   6.090  1.1744 -0.3013 -0.3406
 7643SOL     OW34390   2.534   1.015   1.106 -0.3489  0.0805 -0.2316
 7643SOL    HW134391   2.576   1.004   1.191 -1.1517  1.9516  0.4013
 7643SOL    HW234392   2.481   0.936   1.117  2.1681 -1.2515  2.4380
 7644SOL     OW34393   4.097   0.511   8.860 -0.3540 -0.2407 -0.3199
 7644SOL    HW134394   4.132   0.534   8.946 -1.1560 -1.5632  0.3492
 7644SOL    HW234395   4.074   0.600   8.835  1.6139  0.9446  2.0745
 7645SOL     OW34396   1.636   3.899   5.578 -0.6695  0.2141 -0.2382
 7645SOL    HW134397   1.651   3.994   5.581  0.1636 -0.0508  3.3635
 7645SOL    HW234398   1.714   3.876   5.526 -0.1254  1.4251  0.0393
 7646SOL     OW34399   1.658   4.089   2.551  0.1057 -0.3518 -0.7150
 7646SOL    HW134400   1.575   4.136   2.559  0.3504 -0.1254  0.6039
 7646SOL    HW234401   1.721   4.158   2.570 -0.8949  0.6024 -0.8495
 7647SOL     OW34402   4.132   0.614   2.086  0.1802  0.0424 -0.2550
 7647SOL    HW134403   4.184   0.690   2.114  1.4019 -1.5344  1.7549
 7647SOL    HW234404   4.097   0.640   2.001 -1.7110 -0.2873  0.4087
 7648SOL     OW34405   1.838   3.928   2.195 -0.1144 -0.0402 -0.1664
 7648SOL    HW134406   1.924   3.961   2.221 -0.3406  0.0603  0.4736
 7648SOL    HW234407   1.793   4.003   2.158 -0.8750  0.0305  0.8903
 7649SOL     OW34408   2.068   4.105   4.286 -0.3848 -0.9167  0.5536
 7649SOL    HW134409   1.980   4.113   4.250 -0.1870  3.0984  0.9461
 7649SOL    HW234410   2.121   4.148   4.219 -0.3385 -1.4224  0.2657
 7650SOL     OW34411   1.923   3.175  13.653  0.5548 -0.4403  0.3691
 7650SOL    HW134412   2.009   3.181  13.693  0.8839 -1.9435 -0.1209
 7650SOL    HW234413   1.949   3.186  13.561 -0.0142 -0.9649  0.1434
 7651SOL     OW34414   0.117   1.622   4.223  0.1991 -0.3097  0.4819
 7651SOL    HW134415   0.163   1.703   4.249 -0.1948  0.3773 -0.9398
 7651SOL    HW234416   0.041   1.640   4.278  0.5866  0.6294  0.7197
 7652SOL     OW34417   3.829   0.318   7.660  0.2113  0.0084  0.0943
 7652SOL    HW134418   3.807   0.248   7.721 -2.5479  1.6126  0.9410
 7652SOL    HW234419   3.906   0.353   7.705  0.4898 -0.4111 -0.0608
 7653SOL     OW34420   3.346   1.993   9.035  0.4886 -0.1682 -0.0403
 7653SOL    HW134421   3.348   2.082   9.069  0.9920 -0.9074  1.8413
 7653SOL    HW234422   3.413   1.961   9.095  2.5075  4.5907  0.2281
 7654SOL     OW34423   0.404   1.894   5.526 -0.3067 -0.4101 -0.2239
 7654SOL    HW134424   0.484   1.928   5.483 -0.2456  0.3174  0.4672
 7654SOL    HW234425   0.386   1.960   5.592  2.1469 -1.4155  1.4615
 7655SOL     OW34426   2.847   4.456   6.066 -0.3666 -0.1341 -0.3656
 7655SOL    HW134427   2.836   4.511   5.988 -1.6749 -1.9516 -1.4505
 7655SOL    HW234428   2.918   4.401   6.032 -0.3685 -0.1600 -0.3275
 7656SOL     OW34429   3.491   3.506  11.135  0.3909  0.3157  0.1201
 7656SOL    HW134430   3.514   3.430  11.082  0.6774  0.1475  0.4892
 7656SOL    HW234431   3.461   3.458  11.212  0.3872 -0.5155 -0.3948
 7657SOL     OW34432   4.648   2.705   6.505 -0.0669 -0.0710  0.8005
 7657SOL    HW134433   4.714   2.694   6.436 -1.0827  2.0653 -0.5139
 7657SOL    HW234434   4.634   2.614   6.533  1.7273 -0.7219 -0.3858
 7658SOL     OW34435   3.286   4.241   9.557 -0.2396  0.5539 -0.4979
 7658SOL    HW134436   3.244   4.323   9.582 -1.8795  0.2116 -2.1492
 7658SOL    HW234437   3.262   4.188   9.633  0.2585  0.8123 -0.1595
 7659SOL     OW34438   3.978   4.657  15.708 -0.6808 -0.6611  0.4435
 7659SOL    HW134439   3.911   4.601  15.749 -0.8137  0.9921  2.4661
 7659SOL    HW234440   3.939   4.651  15.621 -2.3756  0.3005  1.1320
 7660SOL     OW34441   3.037   4.048   6.883  0.5223 -0.2581 -0.0111
 7660SOL    HW134442   3.109   3.994   6.852 -0.4750 -2.7217  1.9095
 7660SOL    HW234443   3.031   4.035   6.978 -1.1379 -1.0126 -0.2088
 7661SOL     OW34444   2.355   0.700  12.321  0.8617  0.5863 -0.0796
 7661SOL    HW134445   2.264   0.712  12.294  0.5691 -0.2984  0.5025
 7661SOL    HW234446   2.343   0.663  12.409 -1.1802  3.2921  0.7653
 7662SOL     OW34447   3.126   2.899   0.655  0.1573  0.5385  0.3373
 7662SOL    HW134448   3.104   2.808   0.637  0.7645  0.3686  0.4408
 7662SOL    HW234449   3.050   2.950   0.629 -1.5604 -1.7932  0.8779
 7663SOL     OW34450   4.052   0.392  16.759  0.4002  0.2813  0.3152
 7663SOL    HW134451   4.036   0.433  16.844 -0.7169  0.2484  0.1312
 7663SOL    HW234452   4.105   0.458  16.714  1.3103 -1.6437 -1.4203
 7664SOL     OW34453   4.119   3.398  13.615  0.1246 -0.4189  0.6837
 7664SOL    HW134454   4.060   3.473  13.606  1.7261  0.9117  1.4019
 7664SOL    HW234455   4.054   3.328  13.606 -0.4131  0.0120  1.2559
 7665SOL     OW34456   0.257   0.205   2.879 -0.1946 -0.3764 -0.0709
 7665SOL    HW134457   0.172   0.162   2.870 -0.6051  0.4481 -0.0995
 7665SOL    HW234458   0.236   0.298   2.875 -0.3073 -0.4394 -1.1792
 7666SOL     OW34459   4.318   0.831   5.083 -0.0609  0.4235 -0.0403
 7666SOL    HW134460   4.366   0.765   5.032  0.1494  2.0078 -1.8834
 7666SOL    HW234461   4.333   0.913   5.035  1.6698 -0.4036 -0.9469
 7667SOL     OW34462   0.077   0.131   9.831  0.0254  0.3001  0.2461
 7667SOL    HW134463   0.127   0.177   9.763  1.2319 -0.2689  0.7703
 7667SOL    HW234464   0.119   0.048   9.811 -3.0445 -1.2928  0.4753
 7668SOL     OW34465   2.706   3.487   6.991 -0.1994 -0.0239  0.2854
 7668SOL    HW134466   2.683   3.551   7.058 -1.8119  1.3731 -1.5913
 7668SOL    HW234467   2.653   3.410   7.012 -0.1452 -0.1497 -0.0440
 7669SOL     OW34468   1.004   3.919   6.970  0.2074 -0.5005 -0.5895
 7669SOL    HW134469   1.018   4.004   7.012 -3.2406 -1.4136  2.3359
 7669SOL    HW234470   0.919   3.890   7.002 -0.5295  0.6619 -1.5080
 7670SOL     OW34471   1.258   4.056   1.943  0.1542  0.4877  0.0919
 7670SOL    HW134472   1.344   4.015   1.943 -0.2437 -0.3539  0.4225
 7670SOL    HW234473   1.269   4.097   2.029 -1.1764  2.6268 -0.7517
 7671SOL     OW34474   3.114   3.564   2.926  0.1997 -0.1083 -0.0039
 7671SOL    HW134475   3.117   3.610   2.842 -0.9402  0.7229  0.4210
 7671SOL    HW234476   3.094   3.480   2.885 -2.1496  0.1604  0.5882
 7672SOL     OW34477   1.607   2.726   6.571  0.0962  0.5354 -0.0979
 7672SOL    HW134478   1.687   2.675   6.586  0.0064  0.8070  1.3387
 7672SOL    HW234479   1.547   2.671   6.522 -2.8052  1.3213  2.6133
 7673SOL     OW34480   2.818   1.699  16.800  0.5602 -0.0687 -0.7216
 7673SOL    HW134481   2.748   1.694  16.865  0.3018  1.9418 -0.8472
 7673SOL    HW234482   2.817   1.607  16.774 -0.4205 -0.1827 -0.2895
 7674SOL     OW34483   2.511   4.551   9.943 -0.1165 -0.3853  0.3712
 7674SOL    HW134484   2.441   4.581   9.885  0.5761 -0.9354 -0.7657
 7674SOL    HW234485   2.547   4.470   9.907 -0.6230  0.5044 -2.1220
 7675SOL     OW34486   4.181   2.827   1.547  0.0125 -0.3190  0.3350
 7675SOL    HW134487   4.192   2.798   1.456  0.2348 -1.0241  0.5947
 7675SOL    HW234488   4.099   2.876   1.544 -0.7318 -1.6896 -2.3516
 7676SOL     OW34489   3.610   2.220  17.093 -0.0456  0.1889 -0.2361
 7676SOL    HW134490   3.654   2.295  17.053  0.8599 -0.0164  0.3673
 7676SOL    HW234491   3.529   2.209  17.044  0.0655  1.3213 -0.6825
 7677SOL     OW34492   3.703   0.945   8.192  0.0072  0.2997  0.5738
 7677SOL    HW134493   3.717   0.969   8.100  0.7102 -1.1833  0.2868
 7677SOL    HW234494   3.632   1.005   8.213  0.5905  1.0849  0.2973
 7678SOL     OW34495   1.876   1.091   6.598  0.0639 -0.0946 -0.0994
 7678SOL    HW134496   1.899   1.135   6.516  1.7263 -1.0620 -0.1562
 7678SOL    HW234497   1.799   1.046   6.565 -1.4856  2.0358  0.5985
 7679SOL     OW34498   2.357   4.251   9.741  0.3657 -0.0962 -0.1350
 7679SOL    HW134499   2.298   4.311   9.695  1.7329  1.6739  0.4452
 7679SOL    HW234500   2.300   4.193   9.791  1.6917 -1.0091  0.3090
 7680SOL     OW34501   3.198   3.465   9.268  0.1159 -0.4062 -0.5613
 7680SOL    HW134502   3.130   3.494   9.207 -1.1480 -1.8213  0.1889
 7680SOL    HW234503   3.160   3.476   9.355 -0.3465  1.1283 -0.9518
 7681SOL     OW34504   1.483   3.551   7.458  0.2424 -0.1966 -0.3363
 7681SOL    HW134505   1.555   3.489   7.445  1.7350  0.8636  2.7108
 7681SOL    HW234506   1.433   3.517   7.532 -1.8892  2.1587 -0.6869
 7682SOL     OW34507   2.603   3.525  14.417  0.3153 -0.6021 -0.1894
 7682SOL    HW134508   2.526   3.528  14.360  2.6484 -0.2447 -3.2541
 7682SOL    HW234509   2.657   3.462  14.369 -0.6286  0.1448 -2.2346
 7683SOL     OW34510   0.854   4.283   6.997 -0.7333 -0.0397 -0.2633
 7683SOL    HW134511   0.945   4.298   7.022 -0.4329 -0.8967 -0.8186
 7683SOL    HW234512   0.813   4.345   7.056  1.3822  0.4310  0.7031
 7684SOL     OW34513   4.467   0.672  12.944 -0.3914 -0.4963 -0.2556
 7684SOL    HW134514   4.461   0.708  13.033 -0.3110 -1.7619  0.2621
 7684SOL    HW234515   4.493   0.582  12.965  0.7051 -0.2187 -0.4126
 7685SOL     OW34516   2.167   2.265   2.624  0.1270  0.4746  0.3773
 7685SOL    HW134517   2.126   2.334   2.572  0.1329  0.5824  0.5142
 7685SOL    HW234518   2.120   2.190   2.590  0.6415 -0.0929  0.8989
 7686SOL     OW34519   2.173   1.930   0.743 -0.4075 -0.2260 -0.8551
 7686SOL    HW134520   2.167   1.844   0.785 -0.5091  0.4606  0.5297
 7686SOL    HW234521   2.086   1.968   0.743 -0.2475  0.1415 -0.8579
 7687SOL     OW34522   0.512   0.088   1.669  0.3654  0.5110  0.1463
 7687SOL    HW134523   0.491   4.721   1.659 -0.1958  0.3835  2.4834
 7687SOL    HW234524   0.576   0.086   1.740 -0.8736  1.9772  1.3024
 7688SOL     OW34525   2.870   2.784  17.025 -0.6074 -0.5374  0.2500
 7688SOL    HW134526   2.833   2.852  17.082  0.4322 -0.4920  0.8662
 7688SOL    HW234527   2.944   2.767  17.083 -1.4783 -1.2993  1.1512
 7689SOL     OW34528   1.595   1.083   3.888 -0.1295 -0.1801  0.0005
 7689SOL    HW134529   1.689   1.071   3.892  0.0852  0.2044 -3.4635
 7689SOL    HW234530   1.568   1.023   3.957  1.2194  1.7763  2.2253
 7690SOL     OW34531   1.500   2.728  16.351  0.0857  0.0878 -0.4232
 7690SOL    HW134532   1.578   2.713  16.405 -0.6716 -1.5157  0.2096
 7690SOL    HW234533   1.525   2.806  16.301 -0.6846  0.9723  0.5758
 7691SOL     OW34534   3.739   4.317   6.555  0.1614 -0.0820  0.2232
 7691SOL    HW134535   3.756   4.296   6.647  0.2577  2.2986  0.7347
 7691SOL    HW234536   3.823   4.279   6.529  0.2102  0.4681 -0.4046
 7692SOL     OW34537   0.303   3.025  12.028 -0.4389 -0.0627 -0.6072
 7692SOL    HW134538   0.361   3.097  12.050 -1.8304  0.7071  0.4838
 7692SOL    HW234539   0.239   3.067  11.970 -1.9559 -1.4573  0.0428
 7693SOL     OW34540   2.380   0.225  13.688 -0.3318 -0.1881 -0.0999
 7693SOL    HW134541   2.458   0.172  13.673  0.1553  0.7600 -0.9599
 7693SOL    HW234542   2.309   0.170  13.654  0.9794 -1.8457 -0.1613
 7694SOL     OW34543   1.029   1.234   2.047  0.6179  0.2834  0.0247
 7694SOL    HW134544   0.948   1.200   2.008 -0.8120  2.7367  0.8773
 7694SOL    HW234545   0.983   1.290   2.109 -1.9105  1.0176 -2.4969
 7695SOL     OW34546   0.012   4.282   5.135 -0.1055  0.5456 -0.1292
 7695SOL    HW134547   0.106   4.299   5.130  0.0563  0.2789  1.8683
 7695SOL    HW234548   0.013   4.191   5.165 -0.6064  1.0231  1.3454
 7696SOL     OW34549   2.930   1.575  14.373 -0.0157  0.1815 -0.7415
 7696SOL    HW134550   2.941   1.480  14.375  2.1758  0.4796  2.4500
 7696SOL    HW234551   2.979   1.600  14.295  1.5750  1.3540  0.5966
 7697SOL     OW34552   1.652   4.295   5.349 -0.2308  0.0115 -0.5795
 7697SOL    HW134553   1.618   4.382   5.327 -0.4497  0.1129  0.1703
 7697SOL    HW234554   1.726   4.322   5.402 -0.9609 -2.6819  1.8083
 7698SOL     OW34555   0.179   4.103   6.603 -0.7802  0.2374  0.0094
 7698SOL    HW134556   0.197   4.018   6.643 -0.3301 -0.4503 -1.6450
 7698SOL    HW234557   0.200   4.087   6.511  0.4181 -1.1533  0.5310
 7699SOL     OW34558   3.662   3.822   8.553  0.4702 -0.5653  0.3969
 7699SOL    HW134559   3.721   3.799   8.625  1.8685  0.3897 -0.4324
 7699SOL    HW234560   3.679   3.916   8.539 -1.5647 -0.1406  0.8278
 7700SOL     OW34561   4.653   0.232   3.031  0.5412  0.5037  0.0431
 7700SOL    HW134562   4.581   0.175   3.059  1.1110  0.5828  1.6832
 7700SOL    HW234563   4.700   0.170   2.975 -1.3476 -1.9618  1.1889
 7701SOL     OW34564   4.418   2.132  14.658  0.5048 -0.2291  0.0842
 7701SOL    HW134565   4.500   2.086  14.641  0.2698 -1.1098  1.3299
 7701SOL    HW234566   4.447   2.218  14.628  0.1132 -0.9434 -2.3374
 7702SOL     OW34567   4.310   1.844   9.950  0.4793  0.5154 -0.0653
 7702SOL    HW134568   4.220   1.872   9.967  0.3627  0.4095 -0.4923
 7702SOL    HW234569   4.304   1.806   9.862 -1.0119  1.3418 -0.3197
 7703SOL     OW34570   3.525   3.812   4.022  0.1235 -0.5090 -0.2757
 7703SOL    HW134571   3.432   3.833   4.017  0.1292 -0.2026  1.0063
 7703SOL    HW234572   3.570   3.875   3.967 -0.2579 -0.1928 -0.2230
 7704SOL     OW34573   3.864   3.734   9.215 -0.6045 -0.6862 -0.4077
 7704SOL    HW134574   3.906   3.817   9.237 -0.8902 -0.2965 -1.3444
 7704SOL    HW234575   3.944   3.683   9.206 -0.7672 -0.9491 -0.3617
 7705SOL     OW34576   1.587   2.649   8.632  0.1433 -0.4249  0.0046
 7705SOL    HW134577   1.582   2.634   8.538 -0.5378 -1.1038  0.1481
 7705SOL    HW234578   1.679   2.637   8.654  0.4504  1.1083 -0.4618
 7706SOL     OW34579   3.135   4.595  15.133 -0.0043  0.5714 -0.8710
 7706SOL    HW134580   3.086   4.513  15.141 -1.7044  1.7369  0.7184
 7706SOL    HW234581   3.129   4.638  15.218 -0.9482 -2.1387  0.4342
 7707SOL     OW34582   0.691   3.612  16.136 -0.3894  0.1793 -0.2238
 7707SOL    HW134583   0.689   3.525  16.177  0.6258 -0.0314 -0.6330
 7707SOL    HW234584   0.629   3.589  16.067  0.7877  1.7152 -1.7883
 7708SOL     OW34585   1.899   3.693  13.235 -0.1826 -0.9166  0.0550
 7708SOL    HW134586   1.921   3.784  13.216 -1.0177 -0.8012 -0.3678
 7708SOL    HW234587   1.841   3.668  13.163 -1.2526 -0.8046  0.8784
 7709SOL     OW34588   2.666   1.132   4.827  0.2400 -0.0465  0.1173
 7709SOL    HW134589   2.689   1.197   4.893 -1.9345  0.7161  0.1372
 7709SOL    HW234590   2.740   1.148   4.768 -1.5383  1.5638 -1.7193
 7710SOL     OW34591   3.898   2.287   0.041 -0.4056  0.4210  0.4412
 7710SOL    HW134592   3.903   2.209   0.097  0.6288 -0.1488 -0.4539
 7710SOL    HW234593   3.978   2.333   0.066  0.2830  1.3259 -3.5657
 7711SOL     OW34594   2.430   4.464   1.008  0.1886  0.4399  0.4622
 7711SOL    HW134595   2.405   4.526   0.940 -2.6700  0.0816  1.1784
 7711SOL    HW234596   2.432   4.378   0.966  1.2368  0.9635 -0.5579
 7712SOL     OW34597   4.080   0.380   8.588  0.6082  0.4690 -0.1819
 7712SOL    HW134598   4.071   0.446   8.656 -5.3642 -0.2130 -0.2714
 7712SOL    HW234599   4.053   0.296   8.625  1.5375 -0.2901 -1.1942
 7713SOL     OW34600   2.006   4.618   6.120 -0.5540 -0.3509 -0.0871
 7713SOL    HW134601   1.918   4.653   6.108 -1.4428 -2.0997  1.1488
 7713SOL    HW234602   2.019   4.625   6.215 -0.6666 -1.2148 -0.0048
 7714SOL     OW34603   4.375   2.029  14.928  0.2674 -0.0488  0.2928
 7714SOL    HW134604   4.323   2.097  14.884  0.6515 -1.0304 -1.6633
 7714SOL    HW234605   4.444   2.005  14.866 -1.7832  0.4415 -2.2180
 7715SOL     OW34606   2.928   3.830   6.187  0.5336 -0.1209 -0.3814
 7715SOL    HW134607   2.870   3.757   6.169 -3.2917  2.9982 -0.7697
 7715SOL    HW234608   2.887   3.897   6.133  0.5036  0.2885  0.1454
 7716SOL     OW34609   0.970   1.037   2.279  0.1425  0.0951  0.2954
 7716SOL    HW134610   0.994   1.113   2.226  0.6975 -0.7362 -0.6499
 7716SOL    HW234611   0.880   1.064   2.298 -0.0860 -1.0755  0.8527
 7717SOL     OW34612   0.892   4.401   5.690  0.2933  0.8930  0.5846
 7717SOL    HW134613   0.919   4.486   5.726  0.5537  1.1283 -0.1619
 7717SOL    HW234614   0.798   4.420   5.682 -0.0823 -1.6343 -1.0497
 7718SOL     OW34615   2.469   0.395   1.002  0.1776  0.1471 -0.2126
 7718SOL    HW134616   2.531   0.321   1.002  0.4630  0.3942 -1.4125
 7718SOL    HW234617   2.512   0.450   1.068  2.1346 -1.1116 -0.3994
 7719SOL     OW34618   0.728   2.003   8.772 -0.1247 -0.3264 -0.0998
 7719SOL    HW134619   0.792   1.990   8.842 -3.9301 -2.4198  2.9678
 7719SOL    HW234620   0.751   2.090   8.740  0.0984  0.2949  1.7282
 7720SOL     OW34621   0.810   3.957   2.111 -0.5237 -0.1309  0.2842
 7720SOL    HW134622   0.739   3.984   2.053  0.7878  0.6787 -0.9403
 7720SOL    HW234623   0.777   3.876   2.149 -1.1756 -0.2895 -0.6169
 7721SOL     OW34624   1.687   2.276  15.704  0.0614  0.3056  0.8289
 7721SOL    HW134625   1.719   2.259  15.615 -0.1446 -0.3218  0.8772
 7721SOL    HW234626   1.765   2.284  15.758  1.5264 -1.0395 -1.0737
 7722SOL     OW34627   1.471   0.327  16.944 -0.5452 -0.3831 -0.5398
 7722SOL    HW134628   1.558   0.358  16.919 -1.3222  2.1520 -0.1464
 7722SOL    HW234629   1.427   0.336  16.859  0.7637  0.2047 -1.1495
 7723SOL     OW34630   1.833   3.827   6.890  0.3682 -0.1375 -0.0191
 7723SOL    HW134631   1.756   3.807   6.944  1.0973 -2.1526  0.2794
 7723SOL    HW234632   1.838   3.738   6.857  0.4986  0.3084 -1.2146
 7724SOL     OW34633   2.629   1.253  16.117 -0.9201  0.2299  0.1172
 7724SOL    HW134634   2.563   1.268  16.186  0.1110  2.0437  0.7044
 7724SOL    HW234635   2.610   1.159  16.115 -0.2684  0.1259 -0.8000
 7725SOL     OW34636   3.504   3.624   0.384 -0.4889  0.4799 -0.7578
 7725SOL    HW134637   3.474   3.540   0.349 -0.4762  0.4600 -0.7213
 7725SOL    HW234638   3.517   3.667   0.299 -2.9224 -1.8798 -2.3255
 7726SOL     OW34639   0.581   2.448  15.050 -0.2882 -0.4997 -0.1513
 7726SOL    HW134640   0.636   2.414  14.979 -0.5532  1.8679 -1.4792
 7726SOL    HW234641   0.546   2.370  15.094 -0.0573 -0.1406  0.6574
 7727SOL     OW34642   4.579   1.762   1.597 -0.2102  0.8224 -0.1253
 7727SOL    HW134643   4.555   1.684   1.548  0.4076  0.4016  0.2537
 7727SOL    HW234644   4.538   1.825   1.537 -0.4066  2.5050  1.7780
 7728SOL     OW34645   4.128   0.626   9.099  0.7485 -0.3157 -0.2805
 7728SOL    HW134646   4.089   0.713   9.107 -0.1979 -0.9486  2.1538
 7728SOL    HW234647   4.061   0.581   9.151  0.0780 -0.8007 -1.5511
 7729SOL     OW34648   4.023   2.902   8.717 -0.0226 -0.4404 -0.0167
 7729SOL    HW134649   4.080   2.976   8.735 -0.2120  0.0159 -1.3397
 7729SOL    HW234650   4.025   2.907   8.622 -0.2016 -0.7298 -0.0364
 7730SOL     OW34651   3.407   0.823   3.372 -0.1383 -0.1747 -0.1634
 7730SOL    HW134652   3.456   0.763   3.317 -0.7112  0.4470 -1.3430
 7730SOL    HW234653   3.475   0.857   3.430 -0.7190  1.9756 -0.7482
 7731SOL     OW34654   0.242   1.742   9.423  0.1258 -0.3413 -0.2929
 7731SOL    HW134655   0.283   1.766   9.506 -0.9092 -1.0093  0.4112
 7731SOL    HW234656   0.253   1.824   9.376 -0.6761 -0.2796 -0.3738
 7732SOL     OW34657   4.093   1.944   9.272 -0.0742  0.5938 -0.1123
 7732SOL    HW134658   4.131   1.882   9.334  1.0444  1.9756  0.5604
 7732SOL    HW234659   4.093   2.019   9.331 -1.6368  0.4775  0.0354
 7733SOL     OW34660   1.391   0.235   3.132 -0.8320 -0.3029  0.6763
 7733SOL    HW134661   1.346   0.151   3.146 -1.2076  0.2279  2.6872
 7733SOL    HW234662   1.322   0.281   3.084 -1.4058  0.4404  2.1976
 7734SOL     OW34663   1.495   3.658   1.923  0.0689  0.0027  0.0153
 7734SOL    HW134664   1.461   3.585   1.872  0.6346 -0.2840  0.0386
 7734SOL    HW234665   1.578   3.622   1.955 -0.3256 -1.1567 -0.2557
 7735SOL     OW34666   2.237   4.119   0.774 -0.0273 -0.4209  0.3097
 7735SOL    HW134667   2.270   4.064   0.703 -1.4585 -0.7493 -0.1004
 7735SOL    HW234668   2.174   4.172   0.727 -0.8314 -2.0265 -0.4183
 7736SOL     OW34669   3.559   1.356   0.012 -0.0255 -0.3470 -0.4573
 7736SOL    HW134670   3.575   1.338  17.621  1.7135  1.3946 -0.4796
 7736SOL    HW234671   3.650   1.339   0.038  0.4072  2.8631  0.0802
 7737SOL     OW34672   4.666   2.670  16.638 -0.5367 -0.1660 -0.3534
 7737SOL    HW134673   0.003   2.630  16.698 -1.2795 -0.5521  0.1666
 7737SOL    HW234674   4.645   2.748  16.689  0.3031 -1.5532  2.1181
 7738SOL     OW34675   3.667   4.334  10.963  0.3689  0.0861 -0.0100
 7738SOL    HW134676   3.580   4.297  10.949  1.2313 -0.7270 -3.3393
 7738SOL    HW234677   3.676   4.309  11.055 -0.6767  0.7273  0.2707
 7739SOL     OW34678   1.432   0.732  14.804  0.3555 -0.2547  0.2205
 7739SOL    HW134679   1.441   0.664  14.738 -0.4763 -0.7341  0.5965
 7739SOL    HW234680   1.521   0.768  14.804  0.0024  0.6288  0.1482
 7740SOL     OW34681   2.258   4.301   4.878  0.0455  0.2639 -0.0919
 7740SOL    HW134682   2.282   4.341   4.961 -1.4235  1.3516 -0.1809
 7740SOL    HW234683   2.212   4.366   4.825 -0.2995 -0.1991 -0.3675
 7741SOL     OW34684   3.173   2.531   5.564 -0.0246  0.1520  0.0772
 7741SOL    HW134685   3.235   2.467   5.601  0.6237  0.5312 -0.3477
 7741SOL    HW234686   3.096   2.483   5.594  0.5696 -0.0385  1.3179
 7742SOL     OW34687   2.418   3.687   2.317  0.4771 -0.6175  0.0092
 7742SOL    HW134688   2.434   3.592   2.314 -0.7481 -0.7712 -1.7328
 7742SOL    HW234689   2.323   3.693   2.310  0.6448  1.8128 -0.0982
 7743SOL     OW34690   3.154   4.359   5.502  0.0901  0.0487  0.2905
 7743SOL    HW134691   3.067   4.348   5.464  1.9359 -1.8983 -3.3980
 7743SOL    HW234692   3.190   4.429   5.448 -1.1042  0.7292  0.3717
 7744SOL     OW34693   2.965   1.587   5.296 -0.5247  0.4293 -0.9726
 7744SOL    HW134694   3.035   1.636   5.253  0.4750 -0.3637 -0.2454
 7744SOL    HW234695   2.894   1.651   5.287 -0.5536  0.6889  1.2725
 7745SOL     OW34696   4.633   3.382  15.238  0.6119 -0.2347  0.2311
 7745SOL    HW134697   4.632   3.434  15.318 -2.5843  1.1653 -0.7273
 7745SOL    HW234698   4.550   3.409  15.199  0.4064 -0.9765  0.1489
 7746SOL     OW34699   0.097   4.071   4.897  0.1432  0.5260 -0.0843
 7746SOL    HW134700   0.085   4.000   4.834 -0.0315  1.3421 -0.9808
 7746SOL    HW234701   0.044   4.039   4.970  0.8276 -0.9039 -0.2154
 7747SOL     OW34702   4.211   3.715  10.215  0.8608  0.2146 -0.0048
 7747SOL    HW134703   4.296   3.728  10.256  1.7937 -2.2197 -1.1432
 7747SOL    HW234704   4.156   3.774  10.267  0.5454  0.6889 -0.8834
 7748SOL     OW34705   2.693   1.309   5.008 -0.3519 -0.5421 -0.2844
 7748SOL    HW134706   2.725   1.322   5.097 -1.1946  1.6771 -0.3130
 7748SOL    HW234707   2.719   1.394   4.973 -0.4496  0.0562  1.1402
 7749SOL     OW34708   1.881   1.036   3.861 -0.1389  0.1070  0.6648
 7749SOL    HW134709   1.916   1.120   3.892 -0.1088  1.0665 -1.9300
 7749SOL    HW234710   1.953   0.979   3.886  1.0388  1.7038  0.8809
 7750SOL     OW34711   0.599   1.984   3.043 -0.2056 -0.5480  0.8562
 7750SOL    HW134712   0.663   2.054   3.054 -1.4300  0.7009  0.0056
 7750SOL    HW234713   0.600   1.949   3.133  0.9889 -3.0437 -0.1264
 7751SOL     OW34714   2.529   3.607   7.995 -0.5023  0.4401  0.0285
 7751SOL    HW134715   2.553   3.661   8.070 -0.9602  1.5712 -0.6310
 7751SOL    HW234716   2.577   3.527   8.016 -1.8405 -0.7755 -1.5063
 7752SOL     OW34717   3.262   0.489   6.328 -0.4900 -0.4620  0.7005
 7752SOL    HW134718   3.238   0.538   6.249  1.5829 -2.5786 -1.2191
 7752SOL    HW234719   3.289   0.554   6.393  1.4413  0.1127 -0.6726
 7753SOL     OW34720   3.358   1.643   3.696  0.4574 -0.0238  0.2478
 7753SOL    HW134721   3.383   1.552   3.715  0.1108  0.1496  1.5869
 7753SOL    HW234722   3.280   1.620   3.646 -0.4904 -1.7660  2.5323
 7754SOL     OW34723   3.276   4.496   2.513 -0.2415 -0.4920  0.3681
 7754SOL    HW134724   3.288   4.533   2.425  1.6274 -2.7232 -0.3238
 7754SOL    HW234725   3.188   4.457   2.509 -0.1120 -0.9411  2.0544
 7755SOL     OW34726   3.639   1.529   9.186 -0.4297  0.4448 -0.2331
 7755SOL    HW134727   3.552   1.493   9.201  1.1034 -3.1439  0.0579
 7755SOL    HW234728   3.615   1.579   9.108 -0.0693 -1.4590 -1.5898
 7756SOL     OW34729   4.521   0.856   1.437  0.7310  0.3957  0.1909
 7756SOL    HW134730   4.426   0.867   1.448  0.7963  1.7637 -0.5131
 7756SOL    HW234731   4.550   0.948   1.436  1.8139  0.0589  1.7546
 7757SOL     OW34732   0.101   2.025   8.857  0.5468  0.0231 -0.2731
 7757SOL    HW134733   0.116   2.108   8.811  0.0659 -0.4003 -1.2012
 7757SOL    HW234734   0.016   2.037   8.899  0.1130  1.3124 -1.5328
 7758SOL     OW34735   0.896   0.827   0.887  0.2152  0.0420 -0.3802
 7758SOL    HW134736   0.930   0.916   0.892 -0.6251  0.4963 -2.4129
 7758SOL    HW234737   0.857   0.816   0.800 -0.8657  1.6200 -0.0874
 7759SOL     OW34738   3.991   1.383   8.918 -0.0049  0.2607  0.4065
 7759SOL    HW134739   4.022   1.307   8.869 -1.4841  0.1290 -0.3548
 7759SOL    HW234740   3.927   1.423   8.859  0.0827 -1.3553 -0.7975
 7760SOL     OW34741   1.546   1.259   1.063  1.1641  0.0100 -0.2999
 7760SOL    HW134742   1.627   1.243   1.111  0.1153 -1.5060  0.9745
 7760SOL    HW234743   1.489   1.213   1.124  1.2677  0.6094  0.2578
 7761SOL     OW34744   0.485   0.846  12.988 -0.1777 -0.1058  0.5930
 7761SOL    HW134745   0.575   0.868  13.012 -0.7631  2.1360  0.8257
 7761SOL    HW234746   0.483   0.786  13.062  0.0009 -0.9792 -0.1232
 7762SOL     OW34747   3.588   4.602   7.140  0.2002  0.1711  0.1231
 7762SOL    HW134748   3.658   4.660   7.169 -0.1884 -0.4494  2.3160
 7762SOL    HW234749   3.558   4.569   7.225  1.4808 -0.2718  0.4023
 7763SOL     OW34750   1.610   1.056   3.570 -0.1929  0.0263  0.1881
 7763SOL    HW134751   1.521   1.026   3.590  0.6170  0.0412  3.9877
 7763SOL    HW234752   1.611   1.139   3.619 -1.1557  1.4761 -2.2599
 7764SOL     OW34753   1.867   0.700   3.120 -0.4151  0.3855  0.5738
 7764SOL    HW134754   1.803   0.747   3.174 -0.4492  0.8987  0.0867
 7764SOL    HW234755   1.815   0.638   3.069  1.4027  0.5192 -1.4508
 7765SOL     OW34756   2.011   0.349  11.739  0.1532  0.5097  0.5823
 7765SOL    HW134757   2.004   0.293  11.817  2.2730  0.7852  0.9609
 7765SOL    HW234758   1.968   0.430  11.765 -2.3956 -0.5145 -0.4033
 7766SOL     OW34759   0.405   1.756  14.061 -0.2209  0.6376  0.0224
 7766SOL    HW134760   0.499   1.763  14.047  0.1469 -0.4197  2.0857
 7766SOL    HW234761   0.401   1.851  14.047 -1.3288  1.0116  2.9722
 7767SOL     OW34762   3.014   4.406   7.992 -0.4469 -0.9538  0.3675
 7767SOL    HW134763   2.965   4.382   7.913  0.0122  3.7436 -1.2999
 7767SOL    HW234764   2.941   4.440   8.045  0.0584  0.4757  0.1404
 7768SOL     OW34765   3.210   2.984   5.118 -0.2904 -0.1648 -0.4083
 7768SOL    HW134766   3.188   2.917   5.054 -1.7978 -0.5098  0.4716
 7768SOL    HW234767   3.223   2.939   5.202  1.3758 -1.2468 -1.2467
 7769SOL     OW34768   3.560   3.150   7.421 -0.2739  0.1302 -0.5554
 7769SOL    HW134769   3.567   3.059   7.392  0.3855  1.5305 -4.7207
 7769SOL    HW234770   3.496   3.144   7.492  0.1322 -0.0444 -0.1987
 7770SOL     OW34771   3.688   3.584   3.368 -0.3314  0.3636 -0.1868
 7770SOL    HW134772   3.629   3.531   3.313 -0.2075 -0.4628  0.4715
 7770SOL    HW234773   3.657   3.668   3.335 -1.2657 -0.1477 -0.6291
 7771SOL     OW34774   4.006   3.845   6.785 -0.6943 -0.3167 -0.0721
 7771SOL    HW134775   4.012   3.934   6.751 -1.3245 -0.6996 -1.1865
 7771SOL    HW234776   4.048   3.861   6.870  1.2045  1.3543 -1.2963
 7772SOL     OW34777   2.869   2.021  14.746 -0.3114  0.6869 -0.0387
 7772SOL    HW134778   2.914   1.972  14.676  0.7978 -0.5075  1.5155
 7772SOL    HW234779   2.938   2.083  14.771  0.3386 -0.2048  0.3816
 7773SOL     OW34780   3.084   1.677   8.187  0.7276 -0.3871 -0.0539
 7773SOL    HW134781   3.044   1.757   8.221 -0.1035 -0.8468  0.0628
 7773SOL    HW234782   3.007   1.624   8.208  1.7475 -1.6739  0.4171
 7774SOL     OW34783   0.714   0.161  12.898  0.9495 -0.2037 -0.2807
 7774SOL    HW134784   0.758   0.107  12.965  1.1734  1.3455  0.8115
 7774SOL    HW234785   0.634   0.108  12.897  2.3761 -2.3494 -1.6644
 7775SOL     OW34786   1.611   0.939   5.286  0.4676 -0.5643 -0.7110
 7775SOL    HW134787   1.706   0.935   5.297  0.3151 -0.7448  0.6023
 7775SOL    HW234788   1.586   0.867   5.345 -1.3254  0.1669 -0.5701
 7776SOL     OW34789   1.768   1.228   7.675  0.0969  0.1985  0.1648
 7776SOL    HW134790   1.695   1.270   7.630  0.2121  0.8531  0.5784
 7776SOL    HW234791   1.724   1.147   7.703 -2.1717  2.4704  3.1757
 7777SOL     OW34792   1.719   4.097   4.669 -0.1199  0.6132 -0.0862
 7777SOL    HW134793   1.637   4.048   4.667  0.1592  0.1839 -0.9824
 7777SOL    HW234794   1.774   4.044   4.612 -0.4713  0.3081 -0.1388
 7778SOL     OW34795   3.297   1.647   8.378  0.2802  0.0730  0.5727
 7778SOL    HW134796   3.241   1.658   8.302 -0.0699 -1.0209  0.6674
 7778SOL    HW234797   3.254   1.691   8.452  0.0661  1.1205 -0.1763
 7779SOL     OW34798   1.631   0.636   7.389  0.5780 -0.0557 -0.2968
 7779SOL    HW134799   1.570   0.581   7.439  0.2537 -0.4843 -1.1756
 7779SOL    HW234800   1.705   0.575   7.387  0.6224  0.0456 -1.5009
 7780SOL     OW34801   3.201   2.132   2.269 -0.2178  0.3804 -0.1560
 7780SOL    HW134802   3.251   2.115   2.349 -0.5770  0.4333  0.0787
 7780SOL    HW234803   3.157   2.212   2.298  1.6749  1.1842  0.4985
 7781SOL     OW34804   0.575   3.744   9.819 -0.2215 -0.3232  0.1644
 7781SOL    HW134805   0.527   3.754   9.902 -3.6858 -2.7002 -1.5194
 7781SOL    HW234806   0.501   3.772   9.764 -2.3286 -2.2010  2.0139
 7782SOL     OW34807   0.677   1.087   0.713  0.0849 -0.2188 -0.6065
 7782SOL    HW134808   0.667   0.994   0.692  1.1603 -0.8096  1.4935
 7782SOL    HW234809   0.763   1.097   0.755 -0.3183  1.3987 -0.1492
 7783SOL     OW34810   4.126   3.227   7.086 -0.0493 -0.1975 -0.0719
 7783SOL    HW134811   4.080   3.207   7.004  0.9354 -0.1710 -0.6374
 7783SOL    HW234812   4.055   3.239   7.149  0.2164  0.2438  0.1407
 7784SOL     OW34813   0.782   2.937   3.280 -0.2911  0.2566 -0.1476
 7784SOL    HW134814   0.804   2.950   3.187  2.9444  1.4868  0.7674
 7784SOL    HW234815   0.854   2.880   3.307 -0.4872  0.0156 -0.1390
 7785SOL     OW34816   2.294   4.059  12.811 -0.0245 -0.7538  1.0537
 7785SOL    HW134817   2.258   4.132  12.760 -0.6280 -0.7284  1.5129
 7785SOL    HW234818   2.238   3.992  12.771  1.4053 -0.9349 -0.6596
 7786SOL     OW34819   4.595   4.664   5.847 -0.4936  0.3215  0.0837
 7786SOL    HW134820   4.525   0.001   5.866 -1.1890 -0.2343 -0.6478
 7786SOL    HW234821   4.672   4.714   5.822  0.3251 -0.1323  1.6945
 7787SOL     OW34822   2.788   4.351   2.981  0.5360 -0.5164 -0.3152
 7787SOL    HW134823   2.880   4.355   2.952  0.9247 -0.7028  0.9094
 7787SOL    HW234824   2.781   4.445   2.993  1.1828 -0.7129  1.6141
 7788SOL     OW34825   0.504   1.827  14.732 -0.1595 -0.3291 -0.2937
 7788SOL    HW134826   0.591   1.819  14.772 -1.6312  1.9351  3.3467
 7788SOL    HW234827   0.520   1.784  14.648 -0.6184 -1.3525  0.1389
 7789SOL     OW34828   2.788   1.320  15.117  0.3834 -0.3755  0.3971
 7789SOL    HW134829   2.777   1.323  15.022  2.3591  3.4350  0.2745
 7789SOL    HW234830   2.815   1.412  15.121 -1.2868  0.0853  1.4684
 7790SOL     OW34831   2.603   2.845  11.049  0.0994 -0.1220 -0.6601
 7790SOL    HW134832   2.525   2.848  11.105  0.8190  1.1258  0.2690
 7790SOL    HW234833   2.644   2.764  11.080 -1.6994 -1.1292 -0.8881
 7791SOL     OW34834   2.041   1.624   3.349  0.0340 -0.6148  0.3151
 7791SOL    HW134835   2.012   1.594   3.435  1.3056  1.0789  1.3160
 7791SOL    HW234836   2.111   1.562   3.329  0.1141 -0.2121 -0.6431
 7792SOL     OW34837   3.893   0.190   5.758  0.4427 -0.4151 -0.2718
 7792SOL    HW134838   3.972   0.208   5.707 -0.1459  2.2473 -0.2124
 7792SOL    HW234839   3.927   0.187   5.848 -0.8338 -0.5125  0.2167
 7793SOL     OW34840   2.093   0.862   3.912 -0.0648  0.5662 -0.1433
 7793SOL    HW134841   2.170   0.902   3.953  0.3613 -1.0508  0.6080
 7793SOL    HW234842   2.062   0.810   3.985 -0.9545  2.1776  0.6151
 7794SOL     OW34843   4.373   1.494   2.049  0.3225  0.8852  0.1813
 7794SOL    HW134844   4.306   1.446   1.999 -0.7178  2.1563  0.3415
 7794SOL    HW234845   4.370   1.568   1.988  1.6115  1.9030  1.3637
 7795SOL     OW34846   3.652   2.714   4.033  0.2824 -0.4803  0.1164
 7795SOL    HW134847   3.688   2.776   3.970  0.6123  0.9960  1.7474
 7795SOL    HW234848   3.594   2.780   4.071  1.9287  1.1758 -0.2968
 7796SOL     OW34849   2.767   3.061   8.486  0.0002 -0.0249 -0.4407
 7796SOL    HW134850   2.743   3.138   8.538 -1.3547  0.5284 -1.9027
 7796SOL    HW234851   2.777   3.001   8.559 -1.0809  2.6755  1.9428
 7797SOL     OW34852   0.527   0.191   8.877  0.2274  0.3049 -0.2047
 7797SOL    HW134853   0.468   0.120   8.852 -1.2155  1.5997 -0.4226
 7797SOL    HW234854   0.473   0.266   8.852  0.2384  1.4043  3.1587
 7798SOL     OW34855   1.348   0.645   4.557  0.1650 -0.0636  0.2331
 7798SOL    HW134856   1.285   0.673   4.490 -0.2536 -0.1600  0.5822
 7798SOL    HW234857   1.296   0.570   4.585 -0.9585  0.8064  0.4729
 7799SOL     OW34858   2.741   2.125   5.470 -0.2815 -0.3220  0.3179
 7799SOL    HW134859   2.715   2.212   5.499  0.1560 -1.1335  3.1265
 7799SOL    HW234860   2.825   2.124   5.515 -0.1230  1.0799  0.0482
 7800SOL     OW34861   4.190   3.208   2.790  0.4794  1.1715 -0.1861
 7800SOL    HW134862   4.137   3.210   2.710 -1.6631 -0.6271  1.1783
 7800SOL    HW234863   4.235   3.292   2.789  0.7067  1.0389 -2.1868
 7801SOL     OW34864   1.567   4.007   1.326 -0.1062 -0.2016  0.9498
 7801SOL    HW134865   1.609   4.077   1.276 -0.2475  0.0738  1.2173
 7801SOL    HW234866   1.639   3.947   1.347  0.2345  0.5278  1.8895
 7802SOL     OW34867   3.894   2.945  17.239 -0.0273 -0.2169 -0.0422
 7802SOL    HW134868   3.919   2.886  17.310 -0.8491 -0.7454 -0.1957
 7802SOL    HW234869   3.953   2.899  17.178  2.0266 -0.1339  1.8739
 7803SOL     OW34870   1.675   4.421   4.933 -0.0050 -0.6711  0.6665
 7803SOL    HW134871   1.759   4.378   4.918 -0.2508 -1.5713  1.8605
 7803SOL    HW234872   1.698   4.512   4.917  1.0684 -1.1917 -0.6862
 7804SOL     OW34873   1.170   4.486   7.855 -0.1331 -0.2104  0.3021
 7804SOL    HW134874   1.154   4.569   7.900  0.4794 -0.9412  1.8426
 7804SOL    HW234875   1.264   4.486   7.873  0.1862 -0.3441 -1.3913
 7805SOL     OW34876   0.974   3.112  11.645 -0.2359  0.1170  0.0106
 7805SOL    HW134877   0.981   3.192  11.696  2.5182 -1.1888  1.6896
 7805SOL    HW234878   0.882   3.111  11.617 -0.0892  0.6837 -0.4866
 7806SOL     OW34879   1.514   1.009   0.730 -0.1820  0.2573  1.0355
 7806SOL    HW134880   1.442   0.998   0.793 -0.0987 -0.3318  1.0297
 7806SOL    HW234881   1.495   1.085   0.675 -0.8166  1.0525  2.3395
 7807SOL     OW34882   3.433   4.034   6.551  0.3024 -0.0274 -0.3209
 7807SOL    HW134883   3.367   4.024   6.482 -2.4110  1.1563  2.1005
 7807SOL    HW234884   3.510   3.997   6.507  2.0594  0.1846  2.5723
 7808SOL     OW34885   2.888   0.505   8.024  0.2935  0.0339 -0.3456
 7808SOL    HW134886   2.982   0.488   8.015  0.7471  1.2096  2.0801
 7808SOL    HW234887   2.893   0.598   8.044 -1.3141 -0.1587  0.9514
 7809SOL     OW34888   3.326   1.595   6.992 -0.1730  0.1130 -0.0722
 7809SOL    HW134889   3.318   1.541   7.070 -0.1832  0.1752 -0.0303
 7809SOL    HW234890   3.295   1.679   7.025  0.6989  0.4331 -0.0693
 7810SOL     OW34891   2.780   2.051   4.495  0.2722 -0.0829  0.6807
 7810SOL    HW134892   2.704   2.049   4.437 -0.1382 -1.3337  1.2711
 7810SOL    HW234893   2.784   1.959   4.522  0.4503 -0.2006  0.2512
 7811SOL     OW34894   0.363   1.505   8.873 -0.2695 -0.4324  0.1561
 7811SOL    HW134895   0.292   1.445   8.896  0.0488 -1.1980 -0.8613
 7811SOL    HW234896   0.384   1.476   8.784 -0.8728  1.6296 -0.6587
 7812SOL     OW34897   1.331   3.674  17.462 -0.5843  0.1632  0.8008
 7812SOL    HW134898   1.370   3.648  17.546  1.4893  0.3916 -0.0768
 7812SOL    HW234899   1.334   3.593  17.411  2.3919  0.8542 -0.1362
 7813SOL     OW34900   0.898   4.224   4.306 -0.0670  0.3279  0.2825
 7813SOL    HW134901   0.994   4.224   4.308 -0.0432  1.0013 -1.0343
 7813SOL    HW234902   0.883   4.233   4.212 -0.6640 -0.0219  0.3440
 7814SOL     OW34903   3.314   4.149   1.074  0.5005 -0.6110 -0.2333
 7814SOL    HW134904   3.406   4.128   1.088  0.5256  0.7933  1.8208
 7814SOL    HW234905   3.313   4.221   1.011 -1.8384  0.7966  1.3849
 7815SOL     OW34906   3.134   1.345   4.920 -0.0551  0.2556  0.0840
 7815SOL    HW134907   3.207   1.393   4.880 -0.2386  2.5592  2.5009
 7815SOL    HW234908   3.083   1.421   4.946  0.0087 -0.1567  1.3968
 7816SOL     OW34909   1.589   1.558   1.138  0.1277 -0.1866 -0.0220
 7816SOL    HW134910   1.573   1.464   1.137 -1.6483  0.0877  2.4970
 7816SOL    HW234911   1.677   1.571   1.176 -0.5885  0.6869  1.3431
 7817SOL     OW34912   2.899   3.306   0.619 -0.2015  0.1685  0.2061
 7817SOL    HW134913   2.969   3.351   0.668  0.7350 -1.7123  0.5834
 7817SOL    HW234914   2.833   3.306   0.688  0.6277 -0.8835  0.9918
 7818SOL     OW34915   0.881   0.944   7.182  0.2730 -0.0153 -0.0374
 7818SOL    HW134916   0.840   0.881   7.123  0.1872 -0.2710  0.2924
 7818SOL    HW234917   0.897   1.022   7.129  0.0798 -0.5062 -0.8216
 7819SOL     OW34918   4.183   0.904   7.739  0.2709  0.4829 -0.0130
 7819SOL    HW134919   4.214   0.976   7.794  2.0735 -1.0492  0.9799
 7819SOL    HW234920   4.224   0.825   7.776  1.3839  0.8225 -0.5315
 7820SOL     OW34921   1.786   0.251   3.109  0.1424  0.1576 -0.6120
 7820SOL    HW134922   1.744   0.260   3.194 -2.6106 -1.5769 -1.7938
 7820SOL    HW234923   1.746   0.167   3.085 -0.3924 -0.1047  1.2360
 7821SOL     OW34924   3.916   0.615  14.304  0.0357  0.2794 -0.1490
 7821SOL    HW134925   4.004   0.578  14.313 -0.3002 -0.5489 -0.2163
 7821SOL    HW234926   3.935   0.709  14.301  1.5600  0.0118  0.9700
 7822SOL     OW34927   2.040   4.661   3.266 -0.0525 -0.6350 -0.0474
 7822SOL    HW134928   1.945   4.655   3.261 -0.1270 -0.8899  1.4243
 7822SOL    HW234929   2.046   0.031   3.274  1.1733 -0.7604  0.5746
 7823SOL     OW34930   2.957   3.210  16.025 -0.2482 -0.1105 -0.0132
 7823SOL    HW134931   2.918   3.141  16.078  0.0438  1.2834  2.0609
 7823SOL    HW234932   3.041   3.205  16.071 -1.5952  0.9556  2.6197
 7824SOL     OW34933   3.686   1.616  13.175 -0.2269 -0.1599  0.4861
 7824SOL    HW134934   3.680   1.692  13.233  0.1555  2.2283 -2.5948
 7824SOL    HW234935   3.625   1.547  13.204 -0.5798  0.2024  0.6051
 7825SOL     OW34936   3.773   0.228   0.588 -0.1141 -0.3079  0.2116
 7825SOL    HW134937   3.802   0.317   0.609  1.2226  0.1554 -3.6609
 7825SOL    HW234938   3.699   0.224   0.649 -0.5031 -1.7194 -0.3621
 7826SOL     OW34939   1.498   1.484   8.577  0.0778  0.8203  0.0207
 7826SOL    HW134940   1.516   1.506   8.485 -0.9747 -3.8957 -1.2724
 7826SOL    HW234941   1.552   1.405   8.583  2.1044  2.5069  4.1981
 7827SOL     OW34942   3.921   2.116   5.357 -0.4289  0.0865  0.3618
 7827SOL    HW134943   3.960   2.181   5.299  3.1591 -0.9363  1.6451
 7827SOL    HW234944   3.869   2.178   5.408  2.6126  2.8097  0.1182
 7828SOL     OW34945   2.106   0.353  16.266 -0.5965  0.1883 -0.5152
 7828SOL    HW134946   2.151   0.436  16.250  0.3646 -0.6877 -2.4192
 7828SOL    HW234947   2.174   0.308  16.316 -1.5175 -0.0746  0.4885
 7829SOL     OW34948   3.751   0.697   8.305 -0.2696 -0.4476 -0.2397
 7829SOL    HW134949   3.846   0.693   8.297 -0.4228  0.2972 -2.2688
 7829SOL    HW234950   3.737   0.781   8.262  0.7104 -0.2589 -0.1866
 7830SOL     OW34951   0.609   4.056   4.921  0.1742  0.2110 -0.0794
 7830SOL    HW134952   0.570   4.062   5.008 -2.5045 -0.5196 -1.2157
 7830SOL    HW234953   0.687   4.003   4.934  0.6960  1.4433  1.6818
 7831SOL     OW34954   1.321   3.006   2.296  0.4472 -0.4722 -0.0606
 7831SOL    HW134955   1.315   3.037   2.386  0.4015  0.0067 -0.2252
 7831SOL    HW234956   1.333   2.912   2.310 -0.1468 -0.4711  0.4637
 7832SOL     OW34957   3.467   3.292   4.606 -0.1594 -0.6338  0.3730
 7832SOL    HW134958   3.384   3.340   4.609 -0.1564 -0.4300 -2.2005
 7832SOL    HW234959   3.530   3.362   4.592  0.3826 -0.7471  2.3480
 7833SOL     OW34960   0.506   1.626   8.579 -0.6873  0.1760 -0.4911
 7833SOL    HW134961   0.465   1.541   8.562 -2.5377  0.7667  1.0017
 7833SOL    HW234962   0.596   1.593   8.579 -0.6762  0.2073 -1.6996
 7834SOL     OW34963   1.920   4.190   3.670 -0.5365 -0.1450 -0.0965
 7834SOL    HW134964   1.993   4.229   3.719  1.3661 -1.0477 -2.2503
 7834SOL    HW234965   1.949   4.190   3.579 -0.6395 -0.2101 -0.1285
 7835SOL     OW34966   3.926   2.422   3.199  0.2464 -0.5073  0.3622
 7835SOL    HW134967   3.997   2.403   3.138  0.3437  0.6215  0.1208
 7835SOL    HW234968   3.936   2.517   3.208 -1.2671 -0.0960 -2.2660
 7836SOL     OW34969   3.962   3.403  16.647 -0.0942  0.7103  0.5724
 7836SOL    HW134970   3.942   3.497  16.649 -0.3463  0.7118 -2.0742
 7836SOL    HW234971   4.041   3.385  16.697  0.2546  0.9690  0.1080
 7837SOL     OW34972   3.014   2.624   6.402 -0.3157  0.3300 -0.3427
 7837SOL    HW134973   2.951   2.557   6.376 -1.7123  1.6585 -0.3941
 7837SOL    HW234974   3.087   2.574   6.438 -1.0091 -0.5394 -0.1635
 7838SOL     OW34975   0.602   2.808  13.125 -0.6325 -0.2058  0.1320
 7838SOL    HW134976   0.571   2.878  13.183 -2.3433  0.1209 -1.1616
 7838SOL    HW234977   0.597   2.837  13.034 -1.2581 -0.2825  0.1412
 7839SOL     OW34978   3.709   1.079  10.611  0.0520  0.3365 -0.1970
 7839SOL    HW134979   3.751   0.993  10.618 -2.9464 -1.1940 -1.1840
 7839SOL    HW234980   3.787   1.121  10.575  0.1295  0.4154  0.0631
 7840SOL     OW34981   2.125   0.249   2.249 -0.0882  0.3015  0.2690
 7840SOL    HW134982   2.092   0.321   2.303 -1.3232  0.0312 -0.1097
 7840SOL    HW234983   2.101   0.179   2.309  2.2829  0.4973  1.4279
 7841SOL     OW34984   3.373   1.885   6.156 -0.2771  0.4304 -0.2470
 7841SOL    HW134985   3.339   1.925   6.075  0.7535  2.7121  0.4306
 7841SOL    HW234986   3.300   1.830   6.183 -0.5053 -0.2396 -2.2049
 7842SOL     OW34987   0.328   0.609   5.343  0.2130  0.3456 -0.7618
 7842SOL    HW134988   0.372   0.546   5.286  2.0866 -0.4805  1.5911
 7842SOL    HW234989   0.237   0.582   5.331 -0.9357  2.8856  2.4588
 7843SOL     OW34990   3.406   1.750   5.127 -0.4111  0.0727  0.4658
 7843SOL    HW134991   3.473   1.744   5.195  0.8870  1.0688 -0.7096
 7843SOL    HW234992   3.391   1.841   5.099  0.2774  0.5087  1.5320
 7844SOL     OW34993   2.267   3.255  13.957 -0.8607  0.0008  0.0809
 7844SOL    HW134994   2.253   3.326  13.894 -0.8798  0.1379  0.2410
 7844SOL    HW234995   2.210   3.187  13.920 -0.5799 -0.6010  0.7550
 7845SOL     OW34996   0.395   3.780  14.160  0.0552 -0.0554 -0.0614
 7845SOL    HW134997   0.449   3.782  14.082 -0.0513 -0.3100 -0.1408
 7845SOL    HW234998   0.316   3.737  14.129  0.4968  1.2763 -2.9858
 7846SOL     OW34999   0.368   4.618  15.290  0.8184  0.4032  0.8636
 7846SOL    HW135000   0.429   4.677  15.245  0.9025  0.0632  0.5350
 7846SOL    HW235001   0.283   4.650  15.261  1.1747  2.0610  1.6282
 7847SOL     OW35002   1.849   3.242   1.255 -1.1586  0.3014  0.5410
 7847SOL    HW135003   1.894   3.188   1.190 -2.1390 -0.4593  0.4913
 7847SOL    HW235004   1.824   3.309   1.192  2.3173 -0.2246 -1.3927
 7848SOL     OW35005   2.202   4.292   7.388 -0.2854  0.0643 -0.7674
 7848SOL    HW135006   2.121   4.337   7.413 -0.5757 -1.6863  1.4949
 7848SOL    HW235007   2.221   4.244   7.469  0.7861  2.4126  0.3689
 7849SOL     OW35008   4.435   1.599  10.011 -0.1825 -0.1896  0.0230
 7849SOL    HW135009   4.418   1.604  10.105  0.5445 -3.4228  0.3233
 7849SOL    HW235010   4.390   1.678   9.981  1.7529  0.4483 -1.2576
 7850SOL     OW35011   2.688   3.996  13.605  0.0887 -0.4819 -0.5319
 7850SOL    HW135012   2.712   3.934  13.674 -0.3269  0.6278  0.6151
 7850SOL    HW235013   2.766   3.992  13.550  1.0685 -2.9383  1.0511
 7851SOL     OW35014   0.265   3.777   0.211  0.1515 -0.1306 -0.4834
 7851SOL    HW135015   0.234   3.761   0.300 -0.7176  0.0271 -0.7612
 7851SOL    HW235016   0.319   3.856   0.216 -0.1227 -0.0385  1.0561
 7852SOL     OW35017   3.577   2.113   2.807 -0.3236  0.1705 -0.1410
 7852SOL    HW135018   3.562   2.043   2.871  0.1318 -0.2618 -0.5078
 7852SOL    HW235019   3.626   2.178   2.858 -0.8964  1.6134 -1.4474
 7853SOL     OW35020   1.944   2.503   1.066 -0.1802 -0.0157  0.2020
 7853SOL    HW135021   1.853   2.508   1.038 -0.3661 -0.9043  0.6361
 7853SOL    HW235022   1.980   2.575   1.015  1.4786 -1.4028 -0.5770
 7854SOL     OW35023   2.892   1.090   0.494 -0.3007 -0.0268 -0.1961
 7854SOL    HW135024   2.884   1.130   0.581 -0.7207  0.1782 -0.3266
 7854SOL    HW235025   2.909   1.168   0.441 -0.0546 -0.1814 -0.3450
 7855SOL     OW35026   4.152   2.281   9.154 -0.5424 -0.1371  0.3385
 7855SOL    HW135027   4.070   2.278   9.203 -0.1395 -0.2703  1.0136
 7855SOL    HW235028   4.148   2.371   9.121  2.7065 -1.0496 -2.5426
 7856SOL     OW35029   3.568   3.256   4.098  0.9244  0.6747 -0.2222
 7856SOL    HW135030   3.502   3.248   4.030  0.4313  0.6484  0.2611
 7856SOL    HW235031   3.546   3.178   4.149  0.6055  0.0538 -1.3095
 7857SOL     OW35032   2.856   0.365   0.603  0.0803  0.2079 -0.1989
 7857SOL    HW135033   2.823   0.344   0.515  0.9417  0.4321 -0.5803
 7857SOL    HW235034   2.932   0.413   0.569 -0.4693  1.7276  0.7266
 7858SOL     OW35035   0.097   1.120  15.579  0.7222 -0.3430  0.4223
 7858SOL    HW135036   0.166   1.184  15.562 -1.0808  1.0646 -1.6078
 7858SOL    HW235037   0.038   1.131  15.504 -0.2700  2.3957  1.6146
 7859SOL     OW35038   2.975   1.241   2.251  0.2554 -0.3516 -0.3535
 7859SOL    HW135039   2.938   1.294   2.322  0.3864 -0.9661  0.1727
 7859SOL    HW235040   2.937   1.153   2.247  0.8327 -0.6397  0.8586
 7860SOL     OW35041   1.155   1.315   3.478  0.1899 -1.5385  0.2186
 7860SOL    HW135042   1.158   1.387   3.416  2.5688 -1.9222 -0.1371
 7860SOL    HW235043   1.105   1.354   3.550 -1.7946 -1.4341 -1.2421
 7861SOL     OW35044   2.230   0.256   6.755  0.2189  0.3638  0.5207
 7861SOL    HW135045   2.266   0.279   6.669 -0.2206  0.5820  0.3930
 7861SOL    HW235046   2.140   0.285   6.740  0.9431  2.3656  0.0423
 7862SOL     OW35047   0.050   0.709   4.510 -0.5421  0.4590  0.1519
 7862SOL    HW135048   0.127   0.661   4.480 -0.8001  0.3807 -0.3680
 7862SOL    HW235049   0.088   0.796   4.524 -2.7299  1.9762 -3.3308
 7863SOL     OW35050   4.550   2.948   4.703 -0.0158 -0.6505  0.1647
 7863SOL    HW135051   4.558   3.023   4.643  0.2203 -0.0269  0.9818
 7863SOL    HW235052   4.629   2.894   4.694 -0.6878 -1.3877 -1.3625
 7864SOL     OW35053   0.842   0.165   6.725  0.5776  0.3738  0.4636
 7864SOL    HW135054   0.811   0.246   6.684  0.8262 -0.7543 -1.9488
 7864SOL    HW235055   0.927   0.201   6.749  1.0350  0.2235 -0.9449
 7865SOL     OW35056   1.815   3.528   7.284 -0.3374 -0.0600  0.3750
 7865SOL    HW135057   1.756   3.474   7.337  0.0355  0.3495  1.2121
 7865SOL    HW235058   1.829   3.474   7.206 -0.5371  0.1827  0.1687
 7866SOL     OW35059   2.380   3.700   7.262 -0.0031  0.6339 -0.1370
 7866SOL    HW135060   2.338   3.619   7.289  1.2745  0.1788  0.4803
 7866SOL    HW235061   2.308   3.737   7.211  0.8413  1.8368 -0.4582
 7867SOL     OW35062   4.584   3.209  17.390  0.0264 -0.0374  0.4348
 7867SOL    HW135063   4.488   3.216  17.384  0.1045  0.9307  0.3199
 7867SOL    HW235064   4.609   3.293  17.351  0.0065  0.0940  0.7022
 7868SOL     OW35065   1.142   1.992   8.686 -0.7163 -0.4707 -0.6902
 7868SOL    HW135066   1.234   2.004   8.708 -1.0059  0.6779 -0.0992
 7868SOL    HW235067   1.110   1.955   8.768 -0.2611 -0.0601 -0.3298
 7869SOL     OW35068   0.518   0.269  16.391 -0.3135 -0.5461  0.5531
 7869SOL    HW135069   0.459   0.241  16.461 -1.6601  1.2456  0.1252
 7869SOL    HW235070   0.513   0.353  16.434 -0.4726 -1.0193  1.4478
 7870SOL     OW35071   4.700   4.642  16.937 -1.0919  0.0768 -0.4566
 7870SOL    HW135072   0.022   4.595  17.006 -1.9182  1.0093  0.7264
 7870SOL    HW235073   0.051   4.661  16.883 -0.4837  2.5198  1.3222
 7871SOL     OW35074   1.357   3.008  13.098 -0.5110  0.3315 -0.5225
 7871SOL    HW135075   1.329   2.929  13.143  0.7590  0.9230  1.3068
 7871SOL    HW235076   1.404   3.052  13.169 -1.3281  0.1249  0.1384
 7872SOL     OW35077   0.084   2.047  16.125  0.2932 -0.2965 -0.4451
 7872SOL    HW135078   0.077   2.037  16.220 -0.0908 -0.2258 -0.4661
 7872SOL    HW235079   0.072   1.959  16.089  0.2558  0.2654 -1.7935
 7873SOL     OW35080   2.077   2.131   1.692 -0.3187  0.0494  0.0350
 7873SOL    HW135081   2.101   2.069   1.623 -0.7976  0.3581 -0.4040
 7873SOL    HW235082   2.045   2.209   1.648 -1.6815 -0.0271  0.8855
 7874SOL     OW35083   3.220   1.813   9.372  0.0369  0.3807  0.4172
 7874SOL    HW135084   3.229   1.894   9.321 -3.3840  1.1563  1.1130
 7874SOL    HW235085   3.259   1.851   9.451  1.7852  1.2492 -0.8367
 7875SOL     OW35086   2.266   4.063   6.998  0.3300  0.4826  0.4422
 7875SOL    HW135087   2.209   4.031   7.068 -1.3608  0.9782 -0.7044
 7875SOL    HW235088   2.212   4.048   6.920  0.4405  0.8682  0.2904
 7876SOL     OW35089   1.712   2.543  15.224  0.2349  0.4800 -0.2424
 7876SOL    HW135090   1.671   2.519  15.306  1.0675  1.4253  0.4609
 7876SOL    HW235091   1.687   2.467  15.172  1.3339  0.6847 -1.0797
 7877SOL     OW35092   1.994   0.745   4.155 -0.6426 -0.3628  0.2153
 7877SOL    HW135093   2.077   0.726   4.200  1.1339  1.9363 -2.0397
 7877SOL    HW235094   1.962   0.808   4.219 -0.7222 -0.2852  0.0975
 7878SOL     OW35095   4.482   3.260   2.485  0.3578 -0.2533  0.0566
 7878SOL    HW135096   4.499   3.287   2.395  1.0270 -2.5740 -0.5057
 7878SOL    HW235097   4.418   3.190   2.479  0.1323  0.0675 -1.2280
 7879SOL     OW35098   0.999   1.865   8.421  0.9110  0.0461 -0.0959
 7879SOL    HW135099   0.908   1.845   8.443  0.4407  3.0171  0.6207
 7879SOL    HW235100   1.030   1.872   8.511  0.9227  0.2073 -0.1135
 7880SOL     OW35101   1.296   2.990  12.120 -0.2918  0.3784 -0.5409
 7880SOL    HW135102   1.212   2.996  12.073 -0.2639  0.0701 -0.6326
 7880SOL    HW235103   1.350   2.998  12.041 -1.7061  0.5437 -1.5119
 7881SOL     OW35104   2.827   0.132   1.952  0.1233 -0.2174  0.1850
 7881SOL    HW135105   2.877   0.096   1.878 -1.7127  0.9253 -1.6314
 7881SOL    HW235106   2.809   0.222   1.923 -2.1626 -0.0284  2.2033
 7882SOL     OW35107   1.820   1.424  10.759  0.5355 -0.1377  0.5100
 7882SOL    HW135108   1.839   1.330  10.759  1.0372 -0.0432 -1.2593
 7882SOL    HW235109   1.845   1.447  10.848 -1.3026  0.7756  0.7948
 7883SOL     OW35110   2.110   1.587   6.999  0.3059  0.4768  0.0281
 7883SOL    HW135111   2.134   1.676   7.025  0.6210  1.1352 -2.4413
 7883SOL    HW235112   2.076   1.558   7.083 -1.1425  0.2417 -0.6246
 7884SOL     OW35113   1.781   0.924   5.790  0.1211 -0.0501  0.0160
 7884SOL    HW135114   1.753   0.883   5.872  0.3887 -1.2192 -0.4649
 7884SOL    HW235115   1.697   0.938   5.747  0.1732  1.1539  0.3306
 7885SOL     OW35116   2.758   4.152   6.141 -0.1199  0.0056  0.2953
 7885SOL    HW135117   2.818   4.192   6.077  0.9165 -0.5824  0.8910
 7885SOL    HW235118   2.729   4.073   6.095  3.0894 -0.7470 -0.4461
 7886SOL     OW35119   4.320   0.948  17.485 -0.4979 -0.4078 -0.5287
 7886SOL    HW135120   4.355   1.014  17.425 -1.1681 -0.2068 -0.7100
 7886SOL    HW235121   4.229   0.937  17.455 -0.7675 -2.0974  0.9486
 7887SOL     OW35122   3.303   3.600   8.673  0.3749  0.2846  0.5441
 7887SOL    HW135123   3.392   3.567   8.658  0.7906  1.7253 -0.1296
 7887SOL    HW235124   3.280   3.620   8.582  0.9009  1.0997  0.5902
 7888SOL     OW35125   3.874   4.087   5.818  0.2829 -0.2841  0.3175
 7888SOL    HW135126   3.876   4.127   5.906 -0.3463  3.3012 -1.3090
 7888SOL    HW235127   3.919   4.150   5.762 -1.6519  0.3639 -0.5060
 7889SOL     OW35128   2.867   1.552   8.286 -0.2507  0.8823  0.4302
 7889SOL    HW135129   2.840   1.616   8.352  3.1992  1.3862  1.3600
 7889SOL    HW235130   2.793   1.550   8.226 -1.3034  1.3702  1.7157
 7890SOL     OW35131   3.989   4.029   1.135 -0.3755 -0.6592  0.5170
 7890SOL    HW135132   3.965   4.061   1.048 -0.0489 -0.0104  0.6616
 7890SOL    HW235133   4.039   4.101   1.174 -2.5681  2.0962 -1.7876
 7891SOL     OW35134   4.323   1.100   7.871  0.5991 -0.2496  0.0332
 7891SOL    HW135135   4.350   1.037   7.938  0.3524  2.0580  2.3073
 7891SOL    HW235136   4.398   1.159   7.864  0.1712  0.4692  1.4255
 7892SOL     OW35137   1.113   2.325   4.054  0.0857 -0.2915  0.0312
 7892SOL    HW135138   1.105   2.418   4.033  1.5621  0.1284  1.3275
 7892SOL    HW235139   1.029   2.289   4.024  1.1917 -0.9894 -2.2288
 7893SOL     OW35140   3.512   1.254   6.303  0.1195  0.3555  0.4560
 7893SOL    HW135141   3.431   1.220   6.340  0.3849 -0.5603  0.1868
 7893SOL    HW235142   3.575   1.205   6.356  1.4812  0.6621 -0.8611
 7894SOL     OW35143   2.710   2.109   5.190 -0.0566 -0.0006  0.2338
 7894SOL    HW135144   2.637   2.056   5.158 -1.1810  2.2375 -0.9650
 7894SOL    HW235145   2.693   2.107   5.285  2.1464  0.6991  0.6382
 7895SOL     OW35146   0.690   1.447   4.351  0.2330  0.2131 -0.1278
 7895SOL    HW135147   0.648   1.391   4.286  0.2244  0.5678 -0.4334
 7895SOL    HW235148   0.652   1.422   4.435 -0.4660 -1.1536 -0.8510
 7896SOL     OW35149   4.516   2.575   6.757 -0.2119  0.2254 -0.4329
 7896SOL    HW135150   4.446   2.641   6.763  0.3635  0.7922  0.1078
 7896SOL    HW235151   4.497   2.544   6.668  0.7878 -3.2690  0.5701
 7897SOL     OW35152   2.318   2.801   9.289  0.3064 -0.5771 -0.0251
 7897SOL    HW135153   2.249   2.838   9.233 -0.8929 -3.9544 -0.7538
 7897SOL    HW235154   2.294   2.831   9.376  3.2484  1.4564  0.0990
 7898SOL     OW35155   3.837   2.592   5.322 -0.3984 -0.0293 -0.3274
 7898SOL    HW135156   3.848   2.657   5.392 -0.0594 -0.1042 -0.3085
 7898SOL    HW235157   3.925   2.574   5.288  0.6548  1.2980  1.6291
 7899SOL     OW35158   3.178   0.925  11.468 -0.1650 -0.0152 -0.0423
 7899SOL    HW135159   3.186   0.940  11.562  0.9233 -1.3682  0.0938
 7899SOL    HW235160   3.125   0.846  11.456 -0.6276  0.2109  0.5129
 7900SOL     OW35161   3.695   0.793  13.495 -0.3495 -0.4120 -0.0272
 7900SOL    HW135162   3.716   0.849  13.421  3.1973 -0.6528  0.7792
 7900SOL    HW235163   3.744   0.716  13.466  0.7857  0.3095 -0.0204
 7901SOL     OW35164   0.653   3.467  15.251 -0.1622 -0.0588 -0.0456
 7901SOL    HW135165   0.671   3.377  15.222  1.5873  0.5187 -0.7490
 7901SOL    HW235166   0.559   3.456  15.264  0.0627 -1.9720 -0.0221
 7902SOL     OW35167   3.185   2.959   3.840 -0.0071  0.3010 -0.5181
 7902SOL    HW135168   3.192   3.042   3.887 -1.2109  1.3298 -2.1354
 7902SOL    HW235169   3.163   2.902   3.913  0.2365 -0.3179 -0.9278
 7903SOL     OW35170   1.993   4.052   1.211  0.3137 -0.1925 -0.0940
 7903SOL    HW135171   2.008   4.140   1.246 -1.0065  0.0166 -0.0503
 7903SOL    HW235172   2.058   4.039   1.142 -0.1191  0.3157 -0.5981
 7904SOL     OW35173   3.694   2.465   6.418  0.3946 -0.7315  0.1362
 7904SOL    HW135174   3.603   2.465   6.387  0.5293 -0.1381 -0.2583
 7904SOL    HW235175   3.720   2.376   6.392  0.3123  0.0275 -2.5927
 7905SOL     OW35176   4.612   4.252  16.673  0.4888  0.2344  0.1056
 7905SOL    HW135177   4.693   4.215  16.708 -0.4500 -2.6876 -0.8409
 7905SOL    HW235178   4.632   4.233  16.581  0.5814  1.1822 -0.0704
 7906SOL     OW35179   0.524   0.943  15.771  0.4368  0.3392 -0.1222
 7906SOL    HW135180   0.480   0.858  15.769  1.5232 -0.2114 -0.8981
 7906SOL    HW235181   0.604   0.931  15.821  1.2720 -1.6460 -1.9415
 7907SOL     OW35182   0.366   0.838   7.995  0.4415 -0.1000 -0.0152
 7907SOL    HW135183   0.290   0.882   8.034  0.0812  0.6826 -1.6139
 7907SOL    HW235184   0.441   0.881   8.036  0.9049 -1.2486  0.3384
 7908SOL     OW35185   4.309   2.817   4.684 -0.4513  0.3096 -0.0128
 7908SOL    HW135186   4.379   2.878   4.707  0.8369 -0.7641 -1.1521
 7908SOL    HW235187   4.239   2.881   4.673  0.4283  1.3623  0.5775
 7909SOL     OW35188   0.417   3.259   5.068  0.1203 -0.1256 -0.4543
 7909SOL    HW135189   0.489   3.197   5.083  0.9887  1.3804  1.5893
 7909SOL    HW235190   0.423   3.281   4.975  0.0235 -1.1199 -0.7029
 7910SOL     OW35191   2.832   2.050   2.401 -0.3713  0.3739 -0.2188
 7910SOL    HW135192   2.850   2.002   2.320  1.2337 -1.3269  1.1591
 7910SOL    HW235193   2.881   2.001   2.467 -1.6995 -0.6274  0.0283
 7911SOL     OW35194   1.727   2.702  16.505  0.1447  0.3088  0.5556
 7911SOL    HW135195   1.709   2.672  16.594 -1.5122 -0.0937  0.0795
 7911SOL    HW235196   1.785   2.634  16.470  1.6557  0.8681  1.9704
 7912SOL     OW35197   0.857   0.898   6.136 -0.1374 -0.5904  0.0844
 7912SOL    HW135198   0.858   0.974   6.077  1.3232 -2.4615 -2.2830
 7912SOL    HW235199   0.789   0.932   6.195  1.0649 -0.2375  1.2850
 7913SOL     OW35200   2.503   4.361   2.631  0.1830  0.0671 -0.1073
 7913SOL    HW135201   2.592   4.396   2.633  0.2622 -0.0374 -1.4222
 7913SOL    HW235202   2.513   4.316   2.547  0.6569 -0.8474  0.4437
 7914SOL     OW35203   1.983   3.988   9.699  0.0443  0.2155 -0.5276
 7914SOL    HW135204   1.994   4.041   9.620  2.1806  1.0453  0.3210
 7914SOL    HW235205   1.956   3.903   9.664 -1.7487 -0.6058  2.9040
 7915SOL     OW35206   1.772   3.399  16.443 -0.4732 -0.0603 -0.0158
 7915SOL    HW135207   1.689   3.446  16.436  0.2939  1.5956  1.8764
 7915SOL    HW235208   1.790   3.399  16.537  1.0741 -0.1445 -0.3063
 7916SOL     OW35209   4.496   2.484  16.548 -0.1747  0.2105 -0.2278
 7916SOL    HW135210   4.443   2.519  16.620  0.7156 -1.2566  1.1377
 7916SOL    HW235211   4.570   2.545  16.556 -0.9162  1.2336 -1.1393
 7917SOL     OW35212   3.771   3.570  13.782 -0.4297  0.4267  0.4311
 7917SOL    HW135213   3.779   3.477  13.763 -0.5232  0.5853 -0.3876
 7917SOL    HW235214   3.675   3.577  13.778 -0.3744  1.1230  0.2538
 7918SOL     OW35215   1.036   3.915   5.582  0.0975 -0.7883  0.2705
 7918SOL    HW135216   0.991   3.832   5.569 -0.1981 -0.5092 -0.4765
 7918SOL    HW235217   0.968   3.968   5.624  0.3687 -3.0837  3.6107
 7919SOL     OW35218   1.366   2.478   5.575  0.0839 -0.5414  0.8647
 7919SOL    HW135219   1.439   2.416   5.586 -0.2321 -0.9092  0.9154
 7919SOL    HW235220   1.292   2.419   5.561  0.7079 -0.8465 -1.1141
 7920SOL     OW35221   4.117   2.571   8.351  0.2694 -0.0904  0.6522
 7920SOL    HW135222   4.171   2.557   8.274  3.4126  0.8135  2.6914
 7920SOL    HW235223   4.048   2.624   8.312  0.5762 -2.2607 -2.8324
 7921SOL     OW35224   1.639   2.494   4.343 -0.1604  0.5441  0.0933
 7921SOL    HW135225   1.634   2.398   4.347  1.3938  0.5310  1.5039
 7921SOL    HW235226   1.732   2.505   4.362 -0.0460  0.1337 -0.2305
 7922SOL     OW35227   3.474   0.007   7.792  0.5777  0.0001  0.6530
 7922SOL    HW135228   3.460   4.723   7.886  0.1579  3.0252  0.8637
 7922SOL    HW235229   3.569   0.016   7.789  0.5953 -0.3321  0.2309
 7923SOL     OW35230   3.637   0.129  16.163 -0.0134 -0.5246  0.6829
 7923SOL    HW135231   3.574   0.102  16.096 -0.8704 -1.6382  1.9286
 7923SOL    HW235232   3.629   0.224  16.168  2.4903 -0.1481 -2.5106
 7924SOL     OW35233   1.438   3.892   1.040  0.5656 -0.1261  0.9184
 7924SOL    HW135234   1.513   3.861   1.091  1.9369  0.6201 -0.6459
 7924SOL    HW235235   1.479   3.930   0.963  0.8080  1.3856  1.7880
 7925SOL     OW35236   1.168   3.637   8.098 -0.5770 -0.1324 -0.4225
 7925SOL    HW135237   1.104   3.631   8.026 -2.1890 -1.3371  1.1199
 7925SOL    HW235238   1.184   3.551   8.135 -0.0968  0.6523  1.1709
 7926SOL     OW35239   0.115   3.618   2.749  0.0804 -0.6750  0.0171
 7926SOL    HW135240   0.091   3.610   2.657 -0.7447  1.8484  0.0146
 7926SOL    HW235241   0.187   3.555   2.747  0.4460 -0.3312  1.7808
 7927SOL     OW35242   1.595   4.122   3.426  0.4752 -0.5787 -0.6462
 7927SOL    HW135243   1.655   4.186   3.386  0.4643  0.6620  1.3175
 7927SOL    HW235244   1.652   4.048   3.448  1.0260 -0.0097 -0.1481
 7928SOL     OW35245   0.676   2.746   6.289  0.1136  0.5812  0.3379
 7928SOL    HW135246   0.694   2.836   6.319  1.5103  0.1829  0.6593
 7928SOL    HW235247   0.580   2.749   6.291  0.0628 -1.4943  0.4717
 7929SOL     OW35248   1.340   4.252   7.174  0.0154 -0.3222 -0.0610
 7929SOL    HW135249   1.357   4.258   7.268  0.2611  1.3313 -0.2228
 7929SOL    HW235250   1.386   4.170   7.155 -0.9991 -0.6478 -1.1813
 7930SOL     OW35251   4.659   2.959  15.536  0.1285 -0.3766 -0.2910
 7930SOL    HW135252   4.664   2.866  15.515 -2.0403 -0.8721  1.3248
 7930SOL    HW235253   0.009   2.992  15.487  1.9617 -3.1562  0.6668
 7931SOL     OW35254   0.152   3.733  17.119 -0.4466  0.4739 -0.5517
 7931SOL    HW135255   0.096   3.807  17.140 -2.2855 -0.6872 -1.3851
 7931SOL    HW235256   0.227   3.782  17.155 -1.0752  1.5965 -0.7701
 7932SOL     OW35257   1.863   2.553   4.675  0.2180 -0.2199  0.0594
 7932SOL    HW135258   1.817   2.634   4.650 -1.9067 -1.2956  0.5144
 7932SOL    HW235259   1.878   2.514   4.589  1.9174  0.1114  0.2020
 7933SOL     OW35260   2.646   0.743   6.491 -0.1282  0.0358 -0.1778
 7933SOL    HW135261   2.578   0.689   6.531  0.5311 -1.0301 -0.4812
 7933SOL    HW235262   2.723   0.693   6.517 -0.9588 -0.8226  0.6378
 7934SOL     OW35263   2.480   3.955   9.234  0.2727  0.5516 -0.3678
 7934SOL    HW135264   2.444   3.883   9.182 -0.4158  1.7668 -1.5753
 7934SOL    HW235265   2.439   3.944   9.320  2.0202 -1.8235  0.1497
 7935SOL     OW35266   3.727   1.524   3.014  0.1289 -0.0817 -1.0105
 7935SOL    HW135267   3.810   1.500   3.054 -0.1834  0.0040 -0.3151
 7935SOL    HW235268   3.749   1.615   2.998 -1.9496  0.5008 -0.5272
 7936SOL     OW35269   4.137   1.169  15.395 -0.4944  0.8555  0.4614
 7936SOL    HW135270   4.066   1.110  15.371 -1.0917  1.8451 -0.2323
 7936SOL    HW235271   4.089   1.252  15.407 -0.8194  0.4906  1.7274
 7937SOL     OW35272   4.034   2.798   4.445 -0.3589 -0.7559 -0.2245
 7937SOL    HW135273   3.942   2.779   4.426 -1.1220 -1.4659  4.1272
 7937SOL    HW235274   4.078   2.744   4.380 -0.8568 -0.5085 -0.7604
 7938SOL     OW35275   3.148   4.016  13.676 -0.4940  0.1116 -0.1306
 7938SOL    HW135276   3.157   3.928  13.711  0.4053  0.7298  1.1766
 7938SOL    HW235277   3.208   4.015  13.601  0.2865  0.9727  0.4678
 7939SOL     OW35278   2.506   0.387   6.228  0.8735 -0.1647 -0.5362
 7939SOL    HW135279   2.584   0.410   6.179  0.8421  2.0384  0.4630
 7939SOL    HW235280   2.536   0.402   6.318 -2.0777 -0.2158  0.4589
 7940SOL     OW35281   0.580   3.247   9.028 -0.2185 -0.4147  0.0346
 7940SOL    HW135282   0.497   3.295   9.033 -0.6211 -0.9484 -1.6366
 7940SOL    HW235283   0.612   3.240   9.118 -0.9487 -0.4828  0.2900
 7941SOL     OW35284   3.609   2.817   2.871 -0.4784  0.4215  0.3584
 7941SOL    HW135285   3.677   2.781   2.814  0.7495 -0.8518  2.6074
 7941SOL    HW235286   3.650   2.900   2.893 -1.0217  0.1466  2.4005
 7942SOL     OW35287   3.915   2.437   8.867  0.1988  0.0574  0.0051
 7942SOL    HW135288   3.930   2.531   8.865  2.4345 -0.2558  1.0479
 7942SOL    HW235289   3.998   2.404   8.831  0.7178  0.4195  0.8680
 7943SOL     OW35290   1.345   0.043   6.351 -0.5818 -0.8970 -0.0060
 7943SOL    HW135291   1.351   0.122   6.298 -1.2692 -0.0340  1.2083
 7943SOL    HW235292   1.395   4.704   6.300 -0.0518 -0.9994  0.6384
 7944SOL     OW35293   2.395   1.737   7.070 -0.4593  0.1630 -0.5574
 7944SOL    HW135294   2.346   1.809   7.109  0.5698  1.5793 -1.8315
 7944SOL    HW235295   2.394   1.678   7.145  0.8816 -0.9792 -1.4349
 7945SOL     OW35296   3.818   3.505   0.879  1.0082 -0.3495  0.0452
 7945SOL    HW135297   3.753   3.486   0.946 -0.8177  0.2283 -1.5834
 7945SOL    HW235298   3.863   3.575   0.927  0.3726  1.2297 -1.6884
 7946SOL     OW35299   3.010   1.229  16.041 -0.4442  0.4785  0.0338
 7946SOL    HW135300   2.948   1.293  16.005 -2.3792 -1.3903  0.0659
 7946SOL    HW235301   3.043   1.276  16.117 -0.7198 -0.7522  0.8987
 7947SOL     OW35302   0.036   2.070  16.393  0.1317 -0.4058 -0.2357
 7947SOL    HW135303   4.674   2.111  16.396  0.1865 -0.3014 -0.0496
 7947SOL    HW235304   0.033   2.018  16.474  4.9247 -0.4933 -0.1297
 7948SOL     OW35305   4.637   0.159   7.256  0.2955 -0.0567 -0.0358
 7948SOL    HW135306   4.596   0.205   7.183 -0.8017  1.4174  1.4914
 7948SOL    HW235307   4.693   0.088   7.225 -1.1737 -0.9406 -0.7214
 7949SOL     OW35308   2.428   1.001   4.839  0.2248  0.4389  0.7142
 7949SOL    HW135309   2.444   0.918   4.796 -0.0544  0.5040  0.4920
 7949SOL    HW235310   2.507   1.054   4.823  0.9486 -0.9263 -0.1581
 7950SOL     OW35311   2.541   1.551   3.205  0.7657  0.5739  0.2043
 7950SOL    HW135312   2.550   1.556   3.110  0.2442  1.3023  0.1999
 7950SOL    HW235313   2.556   1.456   3.214  0.2172  0.5832  1.2647
 7951SOL     OW35314   0.558   2.628   1.935  0.1407  0.2400 -0.0886
 7951SOL    HW135315   0.489   2.630   1.869  1.6098 -0.6164 -1.6471
 7951SOL    HW235316   0.525   2.691   1.999 -1.1603  0.0549 -0.5755
 7952SOL     OW35317   1.093   1.836   7.234 -0.3062  0.2248 -0.2634
 7952SOL    HW135318   1.093   1.899   7.306  0.0362 -0.2029  0.1105
 7952SOL    HW235319   1.179   1.845   7.193  0.7534  0.9351  2.1366
 7953SOL     OW35320   4.520   0.800   8.443  0.0235  0.0238 -0.0960
 7953SOL    HW135321   4.464   0.742   8.390  0.0310 -1.7359  1.8429
 7953SOL    HW235322   4.607   0.777   8.412  1.1048  0.8183  2.3883
 7954SOL     OW35323   1.380   2.109   7.817  0.2855 -0.0195  0.4161
 7954SOL    HW135324   1.476   2.117   7.818  0.1269  2.0322 -1.5989
 7954SOL    HW235325   1.358   2.194   7.781 -0.1320  0.5036  1.8990
 7955SOL     OW35326   2.096   0.398   4.707  0.1371 -0.2654  0.4236
 7955SOL    HW135327   2.080   0.404   4.613  0.9478 -0.0058  0.2960
 7955SOL    HW235328   2.012   0.371   4.743  0.2051  0.5983  1.2373
 7956SOL     OW35329   3.605   3.126   2.932 -0.0351 -0.5494 -0.1688
 7956SOL    HW135330   3.668   3.133   3.003 -0.7673 -0.9229  0.5166
 7956SOL    HW235331   3.666   3.167   2.870 -0.6826 -0.5337 -0.7935
 7957SOL     OW35332   0.447   0.355   8.617 -0.0231  0.0143  0.1868
 7957SOL    HW135333   0.403   0.385   8.696 -0.5956 -2.0561  0.6466
 7957SOL    HW235334   0.371   0.346   8.559  0.7339  1.8360 -1.0690
 7958SOL     OW35335   3.146   1.367   0.184  0.0356  0.1014 -0.4590
 7958SOL    HW135336   3.085   1.338   0.252 -1.4857  0.6661 -1.5556
 7958SOL    HW235337   3.196   1.425   0.240 -1.1866  0.5089  0.2047
 7959SOL     OW35338   3.533   2.707   7.202 -0.3490 -0.2838  0.5201
 7959SOL    HW135339   3.616   2.660   7.198 -0.1968 -0.0544  0.9242
 7959SOL    HW235340   3.475   2.631   7.201  0.3634 -0.8392  1.5651
 7960SOL     OW35341   0.630   3.567   8.668  0.1627 -0.1454  0.5012
 7960SOL    HW135342   0.597   3.607   8.587 -0.0256  2.5215  1.8920
 7960SOL    HW235343   0.612   3.642   8.725 -0.7495 -2.9369  3.8711
 7961SOL     OW35344   2.710   1.395   8.966  0.2985 -0.0540 -0.1907
 7961SOL    HW135345   2.672   1.307   8.969 -2.0506  0.8954 -2.3282
 7961SOL    HW235346   2.744   1.400   9.056  0.1318  0.4486 -0.1580
 7962SOL     OW35347   2.625   4.310  17.543 -0.1465  0.1678  0.1242
 7962SOL    HW135348   2.677   4.263  17.608 -1.3481 -3.5265 -1.5961
 7962SOL    HW235349   2.554   4.251  17.519  1.4118 -2.2920  1.6148
 7963SOL     OW35350   0.739   0.230   3.014 -0.0228 -0.2547 -0.0352
 7963SOL    HW135351   0.807   0.190   3.068 -1.0671  1.9451  2.8752
 7963SOL    HW235352   0.664   0.180   3.044  0.0750  0.6164  1.6427
 7964SOL     OW35353   3.235   0.104   0.823 -0.1704 -0.6910 -0.9032
 7964SOL    HW135354   3.140   0.118   0.817 -0.0770  1.2757  2.3017
 7964SOL    HW235355   3.272   0.167   0.760  2.9730 -0.9170  0.7373
 7965SOL     OW35356   3.077   3.474   7.455 -0.5418  0.1161  0.1278
 7965SOL    HW135357   3.025   3.464   7.375  0.6296  0.8091 -0.7363
 7965SOL    HW235358   3.138   3.541   7.421 -1.2628  0.0569 -1.2968
 7966SOL     OW35359   1.504   1.597  15.106 -0.1857  0.0594 -0.1548
 7966SOL    HW135360   1.557   1.599  15.027 -0.5137 -2.7494 -0.4563
 7966SOL    HW235361   1.421   1.627  15.070 -0.5570  0.3458  0.9324
 7967SOL     OW35362   0.456   2.008  16.871 -0.1030  0.3567  0.4922
 7967SOL    HW135363   0.434   2.088  16.824  0.3263  0.0139 -0.2916
 7967SOL    HW235364   0.499   1.965  16.798  0.0452  0.7997  0.3190
 7968SOL     OW35365   1.047   1.899   3.683  0.6603 -0.0482 -0.0213
 7968SOL    HW135366   1.142   1.891   3.692  0.9152  1.2666 -1.6436
 7968SOL    HW235367   1.019   1.862   3.766  0.9087 -1.8509 -0.7499
 7969SOL     OW35368   3.217   2.752   8.375 -0.2253 -0.0860  0.6433
 7969SOL    HW135369   3.311   2.771   8.373 -0.8098  2.8101 -0.1213
 7969SOL    HW235370   3.205   2.686   8.307 -3.1508  1.3039 -0.1680
 7970SOL     OW35371   2.589   0.726   3.225  0.5070 -0.0716 -0.3669
 7970SOL    HW135372   2.637   0.753   3.303  0.8394 -1.2342 -0.1627
 7970SOL    HW235373   2.597   0.632   3.243  0.3992 -0.0193 -0.0448
 7971SOL     OW35374   0.505   3.793  16.225 -0.4706  0.2148  0.0941
 7971SOL    HW135375   0.481   3.800  16.133  1.9369  0.8589 -0.4819
 7971SOL    HW235376   0.592   3.755  16.210 -1.4219 -1.9215 -0.0290
 7972SOL     OW35377   1.113   2.698  15.462 -0.2248 -1.2148 -0.5780
 7972SOL    HW135378   1.153   2.646  15.392 -2.6007  0.4836 -3.1957
 7972SOL    HW235379   1.148   2.651  15.537  1.1810 -0.4659 -0.7768
 7973SOL     OW35380   4.325   2.609   9.784 -0.4072  0.3843  0.0593
 7973SOL    HW135381   4.256   2.675   9.791 -1.2179 -0.5011  0.4446
 7973SOL    HW235382   4.313   2.557   9.863 -1.5098  0.5165 -0.0102
 7974SOL     OW35383   4.579   1.018   8.005 -0.2398  0.0020 -0.2956
 7974SOL    HW135384   4.559   0.927   8.025 -0.9822 -0.0082 -1.1132
 7974SOL    HW235385   4.655   1.012   7.948 -0.2068  3.3091 -0.6002
 7975SOL     OW35386   3.541   4.261  15.339 -0.2778  0.4859 -0.0911
 7975SOL    HW135387   3.611   4.325  15.355 -0.0312  0.2608 -0.2723
 7975SOL    HW235388   3.593   4.187  15.308  0.2866  1.0646 -0.5443
 7976SOL     OW35389   2.216   0.981   6.678  0.0459 -0.2735  0.3273
 7976SOL    HW135390   2.149   1.048   6.694 -1.0898 -1.8617  2.1543
 7976SOL    HW235391   2.189   0.911   6.737  0.5010 -1.6270 -1.0785
 7977SOL     OW35392   2.158   2.629   7.877 -0.3381 -0.3299 -0.8083
 7977SOL    HW135393   2.186   2.639   7.786  2.0752 -1.7772 -0.2087
 7977SOL    HW235394   2.082   2.573   7.860 -0.6823  0.6292 -2.3506
 7978SOL     OW35395   1.868   0.630   8.352  0.3358 -0.0182  0.8516
 7978SOL    HW135396   1.856   0.535   8.364 -2.4023  0.4474  1.7361
 7978SOL    HW235397   1.935   0.622   8.284 -0.2980  0.9777  0.1099
 7979SOL     OW35398   3.044   4.532   4.959  0.3439  0.4702 -0.1591
 7979SOL    HW135399   3.089   4.532   4.875 -2.3965 -1.1778 -1.6087
 7979SOL    HW235400   3.122   4.557   5.009  0.6953  1.6408 -1.3006
 7980SOL     OW35401   0.516   0.063  17.103 -0.1219 -0.6987 -0.3891
 7980SOL    HW135402   0.446   0.077  17.038 -0.0362  2.6486  0.2685
 7980SOL    HW235403   0.522   0.152  17.136 -2.0897  0.6556 -3.5921
 7981SOL     OW35404   4.608   1.383   4.964 -0.2429  0.6949  0.7029
 7981SOL    HW135405   4.562   1.425   5.036 -0.9082  1.1248  0.0359
 7981SOL    HW235406   4.671   1.327   5.008 -0.1768  0.0993 -0.1464
 7982SOL     OW35407   2.378   3.998   2.392  0.5908 -0.5874 -0.5133
 7982SOL    HW135408   2.405   4.043   2.312 -2.9547 -1.0655 -2.0071
 7982SOL    HW235409   2.328   4.064   2.440 -0.2807 -1.0272 -0.8073
 7983SOL     OW35410   4.636   3.333   8.813  0.0783  0.1712 -0.3474
 7983SOL    HW135411   4.631   3.419   8.855 -0.3408  0.9404 -1.9936
 7983SOL    HW235412   4.690   3.344   8.734  2.0293  0.5767  1.0402
 7984SOL     OW35413   1.201   4.559   6.639  0.1587  0.3320  0.5396
 7984SOL    HW135414   1.204   4.493   6.569  0.8394  1.3566 -0.3902
 7984SOL    HW235415   1.295   4.549   6.658  0.6515 -1.0450 -2.5653
 7985SOL     OW35416   2.501   1.701  17.502 -0.2541 -0.6431 -0.2544
 7985SOL    HW135417   2.592   1.711  17.529 -0.5759 -2.5823  1.5448
 7985SOL    HW235418   2.514   1.647  17.424  2.1105 -0.7200  0.1803
 7986SOL     OW35419   1.681   1.847   4.861  0.4746 -0.0963  0.2958
 7986SOL    HW135420   1.694   1.799   4.943  1.0389 -0.4822 -0.0258
 7986SOL    HW235421   1.771   1.839   4.830 -0.5569 -3.7034 -1.7011
 7987SOL     OW35422   2.959   4.301  15.754 -0.8177  0.3608  0.2298
 7987SOL    HW135423   2.904   4.298  15.675  1.0493 -3.5695 -0.9671
 7987SOL    HW235424   3.026   4.240  15.722  0.2672  1.4437  0.4198
 7988SOL     OW35425   0.869   4.547  11.917  0.3310  0.8297  0.4020
 7988SOL    HW135426   0.824   4.469  11.949 -1.8359  1.8672 -0.1711
 7988SOL    HW235427   0.925   4.501  11.854 -1.3003 -2.5654  1.4383
 7989SOL     OW35428   0.502   4.636   7.115 -0.4364 -0.1541  0.0058
 7989SOL    HW135429   0.530   4.651   7.025  0.5985 -0.1263  0.3418
 7989SOL    HW235430   0.423   4.584   7.097 -1.5543  0.9807  1.5976
 7990SOL     OW35431   2.402   0.279   8.316 -0.2384 -0.2799  0.4256
 7990SOL    HW135432   2.394   0.267   8.222 -3.4331  0.9535  0.5470
 7990SOL    HW235433   2.319   0.319   8.342 -0.0244  0.9361 -0.8011
 7991SOL     OW35434   4.497   3.662   8.347  0.0772  0.5603  0.3134
 7991SOL    HW135435   4.406   3.648   8.320 -0.5428 -1.2632  3.2758
 7991SOL    HW235436   4.496   3.649   8.442  1.1142 -3.8232 -0.2859
 7992SOL     OW35437   0.920   1.258  16.364 -0.3669 -0.0234  0.0025
 7992SOL    HW135438   0.871   1.319  16.308 -2.3482  0.1756  1.9705
 7992SOL    HW235439   0.869   1.178  16.363 -3.3849  1.8865  1.7174
 7993SOL     OW35440   1.065   0.949   5.107  0.1354 -0.4836 -0.0186
 7993SOL    HW135441   1.101   0.970   5.193 -2.0815  0.3978  0.7067
 7993SOL    HW235442   1.128   0.991   5.049  1.0186 -1.0705  0.5140
 7994SOL     OW35443   2.107   0.385   3.838  0.1043 -0.4005 -0.8241
 7994SOL    HW135444   2.123   0.470   3.879  0.7354 -0.7576 -0.3231
 7994SOL    HW235445   2.088   0.411   3.748  0.0404  0.2873 -0.6063
 7995SOL     OW35446   4.725   0.364   9.389  0.1588  0.8506 -0.1862
 7995SOL    HW135447   0.040   0.441   9.428 -0.4656  1.0277  0.1159
 7995SOL    HW235448   0.028   0.370   9.298 -2.3942  0.8314 -0.9886
 7996SOL     OW35449   4.641   1.954  14.306  0.6364  0.0756 -0.5335
 7996SOL    HW135450   0.011   1.964  14.316  0.6910 -0.5772 -0.3749
 7996SOL    HW235451   4.634   1.958  14.210 -1.7827  2.0653 -0.2509
 7997SOL     OW35452   0.834   0.486   9.313  0.1445 -0.2620  0.2123
 7997SOL    HW135453   0.784   0.539   9.251  0.5459 -0.0280  0.0877
 7997SOL    HW235454   0.833   0.536   9.395  0.7696 -1.2362  0.8092
 7998SOL     OW35455   4.075   1.716  16.684  0.0228 -0.5074  0.2125
 7998SOL    HW135456   3.984   1.744  16.675  0.7963  1.8273 -0.3900
 7998SOL    HW235457   4.096   1.717  16.777  1.6617  1.2454 -0.1745
 7999SOL     OW35458   4.114   1.780   7.978 -0.1112 -0.3335  0.4179
 7999SOL    HW135459   4.100   1.725   7.901 -0.8254  1.9066 -1.0495
 7999SOL    HW235460   4.053   1.853   7.983 -0.3235 -0.5246  0.6233
 8000SOL     OW35461   1.342   2.197   4.402 -0.3319  0.0539  0.0973
 8000SOL    HW135462   1.384   2.205   4.487  0.7939 -0.7037 -0.3985
 8000SOL    HW235463   1.415   2.205   4.341 -0.2861 -0.8695  0.0231
 8001SOL     OW35464   1.009   1.102   9.390  0.3381 -0.2502 -0.3189
 8001SOL    HW135465   1.032   1.158   9.316  2.3264 -0.2641  0.3044
 8001SOL    HW235466   1.075   1.034   9.380 -0.3117 -1.0324  0.6842
 8002SOL     OW35467   1.040   2.952   3.808 -0.2535  0.1222  0.6444
 8002SOL    HW135468   1.113   3.014   3.811  0.1472 -0.3926  1.3035
 8002SOL    HW235469   0.978   3.012   3.765  1.7016  2.2747  0.8413
 8003SOL     OW35470   0.883   3.777  10.825  0.4978  0.5093 -0.1457
 8003SOL    HW135471   0.849   3.689  10.839 -0.6191  0.7174 -1.5927
 8003SOL    HW235472   0.950   3.767  10.893  0.0205 -0.2771  0.2111
 8004SOL     OW35473   1.694   4.085   9.472 -0.1963 -0.0372 -0.3530
 8004SOL    HW135474   1.691   4.049   9.561 -3.1021  2.5887  0.6127
 8004SOL    HW235475   1.707   4.006   9.421 -0.2733  0.7384 -1.5633
 8005SOL     OW35476   3.846   4.182   7.331 -0.3513 -0.5254  0.2651
 8005SOL    HW135477   3.871   4.274   7.337 -2.0122 -0.2151  2.2136
 8005SOL    HW235478   3.901   4.150   7.402 -2.3361 -0.9463  1.6004
 8006SOL     OW35479   1.421   2.202   3.046 -0.3700 -1.0530 -0.3581
 8006SOL    HW135480   1.404   2.108   3.050 -0.3693 -0.9401  2.0394
 8006SOL    HW235481   1.495   2.209   3.106 -1.1442  0.6623  0.4026
 8007SOL     OW35482   4.637   0.863  14.741  0.1681  0.1492  0.7667
 8007SOL    HW135483   4.651   0.813  14.661  0.3804 -1.5697  1.8710
 8007SOL    HW235484   0.001   0.896  14.754  0.3969 -1.6926  3.7951
 8008SOL     OW35485   1.697   1.078  14.363 -0.5562  0.6439 -0.3857
 8008SOL    HW135486   1.787   1.049  14.380 -1.6301 -0.6877  2.9261
 8008SOL    HW235487   1.646   1.001  14.386 -2.5902  1.9169 -0.6640
 8009SOL     OW35488   1.366   4.600   7.330 -0.4835 -0.3304  0.3129
 8009SOL    HW135489   1.291   4.589   7.388  0.9781 -0.4753  2.1800
 8009SOL    HW235490   1.426   4.536   7.369  0.6796  0.1737 -0.6531
 8010SOL     OW35491   2.865   2.977  11.112 -0.3854  0.4745  0.3353
 8010SOL    HW135492   2.870   2.911  11.043  3.2283 -0.1923  1.2309
 8010SOL    HW235493   2.875   2.933  11.196  2.7784 -0.1757 -0.3926
 8011SOL     OW35494   1.545   3.616   3.108 -0.0848 -0.1636 -0.2511
 8011SOL    HW135495   1.583   3.572   3.184  2.4301  1.8300 -0.3267
 8011SOL    HW235496   1.552   3.547   3.042  0.8586  0.2589 -0.6057
 8012SOL     OW35497   2.618   1.243   3.150  1.1456 -0.2697  0.2395
 8012SOL    HW135498   2.620   1.208   3.061  1.1110 -2.9908  1.3057
 8012SOL    HW235499   2.549   1.183   3.180 -1.3982  1.8508 -1.3711
 8013SOL     OW35500   2.493   3.520   6.579  0.3448 -0.0447 -0.6853
 8013SOL    HW135501   2.526   3.550   6.664 -1.2700  0.2479 -0.1520
 8013SOL    HW235502   2.443   3.595   6.546 -0.6813 -0.2169  0.4674
 8014SOL     OW35503   3.981   4.298  15.730  0.4406 -0.0541 -0.6752
 8014SOL    HW135504   3.900   4.327  15.772  0.7820  2.6561 -1.9100
 8014SOL    HW235505   3.946   4.285  15.642  0.4163  2.0741 -0.9811
 8015SOL     OW35506   0.552   3.035   3.372  0.5608  0.1375 -0.2065
 8015SOL    HW135507   0.531   2.962   3.313 -0.9834 -0.3491  0.9427
 8015SOL    HW235508   0.647   3.025   3.365  0.6451 -0.0421  1.1776
 8016SOL     OW35509   4.039   2.117  15.010 -0.9750  0.3100  0.5634
 8016SOL    HW135510   4.071   2.112  15.100  0.2038  3.8507  0.3471
 8016SOL    HW235511   4.071   2.205  14.987 -2.9961  1.5709  2.6197
 8017SOL     OW35512   2.151   4.375   4.106 -0.3479  0.0865  0.1788
 8017SOL    HW135513   2.176   4.306   4.044 -1.4999 -1.3417  1.3241
 8017SOL    HW235514   2.062   4.401   4.084 -0.9419 -1.7319  0.4423
 8018SOL     OW35515   2.658   1.183  15.345  1.1551  0.3115 -0.2332
 8018SOL    HW135516   2.741   1.184  15.393  0.9089  0.7870  0.1846
 8018SOL    HW235517   2.691   1.223  15.265 -2.7477  2.2349 -0.8967
 8019SOL     OW35518   4.541   2.205   8.841 -0.5009  0.2825 -0.1188
 8019SOL    HW135519   4.495   2.124   8.819 -1.0829  0.7069 -0.4761
 8019SOL    HW235520   4.474   2.263   8.804 -0.3752  0.3616 -0.2208
 8020SOL     OW35521   0.922   2.501   6.087  0.0544 -0.8501  0.2470
 8020SOL    HW135522   1.016   2.481   6.079  0.4033  2.0436 -3.4366
 8020SOL    HW235523   0.899   2.448   6.162 -1.3228  1.3707  1.3964
 8021SOL     OW35524   2.406   1.155   7.552 -0.3077 -0.4727 -0.2593
 8021SOL    HW135525   2.345   1.145   7.480  0.9791 -0.7332 -1.3120
 8021SOL    HW235526   2.450   1.235   7.523 -1.6372  0.4377  0.2087
 8022SOL     OW35527   3.381   0.349   2.665  0.4819  0.3385 -0.3511
 8022SOL    HW135528   3.410   0.258   2.675 -1.1414  0.0239  1.6962
 8022SOL    HW235529   3.290   0.349   2.697  0.7200 -0.1554  0.3394
 8023SOL     OW35530   4.674   0.675   7.317  0.5240  0.1845 -0.4580
 8023SOL    HW135531   0.003   0.688   7.396  0.2717  1.4378 -0.5001
 8023SOL    HW235532   0.015   0.641   7.257 -0.3824  1.7844 -2.3433
 8024SOL     OW35533   1.198   4.152   9.196  0.1203 -0.1077  0.0601
 8024SOL    HW135534   1.231   4.089   9.132 -0.6557 -0.5090  0.0577
 8024SOL    HW235535   1.152   4.090   9.252  1.6698 -0.9143  0.4310
 8025SOL     OW35536   2.830   3.843  11.583  0.3938  0.2667  0.3365
 8025SOL    HW135537   2.763   3.775  11.572  0.1377  0.6113 -0.2503
 8025SOL    HW235538   2.903   3.786  11.605 -1.9935 -1.8898  2.6881
 8026SOL     OW35539   4.023   1.714  15.027  0.2352 -0.2382  0.4170
 8026SOL    HW135540   4.033   1.688  14.935 -0.7463  0.7015  0.0547
 8026SOL    HW235541   3.964   1.788  15.011  0.0491 -0.4506  0.1269
 8027SOL     OW35542   2.196   3.052   8.865 -0.4918 -0.0458 -0.0520
 8027SOL    HW135543   2.270   2.992   8.862 -0.7373 -0.2858 -1.3775
 8027SOL    HW235544   2.231   3.126   8.815  0.9486 -1.5125 -1.1989
 8028SOL     OW35545   0.414   2.175   9.622 -0.0076  0.1538  0.2887
 8028SOL    HW135546   0.411   2.210   9.533 -0.8396  1.5140  0.8620
 8028SOL    HW235547   0.415   2.257   9.670  0.0265  0.1254  0.3362
 8029SOL     OW35548   0.911   1.870   7.732  0.3845  1.1159  0.1074
 8029SOL    HW135549   0.959   1.845   7.812 -0.0249  3.3288  1.0377
 8029SOL    HW235550   0.975   1.903   7.669  0.7617  1.0284  0.4437
 8030SOL     OW35551   3.861   4.151   9.754  0.2591 -0.2668 -0.2548
 8030SOL    HW135552   3.833   4.203   9.830  0.8149  0.8490 -0.7984
 8030SOL    HW235553   3.945   4.110   9.776 -0.7501 -2.5995 -0.8398
 8031SOL     OW35554   1.530   1.491   4.639 -0.2584  0.1293 -0.2195
 8031SOL    HW135555   1.587   1.483   4.716  0.3205 -0.5838 -0.7251
 8031SOL    HW235556   1.576   1.544   4.574 -0.8779  0.2815 -0.5310
 8032SOL     OW35557   0.902   1.546   9.965  0.1059 -0.2805 -0.0911
 8032SOL    HW135558   0.823   1.497   9.941 -0.4362  0.4346  0.2503
 8032SOL    HW235559   0.876   1.638   9.969  2.4854  0.5111 -2.8556
 8033SOL     OW35560   3.409   0.024   8.594  0.3993  0.1502  0.0760
 8033SOL    HW135561   3.480   0.067   8.641 -0.4254  2.4106 -0.7697
 8033SOL    HW235562   3.407   4.670   8.648  0.8039 -1.0986 -1.7529
 8034SOL     OW35563   4.153   1.280   9.624  0.4200  0.0619 -0.3217
 8034SOL    HW135564   4.228   1.234   9.587 -0.1387  0.8395 -2.4228
 8034SOL    HW235565   4.115   1.323   9.547 -0.7341 -0.5020 -0.0777
 8035SOL     OW35566   4.380   2.653  15.376 -0.5096  0.0216 -0.3480
 8035SOL    HW135567   4.313   2.681  15.438 -0.7004  1.2383 -1.1130
 8035SOL    HW235568   4.459   2.658  15.429 -1.5106 -2.1826  1.3433
 8036SOL     OW35569   3.535   3.539  10.131 -0.2668 -0.1170  0.3557
 8036SOL    HW135570   3.555   3.579  10.046  2.2617 -1.5081  0.2802
 8036SOL    HW235571   3.616   3.525  10.181 -0.9035 -0.4233  1.2870
 8037SOL     OW35572   2.907   4.030   8.641  0.0939  0.7176 -0.0822
 8037SOL    HW135573   2.821   4.010   8.678 -0.1690 -1.7048 -2.0319
 8037SOL    HW235574   2.882   4.083   8.565  0.7967  3.7781  1.8382
 8038SOL     OW35575   1.929   3.558   9.358  0.0530 -0.0822 -0.1686
 8038SOL    HW135576   1.979   3.589   9.284  4.8928  1.8739  3.9253
 8038SOL    HW235577   1.847   3.525   9.321  0.0776 -0.4319  0.0905
 8039SOL     OW35578   3.480   2.090   8.149  0.2551  0.4072 -0.1309
 8039SOL    HW135579   3.524   2.122   8.227  2.6743 -0.7915 -0.9864
 8039SOL    HW235580   3.541   2.130   8.087  1.5863 -0.4933  0.5866
 8040SOL     OW35581   2.600   3.119   5.007  0.5757  0.0756 -0.1748
 8040SOL    HW135582   2.512   3.156   5.001  1.5821  2.3464 -0.9806
 8040SOL    HW235583   2.649   3.171   4.942 -1.3555  0.3576 -1.4194
 8041SOL     OW35584   1.766   1.349   7.045  0.3964 -0.6832  0.1743
 8041SOL    HW135585   1.784   1.279   6.982 -0.8476 -1.3898  0.5953
 8041SOL    HW235586   1.744   1.293   7.120  0.1001  0.9893  1.3203
 8042SOL     OW35587   1.319   3.290   3.281 -0.3172 -0.3932  0.0036
 8042SOL    HW135588   1.234   3.323   3.311  0.8880  0.9794  1.8942
 8042SOL    HW235589   1.373   3.361   3.248 -0.4558 -0.6327 -0.7412
 8043SOL     OW35590   0.727   3.803   5.887 -0.6283  0.1465  1.2087
 8043SOL    HW135591   0.733   3.825   5.980 -1.7392  1.1656  1.0375
 8043SOL    HW235592   0.695   3.886   5.850  1.3370  0.2486 -0.3098
 8044SOL     OW35593   1.198   1.139  17.395 -0.6598  0.2265  0.5282
 8044SOL    HW135594   1.144   1.200  17.345 -0.0592  0.1219 -0.2586
 8044SOL    HW235595   1.140   1.062  17.403 -1.7411  0.7907 -1.8438
 8045SOL     OW35596   0.658   0.038   5.039  0.8728 -0.0800  0.3233
 8045SOL    HW135597   0.706   4.714   5.107  0.3869 -1.6953 -0.5158
 8045SOL    HW235598   0.701   0.007   4.960 -0.5364  2.5813 -1.4689
 8046SOL     OW35599   3.084   1.106   3.704 -0.5008 -0.1099 -0.0253
 8046SOL    HW135600   3.116   1.020   3.677 -1.6408 -0.7057  0.5547
 8046SOL    HW235601   3.088   1.096   3.799  1.3335 -0.9002 -0.1873
 8047SOL     OW35602   4.197   4.632   8.414  0.0577  0.3647 -0.1425
 8047SOL    HW135603   4.156   4.670   8.492 -0.5534  0.0393 -0.3007
 8047SOL    HW235604   4.273   4.591   8.455 -1.5025  0.1908  2.5934
 8048SOL     OW35605   0.115   0.781   9.618 -0.6498 -0.1644 -0.6499
 8048SOL    HW135606   0.134   0.855   9.676  1.5258 -0.4698 -0.9545
 8048SOL    HW235607   0.025   0.794   9.590 -1.2212  0.2485  1.4005
 8049SOL     OW35608   1.399   2.048   5.802  0.2946  0.3152  0.2819
 8049SOL    HW135609   1.385   2.125   5.747  1.2103  0.0386 -0.3433
 8049SOL    HW235610   1.315   2.004   5.794  0.4816 -0.5479  2.7846
 8050SOL     OW35611   1.127   3.672   7.248  0.6137 -0.5930  0.1399
 8050SOL    HW135612   1.195   3.627   7.198  1.0295 -0.5376  0.6656
 8050SOL    HW235613   1.171   3.754   7.268 -0.0891  0.1572 -1.3515
 8051SOL     OW35614   0.009   4.553  15.382  0.1687 -0.2855 -0.2913
 8051SOL    HW135615   4.714   4.510  15.465  2.4598 -1.7063 -0.4639
 8051SOL    HW235616   0.054   4.630  15.417 -1.1979 -0.4900  1.9111
 8052SOL     OW35617   1.029   3.700   4.900 -0.1839  0.0653  0.3130
 8052SOL    HW135618   1.017   3.683   4.994 -1.4777 -0.8679 -0.0325
 8052SOL    HW235619   0.994   3.619   4.864  1.5671 -0.8103  0.6134
 8053SOL     OW35620   3.786   3.013   2.160  0.1051  0.2316 -0.3588
 8053SOL    HW135621   3.713   3.018   2.222  1.9552  3.0702  1.5765
 8053SOL    HW235622   3.773   3.087   2.101 -1.2584 -0.1545 -0.5367
 8054SOL     OW35623   2.781   2.269   8.482  0.0264 -0.6437 -0.4189
 8054SOL    HW135624   2.702   2.217   8.500 -0.3651  0.9867  2.6621
 8054SOL    HW235625   2.800   2.244   8.392  0.1052 -0.8335 -0.3496
 8055SOL     OW35626   4.237   1.321   3.658  0.7154  0.2467  0.2715
 8055SOL    HW135627   4.245   1.274   3.575  1.2590 -0.2820  0.6257
 8055SOL    HW235628   4.170   1.265   3.697  0.2412  0.6735  0.0767
 8056SOL     OW35629   2.898   1.979   1.638  0.1119 -0.2971  0.2765
 8056SOL    HW135630   2.891   2.029   1.556  3.6699  0.1692  0.2386
 8056SOL    HW235631   2.993   1.970   1.647  0.0979  0.8832  1.6297
 8057SOL     OW35632   2.053   0.542   9.062 -0.8228 -0.1772  0.0109
 8057SOL    HW135633   2.010   0.524   9.146  2.4790  1.0615  1.9861
 8057SOL    HW235634   2.042   0.456   9.023 -1.6953  0.3872 -0.9900
 8058SOL     OW35635   1.626   3.287   6.449  0.2356  0.0949 -0.2156
 8058SOL    HW135636   1.563   3.330   6.391 -0.3644  1.2002  1.2549
 8058SOL    HW235637   1.610   3.196   6.425 -1.0766  0.2055  0.2808
 8059SOL     OW35638   3.060   1.921   2.129 -0.3775 -0.1159  0.5230
 8059SOL    HW135639   3.057   1.961   2.042 -3.3307  2.0065  1.5561
 8059SOL    HW235640   3.095   1.995   2.178 -2.1467  2.2460 -1.7504
 8060SOL     OW35641   3.040   1.860  14.905  0.3228 -0.3890  0.5101
 8060SOL    HW135642   2.961   1.910  14.885 -0.2011 -2.1787 -1.8797
 8060SOL    HW235643   3.057   1.787  14.845  2.3156  0.1166  0.4533
 8061SOL     OW35644   0.339   4.532   4.695  0.1066  0.4173  0.1634
 8061SOL    HW135645   0.317   4.447   4.732  0.1712 -0.8510 -2.7251
 8061SOL    HW235646   0.421   4.512   4.650  0.5116 -0.6261  1.3772
 8062SOL     OW35647   0.113   1.003   3.677  0.7553  0.0088  0.5476
 8062SOL    HW135648   0.164   1.023   3.599 -0.4022 -0.4137 -0.3129
 8062SOL    HW235649   0.099   1.093   3.707 -2.6338 -0.6773  0.9871
 8063SOL     OW35650   3.279   3.885   5.785 -0.6020  0.1407  0.4708
 8063SOL    HW135651   3.211   3.912   5.723  0.2564  0.5005 -0.3084
 8063SOL    HW235652   3.246   3.889   5.875 -1.7691  2.9944 -0.0777
 8064SOL     OW35653   1.652   3.676   8.402 -0.1194 -0.2541 -0.1090
 8064SOL    HW135654   1.604   3.598   8.375  0.3116 -0.6396  0.2420
 8064SOL    HW235655   1.643   3.721   8.317  0.7227 -0.3592 -0.2630
 8065SOL     OW35656   1.490   4.009   2.921 -0.4921 -0.1450  0.2442
 8065SOL    HW135657   1.558   4.054   2.971  0.2836 -0.8609 -0.1641
 8065SOL    HW235658   1.540   3.956   2.858 -2.5684  0.1108 -1.6109
 8066SOL     OW35659   0.344   3.567   2.336  0.4148 -1.0603  0.3725
 8066SOL    HW135660   0.384   3.607   2.258  0.5574 -0.2992  0.8294
 8066SOL    HW235661   0.295   3.645   2.364  0.9299  0.0336 -1.7298
 8067SOL     OW35662   0.819   3.929   6.409 -0.2941  0.2152 -0.3941
 8067SOL    HW135663   0.886   3.991   6.434 -0.3793  0.6056 -1.1361
 8067SOL    HW235664   0.744   3.985   6.429  0.3315  0.9077 -0.0428
 8068SOL     OW35665   2.596   1.436   0.085 -0.2683  0.1845 -0.0657
 8068SOL    HW135666   2.677   1.401   0.050 -0.8555  1.1281 -2.3798
 8068SOL    HW235667   2.541   1.427   0.007 -1.2110  0.3748  0.5743
 8069SOL     OW35668   1.038   1.887  10.303 -0.4975  0.4349  0.3595
 8069SOL    HW135669   0.985   1.937  10.365  1.5108  1.5599  1.1655
 8069SOL    HW235670   1.127   1.920  10.311 -0.2270 -0.4914  1.2203
 8070SOL     OW35671   1.460   4.281  17.492  0.2768  0.1965 -0.2510
 8070SOL    HW135672   1.401   4.253  17.422 -2.7966  0.4428  2.2630
 8070SOL    HW235673   1.444   4.376  17.493 -0.8885 -0.0108  0.8045
 8071SOL     OW35674   3.826   1.070   2.367  0.2896  0.3128  0.0918
 8071SOL    HW135675   3.895   1.004   2.367  0.4251  0.4448 -0.8174
 8071SOL    HW235676   3.750   1.023   2.333  0.6598  0.0491 -0.3754
 8072SOL     OW35677   2.652   3.083   6.700 -0.2330 -0.5682 -1.3328
 8072SOL    HW135678   2.613   3.137   6.632  0.0406  0.2907 -0.7990
 8072SOL    HW235679   2.718   3.146   6.729  1.3662 -3.7209  1.9800
 8073SOL     OW35680   0.969   4.376   3.822 -0.2596 -0.3643 -0.7368
 8073SOL    HW135681   1.056   4.362   3.785 -0.5996 -0.3812 -1.5326
 8073SOL    HW235682   0.951   4.295   3.869  2.7552 -0.2993  0.5408
 8074SOL     OW35683   2.596   0.885  14.649  0.2020  0.5074  0.2576
 8074SOL    HW135684   2.535   0.831  14.599  3.2255 -0.6213 -2.2400
 8074SOL    HW235685   2.554   0.965  14.618 -0.1719 -0.2429 -1.1657
 8075SOL     OW35686   3.430   0.565   3.995  0.1985  0.5102  0.1979
 8075SOL    HW135687   3.417   0.549   4.088 -0.4116 -2.5209 -0.4044
 8075SOL    HW235688   3.394   0.482   3.964  0.7262  0.6747 -0.8732
 8076SOL     OW35689   4.064   1.485  10.722  0.3006 -0.4376 -0.0386
 8076SOL    HW135690   3.970   1.506  10.718  0.4411  0.1773 -0.1289
 8076SOL    HW235691   4.064   1.439  10.805  2.0575  1.8052  1.2068
 8077SOL     OW35692   2.002   4.028   6.788  0.2783  0.4346 -0.0371
 8077SOL    HW135693   1.930   4.090   6.780 -0.1440  0.1046  1.1435
 8077SOL    HW235694   1.959   3.949   6.822 -1.0657  0.0719 -2.6156
 8078SOL     OW35695   0.150   4.585   3.708  0.4231 -0.0668 -0.6620
 8078SOL    HW135696   0.086   4.528   3.751  1.8603 -2.1475 -1.2478
 8078SOL    HW235697   0.128   4.573   3.615 -1.4755  0.6229 -0.3042
 8079SOL     OW35698   2.207   1.532  11.852 -0.3161 -0.3682  0.9257
 8079SOL    HW135699   2.183   1.465  11.916  0.3982  0.2344  1.8375
 8079SOL    HW235700   2.274   1.574  11.906 -0.9181 -0.8401  2.0447
 8080SOL     OW35701   2.559   0.317   4.145 -0.3273 -0.0671  0.0790
 8080SOL    HW135702   2.590   0.269   4.068 -0.2476 -0.6303  0.4615
 8080SOL    HW235703   2.605   0.400   4.131 -1.2192 -0.0203 -2.6372
 8081SOL     OW35704   0.287   0.475   7.513 -0.4696  0.2951 -0.1666
 8081SOL    HW135705   0.336   0.417   7.571 -0.6258  0.0256 -0.3050
 8081SOL    HW235706   0.351   0.491   7.444  1.5507 -0.0190  1.6344
 8082SOL     OW35707   1.453   0.129   2.528  0.1279  0.1572 -0.0782
 8082SOL    HW135708   1.477   0.221   2.529  2.4437 -0.4437 -1.0624
 8082SOL    HW235709   1.403   0.125   2.609  0.3515 -1.5092 -0.0165
 8083SOL     OW35710   3.850   2.712  14.889 -0.4496  0.1059 -0.0308
 8083SOL    HW135711   3.892   2.658  14.956 -0.4411  1.0550  0.7231
 8083SOL    HW235712   3.913   2.784  14.878 -1.1144  0.9275  1.5487
 8084SOL     OW35713   3.546   1.599  10.928 -0.6650  0.3931 -0.1196
 8084SOL    HW135714   3.618   1.662  10.924  0.9376 -1.3223  1.1857
 8084SOL    HW235715   3.583   1.524  10.881 -2.0148 -2.2288  3.0153
 8085SOL     OW35716   0.728   4.133   5.186  0.8608  0.2348 -0.0699
 8085SOL    HW135717   0.736   4.181   5.268 -2.2199 -0.5256  0.6926
 8085SOL    HW235718   0.666   4.066   5.214  1.4814 -0.4696 -0.3991
 8086SOL     OW35719   4.175   4.402  14.317 -0.2804  0.5999 -0.1179
 8086SOL    HW135720   4.225   4.439  14.390  2.3979 -1.2829 -1.0280
 8086SOL    HW235721   4.193   4.473  14.256  1.6508 -0.5791 -0.8904
 8087SOL     OW35722   3.335   4.423  14.924 -0.5276 -0.8137  0.1002
 8087SOL    HW135723   3.317   4.387  14.837 -1.4731  2.3612 -1.0206
 8087SOL    HW235724   3.292   4.355  14.976 -1.7058 -0.1778 -0.0249
 8088SOL     OW35725   4.609   1.793   8.913 -0.2863  0.1864  0.5511
 8088SOL    HW135726   4.515   1.779   8.904 -0.1744 -0.1157 -0.1586
 8088SOL    HW235727   4.616   1.869   8.972 -0.3055 -0.2691  1.1366
 8089SOL     OW35728   4.268   4.139  13.108 -0.0629 -0.9125 -0.4464
 8089SOL    HW135729   4.208   4.098  13.046 -0.7647  0.1019 -0.4287
 8089SOL    HW235730   4.287   4.062  13.163  0.3586  1.6893  3.0780
 8090SOL     OW35731   4.132   3.741   9.921  0.2658 -0.1410  0.9245
 8090SOL    HW135732   4.167   3.830   9.923 -0.3068  0.1324 -1.8606
 8090SOL    HW235733   4.112   3.714  10.011 -1.0248 -0.5464  0.5200
 8091SOL     OW35734   2.201   4.577   3.066  0.2942  0.2884  0.3888
 8091SOL    HW135735   2.164   4.594   3.152 -0.9946 -2.1360  0.3115
 8091SOL    HW235736   2.187   4.652   3.007 -0.1715 -0.4139 -0.3958
 8092SOL     OW35737   2.983   0.669   9.877  0.0785 -0.0298  0.3151
 8092SOL    HW135738   3.013   0.676   9.967 -0.1591 -1.0783  0.4715
 8092SOL    HW235739   3.018   0.746   9.831 -1.4823  0.0451 -0.7571
 8093SOL     OW35740   1.273   3.453  15.466  0.0942  0.1453 -0.7771
 8093SOL    HW135741   1.178   3.461  15.468  0.2114  1.3566  0.0376
 8093SOL    HW235742   1.293   3.503  15.388 -1.2548 -0.3411 -1.4284
 8094SOL     OW35743   1.507   0.882   4.990 -0.0577  0.0278  0.0913
 8094SOL    HW135744   1.557   0.957   4.959 -0.8874 -0.3266 -2.0765
 8094SOL    HW235745   1.444   0.863   4.920 -0.5624 -3.9233  1.5987
 8095SOL     OW35746   0.303   2.321   4.720 -0.7050  0.0538  0.5006
 8095SOL    HW135747   0.332   2.339   4.630  1.3112  0.3977  1.2165
 8095SOL    HW235748   0.380   2.348   4.770  0.9505  0.6778 -2.3648
 8096SOL     OW35749   2.764   1.250   7.801  0.7092  0.0352 -0.3607
 8096SOL    HW135750   2.835   1.209   7.751  0.6121  0.5069 -0.8848
 8096SOL    HW235751   2.703   1.177   7.813  1.1858 -0.2244  0.4946
 8097SOL     OW35752   0.272   2.447  11.272  0.0198  0.0266 -0.4267
 8097SOL    HW135753   0.185   2.435  11.235 -0.7954 -0.2341  1.5641
 8097SOL    HW235754   0.310   2.375  11.220 -0.0643 -0.0572 -0.3713
 8098SOL     OW35755   4.576   1.312   8.625  0.0330 -0.3181 -0.5026
 8098SOL    HW135756   4.650   1.350   8.673 -1.6820  0.7287  1.3108
 8098SOL    HW235757   4.619   1.233   8.591 -2.0303 -1.6146 -0.1087
 8099SOL     OW35758   0.364   0.896  14.553 -0.1343 -0.5333  0.4957
 8099SOL    HW135759   0.299   0.831  14.526 -1.9480  0.1752  3.2135
 8099SOL    HW235760   0.415   0.889  14.472 -1.8110 -0.3125 -0.5754
 8100SOL     OW35761   0.617   2.558  16.600  0.4014 -0.0591  0.1413
 8100SOL    HW135762   0.600   2.652  16.610  2.4777  0.1671  1.5400
 8100SOL    HW235763   0.700   2.546  16.646  0.0517  0.1973  0.8386
 8101SOL     OW35764   2.023   2.046  13.702 -0.2143 -0.2517 -0.2294
 8101SOL    HW135765   1.963   1.991  13.650 -2.7707  0.3602  2.0634
 8101SOL    HW235766   2.104   2.043  13.652  0.0905 -0.4687  0.2836
 8102SOL     OW35767   1.500   4.561   6.262  0.1708 -0.2142  0.2854
 8102SOL    HW135768   1.462   4.490   6.212 -0.3580  0.4041 -0.1976
 8102SOL    HW235769   1.569   4.583   6.200 -1.9297 -0.2123 -2.0299
 8103SOL     OW35770   1.595   1.377   7.504  1.0298 -0.5813  0.4885
 8103SOL    HW135771   1.588   1.433   7.427 -2.7065 -1.0006  0.5425
 8103SOL    HW235772   1.545   1.430   7.566 -0.0422 -0.1547 -0.7549
 8104SOL     OW35773   2.828   2.458   9.042 -0.8127  0.1852 -0.2540
 8104SOL    HW135774   2.745   2.466   9.089 -1.5087 -0.9796 -1.2948
 8104SOL    HW235775   2.822   2.371   9.003 -0.9202  0.4286 -0.7837
 8105SOL     OW35776   0.832   1.881   9.834 -0.0334 -0.5695 -0.0906
 8105SOL    HW135777   0.838   1.899   9.928 -1.8706  1.3813 -0.3362
 8105SOL    HW235778   0.768   1.946   9.804  1.6557  1.8887  1.5768
 8106SOL     OW35779   2.460   0.536  16.054  0.1550  0.3253  0.4281
 8106SOL    HW135780   2.437   0.449  16.019 -1.1633  1.2601 -1.0083
 8106SOL    HW235781   2.502   0.575  15.978 -2.0066  0.8931 -0.4769
 8107SOL     OW35782   4.400   4.188   7.621  0.1710 -0.4309  0.2600
 8107SOL    HW135783   4.307   4.211   7.623  0.6112  1.1064  2.7834
 8107SOL    HW235784   4.388   4.094   7.631  0.8821 -0.6068 -0.5008
 8108SOL     OW35785   2.102   2.774   4.492  0.4340  0.0080 -0.1136
 8108SOL    HW135786   2.095   2.807   4.582 -3.4391 -0.7599 -0.1575
 8108SOL    HW235787   2.135   2.688   4.518  0.1198 -0.8108 -2.3995
 8109SOL     OW35788   0.918   0.121   4.064 -0.3026  0.7317  0.3819
 8109SOL    HW135789   0.983   0.139   4.132 -0.1545  1.1706  0.1219
 8109SOL    HW235790   0.861   0.051   4.096 -1.3219  2.1405  1.6464
 8110SOL     OW35791   2.577   3.684  12.161  0.2330 -0.3776 -0.4311
 8110SOL    HW135792   2.585   3.647  12.073 -0.6829  0.4631 -0.8709
 8110SOL    HW235793   2.503   3.636  12.198 -0.1961 -1.7865 -3.1030
 8111SOL     OW35794   4.491   0.680   4.086 -0.0084 -0.3250  0.7520
 8111SOL    HW135795   4.539   0.751   4.129 -0.8057  0.6804 -0.0282
 8111SOL    HW235796   4.412   0.689   4.138 -1.6326 -1.1875 -1.5741
 8112SOL     OW35797   3.405   3.209   6.177 -0.1197  0.4245 -0.1183
 8112SOL    HW135798   3.478   3.218   6.237 -0.3184 -0.8617  0.3160
 8112SOL    HW235799   3.379   3.301   6.177 -1.5269  0.0411 -1.1417
 8113SOL     OW35800   4.128   2.416   6.922  0.4872  0.0987  0.6147
 8113SOL    HW135801   4.035   2.433   6.911  0.6188  0.3962 -0.0211
 8113SOL    HW235802   4.166   2.493   6.966  0.0191  0.9181 -0.4149
 8114SOL     OW35803   3.534   3.690  10.933  0.5272  0.4323 -0.1093
 8114SOL    HW135804   3.537   3.632  11.008  1.5050  1.4483  0.6273
 8114SOL    HW235805   3.608   3.673  10.875  0.3380  0.0469 -0.2358
 8115SOL     OW35806   4.552   3.003   3.000 -0.2553 -0.2489  0.0948
 8115SOL    HW135807   4.562   3.094   2.972  3.9269 -0.4281  1.0158
 8115SOL    HW235808   4.586   2.947   2.931  0.1611  1.3903 -1.0251
 8116SOL     OW35809   0.499   1.160   1.949 -0.1179  0.0100  0.2500
 8116SOL    HW135810   0.440   1.107   1.895  1.0131  0.2192 -1.2041
 8116SOL    HW235811   0.450   1.239   1.974  2.6716  2.2511 -1.3604
 8117SOL     OW35812   0.176   3.124   8.819 -0.4850  0.1494  0.0956
 8117SOL    HW135813   0.126   3.045   8.837  0.3232 -0.1815  0.8844
 8117SOL    HW235814   0.253   3.101   8.872 -0.2648  0.3741 -0.1242
 8118SOL     OW35815   0.498   4.269   6.949  0.2015 -0.5616  0.2909
 8118SOL    HW135816   0.477   4.244   6.859 -0.4490  0.1725  0.2384
 8118SOL    HW235817   0.461   4.357   6.949 -1.1128 -1.1196  0.3084
 8119SOL     OW35818   1.692   4.379   7.070 -0.1030  0.4238  0.0198
 8119SOL    HW135819   1.778   4.391   7.030 -0.0770  1.1959  0.3188
 8119SOL    HW235820   1.692   4.465   7.111  0.3496  0.3859  0.0901
 8120SOL     OW35821   3.608   1.944   8.852 -0.5029 -0.4752  0.0369
 8120SOL    HW135822   3.523   1.974   8.884  0.0902 -0.3146  1.4639
 8120SOL    HW235823   3.581   1.919   8.764  1.1244 -0.5643 -0.4330
 8121SOL     OW35824   4.122   2.702  10.123 -0.6924 -0.2166  0.3264
 8121SOL    HW135825   4.106   2.640  10.052  0.7384 -0.9628  0.6607
 8121SOL    HW235826   4.034   2.731  10.147 -0.9141  0.7280 -1.6551
 8122SOL     OW35827   2.362   0.609   6.397  0.0334 -0.1874  0.1115
 8122SOL    HW135828   2.315   0.692   6.401 -1.0417 -0.8693  2.0195
 8122SOL    HW235829   2.394   0.605   6.307 -0.7380  1.9494 -0.2516
 8123SOL     OW35830   2.768   2.308   9.357 -0.4622  0.7161 -0.2271
 8123SOL    HW135831   2.675   2.294   9.338  0.0587 -2.0732 -0.7320
 8123SOL    HW235832   2.780   2.245   9.427 -1.5680 -0.6008 -1.2272
 8124SOL     OW35833   4.518   1.195  10.054  0.6215  0.4880 -0.3785
 8124SOL    HW135834   4.586   1.144  10.010  1.0957 -0.2211  1.1860
 8124SOL    HW235835   4.460   1.211   9.980  0.3416  1.9124  0.1475
 8125SOL     OW35836   1.177   2.339  17.686  0.0505  0.0531  0.0325
 8125SOL    HW135837   1.194   2.266  17.626 -0.9343 -1.6058  1.7837
 8125SOL    HW235838   1.249   2.317   0.043  1.0452  0.6951 -0.9204
 8126SOL     OW35839   0.437   2.953   6.571  0.4387 -0.0548 -0.1254
 8126SOL    HW135840   0.510   2.985   6.518  0.9410 -1.3518 -0.2297
 8126SOL    HW235841   0.370   3.017   6.548  0.4889 -0.1927 -0.6632
 8127SOL     OW35842   0.397   2.620   3.948  0.2179 -0.0057  0.2533
 8127SOL    HW135843   0.350   2.657   3.873  1.4953 -0.1706 -0.6224
 8127SOL    HW235844   0.320   2.621   4.005 -0.6263 -2.1578 -0.8442
 8128SOL     OW35845   4.108   0.422   7.087  0.1365 -0.0146 -0.4629
 8128SOL    HW135846   4.188   0.372   7.069 -1.1854 -2.5748  0.8262
 8128SOL    HW235847   4.097   0.406   7.181  0.1260  0.5145 -0.3770
 8129SOL     OW35848   0.252   1.786   2.973 -0.1076 -0.1396  0.6643
 8129SOL    HW135849   0.168   1.797   3.019 -0.1162 -1.1298  0.8733
 8129SOL    HW235850   0.236   1.698   2.941  0.8607  0.9850 -2.8905
 8130SOL     OW35851   2.247   3.648   6.183 -0.3460 -0.1148  0.5171
 8130SOL    HW135852   2.213   3.635   6.271 -3.0382  0.6802 -0.4005
 8130SOL    HW235853   2.224   3.740   6.170 -1.3081 -0.1179  2.1904
 8131SOL     OW35854   3.622   0.043   2.237 -0.7043 -0.3048  0.0894
 8131SOL    HW135855   3.599   0.015   2.326 -0.7355  1.7201  0.7328
 8131SOL    HW235856   3.715   0.023   2.236 -0.3173  1.5333 -0.7913
 8132SOL     OW35857   2.921   0.997  15.435 -0.2640  0.5280  0.1800
 8132SOL    HW135858   2.969   1.011  15.353  0.8108  2.1762  1.0891
 8132SOL    HW235859   2.915   1.089  15.461  0.1178  0.3927  0.7374
 8133SOL     OW35860   2.408   2.855   4.509  0.5277  0.1592  0.3360
 8133SOL    HW135861   2.405   2.809   4.593  0.1697 -0.1793  0.1390
 8133SOL    HW235862   2.318   2.885   4.495 -0.1621 -0.7367  2.8372
 8134SOL     OW35863   4.283   3.921   7.675 -0.6979  0.1736 -0.1942
 8134SOL    HW135864   4.297   3.895   7.766 -0.5044 -0.0393 -0.2841
 8134SOL    HW235865   4.190   3.943   7.675  0.2251  4.0036  0.7280
 8135SOL     OW35866   0.653   3.533   4.424 -0.0390 -0.7178  0.6828
 8135SOL    HW135867   0.695   3.449   4.403 -0.6793 -0.4519 -1.7178
 8135SOL    HW235868   0.563   3.533   4.390 -0.4748  2.3018  1.8562
 8136SOL     OW35869   0.474   0.370   9.366 -0.2742 -0.1525 -0.3929
 8136SOL    HW135870   0.491   0.464   9.375 -0.4911 -0.4794  3.4731
 8136SOL    HW235871   0.508   0.348   9.280 -0.7833 -1.7112 -0.1906
 8137SOL     OW35872   2.092   2.348   7.688  0.0687  0.4908  0.3661
 8137SOL    HW135873   2.143   2.283   7.737  0.2751  0.2182 -0.2110
 8137SOL    HW235874   2.040   2.382   7.760 -0.4072  1.4123 -0.4156
 8138SOL     OW35875   1.036   0.125  11.608 -0.6428 -0.8506  0.2897
 8138SOL    HW135876   1.101   0.056  11.594  1.3411  0.3617  3.5375
 8138SOL    HW235877   0.953   0.097  11.570 -0.0431 -1.4430 -0.5964
 8139SOL     OW35878   3.005   0.284   7.579  0.4612 -0.0934 -0.1666
 8139SOL    HW135879   3.037   0.211   7.631  2.2666 -2.1238 -4.1415
 8139SOL    HW235880   2.921   0.261   7.540  0.9178 -3.3625  0.8367
 8140SOL     OW35881   2.399   4.422   9.123  0.3497  0.5362  0.3091
 8140SOL    HW135882   2.362   4.346   9.167  0.8830 -0.0659 -0.2812
 8140SOL    HW235883   2.452   4.378   9.057  0.2134  3.3831 -1.7504
 8141SOL     OW35884   0.267   0.705   6.168  0.4043 -0.1112 -0.2635
 8141SOL    HW135885   0.242   0.767   6.100  1.5081  0.3184 -0.2676
 8141SOL    HW235886   0.242   0.621   6.129  0.3351 -0.1781 -0.0769
 8142SOL     OW35887   0.392   2.192   1.490  0.6921  0.2060  0.0546
 8142SOL    HW135888   0.414   2.135   1.564 -1.1936 -0.6605 -0.0466
 8142SOL    HW235889   0.477   2.235   1.476  1.0035 -0.2255  0.5912
 8143SOL     OW35890   0.600   2.649  15.771  0.5758  0.0127 -0.2385
 8143SOL    HW135891   0.616   2.732  15.725 -0.1462 -0.3488 -1.1529
 8143SOL    HW235892   0.510   2.626  15.747  0.5504  0.8161 -0.9461
 8144SOL     OW35893   1.945   3.807   4.261 -0.1388 -0.2197 -0.2798
 8144SOL    HW135894   1.993   3.881   4.223 -2.1603 -0.1107 -2.5640
 8144SOL    HW235895   1.956   3.744   4.190  0.0041 -0.4045 -0.0935
 8145SOL     OW35896   2.555   4.038  10.125  0.2223  0.4547  0.1598
 8145SOL    HW135897   2.530   4.050  10.034  2.2414 -0.0667 -0.4601
 8145SOL    HW235898   2.646   4.063  10.110  0.6687 -0.8566  0.6976
 8146SOL     OW35899   4.299   2.847   5.130 -0.0675 -0.4376 -0.2964
 8146SOL    HW135900   4.316   2.923   5.074  0.6656  0.6257  1.3786
 8146SOL    HW235901   4.215   2.876   5.166 -0.1269 -2.3386  1.0758
 8147SOL     OW35902   4.559   0.035   2.610 -0.0229 -0.0544 -0.3108
 8147SOL    HW135903   4.587   4.669   2.603  2.4782  0.7914 -1.4046
 8147SOL    HW235904   4.481   0.034   2.666  2.3083  0.2798  2.9666
 8148SOL     OW35905   3.991   1.750   9.066 -0.2846  0.3762  0.6053
 8148SOL    HW135906   4.080   1.751   9.099 -0.9207 -3.6117  2.3946
 8148SOL    HW235907   4.004   1.738   8.972 -0.3794 -3.8681  1.1316
 8149SOL     OW35908   1.526   4.680   1.768  0.2717  0.2628  0.0233
 8149SOL    HW135909   1.441   4.712   1.800 -0.2420 -0.2517 -0.8180
 8149SOL    HW235910   1.577   0.034   1.756  1.1266 -0.2603  0.2220
 8150SOL     OW35911   2.352   2.759   5.550 -0.3328 -0.5355  0.2413
 8150SOL    HW135912   2.417   2.774   5.619  1.4955  0.6046 -1.7045
 8150SOL    HW235913   2.325   2.849   5.534  1.3097 -0.7955 -4.0890
 8151SOL     OW35914   2.885   1.245  15.516  0.1146 -0.1037  0.2413
 8151SOL    HW135915   2.865   1.250  15.610  1.1337  0.5829  0.4275
 8151SOL    HW235916   2.923   1.332  15.506  0.1688 -0.0890  0.5662
 8152SOL     OW35917   2.819   3.712   7.786 -0.2366 -0.2424  0.0167
 8152SOL    HW135918   2.820   3.675   7.698 -0.8196 -0.0483 -0.0718
 8152SOL    HW235919   2.845   3.634   7.836 -1.0575 -1.9398 -2.1862
 8153SOL     OW35920   3.157   1.705  11.719  0.5789 -0.0676  0.1204
 8153SOL    HW135921   3.081   1.763  11.726 -0.3222 -1.4479  1.6817
 8153SOL    HW235922   3.114   1.625  11.747  1.1159 -1.4019 -2.8004
 8154SOL     OW35923   0.897   2.629   7.745 -0.1651  0.4700 -0.1372
 8154SOL    HW135924   0.907   2.535   7.760  0.9470  0.9095  1.9443
 8154SOL    HW235925   0.814   2.646   7.790  1.5003 -0.0956  3.1664
 8155SOL     OW35926   4.199   3.735  13.582  0.1611 -0.2884  0.8643
 8155SOL    HW135927   4.104   3.725  13.576  0.2573  0.1497 -1.5936
 8155SOL    HW235928   4.221   3.691  13.500  1.8242  0.3870  0.9534
 8156SOL     OW35929   2.092   2.522   3.059 -0.0887  0.3248  0.1802
 8156SOL    HW135930   2.188   2.525   3.062 -0.0799  0.3327 -0.0824
 8156SOL    HW235931   2.062   2.461   3.126 -1.3486 -0.7098 -1.3214
 8157SOL     OW35932   0.633   0.028  16.307  0.1126  0.3481  0.4534
 8157SOL    HW135933   0.618   0.121  16.323  1.6050  0.5157  0.8612
 8157SOL    HW235934   0.559   0.020  16.247  0.7840 -1.4875 -0.1170
 8158SOL     OW35935   2.131   4.050   6.547 -0.2033  0.0445 -0.5515
 8158SOL    HW135936   2.101   4.046   6.638 -0.1544 -0.2421 -0.5489
 8158SOL    HW235937   2.214   4.091   6.568 -1.5865  1.5317  2.0774
 8159SOL     OW35938   1.245   0.228   0.875 -0.3321  0.7018  0.5336
 8159SOL    HW135939   1.157   0.266   0.872 -1.8696 -2.9466 -0.6936
 8159SOL    HW235940   1.271   0.186   0.794 -1.8892 -0.8121  0.8157
 8160SOL     OW35941   4.195   3.887  10.456  0.4464  0.0767 -0.0856
 8160SOL    HW135942   4.290   3.892  10.453  0.3433  3.5526  2.0573
 8160SOL    HW235943   4.166   3.978  10.456  0.6275  0.1325 -0.3742
 8161SOL     OW35944   2.963   3.439   4.613  0.3148 -0.2228  0.7321
 8161SOL    HW135945   2.932   3.406   4.528  0.5585 -0.7777  0.8578
 8161SOL    HW235946   2.899   3.510   4.621  1.4672  0.8809  0.0794
 8162SOL     OW35947   1.794   4.617   8.818  0.0043  0.2455 -0.7235
 8162SOL    HW135948   1.867   4.611   8.880 -0.0148 -1.0834 -0.8259
 8162SOL    HW235949   1.712   4.611   8.868  0.4919 -0.4003  0.0033
 8163SOL     OW35950   0.709   4.574   4.282  0.4446  0.6561 -0.0772
 8163SOL    HW135951   0.776   4.551   4.218 -3.1389 -0.2953 -3.4450
 8163SOL    HW235952   0.772   4.576   4.355  1.3501 -2.9889 -0.7978
 8164SOL     OW35953   1.311   3.334  15.743 -0.3381 -0.0553  0.6443
 8164SOL    HW135954   1.313   3.380  15.658  1.7743 -1.2109  0.0744
 8164SOL    HW235955   1.365   3.257  15.724 -1.1975 -0.8659  1.5231
 8165SOL     OW35956   3.435   3.503  13.292 -0.1404 -0.1666 -0.1271
 8165SOL    HW135957   3.514   3.497  13.238 -1.0294 -2.6086 -1.1373
 8165SOL    HW235958   3.459   3.573  13.353  0.3159  0.8115 -1.4234
 8166SOL     OW35959   4.028   2.720   0.563 -0.2464  0.5375 -0.2489
 8166SOL    HW135960   4.016   2.745   0.655  0.6783  0.4781 -0.1139
 8166SOL    HW235961   3.939   2.688   0.551 -0.7069  0.7988  2.6241
 8167SOL     OW35962   2.670   2.463   3.725 -0.6619  0.1042 -0.2668
 8167SOL    HW135963   2.751   2.434   3.767 -1.9627 -0.1032  2.1130
 8167SOL    HW235964   2.702   2.467   3.635  1.6202 -4.0352  0.3694
 8168SOL     OW35965   3.102   3.818   7.506  0.5215 -0.2772 -0.4111
 8168SOL    HW135966   3.008   3.832   7.496  0.1946 -2.4681 -0.5688
 8168SOL    HW235967   3.126   3.907   7.483  0.3461 -0.4363 -1.2229
 8169SOL     OW35968   0.505   2.035   1.721 -0.1035  0.7227  0.1969
 8169SOL    HW135969   0.424   2.071   1.756  0.2708  0.7019  1.0657
 8169SOL    HW235970   0.514   1.954   1.772  1.9288  1.4210  0.9540
 8170SOL     OW35971   4.055   3.955  14.701  0.0158  0.0797 -0.2616
 8170SOL    HW135972   4.096   3.967  14.616 -0.8866  1.5828 -0.4762
 8170SOL    HW235973   3.983   4.018  14.700 -2.6644 -2.9555 -0.2365
 8171SOL     OW35974   2.834   3.939   9.409 -0.0114  0.0433 -0.0785
 8171SOL    HW135975   2.876   3.853   9.405 -0.2427  0.0551 -3.0541
 8171SOL    HW235976   2.768   3.923   9.342 -0.3817 -0.7508  0.4682
 8172SOL     OW35977   0.984   0.228   6.431  0.0430  0.0507  0.0600
 8172SOL    HW135978   0.940   0.143   6.434 -2.8659  1.6111  1.5292
 8172SOL    HW235979   1.038   0.215   6.509  2.5272 -0.7337 -1.7625
 8173SOL     OW35980   0.207   0.135   6.816 -0.4796  0.1014  0.1517
 8173SOL    HW135981   0.215   0.153   6.722 -0.1802  2.9609  0.7154
 8173SOL    HW235982   0.190   0.225   6.844  2.9077  1.0041 -0.7532
 8174SOL     OW35983   1.614   1.842  14.752 -0.3394 -0.7274 -0.0998
 8174SOL    HW135984   1.650   1.833  14.840 -1.8278 -0.9138  0.4982
 8174SOL    HW235985   1.598   1.751  14.727 -0.5212  0.4976 -4.4855
 8175SOL     OW35986   0.514   4.270   4.750 -0.7034  0.2085  0.0959
 8175SOL    HW135987   0.424   4.279   4.780  0.1629  2.4925  2.0419
 8175SOL    HW235988   0.541   4.193   4.801  0.7716  1.5431  1.3404
 8176SOL     OW35989   2.365   0.523   7.174 -0.8676 -0.0820  0.6351
 8176SOL    HW135990   2.402   0.435   7.172 -0.3755  0.1622 -0.8588
 8176SOL    HW235991   2.344   0.528   7.081 -0.6347 -2.0081  0.4680
 8177SOL     OW35992   1.282   0.415   6.046  0.1491  0.2396  0.5870
 8177SOL    HW135993   1.364   0.370   6.067 -0.2995 -0.5967  0.5413
 8177SOL    HW235994   1.224   0.355   6.093  0.5119 -0.3792  0.2436
 8178SOL     OW35995   3.983   2.251   2.824 -0.2410 -0.1616  0.0752
 8178SOL    HW135996   4.069   2.274   2.787  0.9011 -0.2214  2.6865
 8178SOL    HW235997   3.992   2.308   2.901 -0.6758  0.4223 -0.3036
 8179SOL     OW35998   3.471   2.982   6.017  0.0342  0.2348 -0.4172
 8179SOL    HW135999   3.407   2.996   5.947 -0.5759 -1.5373 -0.2065
 8179SOL    HW236000   3.441   3.053   6.074 -1.6212 -0.1224 -0.8272
 8180SOL     OW36001   2.509   0.529   3.515 -0.4382 -0.3868 -0.1229
 8180SOL    HW136002   2.558   0.605   3.483  0.9442 -1.4527 -0.5260
 8180SOL    HW236003   2.418   0.556   3.507 -0.7518 -0.5554  2.8203
 8181SOL     OW36004   3.328   4.414  12.023  0.3868  0.4444  0.2254
 8181SOL    HW136005   3.389   4.486  12.010  0.3279  0.2850 -0.9848
 8181SOL    HW236006   3.267   4.438  12.092 -0.0595  0.5068 -0.1875
 8182SOL     OW36007   1.293   0.110   4.064 -0.1184 -0.2944  0.0727
 8182SOL    HW136008   1.380   0.121   4.102 -0.3045 -2.4804  1.1224
 8182SOL    HW236009   1.246   0.067   4.136 -1.5532 -0.2142 -0.8117
 8183SOL     OW36010   4.036   3.596  15.327 -0.4350 -0.6375 -0.2447
 8183SOL    HW136011   3.955   3.551  15.306 -0.5144 -0.2322 -0.7987
 8183SOL    HW236012   4.062   3.597  15.235  0.1056  0.6380 -0.0899
 8184SOL     OW36013   3.174   1.492   8.012  0.2080  0.1477 -0.3706
 8184SOL    HW136014   3.103   1.488   7.947  0.8792  0.7854 -1.1397
 8184SOL    HW236015   3.151   1.562   8.072  0.6612 -0.2882  0.3131
 8185SOL     OW36016   1.481   1.919   7.461 -0.2182  0.3753 -0.5012
 8185SOL    HW136017   1.466   1.972   7.383 -1.3291 -0.4908 -0.8717
 8185SOL    HW236018   1.422   1.961   7.524  0.5790 -1.0655  1.1918
 8186SOL     OW36019   1.371   2.810   2.807  0.1557 -0.1544  0.2369
 8186SOL    HW136020   1.328   2.743   2.753  1.7057 -2.2351  1.5901
 8186SOL    HW236021   1.314   2.882   2.780  1.0768  1.0045  1.4180
 8187SOL     OW36022   2.418   0.074   3.762 -0.2640 -0.1282  0.4687
 8187SOL    HW136023   2.411   0.102   3.853  1.3533  1.6263  0.0531
 8187SOL    HW236024   2.428   0.158   3.717  0.6782 -1.4568 -1.8122
 8188SOL     OW36025   1.478   2.110  10.171  0.2810  0.3168 -0.0569
 8188SOL    HW136026   1.442   2.091  10.085  0.0353 -0.6260  0.2529
 8188SOL    HW236027   1.478   2.205  10.181 -0.4745  0.2298  0.8169
 8189SOL     OW36028   1.411   1.882   4.569  0.0450  0.6986  0.0407
 8189SOL    HW136029   1.499   1.914   4.589  0.3907  0.9540 -1.8509
 8189SOL    HW236030   1.435   1.812   4.509  0.4359  2.2167 -1.5937
 8190SOL     OW36031   2.598   1.431   8.142  0.2931  0.3076 -0.5553
 8190SOL    HW136032   2.611   1.524   8.162 -0.0625  0.1797  0.2940
 8190SOL    HW236033   2.513   1.438   8.099 -0.1137  1.4031  0.4071
 8191SOL     OW36034   3.129   2.032  12.378 -0.0875  0.1870  0.6311
 8191SOL    HW136035   3.138   2.089  12.302 -0.6941 -1.9120 -0.9970
 8191SOL    HW236036   3.221   2.006  12.375  0.0171  0.4262  1.6245
 8192SOL     OW36037   1.494   1.915   4.127 -0.1660  0.1264  0.1889
 8192SOL    HW136038   1.430   1.857   4.085  1.1903 -0.3082 -1.2628
 8192SOL    HW236039   1.433   1.989   4.132  0.1770  0.3948  0.3518
 8193SOL     OW36040   4.116   2.351   6.503  0.0147 -0.2613 -0.6103
 8193SOL    HW136041   4.138   2.281   6.442 -0.7104 -2.2911  1.4446
 8193SOL    HW236042   4.169   2.335   6.581 -0.4284 -1.1305 -0.4783
 8194SOL     OW36043   0.483   3.225  12.038  0.1433 -0.6164 -0.1039
 8194SOL    HW136044   0.494   3.223  11.943 -1.2801 -0.7172 -0.2758
 8194SOL    HW236045   0.574   3.221  12.067  0.0673  0.9909  0.3560
 8195SOL     OW36046   2.518   3.494   4.302  0.4239 -0.3631 -0.2236
 8195SOL    HW136047   2.543   3.491   4.394 -2.3813 -4.7136  0.4262
 8195SOL    HW236048   2.447   3.558   4.303  0.7973  0.0539 -0.2259
 8196SOL     OW36049   1.501   2.634   4.555  0.0770  0.0544 -0.1765
 8196SOL    HW136050   1.555   2.556   4.545 -1.0494 -0.6734 -0.6031
 8196SOL    HW236051   1.563   2.705   4.539 -1.9682  1.3282 -2.3869
 8197SOL     OW36052   0.564   3.537   3.033  0.5404 -0.1909  0.1642
 8197SOL    HW136053   0.634   3.472   3.036 -0.9153 -1.8533 -1.0491
 8197SOL    HW236054   0.543   3.553   2.941  1.2072  0.8586  0.1967
 8198SOL     OW36055   0.546   4.064  15.992  0.0890 -0.6628 -0.7119
 8198SOL    HW136056   0.531   3.999  15.925 -0.1520 -1.4360  0.0901
 8198SOL    HW236057   0.640   4.070  15.972 -0.1081 -1.4207 -1.8473
 8199SOL     OW36058   4.567   2.164   1.054  0.8536 -0.6207 -0.3328
 8199SOL    HW136059   4.474   2.180   1.066  1.3097  0.4283  1.6795
 8199SOL    HW236060   4.565   2.147   0.960 -2.4405  1.0369 -0.5532
 8200SOL     OW36061   1.057   0.808  12.264 -0.1198  0.6417 -0.2066
 8200SOL    HW136062   1.003   0.845  12.334 -0.4329 -0.6440  0.2514
 8200SOL    HW236063   1.082   0.722  12.299 -0.3581  1.6380  2.3763
 8201SOL     OW36064   4.264   2.082   7.566 -0.2614 -0.0171  0.4384
 8201SOL    HW136065   4.175   2.058   7.540 -0.3474  1.1758 -0.4026
 8201SOL    HW236066   4.277   2.031   7.646  1.1631 -0.0397  0.1917
 8202SOL     OW36067   0.138   3.121   0.684 -0.2568 -0.0642 -0.0336
 8202SOL    HW136068   0.090   3.158   0.758 -1.5104 -0.2063 -0.7976
 8202SOL    HW236069   0.161   3.197   0.631  0.4379 -1.1453 -1.2857
 8203SOL     OW36070   2.730   3.324   2.225 -0.1486  0.1224 -0.2645
 8203SOL    HW136071   2.751   3.408   2.182 -2.0207  1.2855  1.1130
 8203SOL    HW236072   2.654   3.349   2.277 -0.5931  1.9525 -1.7794
 8204SOL     OW36073   2.179   1.752   4.184  0.2497  0.2462  0.0300
 8204SOL    HW136074   2.264   1.779   4.148 -0.0444 -1.1731 -1.7139
 8204SOL    HW236075   2.194   1.659   4.203 -0.6557  0.2405  0.7336
 8205SOL     OW36076   4.333   1.104   6.759 -0.0600 -0.0420 -0.1802
 8205SOL    HW136077   4.374   1.019   6.774 -0.8450 -0.5468 -0.8259
 8205SOL    HW236078   4.349   1.154   6.838 -1.6081  0.4795 -0.1867
 8206SOL     OW36079   0.353   1.704  17.282  0.6985  0.1715 -0.6498
 8206SOL    HW136080   0.335   1.748  17.199  1.7756  3.0379  0.6128
 8206SOL    HW236081   0.444   1.728  17.302  0.7055  0.3146 -0.8622
 8207SOL     OW36082   1.849   3.722   9.585 -0.0256 -0.3694  0.3924
 8207SOL    HW136083   1.903   3.645   9.562 -2.1256 -1.9555  0.7694
 8207SOL    HW236084   1.760   3.690   9.572  0.3333 -0.5238 -1.6808
 8208SOL     OW36085   3.092   4.293  17.283 -0.7442 -0.2359  0.2067
 8208SOL    HW136086   2.999   4.280  17.305 -0.5997  0.7066  1.4227
 8208SOL    HW236087   3.112   4.219  17.227  0.3223  0.2232 -0.0063
 8209SOL     OW36088   0.205   1.291  11.582  0.2303 -0.2319  0.0301
 8209SOL    HW136089   0.258   1.321  11.656 -1.3294  1.0116  0.6234
 8209SOL    HW236090   0.268   1.250  11.523 -1.4465 -0.5459 -1.5433
 8210SOL     OW36091   0.587   3.293   7.589  0.2860 -0.3030 -0.2994
 8210SOL    HW136092   0.626   3.225   7.644 -1.0141 -0.9466 -0.1800
 8210SOL    HW236093   0.664   3.315   7.536  1.2919  0.6166  1.5528
 8211SOL     OW36094   3.688   0.612  14.494 -0.5728 -0.0245  0.1565
 8211SOL    HW136095   3.707   0.695  14.538  0.9702 -0.6828  0.7338
 8211SOL    HW236096   3.748   0.610  14.420 -0.9562 -0.8883 -0.1347
 8212SOL     OW36097   2.084   2.455   3.340 -0.0883  0.6937  0.5264
 8212SOL    HW136098   2.007   2.444   3.395 -0.1341 -2.6522 -0.2282
 8212SOL    HW236099   2.158   2.470   3.400  0.4973 -2.2098  0.5089
 8213SOL     OW36100   2.603   4.125   0.372  0.6819  0.4645 -0.5226
 8213SOL    HW136101   2.659   4.083   0.307  1.8652  1.3894 -0.1178
 8213SOL    HW236102   2.634   4.097   0.459  2.6182 -0.1013 -1.3879
 8214SOL     OW36103   0.784   3.634  15.782  0.2798  0.4229 -0.1067
 8214SOL    HW136104   0.834   3.567  15.734  1.3751 -0.0218  1.6509
 8214SOL    HW236105   0.708   3.641  15.724  1.1865  1.2059 -1.2181
 8215SOL     OW36106   1.347   3.983   6.465 -0.3561 -0.0869  0.3610
 8215SOL    HW136107   1.358   3.888   6.471  2.9811  0.3322  0.9388
 8215SOL    HW236108   1.345   4.005   6.558  1.0823 -1.2874  0.6818
 8216SOL     OW36109   2.647   4.146  10.889  0.2532  1.0735  0.4418
 8216SOL    HW136110   2.632   4.071  10.947  0.2070 -0.7008 -1.8669
 8216SOL    HW236111   2.672   4.090  10.815  3.0207  1.1777  1.3005
 8217SOL     OW36112   2.655   2.437   1.294 -0.7800 -0.1768  0.2393
 8217SOL    HW136113   2.584   2.419   1.232 -2.4613 -0.1149  2.1482
 8217SOL    HW236114   2.612   2.436   1.379 -1.8017 -3.2695 -0.2929
 8218SOL     OW36115   4.117   3.759   7.282  0.5982  0.4332 -0.4887
 8218SOL    HW136116   4.037   3.757   7.334  1.8615 -2.3372  1.4027
 8218SOL    HW236117   4.191   3.773   7.342 -1.2622 -0.5763  2.0503
 8219SOL     OW36118   2.519   1.288   5.760 -0.2921 -0.5160 -0.0202
 8219SOL    HW136119   2.479   1.312   5.844  0.1171  0.9903 -0.2516
 8219SOL    HW236120   2.600   1.253   5.796  1.4496  2.2363 -1.3034
 8220SOL     OW36121   0.931   0.191   7.474 -0.6162 -1.0988  0.0281
 8220SOL    HW136122   1.002   0.245   7.440 -2.0145 -0.6120 -2.1278
 8220SOL    HW236123   0.960   0.174   7.563 -0.0438  1.9101  0.4023
 8221SOL     OW36124   1.146   4.435   2.822  0.5205  0.0205 -0.5203
 8221SOL    HW136125   1.085   4.390   2.880  1.3406  0.6570  0.8510
 8221SOL    HW236126   1.232   4.393   2.834  0.3143 -0.8470 -2.0447
 8222SOL     OW36127   2.803   2.026  12.468  0.0139 -0.3360 -0.0097
 8222SOL    HW136128   2.731   1.981  12.423 -0.7154  1.1191 -0.2844
 8222SOL    HW236129   2.836   2.085  12.400  1.1120 -0.9116  0.0161
 8223SOL     OW36130   3.183   4.144   9.300 -0.1588 -0.2536  0.2128
 8223SOL    HW136131   3.102   4.160   9.349  0.3954  0.6656  0.8270
 8223SOL    HW236132   3.238   4.182   9.369  2.5191 -0.1375 -2.0151
 8224SOL     OW36133   1.818   2.185  12.046 -0.3993 -0.3170 -0.1706
 8224SOL    HW136134   1.845   2.247  12.113 -2.7236  0.3478  0.1598
 8224SOL    HW236135   1.777   2.230  11.971 -2.6738 -3.3228 -0.7466
 8225SOL     OW36136   3.723   0.709  12.677 -0.6629 -0.2960  0.2893
 8225SOL    HW136137   3.814   0.697  12.704 -0.4252  1.5241  0.2546
 8225SOL    HW236138   3.739   0.776  12.611  2.0489  0.1845  1.4657
 8226SOL     OW36139   3.530   2.430   3.613 -0.0811 -0.0396  0.0326
 8226SOL    HW136140   3.585   2.370   3.563 -2.4469  0.1055 -2.7507
 8226SOL    HW236141   3.589   2.496   3.650 -1.6028  0.0249  2.3218
 8227SOL     OW36142   2.879   4.463   6.742 -0.0872  0.5378 -0.0013
 8227SOL    HW136143   2.825   4.542   6.738  1.7413  1.7827 -0.3167
 8227SOL    HW236144   2.858   4.441   6.833 -1.8034 -0.1472 -0.5544
 8228SOL     OW36145   1.561   2.990   3.635 -0.0189  0.2172 -0.1345
 8228SOL    HW136146   1.567   3.035   3.551 -0.2111  1.2819  0.4316
 8228SOL    HW236147   1.601   2.909   3.604 -2.1719  0.4867 -3.6452
 8229SOL     OW36148   4.459   2.299   5.846 -0.2416  0.2901 -0.3356
 8229SOL    HW136149   4.511   2.335   5.917  1.3872  0.3806 -1.5826
 8229SOL    HW236150   4.401   2.228   5.874 -1.6579  2.2045  1.6569
 8230SOL     OW36151   3.177   0.297   4.740 -0.0132 -0.5912  0.3601
 8230SOL    HW136152   3.226   0.231   4.691 -0.7898 -0.4271 -0.6206
 8230SOL    HW236153   3.153   0.353   4.667  0.1544 -1.8574 -0.6683
 8231SOL     OW36154   1.108   4.410   5.109  0.3908  0.1176 -0.6185
 8231SOL    HW136155   1.121   4.316   5.124  1.9844  0.3323 -0.7428
 8231SOL    HW236156   1.023   4.398   5.067  0.3333  0.5546 -0.6229
 8232SOL     OW36157   3.953   3.381   3.101 -0.4072 -0.6759  0.1416
 8232SOL    HW136158   4.019   3.432   3.147  0.0922 -0.0236 -1.3127
 8232SOL    HW236159   4.010   3.316   3.060  0.2046 -0.5971  0.8610
 8233SOL     OW36160   1.510   2.046   4.883  0.0515 -0.4638  0.2984
 8233SOL    HW136161   1.558   1.964   4.872 -0.7203 -0.8973  0.1839
 8233SOL    HW236162   1.446   2.030   4.952  0.8009 -1.0729  0.8519
 8234SOL     OW36163   0.077   0.821   3.889  0.6143  0.3555  0.1439
 8234SOL    HW136164   0.123   0.869   3.958 -0.6112  0.6219  0.7835
 8234SOL    HW236165   0.096   0.876   3.813  2.9505  0.9008  1.1264
 8235SOL     OW36166   1.773   1.004  13.078  0.0851 -0.3229 -0.3783
 8235SOL    HW136167   1.815   1.081  13.116  0.4812 -1.8350  2.2535
 8235SOL    HW236168   1.812   0.930  13.124  0.2089 -0.7804 -1.2203
 8236SOL     OW36169   1.531   3.314   5.920  0.1855 -0.1296 -0.1964
 8236SOL    HW136170   1.590   3.344   5.989  1.4528 -2.1091 -0.4029
 8236SOL    HW236171   1.457   3.374   5.921  0.4555  0.2384 -1.8812
 8237SOL     OW36172   4.519   0.887  13.132  1.1143 -0.2926 -0.0392
 8237SOL    HW136173   4.596   0.940  13.110 -0.4172  2.4287  1.1757
 8237SOL    HW236174   4.531   0.882  13.226  0.6722  1.2116  0.0954
 8238SOL     OW36175   3.364   0.583  13.433 -0.0064  0.4145  0.2015
 8238SOL    HW136176   3.381   0.624  13.517  1.0265  1.9642 -0.7642
 8238SOL    HW236177   3.286   0.629  13.404 -1.0225 -2.6495 -1.9218
 8239SOL     OW36178   0.605   4.433   8.037 -0.7286 -0.0753  0.3571
 8239SOL    HW136179   0.517   4.428   8.000  0.0317  0.1057 -1.4530
 8239SOL    HW236180   0.625   4.349   8.078  2.9148  1.1251  1.0134
 8240SOL     OW36181   2.164   2.518   4.370 -0.1263  0.5219 -0.4740
 8240SOL    HW136182   2.167   2.457   4.296  0.8584  1.8999 -1.5686
 8240SOL    HW236183   2.256   2.541   4.378 -0.1851  1.1293 -1.4514
 8241SOL     OW36184   0.067   2.641   5.114 -0.4382  0.1293  0.8720
 8241SOL    HW136185   0.127   2.613   5.183 -1.1538 -1.6913  0.7451
 8241SOL    HW236186   0.063   2.737   5.116  2.1701  0.2356  0.7632
 8242SOL     OW36187   2.208   3.483   4.532 -0.3113 -0.2333 -0.2814
 8242SOL    HW136188   2.243   3.489   4.620 -1.4950 -2.6189  0.3553
 8242SOL    HW236189   2.201   3.387   4.531 -0.5628 -0.2084 -3.2140
 8243SOL     OW36190   3.381   1.359  15.570 -0.0294  0.5219  0.1285
 8243SOL    HW136191   3.412   1.340  15.659 -1.5779 -1.6341  0.2217
 8243SOL    HW236192   3.399   1.275  15.526  0.3649  0.5665  0.2008
 8244SOL     OW36193   3.142   1.032   2.808  0.3015  0.2113 -0.1150
 8244SOL    HW136194   3.163   0.940   2.825 -0.8829 -0.5200 -2.5999
 8244SOL    HW236195   3.177   1.037   2.719 -2.0182 -2.2298 -1.1621
 8245SOL     OW36196   2.260   0.413   7.651 -0.0112  0.3411  0.1097
 8245SOL    HW136197   2.308   0.493   7.629  0.1068 -0.5020 -2.7429
 8245SOL    HW236198   2.235   0.373   7.568 -0.1585 -0.3794  0.5044
 8246SOL     OW36199   0.669   4.293  16.568  0.4787 -0.4320  0.3560
 8246SOL    HW136200   0.594   4.315  16.623  0.7188 -2.3943  1.4598
 8246SOL    HW236201   0.689   4.376  16.525 -5.5841  0.8511 -0.0594
 8247SOL     OW36202   0.489   1.106  15.503 -0.6882 -0.0062 -0.6227
 8247SOL    HW136203   0.557   1.066  15.558 -0.8348  2.4685  1.3892
 8247SOL    HW236204   0.454   1.167  15.568  1.6404  1.9503 -1.1785
 8248SOL     OW36205   1.393   4.327   7.435 -0.1888  0.3142  0.3165
 8248SOL    HW136206   1.312   4.365   7.469 -0.9601 -3.2654  2.4517
 8248SOL    HW236207   1.416   4.269   7.507  0.1229 -0.9851 -0.8258
 8249SOL     OW36208   2.837   1.557   3.625 -0.1884 -0.5548 -0.1920
 8249SOL    HW136209   2.910   1.504   3.595  1.6592  0.3207  2.7701
 8249SOL    HW236210   2.813   1.603   3.544  0.8120 -0.7175 -0.5739
 8250SOL     OW36211   3.568   2.031   5.941  0.1486  0.5885  0.2526
 8250SOL    HW136212   3.635   2.051   6.005  1.3096 -1.2438 -0.3891
 8250SOL    HW236213   3.525   2.116   5.931  0.5221  0.6390 -1.0191
 8251SOL     OW36214   3.876   1.158   5.741  0.7006 -0.1861 -0.3145
 8251SOL    HW136215   3.812   1.147   5.811 -0.4144 -0.3507 -1.3767
 8251SOL    HW236216   3.837   1.103   5.674 -0.1013  0.1876 -0.1561
 8252SOL     OW36217   3.332   0.878   2.492 -0.5712 -0.2724  0.2236
 8252SOL    HW136218   3.329   0.786   2.520 -1.8798 -1.1695 -2.8602
 8252SOL    HW236219   3.406   0.863   2.433  1.4816 -1.2317  3.0067
 8253SOL     OW36220   2.534   1.236  15.048 -0.3670 -0.1342 -0.4292
 8253SOL    HW136221   2.557   1.203  14.961 -2.6096 -0.1429 -1.0107
 8253SOL    HW236222   2.621   1.259  15.081 -0.0473  1.4879 -2.3592
 8254SOL     OW36223   1.437   3.803   6.714 -0.3531 -0.5461 -0.1011
 8254SOL    HW136224   1.367   3.828   6.774  0.4452 -0.6191  0.8564
 8254SOL    HW236225   1.499   3.872   6.739 -0.8079 -0.4350  0.7305
 8255SOL     OW36226   0.269   4.254   7.647  0.4729  0.2821  0.1945
 8255SOL    HW136227   0.304   4.276   7.560 -2.0725  0.5890 -0.7590
 8255SOL    HW236228   0.201   4.193   7.617 -0.3566  0.7876  1.0550
 8256SOL     OW36229   4.161   1.904   4.510  0.3629 -0.4692 -0.3213
 8256SOL    HW136230   4.097   1.847   4.467 -1.1803  0.9876  0.0232
 8256SOL    HW236231   4.240   1.851   4.514  0.8571  0.2743 -0.1079
 8257SOL     OW36232   0.535   1.648   2.796 -0.3192 -0.5288 -0.4971
 8257SOL    HW136233   0.597   1.576   2.806  0.6956  0.5940  1.3256
 8257SOL    HW236234   0.566   1.716   2.736 -0.9239  0.6676  0.5241
 8258SOL     OW36235   0.734   3.379   8.841  0.2892 -0.2691 -0.1432
 8258SOL    HW136236   0.668   3.423   8.788  0.3272  0.2271  0.2166
 8258SOL    HW236237   0.683   3.354   8.919 -0.2476 -0.9546 -0.7156
 8259SOL     OW36238   4.309   3.770   5.364 -0.1076  0.0917 -0.7167
 8259SOL    HW136239   4.330   3.812   5.448 -0.0986 -1.6212  0.1247
 8259SOL    HW236240   4.331   3.680   5.386  0.5475  0.1474 -1.1405
 8260SOL     OW36241   4.666   0.320   3.838  0.3502  0.2298  0.2380
 8260SOL    HW136242   4.578   0.332   3.802 -0.0580 -0.0714  1.1276
 8260SOL    HW236243   4.686   0.413   3.850  0.4565  0.2144  0.1808
 8261SOL     OW36244   1.219   0.747  10.108  0.0023 -0.2693 -0.0250
 8261SOL    HW136245   1.202   0.821  10.167  0.3224 -1.8361  2.0290
 8261SOL    HW236246   1.218   0.795  10.025  1.1884  1.0496  0.7242
 8262SOL     OW36247   2.780   3.237   4.770  0.0658  0.1962 -0.1400
 8262SOL    HW136248   2.702   3.230   4.716  0.0490 -0.0666 -0.0829
 8262SOL    HW236249   2.832   3.158   4.753  0.2477  0.5745 -1.3055
 8263SOL     OW36250   0.896   2.480  16.325  0.1703 -0.4549  0.0398
 8263SOL    HW136251   0.965   2.491  16.259  2.4534 -2.3736  2.1172
 8263SOL    HW236252   0.818   2.509  16.278  1.4047  0.6849 -1.3309
 8264SOL     OW36253   0.518   0.844   6.257  0.1177 -1.2104 -0.2847
 8264SOL    HW136254   0.506   0.939   6.267 -0.6930 -1.3786  0.2772
 8264SOL    HW236255   0.430   0.810   6.244 -0.4179 -0.5659  1.7192
 8265SOL     OW36256   1.147   1.198   9.186 -0.2493  0.4825  0.4239
 8265SOL    HW136257   1.187   1.137   9.124 -1.1682  2.5396 -2.1836
 8265SOL    HW236258   1.158   1.283   9.143  2.1450  0.8849  1.7863
 8266SOL     OW36259   2.165   3.471  16.635 -0.5920 -0.1812 -0.0871
 8266SOL    HW136260   2.253   3.486  16.601  0.4905 -0.9019  2.4611
 8266SOL    HW236261   2.174   3.529  16.711  0.0069  1.3229 -1.2949
 8267SOL     OW36262   1.716   4.703   3.089  0.9237 -0.0187  0.2927
 8267SOL    HW136263   1.645   4.653   3.048 -0.9793  1.0501  2.2875
 8267SOL    HW236264   1.697   4.675   3.179 -0.3277 -0.4391 -0.1027
 8268SOL     OW36265   3.701   1.926   3.935 -0.4647  0.2719 -0.1938
 8268SOL    HW136266   3.639   1.932   4.008  0.1870  2.2561  0.1920
 8268SOL    HW236267   3.779   1.974   3.963  2.3441 -3.2745 -1.9064
 8269SOL     OW36268   0.218   3.734   1.844 -0.2774 -0.2834  0.0805
 8269SOL    HW136269   0.270   3.779   1.777  0.9707  1.1395  2.0115
 8269SOL    HW236270   0.161   3.805   1.875 -0.5278 -0.5779  0.2963
 8270SOL     OW36271   4.671   0.686   9.054 -0.7625  0.1540 -0.2990
 8270SOL    HW136272   0.025   0.739   9.059 -0.7606 -0.0033  1.4505
 8270SOL    HW236273   4.627   0.719   8.975 -0.5995  1.2075  0.0518
 8271SOL     OW36274   3.074   0.001   6.149 -0.0439  0.0235  0.5599
 8271SOL    HW136275   3.115   4.709   6.064  1.0655  1.9731  0.7230
 8271SOL    HW236276   3.143   4.707   6.213  0.1825  0.4450  0.4402
 8272SOL     OW36277   1.756   2.334  16.027 -0.3680  0.1112 -0.8279
 8272SOL    HW136278   1.774   2.240  16.028 -2.8323 -0.3417  0.2631
 8272SOL    HW236279   1.844   2.371  16.020 -1.0371  1.9266  0.1480
 8273SOL     OW36280   0.420   4.595   3.584 -0.1821 -0.5367  0.4560
 8273SOL    HW136281   0.342   4.648   3.601 -0.4926 -1.3734  1.6202
 8273SOL    HW236282   0.441   4.617   3.493 -0.3620 -1.6456  0.1511
 8274SOL     OW36283   3.609   4.725   2.517 -0.0962 -0.2211  0.3178
 8274SOL    HW136284   3.573   4.653   2.569  2.7858 -2.3332 -0.5920
 8274SOL    HW236285   3.631   0.068   2.581 -2.8745  0.4355  0.5382
 8275SOL     OW36286   1.033   4.165   6.593  0.2979  0.3781  0.3380
 8275SOL    HW136287   0.949   4.174   6.637  0.3791  1.6313  0.2321
 8275SOL    HW236288   1.053   4.081   6.634 -2.7707 -0.1335  0.7413
 8276SOL     OW36289   3.171   2.813   9.919 -0.0450  0.0380  0.3303
 8276SOL    HW136290   3.089   2.851   9.890  0.4739  1.1421  0.3242
 8276SOL    HW236291   3.185   2.869   9.995  0.1599  2.3654 -1.4340
 8277SOL     OW36292   3.580   1.428  11.657 -0.2588 -0.8672  0.4884
 8277SOL    HW136293   3.641   1.469  11.719 -1.4251 -1.0256  1.7372
 8277SOL    HW236294   3.599   1.337  11.681 -0.4799  0.1656  4.7092
 8278SOL     OW36295   3.280   2.162  10.196  0.2170  0.3884 -0.0831
 8278SOL    HW136296   3.308   2.116  10.117  2.0737 -0.4158  1.0184
 8278SOL    HW236297   3.219   2.097  10.231  2.2054 -1.3451  0.1934
 8279SOL     OW36298   3.308   4.483  14.063 -0.0064 -0.1049  0.4015
 8279SOL    HW136299   3.230   4.538  14.057  0.0748  0.0575  0.8910
 8279SOL    HW236300   3.374   4.543  14.096  1.1906 -1.4835  0.5278
 8280SOL     OW36301   1.842   2.506   7.256 -0.8274 -0.7069  0.2018
 8280SOL    HW136302   1.933   2.492   7.230 -0.8463  0.0307 -0.2578
 8280SOL    HW236303   1.839   2.598   7.231 -1.0326 -0.4645  1.1301
 8281SOL     OW36304   1.640   0.374   7.122  0.7132  0.2460  0.2601
 8281SOL    HW136305   1.603   0.418   7.045  0.4278 -1.7137 -0.7144
 8281SOL    HW236306   1.561   0.340   7.164  1.6671  0.5953  2.3657
 8282SOL     OW36307   0.481   2.715   3.263  0.0710  0.7953  0.1517
 8282SOL    HW136308   0.558   2.675   3.222 -1.0531  0.3807 -1.5536
 8282SOL    HW236309   0.444   2.756   3.185  2.9014  0.6427 -1.3153
 8283SOL     OW36310   2.184   0.388   4.971  0.1919  0.6823  0.1670
 8283SOL    HW136311   2.185   0.378   4.876 -0.1772  0.2196  0.2133
 8283SOL    HW236312   2.276   0.412   4.980  0.2857 -0.1495  1.3806
 8284SOL     OW36313   2.995   1.536  11.411  0.1717  0.2926  0.3362
 8284SOL    HW136314   2.973   1.528  11.504 -2.2579  2.0465 -0.0992
 8284SOL    HW236315   3.037   1.621  11.421  1.0728 -0.2922  1.4968
 8285SOL     OW36316   0.824   4.582  12.752  0.1692 -0.1188  0.1560
 8285SOL    HW136317   0.775   4.620  12.679  1.4834  0.6970 -0.3121
 8285SOL    HW236318   0.751   4.564  12.812  1.0456 -2.7350  0.4168
 8286SOL     OW36319   0.264   1.735   8.690 -0.3837  0.1668  0.0540
 8286SOL    HW136320   0.293   1.686   8.766 -0.1919  1.9540  1.1378
 8286SOL    HW236321   0.335   1.720   8.628 -0.8958 -1.2012 -0.1935
 8287SOL     OW36322   1.939   4.050   7.096 -0.4216  0.3252  0.3878
 8287SOL    HW136323   1.852   4.048   7.136 -0.6610 -2.9785 -0.2988
 8287SOL    HW236324   1.928   4.096   7.013  0.0626 -2.0751 -1.0124
 8288SOL     OW36325   0.631   1.712   7.472 -0.4055  0.7088  0.0018
 8288SOL    HW136326   0.714   1.716   7.423  0.1915  1.2361  1.0685
 8288SOL    HW236327   0.577   1.753   7.404 -1.0844 -0.3358 -0.0937
 8289SOL     OW36328   1.843   2.537   6.196 -0.3048 -0.1326  0.1379
 8289SOL    HW136329   1.905   2.537   6.270  1.1351 -1.0084 -1.0785
 8289SOL    HW236330   1.792   2.615   6.217  0.5450  0.5264 -0.2695
 8290SOL     OW36331   1.146   3.828   1.806  0.0715  0.1284 -0.3343
 8290SOL    HW136332   1.163   3.866   1.720 -1.0968 -1.3945 -1.2326
 8290SOL    HW236333   1.173   3.900   1.863 -0.0850 -0.5692  0.6364
 8291SOL     OW36334   2.815   1.819  14.448 -0.0151  0.1641 -0.2927
 8291SOL    HW136335   2.855   1.735  14.427  0.4342  1.0863 -3.1512
 8291SOL    HW236336   2.890   1.856  14.495  1.0420 -0.6010 -1.3877
 8292SOL     OW36337   4.625   1.980   9.092  0.5446  0.1209 -1.3458
 8292SOL    HW136338   4.613   2.073   9.073 -0.0537  0.2298 -0.4763
 8292SOL    HW236339   4.569   1.970   9.169 -0.1743  2.4341 -1.5579
 8293SOL     OW36340   1.126   0.487   7.127  0.0892  0.1729 -0.1382
 8293SOL    HW136341   1.126   0.542   7.205 -0.0725  0.9711 -0.7073
 8293SOL    HW236342   1.094   0.553   7.066 -0.2723  1.1609  1.1169
 8294SOL     OW36343   1.013   1.156   0.289  0.2832 -0.1967 -0.1330
 8294SOL    HW136344   1.025   1.153   0.384 -0.0004  0.4493 -0.0778
 8294SOL    HW236345   1.078   1.219   0.260  1.7106 -2.2029 -1.2878
 8295SOL     OW36346   1.084   3.382   7.617  0.7072 -0.0309 -0.5610
 8295SOL    HW136347   1.156   3.363   7.558  0.6616 -1.2836 -0.2105
 8295SOL    HW236348   1.009   3.337   7.578  1.8383 -1.6425 -0.8892
 8296SOL     OW36349   2.807   3.087   3.523  0.0109 -0.3719 -0.6527
 8296SOL    HW136350   2.782   3.066   3.433  1.9260  1.3013 -1.5663
 8296SOL    HW236351   2.840   3.176   3.510 -1.4784  0.4265  0.9495
 8297SOL     OW36352   1.804   0.640   5.380 -0.3733 -0.3314  0.6502
 8297SOL    HW136353   1.719   0.638   5.425 -1.7202 -0.6221 -1.9184
 8297SOL    HW236354   1.785   0.676   5.293  1.2520  1.5423  1.0802
 8298SOL     OW36355   4.684   3.042  13.104 -0.3890  0.2015  0.0844
 8298SOL    HW136356   0.002   2.957  13.093 -0.8972 -0.3425  2.2434
 8298SOL    HW236357   0.033   3.101  13.097  1.0221 -1.4693  0.8464
 8299SOL     OW36358   1.128   3.206  12.354 -0.1421 -0.1373 -0.2195
 8299SOL    HW136359   1.116   3.244  12.441 -1.0017  0.4704 -0.6013
 8299SOL    HW236360   1.056   3.144  12.348  0.0384 -0.2608 -1.1884
 8300SOL     OW36361   1.928   0.159   6.687 -0.5605 -0.4161 -0.2857
 8300SOL    HW136362   1.906   0.074   6.648  0.0258 -1.1272  0.9153
 8300SOL    HW236363   1.960   0.123   6.770  0.4869  0.2724 -0.4009
 8301SOL     OW36364   2.722   3.679   2.364 -0.0261  0.2241 -0.5507
 8301SOL    HW136365   2.718   3.727   2.446  0.4734 -0.0454 -0.3657
 8301SOL    HW236366   2.628   3.680   2.347  0.2185  1.6070 -1.8288
 8302SOL     OW36367   0.603   3.227  12.515  0.2374 -0.0074  0.0989
 8302SOL    HW136368   0.531   3.183  12.469  0.1326  0.8101 -0.5164
 8302SOL    HW236369   0.601   3.318  12.488  1.0011 -0.2550 -0.7875
 8303SOL     OW36370   2.326   2.034   6.025  0.1028  0.6203  0.4855
 8303SOL    HW136371   2.240   2.071   6.045 -1.3209 -2.3306 -0.2214
 8303SOL    HW236372   2.315   1.944   6.058  0.5239  0.3268 -0.1809
 8304SOL     OW36373   1.884   2.697   3.825 -0.2900  0.5609  0.1784
 8304SOL    HW136374   1.844   2.662   3.745 -0.4722  3.4428 -0.9804
 8304SOL    HW236375   1.825   2.768   3.851  0.0526  1.1718 -0.7069
 8305SOL     OW36376   1.765   3.319   5.736  0.3442  0.5233 -0.1437
 8305SOL    HW136377   1.688   3.330   5.791 -0.0010  1.6067 -0.8491
 8305SOL    HW236378   1.801   3.407   5.748  0.5896  0.3078  0.6554
 8306SOL     OW36379   0.172   4.723   6.119 -0.3226 -0.8423 -0.1726
 8306SOL    HW136380   0.227   0.069   6.149  0.8855 -1.9966  0.3611
 8306SOL    HW236381   0.224   4.680   6.051 -0.1114  2.6192 -2.1915
 8307SOL     OW36382   1.518   1.449   8.019 -0.5515  0.3802  0.1986
 8307SOL    HW136383   1.575   1.378   8.046 -2.7646 -0.8041  1.8081
 8307SOL    HW236384   1.432   1.406   8.022  1.2830 -3.2366  0.0133
 8308SOL     OW36385   1.212   1.774   9.351 -0.0224 -0.1127 -0.4391
 8308SOL    HW136386   1.193   1.718   9.276  1.2617 -0.3499 -0.5940
 8308SOL    HW236387   1.121   1.798   9.370  0.0716 -0.1785  0.0892
 8309SOL     OW36388   2.246   1.657   7.628  0.3308 -0.2927 -0.2736
 8309SOL    HW136389   2.329   1.634   7.670 -0.8426  0.0770  2.2328
 8309SOL    HW236390   2.206   1.571   7.614 -1.0745  0.2840  0.1829
 8310SOL     OW36391   0.736   0.965   1.086  0.2207  0.2603  0.1554
 8310SOL    HW136392   0.735   0.900   1.016  1.5869  1.0815 -0.6221
 8310SOL    HW236393   0.823   0.951   1.123 -0.1595 -0.9947  0.6060
 8311SOL     OW36394   3.788   3.361   4.239  0.0315  0.1837  0.3613
 8311SOL    HW136395   3.797   3.362   4.334 -2.8030  2.3309  0.5845
 8311SOL    HW236396   3.715   3.300   4.228  0.5525  0.1330 -2.9774
 8312SOL     OW36397   1.266   2.937  11.691 -0.3321  0.0500  0.2626
 8312SOL    HW136398   1.270   2.897  11.604  1.0651  1.8286 -0.4976
 8312SOL    HW236399   1.196   2.998  11.664 -0.5232 -0.7898 -1.1131
 8313SOL     OW36400   0.567   2.473   7.833 -0.1924 -0.0050 -0.1438
 8313SOL    HW136401   0.545   2.427   7.752  0.7316 -1.3121  0.3371
 8313SOL    HW236402   0.646   2.427   7.864 -0.2093  0.6652  0.9191
 8314SOL     OW36403   4.289   0.740   6.626 -0.0735  0.0806 -0.1948
 8314SOL    HW136404   4.358   0.772   6.567 -1.2708  2.7169 -0.1860
 8314SOL    HW236405   4.254   0.673   6.568  0.3860 -0.6225  0.3354
 8315SOL     OW36406   4.701   3.832   6.380 -0.0135 -0.3713 -0.0157
 8315SOL    HW136407   4.667   3.811   6.293  1.5422 -0.3609 -0.6262
 8315SOL    HW236408   4.708   3.927   6.384  0.2332 -0.4479  1.1594
 8316SOL     OW36409   0.874   0.020   5.474  0.0710 -0.0428  0.2588
 8316SOL    HW136410   0.953   4.705   5.437  0.0220 -1.4649  1.7121
 8316SOL    HW236411   0.896   0.112   5.459  0.7655 -0.0563  1.1849
 8317SOL     OW36412   3.876   1.345   1.765  0.6086  0.1889  0.5401
 8317SOL    HW136413   3.824   1.414   1.724 -0.9405 -1.4833 -0.2875
 8317SOL    HW236414   3.899   1.386   1.849 -0.5204 -0.5347  1.1948
 8318SOL     OW36415   2.902   1.167   7.587 -0.1990  0.0075  0.0895
 8318SOL    HW136416   2.835   1.119   7.540 -1.3823  1.6634  0.0902
 8318SOL    HW236417   2.965   1.185   7.517  0.3030 -2.3893 -0.0658
 8319SOL     OW36418   2.761   4.439   5.338  0.0320 -0.0478  0.0397
 8319SOL    HW136419   2.786   4.525   5.306 -2.3455  0.0853 -1.5112
 8319SOL    HW236420   2.667   4.441   5.319 -0.2596 -0.2656  1.4328
 8320SOL     OW36421   4.244   4.135  14.811 -0.1080  0.1387 -0.0326
 8320SOL    HW136422   4.217   4.199  14.745  1.1798 -1.1437 -1.7875
 8320SOL    HW236423   4.180   4.064  14.808 -0.1749  0.1766  0.4125
 8321SOL     OW36424   3.809   3.867   6.521 -0.0282  0.0892  0.6992
 8321SOL    HW136425   3.870   3.898   6.454 -0.2696  2.6775  1.6666
 8321SOL    HW236426   3.731   3.888   6.469 -0.8911 -0.9588  1.5933
 8322SOL     OW36427   4.672   2.144   6.597 -0.4935 -0.2726 -0.1868
 8322SOL    HW136428   4.623   2.213   6.553 -2.2853  0.2318  2.5757
 8322SOL    HW236429   4.667   2.170   6.690 -0.7725 -2.6237  0.4573
 8323SOL     OW36430   2.878   0.699   2.515  0.6889 -0.0366 -0.3220
 8323SOL    HW136431   2.951   0.637   2.512  0.9831  0.2042  2.0060
 8323SOL    HW236432   2.889   0.713   2.609 -0.4705  1.4954 -0.4192
 8324SOL     OW36433   1.761   3.588   5.757 -0.0162  0.1248  0.1311
 8324SOL    HW136434   1.676   3.605   5.716 -0.0167  1.5093  0.7163
 8324SOL    HW236435   1.759   3.660   5.819 -1.3754 -2.4076  2.9890
 8325SOL     OW36436   4.636   4.683   5.522 -0.2506  0.1490 -0.3589
 8325SOL    HW136437   4.696   4.619   5.484  0.3256 -0.7993  2.1048
 8325SOL    HW236438   4.691   0.012   5.579  0.0715 -0.5897  0.0388
 8326SOL     OW36439   1.081   3.840   8.652 -0.4551  0.5168 -0.2605
 8326SOL    HW136440   1.060   3.798   8.735 -0.9467 -0.6917 -0.9985
 8326SOL    HW236441   0.995   3.829   8.610 -1.8622 -0.5873  2.8985
 8327SOL     OW36442   3.336   4.141   5.935 -0.2427 -0.2663  0.4100
 8327SOL    HW136443   3.414   4.195   5.944 -0.0746 -0.3984 -0.2513
 8327SOL    HW236444   3.351   4.097   5.852 -1.8747  0.4496 -0.2772
 8328SOL     OW36445   3.574   1.760   7.049  0.3834  0.1677 -0.3288
 8328SOL    HW136446   3.548   1.828   6.986 -1.3505 -0.8025 -0.6840
 8328SOL    HW236447   3.519   1.688   7.018  0.2421  0.2798 -0.3385
 8329SOL     OW36448   3.684   4.700   4.508 -0.0128 -0.3547  0.1373
 8329SOL    HW136449   3.645   0.045   4.561 -1.4447 -2.2606  1.5933
 8329SOL    HW236450   3.641   4.622   4.542 -1.8827  0.6884  0.1774
 8330SOL     OW36451   0.739   4.483   7.154 -0.5202  0.7605 -0.5034
 8330SOL    HW136452   0.768   4.547   7.088 -1.8501  0.8600 -0.9901
 8330SOL    HW236453   0.775   4.527   7.231  2.6024 -1.8864 -0.4206
 8331SOL     OW36454   1.257   3.212   6.468 -0.0169 -0.3058 -0.3864
 8331SOL    HW136455   1.178   3.231   6.518  1.3127  2.0081  0.8222
 8331SOL    HW236456   1.229   3.125   6.437  3.1628 -1.8112  0.9915
 8332SOL     OW36457   3.516   0.221   7.051  0.3291 -0.2555  0.1228
 8332SOL    HW136458   3.498   0.307   7.087 -0.9189 -0.8454  0.8861
 8332SOL    HW236459   3.538   0.172   7.130  2.2796  3.3318  1.8089
 8333SOL     OW36460   1.567   3.238   7.910  0.2083  0.0384 -0.4605
 8333SOL    HW136461   1.607   3.284   7.984  0.7952  1.0310 -1.3992
 8333SOL    HW236462   1.589   3.308   7.848  1.4670 -0.2417 -0.3296
 8334SOL     OW36463   0.701   0.143   1.074  0.2598 -0.0618 -0.0996
 8334SOL    HW136464   0.770   0.088   1.036 -0.2639 -1.2817  0.7073
 8334SOL    HW236465   0.656   0.180   0.998 -0.3324  1.5189  1.0259
 8335SOL     OW36466   4.369   2.234  12.018  0.3301 -0.7182 -0.2310
 8335SOL    HW136467   4.448   2.247  11.966 -0.2063  0.3583 -0.7783
 8335SOL    HW236468   4.300   2.221  11.953 -0.4095  0.5954  0.3023
 8336SOL     OW36469   0.264   2.794   4.251 -0.2163  0.3816 -0.0326
 8336SOL    HW136470   0.246   2.857   4.181 -0.9851 -0.7260 -0.8336
 8336SOL    HW236471   0.221   2.714   4.219 -0.1610  1.1259 -1.9886
 8337SOL     OW36472   2.302   3.592   3.557  0.2904 -0.2452 -0.4922
 8337SOL    HW136473   2.307   3.686   3.576 -3.3367 -0.1397 -0.0333
 8337SOL    HW236474   2.237   3.568   3.622  0.7467 -0.1315  0.0060
 8338SOL     OW36475   3.292   2.401   7.422  0.2176 -0.3063  0.3295
 8338SOL    HW136476   3.245   2.460   7.363 -0.1854  0.3930  1.3667
 8338SOL    HW236477   3.349   2.463   7.467 -0.3718  1.1396 -0.9390
 8339SOL     OW36478   3.805   2.310  14.886 -0.1819 -0.6621  0.3928
 8339SOL    HW136479   3.871   2.309  14.817  0.6573 -0.0213  1.1835
 8339SOL    HW236480   3.862   2.319  14.962  0.7103 -1.3218 -0.1994
 8340SOL     OW36481   0.658   4.588   5.579 -0.0603  0.4325 -0.5808
 8340SOL    HW136482   0.678   4.594   5.673  0.3950  0.4059 -0.6740
 8340SOL    HW236483   0.721   4.651   5.544  0.5762  0.5015  0.6721
 8341SOL     OW36484   2.568   2.029   7.687  0.1246  0.2807  0.0318
 8341SOL    HW136485   2.557   1.981   7.605 -0.7160  0.0633  0.2718
 8341SOL    HW236486   2.662   2.011   7.694  0.5507  2.4020 -0.2029
 8342SOL     OW36487   0.265   2.713  13.223 -0.5142  0.6774 -0.2045
 8342SOL    HW136488   0.297   2.627  13.195 -1.7490  0.1775 -0.0614
 8342SOL    HW236489   0.263   2.749  13.134  0.8960  1.2592 -0.0021
 8343SOL     OW36490   2.677   2.870   5.350  0.4958 -0.5299  0.1192
 8343SOL    HW136491   2.619   2.890   5.277  1.6114  0.9852 -0.3480
 8343SOL    HW236492   2.760   2.912   5.326  0.0529 -0.3437 -1.0523
 8344SOL     OW36493   3.344   1.084   6.863 -0.0557  0.1025 -0.2052
 8344SOL    HW136494   3.335   1.066   6.769 -0.0510 -3.2174  0.4248
 8344SOL    HW236495   3.434   1.109   6.880 -0.9724  1.7333  2.2710
 8345SOL     OW36496   2.118   3.007   7.240  0.4163  0.0721  0.1916
 8345SOL    HW136497   2.190   2.979   7.185  0.3281 -1.6856  0.9903
 8345SOL    HW236498   2.076   2.921   7.249 -1.9912  1.0497 -1.5778
 8346SOL     OW36499   3.019   4.276   5.999 -0.4843  0.6481 -0.3235
 8346SOL    HW136500   2.990   4.247   5.912  0.0664 -1.5933  0.2373
 8346SOL    HW236501   3.094   4.219   6.014 -1.2316  0.0212  0.9813
 8347SOL     OW36502   0.386   3.617  12.413 -0.0922  0.0628  0.1048
 8347SOL    HW136503   0.399   3.712  12.414  0.1658  0.0255  0.9826
 8347SOL    HW236504   0.299   3.618  12.373  0.5872  0.1351 -1.3534
 8348SOL     OW36505   0.879   3.810   2.812  0.2021 -0.3095 -0.2176
 8348SOL    HW136506   0.896   3.718   2.794  2.3883  0.0485 -0.1030
 8348SOL    HW236507   0.940   3.821   2.885 -2.2309 -0.6681  1.8163
 8349SOL     OW36508   3.097   2.518   4.712  0.1572 -0.7010 -0.0901
 8349SOL    HW136509   3.134   2.479   4.791  1.4947 -0.2228 -0.4779
 8349SOL    HW236510   3.012   2.550   4.742  1.3251  1.6548  0.7352
 8350SOL     OW36511   4.430   1.375   4.456 -1.0940 -0.3294 -0.0753
 8350SOL    HW136512   4.525   1.361   4.460 -0.4296  3.7919 -2.0691
 8350SOL    HW236513   4.407   1.343   4.544 -2.6719 -0.7803 -0.6474
 8351SOL     OW36514   1.927   1.476   2.309 -0.3280  1.1771  0.1510
 8351SOL    HW136515   1.895   1.453   2.397  1.0093 -0.1492  0.2856
 8351SOL    HW236516   1.856   1.518   2.260 -0.9603 -0.0650  0.0038
 8352SOL     OW36517   2.737   1.160   0.113  0.4331  0.2032 -0.2960
 8352SOL    HW136518   2.641   1.161   0.111  0.4825  3.1685 -0.9395
 8352SOL    HW236519   2.758   1.152   0.020  1.6608 -1.1391  0.0939
 8353SOL     OW36520   0.132   3.346  14.379  0.7202  0.6611  0.2270
 8353SOL    HW136521   0.098   3.427  14.343  0.6231  0.9230  0.9060
 8353SOL    HW236522   0.114   3.359  14.473 -0.8901  0.8456 -0.1037
 8354SOL     OW36523   4.476   3.361   0.222  0.7297 -0.0082  0.1482
 8354SOL    HW136524   4.508   3.273   0.204  0.6205 -0.2995  1.4511
 8354SOL    HW236525   4.562   3.402   0.235  0.6093 -0.2022  1.5197
 8355SOL     OW36526   0.337   0.858  15.533 -0.3909  0.2323  0.0822
 8355SOL    HW136527   0.401   0.801  15.491 -0.5210 -0.2689  0.5576
 8355SOL    HW236528   0.368   0.946  15.512 -1.3239 -0.0913 -2.5834
 8356SOL     OW36529   2.126   4.451   4.358 -0.7595  0.1982  0.2117
 8356SOL    HW136530   2.150   4.398   4.281 -0.8042  0.9579 -0.3261
 8356SOL    HW236531   2.086   4.527   4.317 -2.7909 -1.4036 -0.7397
 8357SOL     OW36532   0.900   2.799   3.987 -0.3572  0.5058 -0.1413
 8357SOL    HW136533   0.946   2.857   3.927  0.1609  1.9259  1.6015
 8357SOL    HW236534   0.842   2.753   3.927  2.3069  0.1329 -2.4210
 8358SOL     OW36535   0.404   1.475  17.515  0.1589  0.2913  0.4820
 8358SOL    HW136536   0.498   1.463  17.506 -0.0210 -0.7552 -0.0432
 8358SOL    HW236537   0.392   1.446  17.424  2.6354  0.4409  0.1172
 8359SOL     OW36538   0.347   3.691   7.856  0.3958 -0.4771  0.0120
 8359SOL    HW136539   0.426   3.638   7.848  1.2515  0.4698  2.2968
 8359SOL    HW236540   0.363   3.763   7.795 -1.3160  1.6651  2.0696
 8360SOL     OW36541   1.612   4.471   8.356 -0.0111 -0.1331 -0.3789
 8360SOL    HW136542   1.563   4.549   8.384  0.2593  0.3613 -1.2940
 8360SOL    HW236543   1.539   4.409   8.356 -0.4655  0.3604  2.3784
 8361SOL     OW36544   1.611   3.952   7.725  0.1144  0.3536 -0.7986
 8361SOL    HW136545   1.527   3.937   7.769  0.9742  0.3803  0.8746
 8361SOL    HW236546   1.608   3.888   7.654  0.7108 -1.2539  0.6273
 8362SOL     OW36547   3.429   4.454   5.980  0.4413 -0.3528 -0.3714
 8362SOL    HW136548   3.374   4.375   5.984  0.1247 -0.0853  0.5009
 8362SOL    HW236549   3.417   4.500   6.063 -1.3865 -1.0168 -0.2580
 8363SOL     OW36550   1.000   0.452   8.302  0.3084 -0.0124  0.9414
 8363SOL    HW136551   0.906   0.435   8.295  0.3888 -0.1028  0.0452
 8363SOL    HW236552   1.016   0.439   8.208  1.1850  0.4800  1.0236
 8364SOL     OW36553   1.015   0.131   8.663 -0.1190 -0.0718 -0.1531
 8364SOL    HW136554   0.952   0.157   8.731  0.4980  0.2732  0.2910
 8364SOL    HW236555   1.044   0.042   8.686 -1.1152 -0.5807 -0.9065
 8365SOL     OW36556   1.254   0.337   8.712 -0.0980 -0.1399  0.2572
 8365SOL    HW136557   1.179   0.283   8.688 -1.5686  1.1031  2.0659
 8365SOL    HW236558   1.250   0.347   8.807  0.5180 -0.8391  0.3591
 8366SOL     OW36559   0.104   1.927  10.446  0.3763 -0.3154  0.4639
 8366SOL    HW136560   0.057   1.963  10.371  2.6633  1.1749 -0.2609
 8366SOL    HW236561   0.133   2.011  10.483 -0.8128  0.2055  0.1919
 8367SOL     OW36562   2.886   3.763   7.260 -0.2399 -0.2020  0.1178
 8367SOL    HW136563   2.795   3.737   7.249 -0.5078  1.4250 -1.5078
 8367SOL    HW236564   2.885   3.785   7.353  1.8264 -0.6260  0.2464
 8368SOL     OW36565   1.704   4.565  12.821 -0.0271 -0.3904  0.5271
 8368SOL    HW136566   1.779   4.510  12.846 -0.0939 -0.1906  1.1693
 8368SOL    HW236567   1.742   4.653  12.820 -1.9402  0.4264  1.0793
 8369SOL     OW36568   0.741   1.787   2.586 -0.2763  0.1245 -0.6454
 8369SOL    HW136569   0.764   1.880   2.593 -2.7307  0.9628 -3.5855
 8369SOL    HW236570   0.827   1.755   2.559  0.2167  0.7125  0.2087
 8370SOL     OW36571   0.771   3.255   8.314 -0.1611 -0.0486 -0.3849
 8370SOL    HW136572   0.727   3.236   8.397 -1.1901 -0.0068 -0.9277
 8370SOL    HW236573   0.750   3.347   8.302 -0.2798 -0.3380 -2.2834
 8371SOL     OW36574   2.056   2.251   1.071 -0.1904 -0.1017  0.0629
 8371SOL    HW136575   2.015   2.198   1.002  0.2713 -0.1481 -0.1760
 8371SOL    HW236576   2.024   2.336   1.039  0.6704  0.2275  0.0875
 8372SOL     OW36577   4.241   0.359   7.981 -0.1303 -0.1070 -0.5604
 8372SOL    HW136578   4.238   0.265   7.996  1.5600 -0.0320  0.1883
 8372SOL    HW236579   4.160   0.385   8.026  0.7961 -0.5482  1.3354
 8373SOL     OW36580   2.203   2.468   5.410 -0.1931  0.0972 -0.4843
 8373SOL    HW136581   2.257   2.541   5.380 -0.7823  0.1486 -1.4199
 8373SOL    HW236582   2.252   2.387   5.405 -1.4013 -0.5071 -2.3933
 8374SOL     OW36583   3.109   3.377   6.300  0.3624  0.2499  0.1670
 8374SOL    HW136584   3.028   3.429   6.310  0.1366 -0.5249  2.3647
 8374SOL    HW236585   3.168   3.417   6.364  2.0196 -1.4192 -0.3261
 8375SOL     OW36586   2.051   0.190  11.964 -0.0613  0.0056  0.1030
 8375SOL    HW136587   2.064   0.118  12.026  2.4867 -0.4117 -0.9080
 8375SOL    HW236588   2.093   0.147  11.889  0.3356  0.8350 -0.1484
 8376SOL     OW36589   0.417   3.838  11.780  0.4729  0.4687 -0.7974
 8376SOL    HW136590   0.501   3.847  11.825 -0.5570  0.4960  1.1141
 8376SOL    HW236591   0.399   3.929  11.761  1.2647  0.9499  0.7429
 8377SOL     OW36592   3.027   2.812  16.662 -0.0869 -0.3664 -0.3020
 8377SOL    HW136593   2.984   2.747  16.717  0.6169 -0.5857 -0.0142
 8377SOL    HW236594   2.971   2.888  16.675  0.7742  0.0338  1.0419
 8378SOL     OW36595   3.849   3.198   3.788  0.2703  0.2235  0.1015
 8378SOL    HW136596   3.901   3.276   3.768  0.1056  0.1136 -0.7505
 8378SOL    HW236597   3.765   3.220   3.749 -0.9994  1.7950  3.7255
 8379SOL     OW36598   3.942   0.457   1.309  0.2333  0.1222  0.0552
 8379SOL    HW136599   3.875   0.389   1.298  0.6837 -0.0880 -1.2946
 8379SOL    HW236600   3.894   0.532   1.274  0.5343  0.5525  0.5661
 8380SOL     OW36601   1.806   0.846  17.528  0.3826 -0.4706  0.2161
 8380SOL    HW136602   1.838   0.890  17.450 -1.4848  0.5560  0.0340
 8380SOL    HW236603   1.837   0.756  17.519  0.9112 -0.5979  3.4591
 8381SOL     OW36604   3.587   3.544   8.019 -0.4487 -0.2714 -0.6555
 8381SOL    HW136605   3.655   3.602   7.987 -0.5931 -0.2792 -0.9828
 8381SOL    HW236606   3.631   3.501   8.092 -0.9164 -1.1396 -0.8792
 8382SOL     OW36607   2.597   4.580  17.514 -0.8943  0.3507 -0.3251
 8382SOL    HW136608   2.619   4.487  17.507 -1.5829  0.1796 -0.2523
 8382SOL    HW236609   2.612   4.604  17.605  0.6045  2.0875 -1.0389
 8383SOL     OW36610   1.578   0.369  15.302  0.2821 -0.1720  0.1609
 8383SOL    HW136611   1.542   0.399  15.219  0.8889  1.9790  0.6762
 8383SOL    HW236612   1.501   0.369  15.360 -0.2346  2.5922 -0.5284
 8384SOL     OW36613   1.279   2.095  17.436 -0.4860  0.3974 -0.7670
 8384SOL    HW136614   1.284   2.054  17.522  0.0866  0.7166 -0.6479
 8384SOL    HW236615   1.347   2.162  17.427  0.9995 -0.9263  0.7381
 8385SOL     OW36616   4.684   1.958   6.856  0.1756  0.1223  0.5245
 8385SOL    HW136617   0.037   1.952   6.802 -1.0766  3.2748 -1.5802
 8385SOL    HW236618   4.644   1.872   6.870 -1.9273  0.8886 -0.8194
 8386SOL     OW36619   1.023   2.779   8.041  0.4297  0.2249  0.3505
 8386SOL    HW136620   1.103   2.794   7.991 -0.4945  1.2291 -0.8120
 8386SOL    HW236621   1.022   2.689   8.075  2.6414 -1.0932 -3.0807
 8387SOL     OW36622   2.076   4.293   0.630 -0.0628 -0.0942  0.1373
 8387SOL    HW136623   2.072   4.389   0.623 -0.3463 -0.1184 -0.0484
 8387SOL    HW236624   2.040   4.273   0.544 -2.7598  0.8504  1.0364
 8388SOL     OW36625   4.480   1.685   7.752  0.4981 -0.3317 -0.5594
 8388SOL    HW136626   4.530   1.690   7.671 -0.8015  0.6066 -1.3056
 8388SOL    HW236627   4.549   1.662   7.815 -0.7463 -2.8091 -0.0667
 8389SOL     OW36628   3.297   0.349   0.104 -0.4039 -0.3244  0.3973
 8389SOL    HW136629   3.207   0.371   0.125 -0.2178  0.5518  0.2981
 8389SOL    HW236630   3.333   0.321   0.188  0.8207  0.7267  0.2330
 8390SOL     OW36631   0.351   0.052   4.831 -0.1646  0.2067 -0.0591
 8390SOL    HW136632   0.391   0.044   4.918  0.3507 -1.0671 -0.4229
 8390SOL    HW236633   0.355   4.690   4.793  2.7251  0.5707 -0.5633
 8391SOL     OW36634   4.030   3.414   3.742 -1.0534 -0.1002  0.1952
 8391SOL    HW136635   4.064   3.500   3.715 -0.6403 -1.0897 -2.4472
 8391SOL    HW236636   4.030   3.376   3.654 -0.1772  1.7636 -0.6137
 8392SOL     OW36637   1.809   3.832   9.062  0.4730  0.2844 -0.6803
 8392SOL    HW136638   1.849   3.778   8.994 -0.1102 -1.7864  0.6259
 8392SOL    HW236639   1.753   3.896   9.019 -0.0324  0.9387  0.9650
 8393SOL     OW36640   1.135   3.444  12.969 -0.1071 -0.3215 -0.3065
 8393SOL    HW136641   1.044   3.446  12.938  0.1470  0.7427 -0.9779
 8393SOL    HW236642   1.138   3.373  13.033  1.2137  0.7976  0.8758
 8394SOL     OW36643   0.713   1.885  15.136  0.2714 -0.2621  0.6864
 8394SOL    HW136644   0.772   1.853  15.205  2.3182 -0.2179 -1.0370
 8394SOL    HW236645   0.649   1.926  15.194  1.2491  0.9676  0.8893
 8395SOL     OW36646   3.233   2.141   1.449 -0.2903 -0.1226 -0.7247
 8395SOL    HW136647   3.297   2.197   1.493 -0.0609  0.2148 -1.4880
 8395SOL    HW236648   3.182   2.200   1.393 -2.6891  1.4421  3.1340
 8396SOL     OW36649   4.011   1.488   9.431  0.0124 -0.1134  0.0199
 8396SOL    HW136650   3.979   1.457   9.346 -1.5983  0.9962  0.2065
 8396SOL    HW236651   4.098   1.517   9.406 -0.8451  0.2989 -2.4305
 8397SOL     OW36652   1.925   4.425   2.179  0.0109 -0.4870  0.0754
 8397SOL    HW136653   1.961   4.476   2.107 -2.1182  0.0009 -0.6227
 8397SOL    HW236654   1.999   4.408   2.238 -0.7538  0.7778  1.4066
 8398SOL     OW36655   0.678   0.657  14.488 -0.0590 -0.4861  0.5529
 8398SOL    HW136656   0.637   0.740  14.462  0.0976 -0.9627 -1.2515
 8398SOL    HW236657   0.602   0.598  14.495 -1.0663  1.0030  1.9903
 8399SOL     OW36658   3.211   0.929   5.007  0.2405 -0.1212  0.7566
 8399SOL    HW136659   3.290   0.978   5.030  0.3094  0.6116 -1.0309
 8399SOL    HW236660   3.140   0.994   4.998  0.1519 -0.4379 -0.9653
 8400SOL     OW36661   2.232   0.672   4.322 -0.2795  0.1817  0.4996
 8400SOL    HW136662   2.287   0.594   4.312 -0.9715 -0.1495 -0.6758
 8400SOL    HW236663   2.266   0.696   4.408 -0.9846  0.2103  0.7656
 8401SOL     OW36664   3.706   0.588   6.232  0.1704 -0.1746  0.5882
 8401SOL    HW136665   3.651   0.629   6.166  3.3441  2.2536 -0.5891
 8401SOL    HW236666   3.638   0.545   6.283  1.0811 -0.7245  1.3380
 8402SOL     OW36667   2.778   3.888  16.255 -0.0660 -0.2985  0.2458
 8402SOL    HW136668   2.769   3.823  16.185 -3.1833 -0.5105  0.8615
 8402SOL    HW236669   2.773   3.974  16.213 -0.5671  0.7922  2.5489
 8403SOL     OW36670   0.172   3.062   7.460 -0.8734  0.2055 -0.1311
 8403SOL    HW136671   0.242   3.067   7.526 -0.2566 -0.4477 -0.7340
 8403SOL    HW236672   0.097   3.085   7.514  0.0095 -0.8934  1.5620
 8404SOL     OW36673   3.773   1.538  10.687 -0.2316 -0.1773  0.0977
 8404SOL    HW136674   3.791   1.631  10.704 -1.2502 -0.0460  0.4113
 8404SOL    HW236675   3.756   1.545  10.593  1.8965 -0.5811 -0.3387
 8405SOL     OW36676   3.163   1.727   6.740  0.1472 -1.0744  0.3037
 8405SOL    HW136677   3.121   1.707   6.657  0.6287 -2.4479  0.3921
 8405SOL    HW236678   3.208   1.645   6.762  1.9679 -0.8330 -2.4222
 8406SOL     OW36679   0.237   4.557   3.991 -0.6219  0.3571  0.3614
 8406SOL    HW136680   0.189   4.574   3.911 -1.0862 -0.8498  0.3822
 8406SOL    HW236681   0.263   4.641   4.029 -1.2317  0.1046  1.3405
 8407SOL     OW36682   2.752   1.272   8.366 -0.2018  0.1310 -0.2580
 8407SOL    HW136683   2.792   1.337   8.308  0.8270  1.2481  1.7095
 8407SOL    HW236684   2.771   1.299   8.456 -0.8615  1.6387 -0.5858
 8408SOL     OW36685   4.042   2.144   1.676 -0.5191  0.4200  0.8176
 8408SOL    HW136686   4.060   2.059   1.636 -0.0926  0.1978  1.4698
 8408SOL    HW236687   3.978   2.178   1.613 -0.1201  0.4422  0.4327
 8409SOL     OW36688   1.571   0.882  17.687 -0.6508  0.4955 -0.1868
 8409SOL    HW136689   1.648   0.851  17.640 -0.4004  2.3500 -0.9683
 8409SOL    HW236690   1.504   0.880  17.618 -3.2442  1.8062  2.2696
 8410SOL     OW36691   1.511   1.700   0.695  0.4744 -0.1214 -0.7478
 8410SOL    HW136692   1.550   1.778   0.734  0.1220 -1.1100  1.5877
 8410SOL    HW236693   1.576   1.634   0.720  1.2236  1.8351  2.4249
 8411SOL     OW36694   4.495   3.813  14.080 -0.1597 -0.1260  0.2556
 8411SOL    HW136695   4.444   3.891  14.059  0.9134  0.1382 -1.3386
 8411SOL    HW236696   4.584   3.844  14.064  0.0499  0.1217  1.8578
 8412SOL     OW36697   1.935   4.519  17.213 -0.3244  0.0283 -0.1299
 8412SOL    HW136698   1.849   4.487  17.184 -1.4348  1.7046  1.2911
 8412SOL    HW236699   1.949   4.465  17.290  0.6267  0.4194 -0.0329
 8413SOL     OW36700   1.517   2.453  16.321 -0.1692 -0.3067 -0.4279
 8413SOL    HW136701   1.469   2.535  16.324 -2.2727 -1.6890  3.9047
 8413SOL    HW236702   1.516   2.431  16.227  1.9642  2.4012 -1.0957
 8414SOL     OW36703   3.100   3.217   7.264  0.6137 -0.1453  0.1585
 8414SOL    HW136704   3.057   3.298   7.234  0.0397 -0.0302  1.3067
 8414SOL    HW236705   3.176   3.213   7.206  0.3558 -0.5073 -0.1502
 8415SOL     OW36706   4.342   2.724   7.343  0.0464  0.0955  1.1838
 8415SOL    HW136707   4.343   2.643   7.393  0.4370 -1.6898 -1.7060
 8415SOL    HW236708   4.432   2.732   7.313  0.6915  1.3100  3.4341
 8416SOL     OW36709   1.965   3.445   8.778 -0.1290 -0.1747  0.4629
 8416SOL    HW136710   1.918   3.366   8.755  1.7313 -1.3819  0.8344
 8416SOL    HW236711   1.979   3.428   8.871  0.3371 -0.2197  0.3859
 8417SOL     OW36712   3.151   2.454   6.162 -0.2708  0.1896  0.5654
 8417SOL    HW136713   3.218   2.477   6.227  1.0535 -1.0580 -0.3345
 8417SOL    HW236714   3.115   2.378   6.207  1.2186 -0.1554  1.1867
 8418SOL     OW36715   2.192   3.873   4.413 -0.5039  0.5995 -0.3165
 8418SOL    HW136716   2.155   3.952   4.452  2.2439  1.9703 -0.4909
 8418SOL    HW236717   2.195   3.898   4.320  0.8789 -0.8464 -0.6742
 8419SOL     OW36718   2.142   2.886   7.984 -0.0701 -0.2606 -0.2839
 8419SOL    HW136719   2.188   2.955   7.936 -0.0789 -0.4142 -0.5097
 8419SOL    HW236720   2.164   2.807   7.935  0.7881 -0.6712  0.7648
 8420SOL     OW36721   3.253   0.834   5.932  0.0483  0.1392 -0.0974
 8420SOL    HW136722   3.231   0.765   5.995  0.6002  0.8188  0.8410
 8420SOL    HW236723   3.162   0.852   5.908 -0.2312 -1.8865 -0.5491
 8421SOL     OW36724   4.406   4.356   2.765  0.0074  0.2462  0.1992
 8421SOL    HW136725   4.449   4.391   2.687  1.2996 -0.5332  0.5683
 8421SOL    HW236726   4.444   4.269   2.763  1.7145  1.0021  0.1174
 8422SOL     OW36727   3.621   4.067   3.011  0.6105  0.8076  0.2175
 8422SOL    HW136728   3.636   3.976   2.987  1.4273  0.6129  1.4582
 8422SOL    HW236729   3.697   4.100   2.965 -0.8783  1.4675 -1.7750
 8423SOL     OW36730   3.114   2.963   9.519 -0.3054  0.2345 -0.6122
 8423SOL    HW136731   3.185   2.914   9.561 -0.2414  0.6015 -0.2941
 8423SOL    HW236732   3.064   2.883   9.501  0.0034  0.4228 -2.2820
 8424SOL     OW36733   0.128   0.622   0.658 -0.0362  0.5548 -0.2748
 8424SOL    HW136734   0.044   0.642   0.615  0.3043  1.1014 -0.6827
 8424SOL    HW236735   0.164   0.710   0.645 -0.2050  0.2543 -2.6628
 8425SOL     OW36736   2.782   1.394   4.365 -0.3551  0.4833  0.1977
 8425SOL    HW136737   2.736   1.392   4.281  0.3535  2.1707 -0.2544
 8425SOL    HW236738   2.744   1.476   4.396 -0.5139  0.1752  0.8146
 8426SOL     OW36739   0.263   4.369  13.026 -0.0935 -0.8707  0.2012
 8426SOL    HW136740   0.220   4.322  13.098  0.2213 -2.4962 -0.6841
 8426SOL    HW236741   0.335   4.413  13.072  1.0141 -1.2107 -1.2097
 8427SOL     OW36742   3.315   3.942   6.774  0.1375  0.3664 -0.4353
 8427SOL    HW136743   3.353   4.001   6.709  1.7117  1.0641  1.1236
 8427SOL    HW236744   3.355   3.966   6.858 -2.7173 -0.5483  1.1673
 8428SOL     OW36745   4.648   1.462  11.537 -0.1872 -0.6082  0.8165
 8428SOL    HW136746   4.665   1.556  11.538 -0.9832 -0.4547 -0.4294
 8428SOL    HW236747   4.559   1.459  11.503  0.3666  1.8576 -0.8655
 8429SOL     OW36748   4.483   3.706   1.299 -0.3724  0.0206 -0.3762
 8429SOL    HW136749   4.508   3.651   1.225  0.5130  0.5213 -0.4504
 8429SOL    HW236750   4.490   3.635   1.362 -1.0740 -0.4228 -0.7899
 8430SOL     OW36751   0.286   2.518  16.003  0.2666  0.2341 -0.0286
 8430SOL    HW136752   0.290   2.598  15.952 -0.7339  0.5053  0.3264
 8430SOL    HW236753   0.224   2.543  16.071 -0.9976 -1.8835 -0.3946
 8431SOL     OW36754   2.965   2.026  12.986 -0.5107  0.7611  0.0526
 8431SOL    HW136755   2.945   2.111  12.948  1.0225  1.5835  1.0961
 8431SOL    HW236756   3.057   2.005  12.971 -0.3655  0.9903  0.6324
 8432SOL     OW36757   3.842   0.432  10.778 -0.0914  0.9619 -0.1580
 8432SOL    HW136758   3.755   0.416  10.815 -0.1346  2.8760  0.5650
 8432SOL    HW236759   3.890   0.464  10.854 -2.3934  2.7602  0.5351
 8433SOL     OW36760   3.144   3.710   4.135 -0.1845  0.0308  0.0362
 8433SOL    HW136761   3.239   3.710   4.141 -0.4541 -0.0120  4.1164
 8433SOL    HW236762   3.119   3.786   4.083  1.0101  0.4470  0.0764
 8434SOL     OW36763   1.114   0.195   8.410  0.2855 -0.0095 -0.3903
 8434SOL    HW136764   1.093   0.288   8.410  0.3366  0.0013  0.9036
 8434SOL    HW236765   1.089   0.169   8.499 -0.3854 -1.6751 -1.0657
 8435SOL     OW36766   4.149   0.365   7.367  0.1693 -0.3345 -0.3721
 8435SOL    HW136767   4.183   0.368   7.457 -2.5218 -1.1501  0.6754
 8435SOL    HW236768   4.233   0.372   7.322  0.6670 -1.3266  0.3949
 8436SOL     OW36769   2.676   0.315   1.802  0.2352  0.0470 -0.1944
 8436SOL    HW136770   2.665   0.363   1.884  1.7848 -1.9054  1.1585
 8436SOL    HW236771   2.606   0.250   1.798 -0.3001  0.8012 -2.8121
 8437SOL     OW36772   3.017   1.128   5.707  0.6817 -0.0788  0.0080
 8437SOL    HW136773   3.101   1.147   5.748  0.9495  0.8460 -0.9475
 8437SOL    HW236774   3.031   1.041   5.669  1.6567  1.0247 -2.2007
 8438SOL     OW36775   3.001   4.175   2.702  0.5037  0.6143  0.2335
 8438SOL    HW136776   3.041   4.131   2.777 -2.1121  0.8788  1.7481
 8438SOL    HW236777   3.065   4.157   2.632  2.5626 -0.6603  2.4176
 8439SOL     OW36778   0.166   2.949   4.027 -0.0014  0.7661 -0.1403
 8439SOL    HW136779   0.189   2.978   3.939 -2.0153 -0.2837 -1.0151
 8439SOL    HW236780   0.101   3.018   4.037  0.7443  1.2981  1.0371
 8440SOL     OW36781   4.398   2.694   3.022  0.6360  0.6092 -0.1142
 8440SOL    HW136782   4.477   2.739   2.993  0.5511  0.4802 -0.5510
 8440SOL    HW236783   4.363   2.655   2.941 -1.5144  0.3903  0.9094
 8441SOL     OW36784   1.637   0.292   9.724  0.2081 -0.1788 -0.4391
 8441SOL    HW136785   1.719   0.311   9.770  0.7131 -0.5924 -1.1758
 8441SOL    HW236786   1.592   0.260   9.803 -0.3855  0.5232 -0.4947
 8442SOL     OW36787   0.256   3.734  10.587  0.1015 -0.2703 -0.0711
 8442SOL    HW136788   0.341   3.776  10.602  0.6943 -0.8856 -1.6996
 8442SOL    HW236789   0.282   3.646  10.561  0.9646 -0.1078  0.2369
 8443SOL     OW36790   4.593   1.252  13.641  0.5368  0.0999  0.2200
 8443SOL    HW136791   4.532   1.291  13.578 -0.4202  0.4695  1.3917
 8443SOL    HW236792   4.601   1.169  13.593 -1.9004 -0.9411  1.5874
 8444SOL     OW36793   2.520   3.313  15.584  0.2013  0.0946  0.2198
 8444SOL    HW136794   2.602   3.348  15.618  0.0564 -1.0622  1.7216
 8444SOL    HW236795   2.461   3.355  15.646  0.8184 -0.7447  1.3683
 8445SOL     OW36796   4.282   3.293   3.881  0.0455 -0.1477 -0.3925
 8445SOL    HW136797   4.215   3.234   3.915  0.9759 -1.4963 -0.8765
 8445SOL    HW236798   4.247   3.333   3.802 -1.2068 -1.5347 -0.5417
 8446SOL     OW36799   0.311   3.166   5.349 -0.3050 -0.0650 -1.0305
 8446SOL    HW136800   0.358   3.216   5.282 -0.0662  1.4841  0.2870
 8446SOL    HW236801   0.360   3.084   5.342 -0.9992 -0.6158  0.6228
 8447SOL     OW36802   4.715   2.330   6.808  0.3974  0.7878  0.1987
 8447SOL    HW136803   0.029   2.403   6.856  0.4532  0.2000  1.0365
 8447SOL    HW236804   4.621   2.339   6.826  0.0445 -2.6442  0.1853
 8448SOL     OW36805   3.015   2.227   3.260 -0.1605 -0.3932  0.4651
 8448SOL    HW136806   3.028   2.317   3.227 -1.2754 -0.7606 -0.9615
 8448SOL    HW236807   3.055   2.222   3.347  2.2382  0.8942 -0.5447
 8449SOL     OW36808   3.848   3.477   2.346  0.1286 -0.0095  0.4589
 8449SOL    HW136809   3.895   3.428   2.278 -3.2856 -1.2131 -1.0430
 8449SOL    HW236810   3.795   3.543   2.302  0.3832 -0.4035 -0.4427
 8450SOL     OW36811   2.983   2.158   8.671 -1.1636 -0.4512 -0.0282
 8450SOL    HW136812   3.058   2.167   8.613 -0.4820 -1.3745  0.7012
 8450SOL    HW236813   2.924   2.121   8.605 -0.3334  0.2500 -1.1555
 8451SOL     OW36814   4.411   2.464   7.719 -0.1715  0.1465 -0.4834
 8451SOL    HW136815   4.505   2.453   7.704 -0.6447 -3.4128 -0.9832
 8451SOL    HW236816   4.369   2.468   7.633  1.0186 -0.8389 -1.1166
 8452SOL     OW36817   0.417   1.216  11.423  0.0600 -1.2128 -0.0735
 8452SOL    HW136818   0.453   1.235  11.336  1.3591 -0.1538  0.6851
 8452SOL    HW236819   0.505   1.205  11.460 -0.4232 -0.8804  1.1588
 8453SOL     OW36820   0.029   1.480   5.977  0.2520 -0.1040  0.2805
 8453SOL    HW136821   0.075   1.399   5.999  2.5934  1.0031 -0.6195
 8453SOL    HW236822   4.664   1.448   5.980 -0.2348  1.3106  0.8592
 8454SOL     OW36823   3.385   2.937   3.679 -0.2360  0.0431 -0.3364
 8454SOL    HW136824   3.384   2.843   3.662 -0.4721  0.3207 -1.8630
 8454SOL    HW236825   3.309   2.927   3.736  0.7721  1.3623  1.2190
 8455SOL     OW36826   0.386   3.290   2.254 -0.1747 -0.0605 -0.5719
 8455SOL    HW136827   0.396   3.379   2.286 -4.0713  0.2975 -0.3276
 8455SOL    HW236828   0.344   3.307   2.169 -0.5819  0.5825 -0.2477
 8456SOL     OW36829   0.403   3.399  15.230  0.3023  0.3420 -0.3203
 8456SOL    HW136830   0.427   3.308  15.211 -1.3621 -0.3836  0.9574
 8456SOL    HW236831   0.324   3.405  15.177 -1.5419  1.6473  2.5630
 8457SOL     OW36832   3.902   1.386   9.202 -0.1707  0.1080 -0.4161
 8457SOL    HW136833   3.959   1.416   9.132  1.5971  0.4571  1.1902
 8457SOL    HW236834   3.821   1.434   9.182 -2.5781 -3.3225  0.9958
 8458SOL     OW36835   4.633   0.978   0.209  0.3041 -0.2018 -0.6909
 8458SOL    HW136836   4.610   0.957   0.299 -0.5801  0.3830 -0.7774
 8458SOL    HW236837   4.565   0.936   0.157  1.0081  1.2654 -2.8619
 8459SOL     OW36838   3.803   3.382   5.117  0.0876  0.2481  0.8939
 8459SOL    HW136839   3.848   3.457   5.154 -0.2695  0.9866 -0.1602
 8459SOL    HW236840   3.833   3.310   5.173  0.0704 -1.4195 -1.1968
 8460SOL     OW36841   2.113   0.709   0.108  0.0127  0.0575 -0.3941
 8460SOL    HW136842   2.110   0.614   0.096  0.7171  0.2592 -2.1480
 8460SOL    HW236843   2.166   0.736   0.033  0.3275 -1.2766 -0.6613
 8461SOL     OW36844   3.473   2.933   6.826 -0.6058  0.0918  0.0272
 8461SOL    HW136845   3.448   2.871   6.758  0.1149  1.3352 -1.3437
 8461SOL    HW236846   3.390   2.980   6.838 -0.6478 -0.0126  0.1493
 8462SOL     OW36847   0.570   0.179  12.018  0.3183  0.0108  0.4697
 8462SOL    HW136848   0.657   0.147  11.994  1.3824  1.7442  1.9782
 8462SOL    HW236849   0.587   0.272  12.035 -1.5010  0.8027 -2.0933
 8463SOL     OW36850   3.048   3.352   5.502 -0.2004 -0.5554 -0.0278
 8463SOL    HW136851   3.108   3.399   5.444 -1.6763  0.6127 -0.6045
 8463SOL    HW236852   2.978   3.330   5.441  0.8464  2.5369 -2.3501
 8464SOL     OW36853   1.745   3.311   8.113  0.1755  0.4281  0.6011
 8464SOL    HW136854   1.840   3.314   8.116  0.1459  0.1425  1.8690
 8464SOL    HW236855   1.721   3.345   8.200  2.0571 -1.2300  1.7778
 8465SOL     OW36856   2.399   0.029   8.393  0.4260  0.2501  0.3613
 8465SOL    HW136857   2.381   0.059   8.482 -1.6156  3.0740 -0.9970
 8465SOL    HW236858   2.415   0.114   8.352 -0.6624  0.4125  0.2592
 8466SOL     OW36859   1.484   1.441   9.523  0.0507 -1.0394  0.3706
 8466SOL    HW136860   1.467   1.499   9.598  0.3742 -1.9740  1.1690
 8466SOL    HW236861   1.432   1.495   9.463  0.6768 -1.7895 -0.8384
 8467SOL     OW36862   2.375   4.125  10.945  0.2988 -0.5855  0.1897
 8467SOL    HW136863   2.463   4.146  10.913  0.7542 -0.5332  1.5066
 8467SOL    HW236864   2.372   4.035  10.912  0.3889 -1.3085  2.2069
 8468SOL     OW36865   3.749   2.347   4.712 -0.0594 -0.6626  0.2066
 8468SOL    HW136866   3.732   2.424   4.767  1.2803  1.1790 -1.9499
 8468SOL    HW236867   3.840   2.366   4.691 -0.1808  1.5797  1.6903
 8469SOL     OW36868   1.447   4.364   6.954  0.2326 -0.3641  0.5386
 8469SOL    HW136869   1.526   4.354   7.007 -0.0074 -1.2025  0.7393
 8469SOL    HW236870   1.384   4.312   7.003  0.4552 -0.3939  0.7941
 8470SOL     OW36871   3.470   0.287  10.137 -0.4834 -0.2329  0.2983
 8470SOL    HW136872   3.506   0.331  10.060  1.2264 -2.5976 -0.2654
 8470SOL    HW236873   3.481   0.355  10.204  1.7781  0.8531 -1.1831
 8471SOL     OW36874   2.067   1.043   3.399  0.1180 -0.2782 -0.1892
 8471SOL    HW136875   2.078   1.132   3.431  2.1450 -1.3196  2.0075
 8471SOL    HW236876   1.999   1.013   3.460 -0.5733  2.6236  0.4745
 8472SOL     OW36877   1.681   1.498   6.156  0.7531  0.4023  0.6365
 8472SOL    HW136878   1.736   1.485   6.079  0.6490 -0.6796  0.7409
 8472SOL    HW236879   1.720   1.572   6.202 -1.1715  0.6719  1.8539
 8473SOL     OW36880   4.186   1.197   1.925 -0.9819 -0.0368  0.0220
 8473SOL    HW136881   4.143   1.227   1.846 -1.7942  2.1524  1.3062
 8473SOL    HW236882   4.120   1.159   1.984  1.5206 -1.5776  1.8596
 8474SOL     OW36883   2.335   1.478   8.849 -0.3187  0.7237  0.1595
 8474SOL    HW136884   2.285   1.414   8.799  0.3953  0.6564 -0.4697
 8474SOL    HW236885   2.298   1.467   8.937 -1.8131 -1.4819 -0.7439
 8475SOL     OW36886   2.357   0.395  11.976  0.9275  0.0481  0.5489
 8475SOL    HW136887   2.402   0.360  12.053  0.3316  0.6005  1.1510
 8475SOL    HW236888   2.286   0.443  12.019 -0.3443 -1.7895  0.4947
 8476SOL     OW36889   4.538   0.597   5.381 -0.0677 -0.0287 -0.5343
 8476SOL    HW136890   4.554   0.565   5.470 -0.7259  0.0828 -0.3751
 8476SOL    HW236891   4.577   0.519   5.340 -0.5679 -0.0326 -1.0110
 8477SOL     OW36892   3.619   4.154   5.802  0.5006  0.4064  0.5105
 8477SOL    HW136893   3.714   4.154   5.797  0.5247 -0.0714  0.9342
 8477SOL    HW236894   3.616   4.247   5.783  0.4038  0.2718 -0.1113
 8478SOL     OW36895   2.215   0.052  14.315  0.0969  0.3637 -0.2002
 8478SOL    HW136896   2.224   0.147  14.324  0.4246  0.2232  0.8886
 8478SOL    HW236897   2.143   0.043  14.377  1.4894  2.4386  1.7167
 8479SOL     OW36898   2.544   0.855  15.568 -0.1641  0.1834  0.2989
 8479SOL    HW136899   2.479   0.789  15.591  0.7715 -1.0801 -0.6751
 8479SOL    HW236900   2.498   0.897  15.495  1.6113 -1.2037 -1.6357
 8480SOL     OW36901   2.751   1.783   5.246  0.2462 -0.5535 -1.1109
 8480SOL    HW136902   2.811   1.836   5.298 -1.7188  1.0324 -0.4289
 8480SOL    HW236903   2.667   1.827   5.259 -0.3218 -1.3517 -2.0384
 8481SOL     OW36904   1.482   1.903  11.566 -0.0494  0.4133  0.1878
 8481SOL    HW136905   1.533   1.885  11.646 -2.2907 -2.0745  1.0477
 8481SOL    HW236906   1.415   1.966  11.593 -0.3923 -0.8743  2.3389
 8482SOL     OW36907   3.690   3.484   1.121 -0.1522 -0.1326 -0.4037
 8482SOL    HW136908   3.720   3.474   1.211 -0.3287  2.4304 -0.0591
 8482SOL    HW236909   3.610   3.531   1.147 -0.4954 -0.2881 -1.1669
 8483SOL     OW36910   4.439   4.471  16.746 -0.5365 -0.2240 -0.1564
 8483SOL    HW136911   4.372   4.458  16.678  0.0196 -0.2297 -0.7074
 8483SOL    HW236912   4.507   4.404  16.739  1.2648  1.6978 -1.0380
 8484SOL     OW36913   3.552   3.887   7.581 -0.1518 -0.6595 -0.0017
 8484SOL    HW136914   3.629   3.854   7.627  0.7079  1.4226  0.0465
 8484SOL    HW236915   3.544   3.973   7.622 -2.2581 -1.3737  1.1324
 8485SOL     OW36916   4.187   3.850   8.150 -0.0193 -0.7805  0.2172
 8485SOL    HW136917   4.225   3.931   8.183 -1.6003 -0.3868  1.0669
 8485SOL    HW236918   4.101   3.874   8.115  0.7021  0.3290 -0.7899
 8486SOL     OW36919   3.761   4.401   5.693  0.3787  0.3314 -0.2392
 8486SOL    HW136920   3.748   4.358   5.608  0.1068 -0.1116  0.0268
 8486SOL    HW236921   3.740   4.494   5.677 -2.6477 -0.1846  0.7746
 8487SOL     OW36922   4.603   2.290  11.826  0.0941  0.2836  0.2622
 8487SOL    HW136923   4.673   2.336  11.781  0.6479 -1.0411 -0.2306
 8487SOL    HW236924   4.528   2.304  11.769 -1.0533 -0.5237  1.5609
 8488SOL     OW36925   2.357   2.151  10.817  0.3014  0.5274 -0.5424
 8488SOL    HW136926   2.366   2.166  10.911 -0.7965  1.1967 -0.5403
 8488SOL    HW236927   2.262   2.136  10.813  0.5459 -1.0807 -0.4638
 8489SOL     OW36928   1.478   2.701   3.936  0.1169  0.1311 -0.5826
 8489SOL    HW136929   1.460   2.612   3.906  1.1156 -0.1379 -0.3839
 8489SOL    HW236930   1.475   2.696   4.031  0.8162 -1.3228 -0.6330
 8490SOL     OW36931   3.860   4.428  10.766  0.4045 -0.3906  0.2118
 8490SOL    HW136932   3.855   4.363  10.696 -0.8909 -0.7328  0.6158
 8490SOL    HW236933   3.804   4.388  10.833 -0.8675  1.2186  0.1057
 8491SOL     OW36934   0.082   1.638   7.392 -0.2356  0.4765  0.4040
 8491SOL    HW136935   0.161   1.642   7.446  1.0173 -1.2417 -1.2666
 8491SOL    HW236936   0.103   1.699   7.321  1.3619 -1.1781 -0.5663
 8492SOL     OW36937   3.628   3.506   4.550  0.3157 -0.1403 -0.3681
 8492SOL    HW136938   3.696   3.438   4.555  2.0998  1.6123 -0.8980
 8492SOL    HW236939   3.667   3.593   4.553  0.2996 -0.1898  1.6886
 8493SOL     OW36940   1.462   2.743  12.100 -0.2175 -0.1040  0.1753
 8493SOL    HW136941   1.539   2.796  12.081 -0.3195 -0.9696 -2.8066
 8493SOL    HW236942   1.409   2.757  12.021 -0.0104  0.9038  0.2228
 8494SOL     OW36943   3.212   0.001  16.614  0.1183  0.0724 -0.1922
 8494SOL    HW136944   3.140   4.666  16.635 -1.4122  2.1900  0.7015
 8494SOL    HW236945   3.259   4.673  16.550 -0.2094 -0.1480 -0.2528
 8495SOL     OW36946   3.219   1.216   6.279 -0.3861  0.5642  0.4406
 8495SOL    HW136947   3.142   1.163   6.299  1.3097 -1.0714  2.6489
 8495SOL    HW236948   3.175   1.289   6.236 -1.2730 -0.0776  0.2515
 8496SOL     OW36949   1.694   1.242   8.100  0.4089 -0.3678 -0.2078
 8496SOL    HW136950   1.675   1.148   8.093  1.5361 -0.5462 -0.7540
 8496SOL    HW236951   1.739   1.234   8.184  1.8572 -1.2043 -1.0666
 8497SOL     OW36952   0.972   3.729  14.747 -0.5704 -0.4376  0.0790
 8497SOL    HW136953   0.961   3.647  14.796  0.6169  0.2350  1.4461
 8497SOL    HW236954   0.973   3.798  14.813 -1.8246  0.3394 -0.7123
 8498SOL     OW36955   1.274   0.311   3.407  0.3044 -0.5883 -0.0808
 8498SOL    HW136956   1.258   0.298   3.313 -0.8390 -0.5826  0.1058
 8498SOL    HW236957   1.215   0.379   3.440  0.9594  1.5600 -3.2538
 8499SOL     OW36958   2.051   3.267  16.498  0.7768  0.0704  0.1701
 8499SOL    HW136959   2.092   3.330  16.440 -0.0863  0.8419  0.3988
 8499SOL    HW236960   2.052   3.320  16.578  0.3663  1.6182 -0.8699
 8500SOL     OW36961   2.665   2.741   4.713 -0.1345 -0.3628 -0.0283
 8500SOL    HW136962   2.614   2.797   4.772  0.0059 -0.4311  0.1569
 8500SOL    HW236963   2.685   2.798   4.639  0.0954 -2.4332 -1.5585
 8501SOL     OW36964   4.445   4.574   4.661 -0.2987 -0.6146 -0.0313
 8501SOL    HW136965   4.406   4.519   4.593  2.1010 -2.1181 -0.1530
 8501SOL    HW236966   4.440   4.508   4.730 -1.4373 -1.8005 -1.2579
 8502SOL     OW36967   3.213   2.044   7.444 -0.1919  0.1603 -0.9965
 8502SOL    HW136968   3.169   2.109   7.390  1.0061  2.4345  0.7554
 8502SOL    HW236969   3.167   1.967   7.412 -3.7036  0.5570  3.0165
 8503SOL     OW36970   2.939   1.556  11.922  0.2100  0.0506  0.2685
 8503SOL    HW136971   3.001   1.601  11.980 -0.4893 -0.2546  1.2565
 8503SOL    HW236972   2.855   1.562  11.968  1.0068 -0.6726  1.7965
 8504SOL     OW36973   3.675   1.334   7.527 -0.2004  0.5042  0.3383
 8504SOL    HW136974   3.682   1.349   7.622 -1.5255 -2.1979  0.8615
 8504SOL    HW236975   3.636   1.415   7.495 -1.7619 -0.9090 -1.3237
 8505SOL     OW36976   2.243   0.614   4.631  0.2592 -0.3874 -0.8529
 8505SOL    HW136977   2.314   0.635   4.692 -0.0639  0.6528 -0.8322
 8505SOL    HW236978   2.228   0.521   4.644 -0.7953 -0.0504  0.2649
 8506SOL     OW36979   0.893   0.635   3.637 -0.0719 -0.6386  0.3255
 8506SOL    HW136980   0.825   0.604   3.577 -0.5049 -0.8416  0.9306
 8506SOL    HW236981   0.889   0.730   3.640  0.7601 -0.5516 -1.0868
 8507SOL     OW36982   4.359   2.624  10.719  0.2019 -0.1296 -0.1130
 8507SOL    HW136983   4.333   2.623  10.627  1.7257 -0.7067 -0.5358
 8507SOL    HW236984   4.442   2.577  10.727  1.1248  1.6417  0.5399
 8508SOL     OW36985   1.694   3.629   6.349 -0.1368 -0.2797  0.8394
 8508SOL    HW136986   1.614   3.625   6.402 -0.6937 -1.9559 -0.1059
 8508SOL    HW236987   1.745   3.698   6.392 -0.1515  1.0775 -1.3353
 8509SOL     OW36988   4.076   0.705  17.215  0.8387  0.7190  0.0890
 8509SOL    HW136989   4.011   0.659  17.161  1.8655  0.7416 -1.1640
 8509SOL    HW236990   4.139   0.737  17.151  1.1127  1.2684  0.6438
 8510SOL     OW36991   0.361   0.829   8.656 -0.2085 -0.5881  0.4658
 8510SOL    HW136992   0.423   0.868   8.719 -0.9893 -0.6182  1.2518
 8510SOL    HW236993   0.317   0.763   8.710  1.1735 -1.6445  0.3298
 8511SOL     OW36994   3.196   2.140   7.912  0.0929  1.0501 -0.0135
 8511SOL    HW136995   3.127   2.200   7.883 -1.2510 -1.0889 -1.2384
 8511SOL    HW236996   3.279   2.180   7.885 -0.5619  1.7013 -1.0922
 8512SOL     OW36997   2.894   0.650   4.840 -0.8834 -0.2165  0.2509
 8512SOL    HW136998   2.981   0.652   4.880 -0.2220  0.4261 -1.2444
 8512SOL    HW236999   2.865   0.738   4.862  1.6664  0.5516  0.4756
 8513SOL     OW37000   2.410   3.758   6.849  0.3290  0.7522 -0.1165
 8513SOL    HW137001   2.498   3.724   6.831  1.1713  2.3325  0.9681
 8513SOL    HW237002   2.409   3.845   6.809 -0.4537  0.8467  0.1114
 8514SOL     OW37003   3.375   2.344   5.634  0.3529  0.1034  0.1041
 8514SOL    HW137004   3.403   2.403   5.704  2.5041  0.8415 -1.3969
 8514SOL    HW237005   3.453   2.301   5.601 -0.1126 -0.2939 -0.4828
 8515SOL     OW37006   0.057   2.043   4.031 -0.1682 -0.0356 -0.0911
 8515SOL    HW137007   0.060   2.015   3.939  2.6950  0.1739 -0.0547
 8515SOL    HW237008   4.691   2.028   4.055 -0.1359 -1.7183 -1.0003
 8516SOL     OW37009   2.256   0.819  17.589  0.0509 -0.6593 -0.4142
 8516SOL    HW137010   2.313   0.742  17.591  1.9379  0.8215  3.4922
 8516SOL    HW237011   2.252   0.844  17.497 -0.6056  1.4918  0.1946
 8517SOL     OW37012   2.397   2.164   2.729 -0.6691 -0.4399 -0.0461
 8517SOL    HW137013   2.317   2.202   2.691  0.6665  0.5772 -1.8570
 8517SOL    HW237014   2.431   2.110   2.658 -1.6321  1.6655 -2.1126
 8518SOL     OW37015   4.427   3.152   3.576 -0.2363 -0.4838  0.2992
 8518SOL    HW137016   4.455   3.085   3.639  0.1911 -1.1994 -0.6420
 8518SOL    HW237017   4.334   3.162   3.596 -0.1809 -0.9119  0.7891
 8519SOL     OW37018   4.028   0.796   5.566  0.4477 -0.1276  0.3316
 8519SOL    HW137019   4.078   0.715   5.560 -1.3721 -1.0880 -1.8570
 8519SOL    HW237020   3.967   0.784   5.639  0.3031  0.1101  0.2492
 8520SOL     OW37021   3.944   4.250   3.064  0.2034  0.9820 -0.1397
 8520SOL    HW137022   3.873   4.304   3.030  0.1329  0.9734 -0.0035
 8520SOL    HW237023   3.981   4.212   2.984 -0.9044 -0.4334  0.0147
 8521SOL     OW37024   2.317   0.841   1.203 -0.5599 -0.2304  0.4388
 8521SOL    HW137025   2.230   0.809   1.181 -0.5495 -0.1596  0.2937
 8521SOL    HW237026   2.298   0.918   1.258 -1.7364  0.0519 -0.3585
 8522SOL     OW37027   1.151   1.609   9.717 -0.4382  0.3947 -0.3615
 8522SOL    HW137028   1.246   1.614   9.706 -0.4306  2.3305  0.4244
 8522SOL    HW237029   1.133   1.625   9.810 -1.9000 -0.1025 -0.5538
 8523SOL     OW37030   1.173   3.772  15.955  0.0061 -0.2148 -0.1108
 8523SOL    HW137031   1.179   3.866  15.939  0.5463  0.3547  3.2817
 8523SOL    HW237032   1.082   3.772  15.983 -0.6232  1.2274 -2.1621
 8524SOL     OW37033   2.730   1.795   2.468  0.0999  0.0010 -0.0150
 8524SOL    HW137034   2.742   1.830   2.380 -2.0943  1.5406  0.3043
 8524SOL    HW237035   2.641   1.823   2.491  1.0008  0.9237  2.3484
 8525SOL     OW37036   0.773   2.146   7.166  0.2193  0.0205  0.0796
 8525SOL    HW137037   0.819   2.064   7.148  0.6076  0.6707 -1.9351
 8525SOL    HW237038   0.687   2.114   7.136  0.3813 -1.9330  1.7470
 8526SOL     OW37039   0.790   1.251  12.069 -0.4203  0.2029  0.1302
 8526SOL    HW137040   0.788   1.190  11.996  1.5145  0.5428 -0.2057
 8526SOL    HW237041   0.706   1.292  12.047 -0.7497 -0.8600 -0.5692
 8527SOL     OW37042   1.689   0.421   7.803  0.0333 -0.1110  0.1005
 8527SOL    HW137043   1.634   0.498   7.790  0.8273  0.3765 -0.4463
 8527SOL    HW237044   1.747   0.435   7.728 -0.4949 -2.3024 -0.7011
 8528SOL     OW37045   4.456   2.914   4.323  0.2220 -0.9849  0.1085
 8528SOL    HW137046   4.436   2.866   4.403  1.6186  1.2337  1.7687
 8528SOL    HW237047   4.459   3.006   4.351 -3.1164 -0.5643 -0.9613
 8529SOL     OW37048   2.992   1.158   7.311 -0.1484 -0.1050  0.1802
 8529SOL    HW137049   3.007   1.063   7.301 -2.6936 -0.7242  2.4744
 8529SOL    HW237050   2.913   1.160   7.257  1.1139  1.3928 -1.5877
 8530SOL     OW37051   2.493   2.527   3.348  0.6215 -0.2329 -0.5859
 8530SOL    HW137052   2.487   2.438   3.381 -0.2473 -0.5851 -1.6768
 8530SOL    HW237053   2.418   2.567   3.393  1.3324  0.8574 -0.3650
 8531SOL     OW37054   2.365   0.579   0.842 -0.1510  0.3576  0.2477
 8531SOL    HW137055   2.445   0.567   0.792  0.7239  0.2368  1.6832
 8531SOL    HW237056   2.372   0.519   0.916  0.3984 -0.0729 -0.1524
 8532SOL     OW37057   0.799   2.749   4.238  0.2607 -0.3328 -0.3334
 8532SOL    HW137058   0.803   2.782   4.148  0.5210  1.6247  0.4058
 8532SOL    HW237059   0.883   2.706   4.253  0.8795  0.2718 -2.0336
 8533SOL     OW37060   3.267   2.422  13.183  0.0339 -0.1015 -0.3594
 8533SOL    HW137061   3.231   2.505  13.151 -1.2008  0.4548  2.4850
 8533SOL    HW237062   3.359   2.444  13.168 -0.6143  0.4477 -3.6663
 8534SOL     OW37063   4.520   1.308   3.576  0.4246  0.3521  0.4929
 8534SOL    HW137064   4.508   1.358   3.495 -1.3839 -0.9159 -0.0326
 8534SOL    HW237065   4.456   1.341   3.638 -0.0713  0.3431 -0.0137
 8535SOL     OW37066   3.472   1.472   5.308 -0.0197  0.0637 -0.3991
 8535SOL    HW137067   3.406   1.416   5.266  0.8197 -0.1419 -1.4266
 8535SOL    HW237068   3.407   1.531   5.347 -0.8417 -1.1212  0.0191
 8536SOL     OW37069   4.658   3.383   5.683  0.1759 -0.2197 -0.2292
 8536SOL    HW137070   0.007   3.430   5.645  0.2289 -0.6351 -0.6339
 8536SOL    HW237071   4.603   3.458   5.704  0.0028 -0.4217  0.0360
 8537SOL     OW37072   0.529   0.946   4.871  0.5248  0.2726 -0.0083
 8537SOL    HW137073   0.489   1.032   4.864 -1.5180 -0.5702  1.1394
 8537SOL    HW237074   0.526   0.930   4.965  1.5454  0.1280 -0.0008
 8538SOL     OW37075   2.247   3.290   7.728 -0.4748 -0.4140  0.1691
 8538SOL    HW137076   2.255   3.205   7.683  0.3009 -0.6231  0.7117
 8538SOL    HW237077   2.300   3.271   7.805  3.0605  1.5158 -1.7919
 8539SOL     OW37078   1.224   4.222   9.517  0.2607  0.4358 -0.3729
 8539SOL    HW137079   1.278   4.288   9.473  0.4356  0.0269 -0.7586
 8539SOL    HW237080   1.136   4.257   9.505  0.4363  0.9246 -0.2692
 8540SOL     OW37081   1.702   2.582   7.903 -0.5680  0.0704  0.3546
 8540SOL    HW137082   1.735   2.658   7.854 -0.4826 -0.6099 -0.6509
 8540SOL    HW237083   1.682   2.633   7.982  3.0102  3.1341 -0.7182
 8541SOL     OW37084   0.307   1.283   9.530 -0.1893 -0.0845  0.4860
 8541SOL    HW137085   0.332   1.196   9.499  2.4049 -0.8454  4.8373
 8541SOL    HW237086   0.393   1.323   9.519 -0.6327  0.7355 -0.1041
 8542SOL     OW37087   2.201   3.346   2.223 -0.5673  0.6566 -0.0238
 8542SOL    HW137088   2.129   3.409   2.227 -0.3012  1.0419 -1.4202
 8542SOL    HW237089   2.258   3.377   2.153 -0.5255  0.4651 -0.0764
 8543SOL     OW37090   3.424   3.105   9.120 -0.3544 -0.0921  0.3390
 8543SOL    HW137091   3.360   3.101   9.192 -1.0095  1.8361 -0.1436
 8543SOL    HW237092   3.503   3.092   9.172  1.8249  4.3165 -1.8817
 8544SOL     OW37093   4.268   1.186   3.388  0.1539  0.5691  0.1936
 8544SOL    HW137094   4.265   1.176   3.293 -1.1956  1.0090  0.1784
 8544SOL    HW237095   4.333   1.120   3.409 -0.3467 -0.5736 -1.7990
 8545SOL     OW37096   3.849   3.608   2.973  0.8256 -0.0229 -0.4738
 8545SOL    HW137097   3.909   3.631   2.902  0.3826  0.5703 -0.6475
 8545SOL    HW237098   3.880   3.520   2.995  1.1699  0.4443  0.8935
 8546SOL     OW37099   3.253   2.637   4.214 -0.2775 -0.4336 -0.0010
 8546SOL    HW137100   3.341   2.607   4.236 -0.0646 -0.6557 -1.1498
 8546SOL    HW237101   3.217   2.552   4.189  1.1001 -1.1198  0.3119
 8547SOL     OW37102   2.631   1.138   8.103 -0.3721 -0.6973  0.0922
 8547SOL    HW137103   2.548   1.123   8.059 -0.8327  1.4573  0.2174
 8547SOL    HW237104   2.636   1.234   8.105 -1.0738 -0.6088 -2.5309
 8548SOL     OW37105   2.121   4.450   5.941 -0.0323  0.3475  0.1033
 8548SOL    HW137106   2.204   4.443   5.988 -0.3919  0.7301  0.7837
 8548SOL    HW237107   2.072   4.519   5.985 -0.6139  0.3266 -0.4947
 8549SOL     OW37108   2.307   3.118   8.220 -0.5728 -0.1472 -0.2978
 8549SOL    HW137109   2.385   3.074   8.253  0.6684  0.9704 -1.7099
 8549SOL    HW237110   2.298   3.186   8.287  2.7097 -0.2228  0.2504
 8550SOL     OW37111   1.946   4.699  16.632  0.6923 -0.1874 -0.0202
 8550SOL    HW137112   1.919   0.009  16.547  0.1963 -0.1797  0.1409
 8550SOL    HW237113   2.018   4.639  16.617  0.4816 -0.2201 -0.9163
 8551SOL     OW37114   2.097   2.115   3.650 -0.1552 -0.1608  0.1380
 8551SOL    HW137115   2.149   2.063   3.589 -0.6981 -2.2575  1.4737
 8551SOL    HW237116   2.023   2.055   3.659 -0.7401  0.7403  1.4099
 8552SOL     OW37117   0.493   0.484   7.323  0.4703 -0.3017  0.0934
 8552SOL    HW137118   0.522   0.469   7.233  2.3005  0.5645  0.5620
 8552SOL    HW237119   0.530   0.407   7.367 -0.4831 -0.3930  0.7366
 8553SOL     OW37120   0.290   1.633  10.021 -0.5853 -0.3700 -0.0265
 8553SOL    HW137121   0.215   1.616   9.964 -1.1986  1.3887  0.2333
 8553SOL    HW237122   0.343   1.554  10.024  2.1554  1.5342  2.7018
 8554SOL     OW37123   1.252   2.081   3.371 -0.0494  0.0873 -0.2456
 8554SOL    HW137124   1.279   2.170   3.394 -1.5316  0.9209 -1.7888
 8554SOL    HW237125   1.306   2.024   3.427 -0.6232  1.4416  1.6800
 8555SOL     OW37126   0.107   1.395  14.415  0.3010 -0.0646  0.1169
 8555SOL    HW137127   0.179   1.406  14.353  0.7564 -1.5902  0.3810
 8555SOL    HW237128   0.078   1.486  14.428  1.7429  0.5371 -0.8691
 8556SOL     OW37129   1.370   3.972   3.646 -0.0142  0.1996 -0.4439
 8556SOL    HW137130   1.460   3.998   3.665 -0.1231 -0.7163  1.3308
 8556SOL    HW237131   1.373   3.958   3.551  0.8656 -2.5083  0.0047
 8557SOL     OW37132   1.396   1.408   5.184 -0.9139  0.3319  0.1869
 8557SOL    HW137133   1.435   1.321   5.189 -2.6926 -0.5681 -2.0966
 8557SOL    HW237134   1.461   1.464   5.228  0.1400 -1.3194  0.7426
 8558SOL     OW37135   3.880   0.496  15.069 -0.0012 -0.4332 -0.3999
 8558SOL    HW137136   3.852   0.577  15.112 -0.3392 -0.6461 -0.2201
 8558SOL    HW237137   3.909   0.442  15.142  1.3741 -0.7824 -1.2102
 8559SOL     OW37138   4.080   3.551   2.149  1.3931  0.5847 -0.7313
 8559SOL    HW137139   4.057   3.459   2.162 -0.2257  0.7847 -2.1879
 8559SOL    HW237140   4.162   3.556   2.197  0.2896  0.0732  1.1971
 8560SOL     OW37141   1.238   2.919   6.420 -0.3033  0.1170 -0.1646
 8560SOL    HW137142   1.252   2.875   6.503  2.0403  1.9400  0.3945
 8560SOL    HW237143   1.328   2.918   6.387  0.3269 -1.8374  1.6153
 8561SOL     OW37144   1.213   1.022  15.231 -0.5898 -0.0255  0.9651
 8561SOL    HW137145   1.236   1.006  15.139  0.1172 -1.1803  1.3427
 8561SOL    HW237146   1.153   0.947  15.231 -0.3995 -0.1691  1.9264
 8562SOL     OW37147   4.633   0.626   0.478  0.2764  0.6163  0.2315
 8562SOL    HW137148   4.610   0.638   0.386 -3.8106  0.6209  1.2499
 8562SOL    HW237149   4.561   0.574   0.514 -0.0511  1.5095  0.8419
 8563SOL     OW37150   0.703   4.569  15.234 -0.2847  0.5084  0.3267
 8563SOL    HW137151   0.786   4.529  15.260 -1.2715  0.3528  3.2931
 8563SOL    HW237152   0.721   4.601  15.146 -0.2023  1.9174  0.8589
 8564SOL     OW37153   2.476   1.661   6.821 -0.3080  0.0265 -0.3104
 8564SOL    HW137154   2.430   1.702   6.894 -2.0319  0.7147 -1.7932
 8564SOL    HW237155   2.555   1.632   6.866  0.5564  1.0324 -1.1773
 8565SOL     OW37156   1.458   2.483   3.015  0.3830  0.0530  0.7496
 8565SOL    HW137157   1.463   2.399   2.968 -0.9554  0.6627 -0.4862
 8565SOL    HW237158   1.384   2.528   2.975  0.0710 -0.6524  0.5355
 8566SOL     OW37159   1.070   3.727   7.632 -0.5146 -0.0520  0.1730
 8566SOL    HW137160   1.049   3.670   7.706  0.9149  0.5769  1.0630
 8566SOL    HW237161   1.000   3.690   7.578  0.5476 -0.0465 -1.2084
 8567SOL     OW37162   1.414   3.038   4.408 -0.4093 -0.9214 -0.3610
 8567SOL    HW137163   1.445   3.074   4.491  0.0341  0.9093 -1.3371
 8567SOL    HW237164   1.360   3.111   4.378  0.2090  0.6219  2.3458
 8568SOL     OW37165   2.308   1.306  13.860 -0.4263  0.1562  0.3076
 8568SOL    HW137166   2.401   1.325  13.863 -0.7603  2.0391 -0.4490
 8568SOL    HW237167   2.305   1.230  13.917 -2.1219  1.1201  1.5233
 8569SOL     OW37168   0.371   1.781  17.031  0.2989 -0.0154  0.6267
 8569SOL    HW137169   0.399   1.868  17.003 -0.2798 -0.7504 -2.2886
 8569SOL    HW237170   0.453   1.731  17.024  0.4124  0.2060  0.3209
 8570SOL     OW37171   1.572   1.423  15.322 -0.0232  0.5413 -0.0042
 8570SOL    HW137172   1.492   1.386  15.360  0.4905  0.1795  0.7273
 8570SOL    HW237173   1.547   1.474  15.245 -0.7215  0.8883  0.4513
 8571SOL     OW37174   2.410   1.272   6.354 -0.3292  0.1090  0.2401
 8571SOL    HW137175   2.344   1.207   6.327  1.4714 -1.6915  0.1283
 8571SOL    HW237176   2.479   1.227   6.305 -1.3385 -0.2005 -0.9161
 8572SOL     OW37177   3.737   2.178   3.028 -0.5182  0.2253 -0.0903
 8572SOL    HW137178   3.691   2.261   3.014 -1.6467 -0.2321  0.8665
 8572SOL    HW237179   3.675   2.109   3.050 -1.0653  0.5160 -0.6944
 8573SOL     OW37180   3.048   3.040   9.793  0.0107  0.5761 -0.5337
 8573SOL    HW137181   3.032   3.065   9.702  1.7355  4.0912  0.1132
 8573SOL    HW237182   3.141   3.060   9.790 -0.0407  0.5598 -2.0480
 8574SOL     OW37183   0.682   1.498   7.724 -0.3777 -0.4589 -0.4088
 8574SOL    HW137184   0.631   1.417   7.725 -1.4977  0.2568  0.2289
 8574SOL    HW237185   0.613   1.559   7.751  0.5325  0.9599 -1.2818
 8575SOL     OW37186   4.595   1.709   7.520  0.0379  0.7690 -0.2753
 8575SOL    HW137187   4.537   1.748   7.456 -1.6481 -1.3676 -0.0549
 8575SOL    HW237188   4.671   1.687   7.466 -1.3174  0.6713 -2.1222
 8576SOL     OW37189   4.471   3.905  10.411 -0.1879 -0.2263 -0.4114
 8576SOL    HW137190   4.543   3.841  10.407  0.5603  0.5082  1.2556
 8576SOL    HW237191   4.498   3.958  10.487  0.6406 -0.4231 -0.5610
 8577SOL     OW37192   0.728   3.930  17.509  0.9001 -0.2232 -0.3691
 8577SOL    HW137193   0.793   3.923  17.579 -0.0089 -2.0536  0.2640
 8577SOL    HW237194   0.788   3.923  17.434  1.3451 -1.4420  0.1056
 8578SOL     OW37195   1.011   1.411   2.923 -0.1100  0.6417 -0.1664
 8578SOL    HW137196   1.012   1.315   2.926  1.4062  0.7600  3.1725
 8578SOL    HW237197   1.106   1.419   2.930 -0.0221  1.1487 -1.9191
 8579SOL     OW37198   2.805   3.288  17.133 -0.7670 -0.2616  0.1386
 8579SOL    HW137199   2.774   3.233  17.061  1.1865 -1.2485  0.0641
 8579SOL    HW237200   2.899   3.292  17.118 -1.0308  1.5372 -1.1184
 8580SOL     OW37201   3.724   1.954   6.486 -0.0192  0.6884 -0.1487
 8580SOL    HW137202   3.667   2.011   6.435  1.9565  0.4945 -2.5224
 8580SOL    HW237203   3.787   2.018   6.519  0.1961  0.9254 -1.0411
 8581SOL     OW37204   2.694   2.916   4.496  0.3785  0.2893  0.8835
 8581SOL    HW137205   2.601   2.932   4.481  0.9203  1.6710 -1.0794
 8581SOL    HW237206   2.728   2.947   4.412 -0.3799  0.1251  0.5239
 8582SOL     OW37207   2.607   3.879   1.803 -0.1150 -0.0455  0.2443
 8582SOL    HW137208   2.683   3.842   1.847  1.8296  1.5039 -1.7731
 8582SOL    HW237209   2.622   3.867   1.709 -1.5793 -1.9563  0.2594
 8583SOL     OW37210   3.125   2.966   4.552 -0.0328 -0.0350 -0.9597
 8583SOL    HW137211   3.163   2.881   4.574  1.1295  0.9834  0.9337
 8583SOL    HW237212   3.079   2.959   4.468  1.3216  3.5229 -2.0092
 8584SOL     OW37213   3.521   1.911  13.833  0.3407 -0.1624 -0.2310
 8584SOL    HW137214   3.561   1.970  13.896 -2.2811  0.0792  1.1934
 8584SOL    HW237215   3.524   1.965  13.753  0.9451 -0.9686 -0.7521
 8585SOL     OW37216   1.793   3.978   0.824  0.3697  0.1366 -0.6008
 8585SOL    HW137217   1.828   4.066   0.838 -0.6266  0.4751 -0.3014
 8585SOL    HW237218   1.831   3.952   0.740 -1.0137  3.0144 -2.1000
 8586SOL     OW37219   2.384   3.581  13.978  0.2129 -0.3037  0.5712
 8586SOL    HW137220   2.388   3.506  13.919  2.1536  0.6349 -0.4842
 8586SOL    HW237221   2.424   3.644  13.919 -0.4301 -0.0078  0.4439
 8587SOL     OW37222   1.350   2.262   0.477  0.1053  0.2931  0.1221
 8587SOL    HW137223   1.380   2.173   0.460 -0.8480  0.4474 -2.3038
 8587SOL    HW237224   1.423   2.297   0.529 -0.2129 -0.2746  0.9554
 8588SOL     OW37225   1.186   4.212   4.232  0.3342  0.1153  0.9597
 8588SOL    HW137226   1.191   4.173   4.145  0.8927  0.1121  0.9966
 8588SOL    HW237227   1.225   4.144   4.287  0.2290  0.8198  1.9112
 8589SOL     OW37228   3.969   4.397   3.841 -0.8959  0.0810 -0.2198
 8589SOL    HW137229   3.938   4.475   3.888  2.0014  1.0139  0.0968
 8589SOL    HW237230   4.046   4.437   3.800 -0.4918 -0.0727  0.4019
 8590SOL     OW37231   2.719   1.369  14.823  0.0582  0.7283 -0.2598
 8590SOL    HW137232   2.813   1.351  14.820  0.3535  1.8929  2.1506
 8590SOL    HW237233   2.707   1.375  14.728  1.7778  2.9274 -0.3333
 8591SOL     OW37234   0.377   1.356  11.781  0.1137  0.4397  0.1228
 8591SOL    HW137235   0.364   1.436  11.833  0.9180  1.2802 -0.9567
 8591SOL    HW237236   0.436   1.311  11.841  0.0748 -0.3857 -0.4731
 8592SOL     OW37237   0.153   2.866  12.997 -0.1145  0.6126 -0.3659
 8592SOL    HW137238   0.206   2.937  12.961 -1.8963  1.2695 -1.7013
 8592SOL    HW237239   0.145   2.810  12.920 -0.6031  2.3537 -1.5799
 8593SOL     OW37240   3.208   2.591   1.335 -0.4921 -0.0814 -0.1026
 8593SOL    HW137241   3.270   2.653   1.297 -0.2603 -0.5223 -0.4391
 8593SOL    HW237242   3.123   2.635   1.325  0.6405  1.9565 -0.7810
 8594SOL     OW37243   0.126   1.926  11.135 -0.2688 -0.3948  0.2689
 8594SOL    HW137244   0.160   1.871  11.206 -1.1129 -0.7208  0.4250
 8594SOL    HW237245   0.099   2.003  11.185  1.6398  1.1463 -1.1027
 8595SOL     OW37246   3.120   3.270   3.918 -0.3424 -0.2976 -0.1412
 8595SOL    HW137247   3.026   3.283   3.924 -0.0372  2.0568 -0.5585
 8595SOL    HW237248   3.159   3.354   3.892 -0.8022 -0.3401 -0.9590
 8596SOL     OW37249   0.080   4.534   5.383  0.4396  0.0390  0.2509
 8596SOL    HW137250   0.126   4.618   5.375  0.5025 -0.0257 -0.0707
 8596SOL    HW237251   0.058   4.502   5.296  0.4952  1.7472 -0.4025
 8597SOL     OW37252   3.944   2.782   6.201 -0.2261  0.0240 -0.0685
 8597SOL    HW137253   3.889   2.807   6.126 -0.0261  0.4657 -0.0636
 8597SOL    HW237254   3.904   2.829   6.274  1.4344  0.8098  0.3157
 8598SOL     OW37255   0.280   1.588   2.760  0.1638 -0.0026 -0.5702
 8598SOL    HW137256   0.290   1.648   2.686  0.9782 -0.1409 -0.5718
 8598SOL    HW237257   0.371   1.587   2.789  0.1492 -2.5140 -0.6177
 8599SOL     OW37258   3.969   2.699   3.192  0.1482  0.0902 -0.3246
 8599SOL    HW137259   4.063   2.717   3.190 -0.2069  2.1086  0.5447
 8599SOL    HW237260   3.928   2.785   3.196  2.1455  0.9632  1.5632
 8600SOL     OW37261   1.453   1.717   0.439 -0.7069  0.2760 -0.2665
 8600SOL    HW137262   1.543   1.752   0.442 -0.4269 -0.5726  1.1749
 8600SOL    HW237263   1.440   1.705   0.533  0.5023 -2.6671 -0.4920
 8601SOL     OW37264   1.004   4.578  10.846 -0.5378 -0.4276  0.9339
 8601SOL    HW137265   0.933   4.600  10.785 -0.1432 -0.3761  0.4881
 8601SOL    HW237266   1.082   4.594  10.794 -0.8796  1.4832  1.0215
 8602SOL     OW37267   1.714   3.676   2.120  0.0009 -0.3807 -0.2455
 8602SOL    HW137268   1.750   3.762   2.139 -0.0311 -0.6061  0.8321
 8602SOL    HW237269   1.651   3.661   2.191 -1.5056  0.5281 -1.3901
 8603SOL     OW37270   0.347   4.388  17.117 -0.1380  0.2600  0.1324
 8603SOL    HW137271   0.402   4.367  17.042  0.7890 -1.5531  1.3102
 8603SOL    HW237272   0.348   4.305  17.166  2.7115  2.0252  3.0607
 8604SOL     OW37273   1.902   3.210   0.634  0.4489  0.2773 -0.3983
 8604SOL    HW137274   1.997   3.214   0.625  0.5560  1.0006  0.9599
 8604SOL    HW237275   1.872   3.299   0.616 -2.3660 -1.2302 -3.1082
 8605SOL     OW37276   3.338   0.999   7.257 -0.5432 -0.4563  0.2717
 8605SOL    HW137277   3.389   1.040   7.328 -3.7402  0.0321  2.2522
 8605SOL    HW237278   3.318   1.075   7.202  1.8815  0.5178  0.7147
 8606SOL     OW37279   1.342   2.958  17.028 -0.0013 -0.2096  0.1386
 8606SOL    HW137280   1.302   2.888  16.977 -0.2433  0.2813 -0.3375
 8606SOL    HW237281   1.274   3.022  17.045 -0.0033  0.2816 -1.7269
 8607SOL     OW37282   2.907   4.515   5.572 -0.0725 -0.4281 -0.1564
 8607SOL    HW137283   2.960   4.580   5.525 -0.5896  1.2595  1.6176
 8607SOL    HW237284   2.854   4.477   5.502 -0.4897 -3.9376  2.0632
 8608SOL     OW37285   2.555   4.055   8.478  0.4919 -0.0705 -0.2754
 8608SOL    HW137286   2.600   4.054   8.562  3.1600 -2.0731 -1.7478
 8608SOL    HW237287   2.577   3.971   8.439  0.2856 -0.9941  1.6253
 8609SOL     OW37288   1.181   4.396  12.729 -0.2548  0.0972  0.3878
 8609SOL    HW137289   1.215   4.341  12.799  0.3242  0.0486  0.0770
 8609SOL    HW237290   1.095   4.356  12.723 -0.7945  1.1867  0.9870
 8610SOL     OW37291   3.736   3.613  10.508  0.2003 -0.4105 -0.5320
 8610SOL    HW137292   3.793   3.689  10.518  0.2428 -0.4013 -0.8343
 8610SOL    HW237293   3.712   3.585  10.596  1.8146  0.5252  0.2028
 8611SOL     OW37294   4.089   2.895   9.457 -0.3484 -0.9574  0.5425
 8611SOL    HW137295   4.137   2.828   9.505 -0.0530 -0.0954  1.4405
 8611SOL    HW237296   4.082   2.962   9.525  3.2933 -0.0166  0.0227
 8612SOL     OW37297   1.764   1.745   6.354  0.5119  0.9764 -0.8262
 8612SOL    HW137298   1.789   1.813   6.416  1.1228  1.1478 -1.2565
 8612SOL    HW237299   1.673   1.772   6.347  0.9634  2.8488  0.4636
 8613SOL     OW37300   3.024   1.154  15.191  0.7123 -0.0983 -0.6887
 8613SOL    HW137301   3.042   1.238  15.233  0.0772 -0.9998  1.3654
 8613SOL    HW237302   2.954   1.173  15.128 -0.5872 -2.7231  0.0041
 8614SOL     OW37303   0.718   3.680   6.513  0.0853 -0.6633  0.2812
 8614SOL    HW137304   0.643   3.720   6.470  1.2132  1.1933  0.0229
 8614SOL    HW237305   0.780   3.752   6.497  1.5651 -1.5295  2.0186
 8615SOL     OW37306   4.395   0.588   3.572 -0.5844 -0.0461  0.0362
 8615SOL    HW137307   4.466   0.620   3.627  0.2264 -0.9637 -0.4776
 8615SOL    HW237308   4.441   0.524   3.518 -1.7487  0.5091 -1.6096
 8616SOL     OW37309   0.318   0.356   4.162 -0.0181  0.3712 -0.1575
 8616SOL    HW137310   0.397   0.367   4.216  0.2996  0.4251 -0.6345
 8616SOL    HW237311   0.281   0.444   4.168  0.3573  0.5329 -0.1686
 8617SOL     OW37312   2.943   3.353   8.751  0.1676 -0.0344 -0.3674
 8617SOL    HW137313   2.985   3.268   8.737 -1.3323 -0.9875  1.0738
 8617SOL    HW237314   3.012   3.398   8.800 -1.9943  0.5459  2.1247
 8618SOL     OW37315   2.374   0.649   8.190 -0.0869  0.4227 -0.7133
 8618SOL    HW137316   2.419   0.639   8.274 -0.4368  2.2063 -0.3212
 8618SOL    HW237317   2.389   0.563   8.150  0.3004  0.1157  0.0846
 8619SOL     OW37318   2.405   2.614   4.370  0.6001 -0.4227  0.0283
 8619SOL    HW137319   2.465   2.637   4.300  0.1299  0.3376 -0.1256
 8619SOL    HW237320   2.384   2.702   4.399 -3.8788 -0.4921 -3.1313
 8620SOL     OW37321   2.166   0.025  16.300 -0.6358 -0.3569  0.2518
 8620SOL    HW137322   2.082   0.026  16.346 -1.7067 -2.2382 -1.6343
 8620SOL    HW237323   2.214   0.098  16.338 -1.0423 -1.0235  2.0919
 8621SOL     OW37324   4.481   1.078   0.713 -0.0379  0.3559  1.0749
 8621SOL    HW137325   4.469   1.173   0.721  1.3603  0.4419  2.2482
 8621SOL    HW237326   4.522   1.055   0.797  0.8017  1.6973  1.0351
 8622SOL     OW37327   2.643   1.677   7.577 -0.3471 -0.0872 -0.0287
 8622SOL    HW137328   2.675   1.744   7.637  1.2130  1.0282 -2.0913
 8622SOL    HW237329   2.681   1.713   7.498 -0.5135 -2.6734 -1.2930
 8623SOL     OW37330   1.141   4.177   2.601  0.5360  0.2558  0.7503
 8623SOL    HW137331   1.106   4.089   2.591  0.9807  0.3460 -1.5299
 8623SOL    HW237332   1.059   4.227   2.605 -0.3202 -0.8106 -3.6553
 8624SOL     OW37333   2.307   3.187   7.967 -0.0782  0.3643  0.7432
 8624SOL    HW137334   2.403   3.191   7.959  0.0990 -3.2410  1.4281
 8624SOL    HW237335   2.303   3.181   8.062  0.6890  3.0013  0.9406
 8625SOL     OW37336   3.565   1.316   2.791  0.8166  0.2091  0.8846
 8625SOL    HW137337   3.554   1.232   2.746 -2.9004  0.9676  0.4224
 8625SOL    HW237338   3.649   1.333   2.748  0.5262 -0.3053  0.1233
 8626SOL     OW37339   2.608   1.601   4.364 -0.0569  0.5773 -0.4816
 8626SOL    HW137340   2.605   1.633   4.274 -1.0616  1.7034 -0.0585
 8626SOL    HW237341   2.524   1.556   4.377  0.3393  0.1728  0.7041
 8627SOL     OW37342   0.030   2.791   0.595 -0.3720 -0.3568 -0.4489
 8627SOL    HW137343   0.073   2.717   0.550 -0.1723 -1.2168  1.1625
 8627SOL    HW237344   4.720   2.839   0.520  1.2877 -1.1622 -1.7524
 8628SOL     OW37345   1.668   4.573   3.337 -0.4596  1.0449 -0.1327
 8628SOL    HW137346   1.577   4.582   3.365  0.4333  2.1257  2.3746
 8628SOL    HW237347   1.719   4.594   3.415 -0.5053 -0.6365  0.3345
 8629SOL     OW37348   0.201   0.055   3.110 -0.0130 -0.4076  0.0463
 8629SOL    HW137349   0.230   4.717   3.044  1.5248 -3.3155  3.4491
 8629SOL    HW237350   0.233   0.131   3.062 -0.1445 -2.2002 -2.8653
 8630SOL     OW37351   3.473   0.243  14.554 -0.0773 -0.1886  0.3249
 8630SOL    HW137352   3.451   0.169  14.611 -1.4162  0.6694  0.9344
 8630SOL    HW237353   3.545   0.203  14.505 -0.6362 -0.2536 -0.4352
 8631SOL     OW37354   3.604   3.962  12.358  0.3057  0.7405  0.2735
 8631SOL    HW137355   3.561   4.035  12.314  0.5003  0.9248  0.3922
 8631SOL    HW237356   3.603   3.894  12.290  0.9286  0.2792  0.7267
 8632SOL     OW37357   3.414   3.885  15.937  0.3532 -0.7740  0.1807
 8632SOL    HW137358   3.474   3.811  15.927 -0.2739 -0.9264 -2.6751
 8632SOL    HW237359   3.386   3.905  15.847  1.8605  1.6057  0.2511
 8633SOL     OW37360   3.159   2.183   4.232  0.4557 -0.2806 -0.5827
 8633SOL    HW137361   3.067   2.175   4.258  0.4585  2.4756  0.2956
 8633SOL    HW237362   3.163   2.277   4.210 -0.9037  0.3600  1.8921
 8634SOL     OW37363   3.254   0.171   3.708  0.0874  0.4118  0.2785
 8634SOL    HW137364   3.322   0.105   3.694  0.0396  0.1140  1.3874
 8634SOL    HW237365   3.295   0.212   3.784 -0.2351  0.1533  0.5993
 8635SOL     OW37366   4.028   4.032   7.653  0.5393 -0.6911 -0.6910
 8635SOL    HW137367   3.951   4.068   7.696  2.0049  1.3825  0.1761
 8635SOL    HW237368   4.064   4.108   7.607  0.0255  0.9647  1.6251
 8636SOL     OW37369   3.983   4.126  12.358 -0.0902  0.3060  0.1829
 8636SOL    HW137370   3.949   4.056  12.413  0.5101 -0.6187 -0.6368
 8636SOL    HW237371   3.953   4.101  12.270 -0.6075 -1.3830  0.8381
 8637SOL     OW37372   4.305   1.896   4.120 -0.0288 -0.8033 -0.1287
 8637SOL    HW137373   4.265   1.809   4.109  0.1636 -1.1111  1.6462
 8637SOL    HW237374   4.225   1.947   4.108 -0.9479 -1.6168  2.4579
 8638SOL     OW37375   0.675   2.032   4.933  0.4045  0.4798  0.4824
 8638SOL    HW137376   0.731   2.087   4.879  0.7868 -0.5874 -0.2017
 8638SOL    HW237377   0.588   2.053   4.900  0.4437  0.7528  0.5509
 8639SOL     OW37378   3.945   2.595   4.643  0.1589  0.1413  0.9519
 8639SOL    HW137379   4.013   2.530   4.663 -1.3602 -1.2229  1.6614
 8639SOL    HW237380   3.991   2.677   4.662  1.1130 -0.7614  2.6185
 8640SOL     OW37381   0.859   1.087   6.599  0.3397  0.4592 -0.1430
 8640SOL    HW137382   0.766   1.084   6.578  0.3813 -1.2715 -0.1420
 8640SOL    HW237383   0.871   1.150   6.670 -0.0367 -0.9477  1.1674
 8641SOL     OW37384   2.641   1.505   3.814  0.0141  0.2113  0.2776
 8641SOL    HW137385   2.655   1.564   3.888 -1.3494  0.6152  0.2173
 8641SOL    HW237386   2.712   1.509   3.749  0.2949 -1.8587  0.4431
 8642SOL     OW37387   0.513   3.293   3.819  0.2998  0.3359 -0.8888
 8642SOL    HW137388   0.503   3.343   3.900  1.5729 -0.3620 -0.3088
 8642SOL    HW237389   0.423   3.305   3.787 -0.1782  3.3545  1.5440
 8643SOL     OW37390   1.569   3.214   9.253  0.2704 -0.2209  0.4058
 8643SOL    HW137391   1.495   3.183   9.306 -0.1991  1.4841  0.7473
 8643SOL    HW237392   1.615   3.136   9.223 -0.9331 -0.7402 -0.0989
 8644SOL     OW37393   2.806   2.176   8.932 -0.5822  0.4436  0.2472
 8644SOL    HW137394   2.892   2.164   8.971 -0.1492 -1.3609 -1.2604
 8644SOL    HW237395   2.821   2.139   8.845  0.3139 -2.3178  1.5754
 8645SOL     OW37396   1.509   2.902   0.805 -0.6552 -0.3705 -0.0760
 8645SOL    HW137397   1.580   2.921   0.867 -1.9638  1.0245  0.9929
 8645SOL    HW237398   1.428   2.912   0.855 -0.1759 -1.4103  0.9138
 8646SOL     OW37399   4.206   2.571  16.574 -0.1059  0.3493  0.0392
 8646SOL    HW137400   4.227   2.658  16.605  0.1072 -0.5185  2.3091
 8646SOL    HW237401   4.117   2.559  16.607  0.3457 -0.7352  0.8766
 8647SOL     OW37402   3.929   3.118   0.593 -0.0996 -0.1024  0.4291
 8647SOL    HW137403   3.872   3.045   0.570  0.9510 -1.1330  1.0961
 8647SOL    HW237404   3.873   3.180   0.639 -1.8574 -1.1005 -0.3785
 8648SOL     OW37405   4.139   0.509   6.076  0.3383  0.2382  0.0206
 8648SOL    HW137406   4.142   0.592   6.030 -0.2369  1.1213  1.5521
 8648SOL    HW237407   4.231   0.483   6.066  0.1817  1.1629 -3.6659
 8649SOL     OW37408   2.055   3.759   7.031 -0.5485 -0.0230  0.2521
 8649SOL    HW137409   1.964   3.784   7.016  0.0959  1.4690 -1.0948
 8649SOL    HW237410   2.094   3.834   7.077 -0.9077 -0.4716  1.2733
 8650SOL     OW37411   0.235   2.704  12.313  0.1913  0.3560 -0.5706
 8650SOL    HW137412   0.231   2.738  12.223 -0.4605 -1.1892 -1.1408
 8650SOL    HW237413   0.289   2.626  12.297 -0.2024  0.0204 -0.2457
 8651SOL     OW37414   1.720   1.149  12.792 -0.4114  0.3219 -0.6492
 8651SOL    HW137415   1.742   1.088  12.863 -0.1206 -0.1935 -1.1823
 8651SOL    HW237416   1.765   1.226  12.828  0.5720 -0.5123 -0.0833
 8652SOL     OW37417   1.014   3.184   2.904  0.3486 -0.0481 -0.4330
 8652SOL    HW137418   0.990   3.174   2.811  1.4417 -3.4023 -0.3442
 8652SOL    HW237419   1.109   3.197   2.899  0.6152 -1.9026 -0.4086
 8653SOL     OW37420   1.327   1.693   8.593 -0.4151  0.4227 -0.1591
 8653SOL    HW137421   1.379   1.615   8.612 -1.2375 -0.2280 -0.5795
 8653SOL    HW237422   1.389   1.757   8.557  1.0613 -1.1349 -0.3255
 8654SOL     OW37423   2.122   3.688   6.549 -0.3844 -0.0777  0.4633
 8654SOL    HW137424   2.123   3.678   6.644 -1.1876 -1.6206  0.3262
 8654SOL    HW237425   2.213   3.714   6.533 -0.9325  0.7906 -1.2613
 8655SOL     OW37426   1.884   0.001   7.116  0.4140  0.0061  0.4167
 8655SOL    HW137427   1.850   4.708   7.203  1.7552 -1.2812  0.6667
 8655SOL    HW237428   1.820   0.066   7.086 -0.1888 -1.0164 -0.5086
 8656SOL     OW37429   4.315   4.264   9.420  0.1956  0.1844 -0.3525
 8656SOL    HW137430   4.345   4.194   9.478  0.7344 -0.1699 -1.0722
 8656SOL    HW237431   4.250   4.306   9.477 -1.8287 -1.0392 -1.7628
 8657SOL     OW37432   4.249   3.850   3.500 -0.4639  0.1095 -0.7082
 8657SOL    HW137433   4.282   3.915   3.438  0.3997 -0.2347 -0.6186
 8657SOL    HW237434   4.300   3.861   3.581  0.2707 -0.6878 -1.0626
 8658SOL     OW37435   0.448   1.973   2.838 -0.2467 -0.9008 -0.3636
 8658SOL    HW137436   0.370   1.927   2.869 -0.7223 -1.6220 -2.6409
 8658SOL    HW237437   0.494   1.986   2.920  1.7722 -0.6310 -1.5507
 8659SOL     OW37438   2.688   1.371   6.495 -0.1054  0.4079  0.3845
 8659SOL    HW137439   2.598   1.348   6.519 -0.9783  2.8007 -0.6109
 8659SOL    HW237440   2.695   1.337   6.405  1.1977  1.6026  0.0435
 8660SOL     OW37441   2.547   2.268   9.030 -0.2273  0.3390 -0.4237
 8660SOL    HW137442   2.489   2.196   9.054 -1.4198  0.8256 -1.8350
 8660SOL    HW237443   2.625   2.225   8.996  1.1544  2.0121  0.6242
 8661SOL     OW37444   2.824   2.568   7.735  0.5651 -0.0462 -0.1574
 8661SOL    HW137445   2.775   2.646   7.761  1.0100  0.4984 -0.9557
 8661SOL    HW237446   2.763   2.519   7.679 -1.6283 -0.2712  2.4326
 8662SOL     OW37447   1.735   1.911   3.059  0.5808 -0.0027  0.7370
 8662SOL    HW137448   1.812   1.859   3.081  1.4714  1.2609  0.6557
 8662SOL    HW237449   1.782   1.989   3.030  0.1697 -0.4401 -1.0444
 8663SOL     OW37450   0.435   1.177  10.405  0.6512 -0.0439  0.1263
 8663SOL    HW137451   0.443   1.269  10.429 -0.4512 -0.2341  1.2715
 8663SOL    HW237452   0.414   1.140  10.491 -1.9755 -0.9657 -0.9030
 8664SOL     OW37453   0.847   3.956   4.125 -0.0867 -0.0192  0.2087
 8664SOL    HW137454   0.873   3.882   4.181 -1.2314 -1.3897 -1.0675
 8664SOL    HW237455   0.819   4.025   4.185 -0.1171  0.1271  0.0245
 8665SOL     OW37456   0.485   3.748   6.085  0.4825  0.5654 -0.0599
 8665SOL    HW137457   0.502   3.735   5.992 -0.1507 -1.4662  0.1014
 8665SOL    HW237458   0.393   3.774   6.087  1.2070  3.2693 -2.3764
 8666SOL     OW37459   2.908   3.613   8.133  0.2214  0.2350 -0.3901
 8666SOL    HW137460   2.901   3.538   8.073 -1.9551  0.4437 -0.3766
 8666SOL    HW237461   2.956   3.574   8.206 -0.1004  0.7583  0.0953
 8667SOL     OW37462   0.000   3.162   7.207  0.0421 -0.0188  0.2456
 8667SOL    HW137463   0.066   3.145   7.275  0.4276  2.1628  0.4182
 8667SOL    HW237464   0.017   3.089   7.148 -1.1115 -1.1076  1.2673
 8668SOL     OW37465   4.557   2.429   9.953 -0.1284 -0.0356 -0.7031
 8668SOL    HW137466   4.607   2.372   9.894  1.0319 -1.1580  1.3494
 8668SOL    HW237467   4.473   2.384   9.963  0.3975 -0.8096  0.3885
 8669SOL     OW37468   0.887   3.757  15.996 -0.0787 -0.1085  0.4930
 8669SOL    HW137469   0.831   3.691  16.036 -1.1253  0.9061  0.7054
 8669SOL    HW237470   0.872   3.722  15.908  1.3164  0.5872 -0.0334
 8670SOL     OW37471   3.233   3.141   4.730 -0.1334 -0.3799 -1.1522
 8670SOL    HW137472   3.217   3.215   4.670 -1.7812 -0.6047 -0.9833
 8670SOL    HW237473   3.193   3.070   4.680 -2.0197  0.5081 -0.9243
 8671SOL     OW37474   4.490   2.254  16.096 -0.2014  0.7621 -0.0880
 8671SOL    HW137475   4.428   2.192  16.133  1.7086 -0.9632  0.1787
 8671SOL    HW237476   4.458   2.333  16.140  1.1500  0.0038  2.2415
 8672SOL     OW37477   4.669   4.501   0.492  0.1312  0.0527  0.3758
 8672SOL    HW137478   0.022   4.543   0.457 -0.7479  1.3596  0.0033
 8672SOL    HW237479   4.603   4.509   0.424 -1.5931 -0.9676  1.9377
 8673SOL     OW37480   2.831   2.662  16.786 -0.1472 -0.2242  0.2465
 8673SOL    HW137481   2.758   2.710  16.746  0.4023 -1.1973 -1.9461
 8673SOL    HW237482   2.838   2.694  16.875 -0.7284  0.7413 -0.0514
 8674SOL     OW37483   2.797   4.630   9.618 -0.0818 -0.6391  0.1553
 8674SOL    HW137484   2.704   4.608   9.612  0.4022 -2.3017 -1.2126
 8674SOL    HW237485   2.799   4.681   9.537 -0.8199  1.5343  1.5115
 8675SOL     OW37486   3.022   2.173   5.311  0.0097 -0.0259 -0.2483
 8675SOL    HW137487   3.057   2.192   5.398 -0.5588 -1.7358  0.3489
 8675SOL    HW237488   3.078   2.224   5.253 -1.7499  1.8130 -0.3379
 8676SOL     OW37489   4.232   0.069   8.043  0.2709 -0.2745 -0.4931
 8676SOL    HW137490   4.267   0.065   7.954 -1.6492  1.5975 -1.3243
 8676SOL    HW237491   4.268   4.714   8.081 -0.0386 -0.4864 -0.6473
 8677SOL     OW37492   4.629   1.686   1.888  0.3805  0.2136 -0.5240
 8677SOL    HW137493   4.599   1.732   1.966 -2.8494  0.1978 -1.7591
 8677SOL    HW237494   4.565   1.707   1.820 -1.0636  1.4368  1.2250
 8678SOL     OW37495   1.559   1.233   2.082 -0.1092  0.0200 -0.5149
 8678SOL    HW137496   1.592   1.323   2.077  1.1185 -0.2456  3.2165
 8678SOL    HW237497   1.564   1.205   1.990  0.0599 -0.0081 -0.4963
 8679SOL     OW37498   2.080   0.020  17.629 -0.0146  0.0761 -0.3202
 8679SOL    HW137499   2.061   4.700   0.010 -2.4892  1.5903 -0.0591
 8679SOL    HW237500   2.153   0.080  17.642 -0.2740 -0.1791  2.3056
 8680SOL     OW37501   1.057   3.190   6.863 -0.3286  0.1019  0.0033
 8680SOL    HW137502   0.986   3.147   6.910  0.4139 -1.0664  0.0652
 8680SOL    HW237503   1.130   3.171   6.923 -0.1962  2.1102  0.4705
 8681SOL     OW37504   0.868   2.141   5.681 -0.0624 -0.2227 -0.0835
 8681SOL    HW137505   0.860   2.046   5.688  3.6536 -0.5870 -0.7455
 8681SOL    HW237506   0.800   2.172   5.740  0.9492  0.7627  0.5579
 8682SOL     OW37507   2.434   3.330   2.977  0.2386 -0.2147 -0.1107
 8682SOL    HW137508   2.487   3.367   3.047  0.3807  0.4281 -0.5601
 8682SOL    HW237509   2.380   3.266   3.023  0.6428  0.8785  1.8837
 8683SOL     OW37510   4.697   3.337   4.862  0.1891 -0.0815 -0.2232
 8683SOL    HW137511   0.046   3.395   4.883  0.0578 -0.1974  0.5518
 8683SOL    HW237512   4.625   3.399   4.866  0.8839  0.5268  2.9027
 8684SOL     OW37513   1.440   2.347   8.619 -0.2088  0.6699 -0.1478
 8684SOL    HW137514   1.413   2.426   8.667  1.0915  0.4402  0.9539
 8684SOL    HW237515   1.527   2.368   8.585  0.4060 -1.3595  0.1458
 8685SOL     OW37516   0.894   0.270   5.073  0.5741 -0.4114  0.1030
 8685SOL    HW137517   0.844   0.347   5.099  2.5587  1.4361 -1.5031
 8685SOL    HW237518   0.851   0.201   5.123  0.5819 -0.9551 -0.6385
 8686SOL     OW37519   3.861   3.983   3.851 -0.6301  0.5447 -0.1247
 8686SOL    HW137520   3.775   4.016   3.877 -0.4639  2.2687 -1.7610
 8686SOL    HW237521   3.914   4.057   3.879 -0.9583 -0.6731  3.7344
 8687SOL     OW37522   3.231   3.117   6.655 -0.2698  0.3268  0.9237
 8687SOL    HW137523   3.149   3.165   6.640  0.2220  1.1701  0.9686
 8687SOL    HW237524   3.286   3.192   6.676 -0.6411  1.0440 -0.6869
 8688SOL     OW37525   0.826   3.075   4.050 -0.7713  0.8197 -0.1126
 8688SOL    HW137526   0.819   2.980   4.038  0.9425  0.3677  2.5770
 8688SOL    HW237527   0.898   3.085   4.112 -0.8555  0.3557  0.0570
 8689SOL     OW37528   2.747   0.682  17.632 -0.1019  0.2182  0.1503
 8689SOL    HW137529   2.730   0.613  17.567  0.8026 -1.1270  1.3277
 8689SOL    HW237530   2.720   0.762  17.588 -2.3526 -0.0685  1.0263
 8690SOL     OW37531   3.209   1.692   2.302  0.0187 -0.1159  0.7988
 8690SOL    HW137532   3.144   1.753   2.267 -1.1791 -2.5517 -1.2869
 8690SOL    HW237533   3.175   1.682   2.391 -1.2189  0.9848  0.4481
 8691SOL     OW37534   0.038   0.779  10.140  0.2723 -0.1886  0.5836
 8691SOL    HW137535   0.070   0.705  10.089 -1.1766  0.4414 -1.2768
 8691SOL    HW237536   0.051   0.738  10.225  1.2286 -2.3994 -0.6340
 8692SOL     OW37537   2.200   3.375   4.181 -0.0994 -0.7495 -0.7596
 8692SOL    HW137538   2.211   3.445   4.245  0.6194  0.7285 -2.5090
 8692SOL    HW237539   2.240   3.297   4.219  0.9058  0.3930  0.5085
 8693SOL     OW37540   2.128   0.775   6.894 -0.4470  0.3691  0.3564
 8693SOL    HW137541   2.082   0.823   6.963  2.2088  0.7368  1.8620
 8693SOL    HW237542   2.186   0.719   6.946  1.5071  1.8143 -0.2385
 8694SOL     OW37543   4.206   4.661   4.104  0.6199 -0.6619 -0.5086
 8694SOL    HW137544   4.282   4.680   4.159 -0.7891  0.2118  1.1126
 8694SOL    HW237545   4.181   0.026   4.084  0.7214 -0.1614  1.6345
 8695SOL     OW37546   3.826   3.784  15.191 -0.5107 -0.0360  0.1131
 8695SOL    HW137547   3.859   3.826  15.111  1.7768 -0.2157  0.9708
 8695SOL    HW237548   3.861   3.698  15.170 -3.6882 -1.1188 -0.7517
 8696SOL     OW37549   2.087   4.136   1.887 -0.1014 -0.6004  0.0889
 8696SOL    HW137550   2.010   4.186   1.913 -1.1488 -1.0428 -2.1465
 8696SOL    HW237551   2.120   4.106   1.972 -0.0805  0.1653  0.3482
 8697SOL     OW37552   3.328   4.235  13.994  0.1605  0.4815 -0.1729
 8697SOL    HW137553   3.320   4.330  14.001 -1.9308  0.2622  0.5104
 8697SOL    HW237554   3.292   4.214  14.081 -2.5695  3.3055 -0.6266
 8698SOL     OW37555   4.199   0.155   0.751 -0.1576  0.3034 -0.8943
 8698SOL    HW137556   4.172   0.069   0.783 -0.4021  0.9216  0.5945
 8698SOL    HW237557   4.128   0.175   0.690  0.4034  1.6135 -1.1169
 8699SOL     OW37558   3.322   1.255   7.803  0.0862  0.2391  0.0400
 8699SOL    HW137559   3.267   1.316   7.755  0.5975 -0.0689 -0.9537
 8699SOL    HW237560   3.363   1.311   7.869  0.5340 -0.0188 -0.0170
 8700SOL     OW37561   3.242   1.693  14.552  0.1739  0.3461 -0.5903
 8700SOL    HW137562   3.215   1.727  14.467  0.6098  0.8071 -0.5443
 8700SOL    HW237563   3.163   1.654  14.589  0.1459  1.1156  0.1562
 8701SOL     OW37564   0.017   1.235   7.436 -0.0395 -0.4976 -0.3595
 8701SOL    HW137565   0.090   1.191   7.479 -0.1192  1.0940  1.3994
 8701SOL    HW237566   4.666   1.195   7.479 -0.6582  1.9350  0.7877
 8702SOL     OW37567   4.610   1.893   3.310  0.2747  0.4531 -0.1005
 8702SOL    HW137568   4.591   1.965   3.371  0.8680 -0.3165  0.9921
 8702SOL    HW237569   4.559   1.824   3.352  1.2556 -0.2336 -0.0355
 8703SOL     OW37570   1.342   4.443   8.991 -0.1488  0.3068 -0.7313
 8703SOL    HW137571   1.365   4.381   8.922 -0.4163  2.4304 -2.7036
 8703SOL    HW237572   1.417   4.500   9.006  1.3739 -1.7935 -0.2567
 8704SOL     OW37573   3.872   4.623   2.449  0.2541  0.5029 -0.1834
 8704SOL    HW137574   3.903   4.626   2.358 -1.0176 -3.5187 -0.7383
 8704SOL    HW237575   3.780   4.646   2.431 -0.0471 -1.8563 -1.6797
 8705SOL     OW37576   3.912   1.957   7.961  0.0034 -0.0285  0.2233
 8705SOL    HW137577   3.871   2.027   7.911  1.3660  0.7680  0.2180
 8705SOL    HW237578   3.880   1.967   8.051 -3.2029  1.2383 -1.0667
 8706SOL     OW37579   1.403   0.257   1.109  0.0201  0.0800 -0.6283
 8706SOL    HW137580   1.361   0.317   1.170 -2.0036 -0.8648 -1.1177
 8706SOL    HW237581   1.341   0.271   1.038  0.8739  1.6134 -1.0696
 8707SOL     OW37582   3.059   2.215  12.715 -0.6077 -0.3151 -0.0825
 8707SOL    HW137583   3.134   2.256  12.757  0.1510  1.1709 -2.8193
 8707SOL    HW237584   3.003   2.293  12.709 -1.5945 -0.9517  0.9776
 8708SOL     OW37585   4.331   1.946   8.087  0.0413  0.1329  0.1795
 8708SOL    HW137586   4.266   1.877   8.070 -0.7088  1.0077 -0.5478
 8708SOL    HW237587   4.401   1.911   8.142 -1.4438 -2.3324  0.4833
 8709SOL     OW37588   0.843   0.522  14.326 -0.6457 -0.0424  0.2042
 8709SOL    HW137589   0.794   0.578  14.266 -0.2509  0.7024  0.5668
 8709SOL    HW237590   0.805   0.551  14.409  0.7086 -0.0550  0.8391
 8710SOL     OW37591   2.542   0.594   2.608 -0.2647  0.0563 -0.4746
 8710SOL    HW137592   2.578   0.593   2.519 -2.6471  2.4816 -1.4411
 8710SOL    HW237593   2.486   0.671   2.609  0.2327  0.4289 -1.5429
 8711SOL     OW37594   1.394   1.639  16.647  0.2137 -0.1228 -0.0233
 8711SOL    HW137595   1.301   1.623  16.628 -0.2074 -0.1808  2.0693
 8711SOL    HW237596   1.394   1.657  16.741 -0.9231  1.8721 -0.4014
 8712SOL     OW37597   0.542   3.077   4.413  0.1387  0.1949  0.2174
 8712SOL    HW137598   0.447   3.064   4.414  0.2310 -0.4510  0.8167
 8712SOL    HW237599   0.553   3.059   4.507  0.6931  0.8631  0.2745
 8713SOL     OW37600   2.313   3.165  11.106 -0.0416  0.3439  0.5262
 8713SOL    HW137601   2.309   3.247  11.154 -0.5216 -0.4115  1.7740
 8713SOL    HW237602   2.396   3.153  11.061 -0.4747  0.0357 -0.2066
 8714SOL     OW37603   4.094   2.926   2.001  0.0811  0.8664 -0.2561
 8714SOL    HW137604   4.147   2.959   1.928  1.8252 -0.8061  0.2514
 8714SOL    HW237605   4.145   2.848   2.021  1.1519  1.5924 -0.1911
 8715SOL     OW37606   0.568   0.182   5.676  0.4207 -0.2625 -0.2584
 8715SOL    HW137607   0.599   0.183   5.766 -2.7509  1.0253  0.7899
 8715SOL    HW237608   0.651   0.183   5.629 -0.6755 -1.2930 -2.2497
 8716SOL     OW37609   2.259   2.641  17.457  0.2840  0.9577 -0.4079
 8716SOL    HW137610   2.192   2.691  17.504 -0.2320  0.0947 -0.2122
 8716SOL    HW237611   2.294   2.701  17.392  2.7990 -0.1326 -0.0818
 8717SOL     OW37612   4.179   0.744   6.981 -0.7837 -0.3718  0.4141
 8717SOL    HW137613   4.116   0.678   6.953 -0.0707 -0.0655 -1.9643
 8717SOL    HW237614   4.252   0.696   7.020 -1.4729  1.0019  3.3304
 8718SOL     OW37615   3.708   4.475   8.018 -0.2557  1.0517  0.4249
 8718SOL    HW137616   3.734   4.383   8.024 -1.1841  0.7919  0.4422
 8718SOL    HW237617   3.777   4.511   8.074  0.2132  1.9193 -0.7121
 8719SOL     OW37618   1.496   3.409   8.309 -0.0422  0.1476 -0.0121
 8719SOL    HW137619   1.415   3.431   8.356  0.3683 -0.6192  1.0532
 8719SOL    HW237620   1.507   3.322   8.347  2.1245 -0.1318 -1.2945
 8720SOL     OW37621   0.724   1.071   4.422  0.3406  0.0515 -0.2099
 8720SOL    HW137622   0.658   1.088   4.489 -0.7611  0.3190 -1.3888
 8720SOL    HW237623   0.676   1.054   4.342  0.4205  1.2590 -0.5116
 8721SOL     OW37624   2.894   2.645   4.811 -0.2656  0.5344  0.3411
 8721SOL    HW137625   2.868   2.627   4.901 -0.6671  1.1844  0.3567
 8721SOL    HW237626   2.812   2.673   4.770  1.1771  1.3768 -1.9534
 8722SOL     OW37627   3.665   0.195   3.518 -0.8933 -0.1234  0.7536
 8722SOL    HW137628   3.576   0.198   3.482 -1.0690  0.7187  1.2407
 8722SOL    HW237629   3.710   0.263   3.469 -0.0929 -0.7184  0.6732
 8723SOL     OW37630   4.340   4.593   8.178  0.1501  0.1295 -0.4322
 8723SOL    HW137631   4.275   4.598   8.248  1.1733  0.0650  0.5336
 8723SOL    HW237632   4.410   4.627   8.234 -1.2181  0.6086  1.0001
 8724SOL     OW37633   1.562   1.919   6.863 -0.0278  0.2270 -0.1943
 8724SOL    HW137634   1.599   2.007   6.861  0.6093 -0.0899 -2.7425
 8724SOL    HW237635   1.634   1.867   6.826  0.7773  1.3470 -0.1912
 8725SOL     OW37636   4.561   4.299   7.117  0.8696  0.0351 -0.1574
 8725SOL    HW137637   4.494   4.354   7.157  1.0589  0.1723 -0.0256
 8725SOL    HW237638   4.569   4.220   7.171  0.0467  0.2584  0.2855
 8726SOL     OW37639   3.290   3.275   2.355 -0.0673  0.4288 -0.4311
 8726SOL    HW137640   3.253   3.259   2.268  0.7217 -0.9797 -0.5035
 8726SOL    HW237641   3.382   3.298   2.340  0.1080 -1.7744 -2.6894
 8727SOL     OW37642   3.730   4.666   4.871 -0.1442 -0.2251 -0.6557
 8727SOL    HW137643   3.760   0.030   4.855  1.9077 -1.2471 -2.4701
 8727SOL    HW237644   3.813   4.618   4.871  1.0770  1.8704 -1.4205
 8728SOL     OW37645   2.657   4.539   3.469  0.2939  0.9675 -0.1697
 8728SOL    HW137646   2.739   4.504   3.436  1.0105  2.7557 -0.2592
 8728SOL    HW237647   2.633   4.584   3.388  0.5630  1.4342  0.0098
 8729SOL     OW37648   0.318   4.712   8.914  0.1788  0.1840  0.9745
 8729SOL    HW137649   0.230   0.000   8.951  0.6135  1.9981  1.3293
 8729SOL    HW237650   0.299   4.686   8.823  0.9319 -0.6675  1.0596
 8730SOL     OW37651   3.338   0.669  13.676  0.1855 -0.6049 -0.3217
 8730SOL    HW137652   3.287   0.607  13.727  0.7693 -0.8385 -0.0199
 8730SOL    HW237653   3.275   0.740  13.665 -0.5569 -1.4950 -1.8011
 8731SOL     OW37654   2.142   1.219   0.796  0.1658  0.6036 -0.1688
 8731SOL    HW137655   2.156   1.295   0.853 -0.4417  0.4900  0.1291
 8731SOL    HW237656   2.209   1.156   0.822  0.7036  0.2207 -2.5438
 8732SOL     OW37657   4.132   0.033   5.372  0.8667  0.2957  0.2919
 8732SOL    HW137658   4.183   0.025   5.453 -2.1131 -2.7364  1.8755
 8732SOL    HW237659   4.051   0.075   5.401  1.2834  0.0042  1.8981
 8733SOL     OW37660   4.335   3.781  10.765  0.5221  0.6049 -0.0177
 8733SOL    HW137661   4.253   3.732  10.757 -0.1774  1.6503  0.5867
 8733SOL    HW237662   4.388   3.748  10.693  1.8917  1.3065  0.6602
 8734SOL     OW37663   4.270   3.407   3.379  0.4903 -0.0240 -0.0871
 8734SOL    HW137664   4.219   3.326   3.387  0.8832  0.0505  3.0678
 8734SOL    HW237665   4.225   3.442   3.302  3.3114  0.7513 -1.3489
 8735SOL     OW37666   4.224   2.097   3.943  0.4947  0.1861  0.0400
 8735SOL    HW137667   4.303   2.088   3.891 -1.4337 -0.8478 -2.7381
 8735SOL    HW237668   4.253   2.181   3.976 -1.0094  0.9132 -0.4562
 8736SOL     OW37669   4.535   4.339   5.388  0.6468 -0.5085 -0.0308
 8736SOL    HW137670   4.618   4.340   5.339  0.0277 -0.9071 -1.0830
 8736SOL    HW237671   4.480   4.394   5.332  1.4760  0.2233 -0.1400
 8737SOL     OW37672   1.711   0.150  16.826 -0.2872  0.1089 -0.0275
 8737SOL    HW137673   1.644   0.085  16.808 -2.2973  1.4015  2.7026
 8737SOL    HW237674   1.706   0.202  16.746  1.2046 -0.1701 -0.3051
 8738SOL     OW37675   3.524   1.629   5.686 -0.0324 -0.0467  0.2405
 8738SOL    HW137676   3.455   1.662   5.629  1.8540 -0.6493 -2.3782
 8738SOL    HW237677   3.499   1.660   5.773  1.8684  2.7093 -0.1896
 8739SOL     OW37678   1.662   3.345  15.325  0.4942  0.5285  0.9857
 8739SOL    HW137679   1.682   3.417  15.266  1.1628 -0.6519 -0.2382
 8739SOL    HW237680   1.627   3.277  15.267 -0.4342  2.2587 -0.4688
 8740SOL     OW37681   3.048   1.094   0.830  0.4852 -0.0798 -0.2144
 8740SOL    HW137682   3.094   1.161   0.880  0.1649 -1.6310  2.1849
 8740SOL    HW237683   3.117   1.046   0.784  0.5373  0.4692 -0.7023
 8741SOL     OW37684   0.154   4.345   9.279 -0.1622  0.1670 -0.0249
 8741SOL    HW137685   0.186   4.264   9.318  0.8199  0.6610  0.1795
 8741SOL    HW237686   0.221   4.409   9.304 -0.5200  0.2548  0.7074
 8742SOL     OW37687   2.119   3.435  13.067 -0.1570  0.2548 -0.1590
 8742SOL    HW137688   2.154   3.350  13.096  0.1751 -0.0369 -1.3890
 8742SOL    HW237689   2.075   3.408  12.987 -1.2627 -0.0823  0.5691
 8743SOL     OW37690   4.057   4.178   8.535 -0.3240  0.3346  0.2729
 8743SOL    HW137691   4.115   4.185   8.610 -1.9352  2.0328  1.3638
 8743SOL    HW237692   3.986   4.122   8.565  0.9375 -1.0711  0.6298
 8744SOL     OW37693   0.405   4.711   7.572 -0.0347 -1.0816 -0.0149
 8744SOL    HW137694   0.323   4.676   7.537  0.9818 -2.6962 -0.8197
 8744SOL    HW237695   0.464   4.661   7.516 -0.5259  1.2188 -2.5652
 8745SOL     OW37696   1.865   1.949  10.944 -0.1079 -0.6041 -0.4321
 8745SOL    HW137697   1.813   1.998  10.881 -0.4062  0.7794  0.9050
 8745SOL    HW237698   1.871   2.008  11.020 -0.3429 -1.7366  0.4727
 8746SOL     OW37699   3.694   0.976   5.640 -0.1436 -0.1959  0.4750
 8746SOL    HW137700   3.648   0.994   5.558 -0.4832  0.6204  0.8431
 8746SOL    HW237701   3.616   0.978   5.696 -1.2551 -1.3400 -1.0323
 8747SOL     OW37702   1.030   2.620  16.969  0.3016 -0.2865 -0.5851
 8747SOL    HW137703   1.108   2.666  16.939 -0.3891  1.3726  0.1741
 8747SOL    HW237704   1.049   2.546  17.026 -1.3722 -0.1885  0.1041
 8748SOL     OW37705   2.604   1.012  16.039 -0.3601 -0.2257 -0.8061
 8748SOL    HW137706   2.589   0.934  16.094  1.1305  0.8009  1.0645
 8748SOL    HW237707   2.643   0.966  15.964 -0.8261 -1.0628 -0.5333
 8749SOL     OW37708   0.520   2.976   8.163  0.0673  0.5437 -0.2316
 8749SOL    HW137709   0.480   2.936   8.241  0.1076  1.2262  0.1408
 8749SOL    HW237710   0.470   2.939   8.091 -0.5525  1.3945 -0.2445
 8750SOL     OW37711   4.170   1.660   6.443 -0.3813  0.2401  0.5162
 8750SOL    HW137712   4.083   1.637   6.410  0.4102 -1.1936 -0.5567
 8750SOL    HW237713   4.149   1.712   6.521 -0.7421 -0.0489  0.6162
 8751SOL     OW37714   3.783   3.967  14.153 -0.3428 -0.4807  0.0904
 8751SOL    HW137715   3.734   3.924  14.223 -3.6006 -0.3740 -2.1144
 8751SOL    HW237716   3.715   4.012  14.102  0.7364  1.9055  0.7347
 8752SOL     OW37717   1.708   0.962   8.006 -0.4179 -0.2391  0.2570
 8752SOL    HW137718   1.803   0.950   8.013 -0.6182 -0.3642  2.7563
 8752SOL    HW237719   1.668   0.900   8.066 -0.8016  0.2547  0.5091
 8753SOL     OW37720   0.807   3.001   9.403 -0.1693  0.0980  0.3456
 8753SOL    HW137721   0.829   2.909   9.385 -0.3557  0.0477  0.3751
 8753SOL    HW237722   0.760   2.988   9.486 -0.2599 -3.2036 -0.1983
 8754SOL     OW37723   1.345   1.125   4.153  0.3881  0.1796  0.0820
 8754SOL    HW137724   1.283   1.069   4.201  1.8362 -2.9183 -1.7025
 8754SOL    HW237725   1.425   1.087   4.187  0.5712  0.9260  0.4921
 8755SOL     OW37726   1.738   4.133   5.588 -0.4359  0.0782 -0.0973
 8755SOL    HW137727   1.787   4.193   5.533 -0.2278  0.1843  0.2029
 8755SOL    HW237728   1.778   4.150   5.673 -0.8311 -1.4891  0.4181
 8756SOL     OW37729   3.388   2.528   6.808 -0.2936 -0.6875  0.3328
 8756SOL    HW137730   3.385   2.506   6.901 -1.3093 -1.1523  0.1860
 8756SOL    HW237731   3.465   2.584   6.804 -2.0212  1.5310 -2.2140
 8757SOL     OW37732   0.395   0.061   6.453 -0.8866 -0.0879  0.7097
 8757SOL    HW137733   0.395   4.699   6.414  1.8982  1.0119 -1.8149
 8757SOL    HW237734   0.488   0.073   6.469 -0.8818 -0.4867  0.9542
 8758SOL     OW37735   3.260   1.470  16.197 -0.3862 -0.0119  0.0459
 8758SOL    HW137736   3.175   1.429  16.208 -0.9968  0.7866 -1.7670
 8758SOL    HW237737   3.255   1.530  16.123  1.0449 -0.7020 -0.6283
 8759SOL     OW37738   2.669   2.624   5.458 -0.1110  0.4595 -0.0916
 8759SOL    HW137739   2.644   2.699   5.404 -1.3657 -0.7912 -1.2461
 8759SOL    HW237740   2.757   2.646   5.490  0.1954  1.1739 -1.4488
 8760SOL     OW37741   1.058   1.501  16.936 -0.0728 -0.5611 -0.2190
 8760SOL    HW137742   1.144   1.461  16.948 -0.2381 -0.8859 -0.1294
 8760SOL    HW237743   1.076   1.585  16.979  1.6692 -1.4474  0.7788
 8761SOL     OW37744   4.449   4.409   4.884 -0.4424 -0.2286 -0.4627
 8761SOL    HW137745   4.383   4.355   4.928  0.4372 -1.2654 -0.3909
 8761SOL    HW237746   4.489   4.330   4.847 -3.0762 -1.4066 -0.7792
 8762SOL     OW37747   2.246   1.960  15.898  0.4099 -0.3438  0.2786
 8762SOL    HW137748   2.302   1.883  15.884  1.5577  0.8508 -1.6069
 8762SOL    HW237749   2.281   1.998  15.978 -2.5765 -0.1967  1.5355
 8763SOL     OW37750   1.985   1.028  11.096 -0.6136 -0.4326  0.7100
 8763SOL    HW137751   1.991   0.937  11.126  2.5177 -0.5214 -0.1670
 8763SOL    HW237752   1.896   1.019  11.063 -0.5696  0.7339  0.2911
 8764SOL     OW37753   3.625   4.713   9.925  0.2705  0.3242 -0.2261
 8764SOL    HW137754   3.675   4.635   9.951 -0.5710  0.2610  1.1994
 8764SOL    HW237755   3.691   0.051   9.953 -1.0002  1.5217  0.0666
 8765SOL     OW37756   4.067   2.134   4.247 -0.4374 -0.1030 -0.0495
 8765SOL    HW137757   4.093   2.137   4.339 -0.8532  0.7415  0.0465
 8765SOL    HW237758   4.065   2.228   4.228 -2.5987 -0.1572 -0.0976
 8766SOL     OW37759   1.465   4.609  14.603  0.4027  0.6420  0.5435
 8766SOL    HW137760   1.532   4.603  14.536  0.1918 -3.6356  0.7537
 8766SOL    HW237761   1.525   4.621  14.677 -1.4230  1.0562  1.9675
 8767SOL     OW37762   3.404   2.274   2.624 -0.3693 -0.3309 -0.2642
 8767SOL    HW137763   3.351   2.200   2.593 -0.5393  0.8352 -2.7779
 8767SOL    HW237764   3.475   2.228   2.669 -0.0105  0.5577  0.0688
 8768SOL     OW37765   4.682   1.728   9.370 -0.4289  0.1279 -0.7727
 8768SOL    HW137766   0.052   1.726   9.365 -0.5104  0.1414 -2.1864
 8768SOL    HW237767   4.671   1.634   9.353 -0.3529  0.1779 -1.0868
 8769SOL     OW37768   1.052   4.536  13.080 -0.1284  0.3966 -0.6809
 8769SOL    HW137769   1.014   4.573  13.159 -1.3077  2.1899 -2.1119
 8769SOL    HW237770   1.036   4.441  13.084 -0.5171  0.4765 -0.3114
 8770SOL     OW37771   1.805   3.732  11.309 -0.1063 -0.0969  0.4649
 8770SOL    HW137772   1.826   3.809  11.361 -1.3431  0.9046 -0.5050
 8770SOL    HW237773   1.880   3.673  11.315 -0.6907 -0.9201 -0.2968
 8771SOL     OW37774   1.394   0.175   6.771 -0.5938 -0.0954 -0.4812
 8771SOL    HW137775   1.385   0.089   6.812  1.8377  1.1118  2.6121
 8771SOL    HW237776   1.480   0.166   6.730 -0.6603  0.1382 -0.6700
 8772SOL     OW37777   3.935   0.968   6.050 -0.1620 -0.0154 -0.3041
 8772SOL    HW137778   3.942   1.047   6.103  0.5290 -0.7432  0.6960
 8772SOL    HW237779   3.883   0.910   6.107  0.9422  0.5742  1.2976
 8773SOL     OW37780   0.643   4.121  14.041  0.0005  0.0495 -0.0673
 8773SOL    HW137781   0.722   4.155  14.083  1.2595 -0.1052 -2.2942
 8773SOL    HW237782   0.676   4.051  13.984  0.2461  1.7379 -1.9814
 8774SOL     OW37783   0.828   0.363   3.502  0.0197 -0.1516  0.1213
 8774SOL    HW137784   0.866   0.426   3.441 -0.9760 -1.1361 -1.5157
 8774SOL    HW237785   0.774   0.422   3.554 -2.4644 -1.5064 -0.8982
 8775SOL     OW37786   1.957   2.716   4.223  0.2664  0.1831 -0.2863
 8775SOL    HW137787   1.982   2.673   4.305 -0.8811  1.7094  0.8616
 8775SOL    HW237788   1.923   2.798   4.258  0.3352  0.1902 -0.2354
 8776SOL     OW37789   1.969   0.355   8.598  1.1985  0.5731 -0.6886
 8776SOL    HW137790   1.878   0.359   8.569  0.8252 -1.2232  0.1581
 8776SOL    HW237791   1.963   0.279   8.656  2.3265  0.7456 -0.3432
 8777SOL     OW37792   0.306   4.320   6.208  0.0956 -0.3249 -0.0024
 8777SOL    HW137793   0.348   4.264   6.273 -2.0468 -3.1475 -1.0747
 8777SOL    HW237794   0.240   4.363   6.262 -0.8456 -0.2449 -1.2249
 8778SOL     OW37795   2.947   4.339   5.128  0.2056 -0.0951  0.0734
 8778SOL    HW137796   2.871   4.378   5.171 -0.3471  0.7339 -1.6689
 8778SOL    HW237797   2.971   4.408   5.067 -2.0973  0.5786 -0.0831
 8779SOL     OW37798   2.025   4.309   9.160 -0.1477 -1.0743  0.3393
 8779SOL    HW137799   1.989   4.349   9.239  0.7116 -0.0592  0.2289
 8779SOL    HW237800   2.074   4.233   9.190  0.4891 -1.0254 -0.5700
 8780SOL     OW37801   1.421   0.694   2.502  0.1439 -0.4637  0.3083
 8780SOL    HW137802   1.335   0.727   2.476  1.2219  2.9804  1.0311
 8780SOL    HW237803   1.426   0.725   2.593 -2.7769 -1.9235  0.9536
 8781SOL     OW37804   1.994   1.224  15.205 -0.3038  0.6356  0.4921
 8781SOL    HW137805   1.988   1.167  15.281  0.1877  0.3482  0.3171
 8781SOL    HW237806   2.082   1.196  15.181 -0.9827 -0.8881 -0.2780
 8782SOL     OW37807   3.598   2.582   8.543 -0.1579 -0.4394 -0.4092
 8782SOL    HW137808   3.540   2.531   8.600  2.0551 -0.5262  1.7726
 8782SOL    HW237809   3.685   2.556   8.575 -0.9541 -1.8322  0.6218
 8783SOL     OW37810   0.284   3.511   5.176  0.0201  0.2174  0.1682
 8783SOL    HW137811   0.211   3.545   5.125 -3.4793 -5.5387  1.4693
 8783SOL    HW237812   0.318   3.429   5.140 -2.5055 -0.7773  0.0792
 8784SOL     OW37813   2.631   4.305   3.243 -0.0903 -0.0594 -0.0781
 8784SOL    HW137814   2.549   4.342   3.211  0.7021 -0.5954 -2.7354
 8784SOL    HW237815   2.691   4.361   3.194  0.6810  0.5881  1.5683
 8785SOL     OW37816   2.844   0.904   0.856 -0.5435 -0.4861  0.1348
 8785SOL    HW137817   2.763   0.915   0.806  0.8549 -1.7218 -2.4247
 8785SOL    HW237818   2.886   0.990   0.855 -2.4283  0.4196 -0.6543
 8786SOL     OW37819   2.228   2.630  12.828  0.1536 -0.7391  0.1235
 8786SOL    HW137820   2.203   2.561  12.768  0.0369 -1.2337  0.7377
 8786SOL    HW237821   2.268   2.699  12.775  1.3262 -0.7419  0.9822
 8787SOL     OW37822   2.687   1.693   1.347  0.2409  0.2462 -0.6046
 8787SOL    HW137823   2.632   1.639   1.404 -0.3160  0.1075 -1.2657
 8787SOL    HW237824   2.615   1.753   1.325 -1.5665 -1.5712  0.2847
 8788SOL     OW37825   3.029   3.177  13.280  0.4000  0.4784 -0.8135
 8788SOL    HW137826   3.070   3.262  13.265  0.8458  0.1206 -1.6599
 8788SOL    HW237827   2.984   3.187  13.364  2.8966  0.5029  0.5361
 8789SOL     OW37828   1.788   2.733  10.458  0.1951  0.2242 -0.7159
 8789SOL    HW137829   1.868   2.768  10.498  0.0019 -0.6260  0.4096
 8789SOL    HW237830   1.740   2.806  10.420 -0.0655  0.8473  0.8152
 8790SOL     OW37831   0.020   2.906   8.885 -0.3070 -0.5637 -0.3306
 8790SOL    HW137832   0.074   2.841   8.930  2.3639  0.7684 -1.6178
 8790SOL    HW237833   4.684   2.847   8.840  1.4175 -1.3406 -1.6506
 8791SOL     OW37834   3.014   0.674  16.951  0.3361 -0.4871 -0.2910
 8791SOL    HW137835   3.053   0.761  16.950 -2.1834  0.6414 -1.2425
 8791SOL    HW237836   3.073   0.621  17.004 -2.1510 -1.8236  1.1714
 8792SOL     OW37837   3.141   0.775   7.759  0.0636  0.4903  0.3193
 8792SOL    HW137838   3.083   0.768   7.834  2.3140 -0.3148  1.9609
 8792SOL    HW237839   3.189   0.855   7.778 -0.0393  1.1715 -2.2573
 8793SOL     OW37840   0.431   4.074   3.309  0.9428 -0.0248  0.3867
 8793SOL    HW137841   0.524   4.090   3.327  1.0551  0.6247 -0.8137
 8793SOL    HW237842   0.438   4.062   3.214  1.1812  1.2530  0.2419
 8794SOL     OW37843   1.081   0.623   7.383 -0.5644 -0.0620 -0.1086
 8794SOL    HW137844   0.987   0.641   7.381 -0.8740 -1.5905  0.4878
 8794SOL    HW237845   1.112   0.705   7.346  1.0010 -1.3108 -1.5658
 8795SOL     OW37846   3.033   1.653   6.483  0.3358  0.4530 -0.4473
 8795SOL    HW137847   2.943   1.659   6.516  0.3024  0.5207 -0.5536
 8795SOL    HW237848   3.053   1.562   6.507  1.3651  1.5344  2.7613
 8796SOL     OW37849   4.385   1.432   3.332  0.0914 -0.1609 -0.4669
 8796SOL    HW137850   4.318   1.367   3.308  0.4910 -1.3727  1.7644
 8796SOL    HW237851   4.459   1.391   3.286  1.1975 -0.1297  1.2978
 8797SOL     OW37852   2.109   2.476   7.231  0.1598  0.0915  1.1715
 8797SOL    HW137853   2.167   2.429   7.290  0.0532 -0.4008  0.8800
 8797SOL    HW237854   2.178   2.503   7.171 -0.3239 -0.9954  0.1186
 8798SOL     OW37855   0.334   4.304  15.869 -0.2875  0.2508  0.6703
 8798SOL    HW137856   0.387   4.378  15.838 -0.0924  0.0289  0.4771
 8798SOL    HW237857   0.366   4.238  15.808 -0.0068  2.0934 -1.1982
 8799SOL     OW37858   0.332   1.319   7.798  0.4458 -0.0961 -0.0804
 8799SOL    HW137859   0.417   1.302   7.839 -0.5456  0.4262  2.1723
 8799SOL    HW237860   0.331   1.409   7.833 -0.2569 -0.7434  1.5620
 8800SOL     OW37861   3.435   3.290   9.448 -0.1524  0.1369 -0.6613
 8800SOL    HW137862   3.393   3.214   9.408  0.2982  0.8847 -2.5343
 8800SOL    HW237863   3.373   3.363   9.455  0.9153  1.0964 -1.1805
 8801SOL     OW37864   3.771   0.782  17.320  0.3953  0.1674 -0.3863
 8801SOL    HW137865   3.712   0.776  17.245  0.7438 -2.3080 -0.4692
 8801SOL    HW237866   3.786   0.693  17.353 -1.6490 -0.5321 -1.3877
 8802SOL     OW37867   2.534   4.197   4.759  0.3120 -0.1221  0.8890
 8802SOL    HW137868   2.448   4.219   4.794  0.1333 -1.2655  1.1835
 8802SOL    HW237869   2.589   4.249   4.817  0.8943 -0.7855  0.9350
 8803SOL     OW37870   3.943   1.705   3.875  0.2181  0.2104  0.3394
 8803SOL    HW137871   4.023   1.738   3.835 -0.6468  0.7516 -0.9280
 8803SOL    HW237872   3.896   1.788   3.885  0.7831  0.3819  1.5987
 8804SOL     OW37873   0.116   1.726   4.756 -0.7449 -0.0139  0.2912
 8804SOL    HW137874   0.151   1.784   4.688 -0.1308 -0.1293  0.5043
 8804SOL    HW237875   0.177   1.733   4.830 -2.3344  0.6422  1.5569
 8805SOL     OW37876   3.149   4.492   9.991  0.3870  0.0695 -0.0683
 8805SOL    HW137877   3.147   4.561  10.057  2.8011  1.2245 -1.2043
 8805SOL    HW237878   3.186   4.549   9.924 -0.3137 -1.6287 -1.9156
 8806SOL     OW37879   1.902   0.111   1.718 -0.3041 -0.1758 -0.5468
 8806SOL    HW137880   1.899   0.048   1.791 -0.5868 -0.3627 -0.7189
 8806SOL    HW237881   1.996   0.118   1.706 -0.3976 -1.8961 -2.2514
 8807SOL     OW37882   2.061   1.058   1.205  0.8988  0.0925 -0.0327
 8807SOL    HW137883   2.033   1.025   1.290  0.2183 -1.2459 -0.7858
 8807SOL    HW237884   2.147   1.088   1.235  1.2482  0.5716 -1.4840
 8808SOL     OW37885   3.315   0.184   9.946  0.8817 -0.0794  0.0672
 8808SOL    HW137886   3.331   0.247   9.875 -0.7717  1.2230  0.8463
 8808SOL    HW237887   3.324   0.237  10.025  1.8002  0.2312 -0.2470
 8809SOL     OW37888   1.683   3.843   3.198 -0.6861  0.2202 -0.9639
 8809SOL    HW137889   1.680   3.927   3.154 -0.7154  0.7596  0.0578
 8809SOL    HW237890   1.615   3.791   3.155 -0.8905  1.8793 -2.6311
 8810SOL     OW37891   3.657   4.318   5.453  0.0418  0.2776  0.0417
 8810SOL    HW137892   3.577   4.264   5.454  0.1329  0.1029 -1.2071
 8810SOL    HW237893   3.635   4.385   5.388 -2.4392  1.2400  1.8899
 8811SOL     OW37894   1.990   4.509  11.905  0.0246  0.5698 -0.2046
 8811SOL    HW137895   2.047   4.538  11.976 -0.6529  0.7734  0.2552
 8811SOL    HW237896   1.929   4.583  11.906  0.0514  0.5525  2.1078
 8812SOL     OW37897   3.233   0.115   7.311 -0.2863 -0.2414  0.2111
 8812SOL    HW137898   3.296   0.168   7.360  0.6628 -1.4978  0.3474
 8812SOL    HW237899   3.154   0.150   7.352  0.6431  1.9936  0.0913
 8813SOL     OW37900   1.257   2.319   0.973 -0.5941 -0.9503  0.0805
 8813SOL    HW137901   1.327   2.348   1.031  0.4774  0.2431 -1.8013
 8813SOL    HW237902   1.262   2.225   0.987 -0.4232 -0.7598  1.2282
 8814SOL     OW37903   2.029   3.999   7.703  0.1743 -0.6638 -0.3491
 8814SOL    HW137904   2.079   3.921   7.726  0.5611 -0.0890  0.7484
 8814SOL    HW237905   1.964   3.996   7.773  1.2884  0.0735  0.7182
 8815SOL     OW37906   3.938   1.704  10.914 -0.1073 -0.7497 -0.0922
 8815SOL    HW137907   3.995   1.770  10.875 -0.2135  0.1007  1.2093
 8815SOL    HW237908   3.852   1.734  10.884  0.3049  1.2811  0.7229
 8816SOL     OW37909   0.818   0.978  16.219 -0.0082 -0.2454  0.2701
 8816SOL    HW137910   0.910   0.963  16.241  0.2796  0.0733 -0.7204
 8816SOL    HW237911   0.779   0.927  16.290  1.6689 -1.3087  0.4352
 8817SOL     OW37912   0.230   1.091   7.535 -0.1982  0.5833  0.5740
 8817SOL    HW137913   0.202   1.014   7.487 -2.1066  0.5954  1.6494
 8817SOL    HW237914   0.235   1.053   7.623  2.1318  0.5101  0.3955
 8818SOL     OW37915   1.546   0.734   2.267 -0.1953 -0.2088 -0.0193
 8818SOL    HW137916   1.506   0.708   2.350 -2.2336  0.0315 -0.9347
 8818SOL    HW237917   1.518   0.659   2.214  1.4204 -0.3064 -0.7348
 8819SOL     OW37918   3.397   0.950   3.009  0.2360  0.6736  0.3724
 8819SOL    HW137919   3.404   1.018   2.943 -0.0301 -0.7690 -1.1438
 8819SOL    HW237920   3.316   0.986   3.046 -0.3933  0.0313 -0.3799
 8820SOL     OW37921   3.894   0.142   5.445 -0.2278  0.0767 -0.0064
 8820SOL    HW137922   3.864   0.217   5.498 -2.0806 -0.0380 -0.9040
 8820SOL    HW237923   3.843   0.162   5.367 -0.4572  3.2280  0.9212
 8821SOL     OW37924   2.429   4.419   1.271  0.5239  0.2447 -0.1144
 8821SOL    HW137925   2.380   4.337   1.277 -2.5258  2.0157 -0.4407
 8821SOL    HW237926   2.418   4.427   1.176 -0.0535  0.5947 -0.0164
 8822SOL     OW37927   2.847   0.922   4.934  0.6518  0.4229 -0.3551
 8822SOL    HW137928   2.904   0.995   4.957 -0.2970  0.8442  0.6345
 8822SOL    HW237929   2.762   0.967   4.932  0.0776 -0.6221  0.2645
 8823SOL     OW37930   1.925   4.165   8.229 -0.1447 -0.1998 -0.7510
 8823SOL    HW137931   1.963   4.234   8.174  0.3826  0.5904  0.5962
 8823SOL    HW237932   1.833   4.186   8.212 -0.1794 -0.1993 -0.5696
 8824SOL     OW37933   4.293   4.165   4.467 -0.0015  0.0685  0.4351
 8824SOL    HW137934   4.332   4.252   4.468 -0.1563  0.1284  1.1455
 8824SOL    HW237935   4.374   4.114   4.460  0.6643  1.1950 -0.0853
 8825SOL     OW37936   2.999   1.081   1.158 -0.6250 -0.3082  0.4005
 8825SOL    HW137937   2.953   1.046   1.082 -0.3898  2.7476 -1.1694
 8825SOL    HW237938   3.035   1.160   1.119  1.0134 -0.2555  2.0073
 8826SOL     OW37939   1.439   1.164   3.132 -0.8276  0.3466  0.5434
 8826SOL    HW137940   1.470   1.179   3.043  2.8847  1.2338  1.9813
 8826SOL    HW237941   1.527   1.143   3.163 -1.0377 -1.2265  0.0811
 8827SOL     OW37942   3.604   2.847   5.153  0.1624 -0.2996  0.3282
 8827SOL    HW137943   3.540   2.789   5.113  0.4509  1.2050 -2.3275
 8827SOL    HW237944   3.685   2.798   5.168 -0.3282 -0.7962  1.3364
 8828SOL     OW37945   1.609   2.261   0.212  0.1614 -0.2479 -0.1584
 8828SOL    HW137946   1.636   2.173   0.240  0.2259 -0.0175  0.4993
 8828SOL    HW237947   1.513   2.257   0.216  0.1580  1.0989  0.8649
 8829SOL     OW37948   0.614   2.924   7.181  0.1398 -0.0612 -0.2205
 8829SOL    HW137949   0.601   2.973   7.099 -1.2435 -0.9919 -0.5515
 8829SOL    HW237950   0.537   2.962   7.223  0.8635 -0.6965  1.6940
 8830SOL     OW37951   4.463   1.863  10.589 -0.0590 -0.1683 -0.0634
 8830SOL    HW137952   4.379   1.886  10.550  0.0589  1.4643  0.6536
 8830SOL    HW237953   4.435   1.877  10.679 -0.4176  2.6388 -0.6307
 8831SOL     OW37954   0.323   4.313   7.383  0.0403 -0.8996  0.0494
 8831SOL    HW137955   0.259   4.315   7.312 -0.1029  0.1637  0.2183
 8831SOL    HW237956   0.400   4.292   7.330 -0.3826 -1.4652 -0.3396
 8832SOL     OW37957   3.367   4.113   4.585 -0.1015  0.3025  0.2970
 8832SOL    HW137958   3.333   4.152   4.505 -0.1162 -0.7124 -0.2019
 8832SOL    HW237959   3.419   4.041   4.548  0.2415 -0.6685  2.6549
 8833SOL     OW37960   3.736   3.295  13.737  0.0989 -0.5704 -0.1241
 8833SOL    HW137961   3.740   3.318  13.644 -0.5378 -0.3795 -0.1031
 8833SOL    HW237962   3.694   3.208  13.735 -1.3367  0.0576  2.9869
 8834SOL     OW37963   0.189   0.450   6.746  0.2311  0.5341 -0.1199
 8834SOL    HW137964   0.108   0.456   6.798 -0.5191 -1.9515 -1.0377
 8834SOL    HW237965   0.240   0.527   6.772  0.5687  0.9734 -2.0760
 8835SOL     OW37966   4.066   3.446   4.001  0.7635  0.5899  0.3515
 8835SOL    HW137967   4.055   3.454   3.906 -0.3352  3.5239  0.7368
 8835SOL    HW237968   4.148   3.397   3.996 -1.1830 -2.6825  0.3392
 8836SOL     OW37969   2.857   0.402  15.616 -0.0992  0.1904  0.1829
 8836SOL    HW137970   2.897   0.316  15.632 -0.7288 -0.4146 -1.5160
 8836SOL    HW237971   2.905   0.457  15.678 -0.4975  2.0435 -1.1619
 8837SOL     OW37972   0.418   4.026   6.236  0.0501 -0.0447 -0.0008
 8837SOL    HW137973   0.485   3.982   6.288  0.0815 -1.0182 -0.8920
 8837SOL    HW237974   0.464   4.057   6.158 -0.6340  1.0058  0.0057
 8838SOL     OW37975   0.285   1.019   1.210  0.2014  0.7188 -0.2729
 8838SOL    HW137976   0.333   0.937   1.219 -0.4660  0.1851 -1.5814
 8838SOL    HW237977   0.225   1.004   1.284  3.6642 -0.4414  2.3000
 8839SOL     OW37978   4.107   1.028   4.686  0.1636  0.9507 -0.3712
 8839SOL    HW137979   4.080   0.936   4.689 -2.2092  1.5954 -1.9245
 8839SOL    HW237980   4.147   1.044   4.772  0.4374 -0.1744 -0.2788
 8840SOL     OW37981   3.532   0.240  15.245 -0.3636  0.5855  0.1909
 8840SOL    HW137982   3.622   0.213  15.266 -0.0959  1.0952 -0.2825
 8840SOL    HW237983   3.504   0.285  15.325 -0.4670 -0.7231  0.8767
 8841SOL     OW37984   3.145   3.266   5.149 -0.7554 -0.5164  0.5739
 8841SOL    HW137985   3.140   3.171   5.152 -0.1750 -0.5920 -0.8117
 8841SOL    HW237986   3.074   3.293   5.090  1.6579 -1.8194 -2.9500
 8842SOL     OW37987   3.603   3.809   3.279  0.0576 -0.5347 -0.3374
 8842SOL    HW137988   3.623   3.810   3.185  1.3030  1.0698 -0.0569
 8842SOL    HW237989   3.509   3.825   3.274  0.0893 -1.1698 -2.8719
 8843SOL     OW37990   0.114   1.650  14.561  0.2841 -0.0044  0.0905
 8843SOL    HW137991   0.038   1.632  14.615  0.1537  2.9643  0.9040
 8843SOL    HW237992   0.181   1.618  14.622 -0.0797  1.3325  1.1880
 8844SOL     OW37993   0.212   1.391  13.957  0.1748 -0.2094  0.0681
 8844SOL    HW137994   0.228   1.317  14.016  0.6639 -1.9027 -2.2202
 8844SOL    HW237995   0.266   1.367  13.882 -2.0151 -0.9070 -1.2699
 8845SOL     OW37996   1.983   2.399   1.654  0.3205  0.0092 -0.2718
 8845SOL    HW137997   1.897   2.400   1.694  0.6284  1.6531  0.3509
 8845SOL    HW237998   1.969   2.422   1.562  2.4664  2.1641 -0.0721
 8846SOL     OW37999   2.473   4.248   7.035  0.5550 -0.1517 -0.3500
 8846SOL    HW138000   2.444   4.221   7.122  0.7949  0.7282  0.0084
 8846SOL    HW238001   2.395   4.209   6.996  1.4789  1.2884 -3.5907
 8847SOL     OW38002   2.029   2.711   0.606  0.5959  0.3009  0.0680
 8847SOL    HW138003   1.967   2.778   0.635 -2.4897 -1.4992 -2.3156
 8847SOL    HW238004   2.078   2.766   0.545  0.8454  0.9084  0.8303
 8848SOL     OW38005   1.775   1.681   9.253 -0.2953 -0.1342  0.1187
 8848SOL    HW138006   1.773   1.625   9.331 -2.5614  2.4749  1.9553
 8848SOL    HW238007   1.682   1.691   9.233 -0.3565 -0.4091  0.2657
 8849SOL     OW38008   2.695   4.641   0.059 -0.5609  0.3437 -0.4216
 8849SOL    HW138009   2.694   4.658   0.153 -2.9993 -3.2991  0.2188
 8849SOL    HW238010   2.786   4.655   0.034  0.5172 -0.4855  3.0175
 8850SOL     OW38011   2.861   3.639   6.606 -0.3299  0.0637 -0.5767
 8850SOL    HW138012   2.904   3.722   6.584 -0.3591  0.4184  0.7066
 8850SOL    HW238013   2.857   3.580   6.531 -3.9329  0.8034 -0.9763
 8851SOL     OW38014   1.872   1.219   8.296  0.2647 -0.0930 -0.2950
 8851SOL    HW138015   1.948   1.184   8.249 -0.0751 -1.0561 -0.1323
 8851SOL    HW238016   1.909   1.232   8.383  0.2459 -1.1101 -0.1364
 8852SOL     OW38017   2.652   2.927   6.303  0.0734 -0.1151 -0.0516
 8852SOL    HW138018   2.710   2.870   6.253  0.4558 -2.8170  3.5124
 8852SOL    HW238019   2.640   2.878   6.384  2.6510  1.8143  1.5170
 8853SOL     OW38020   1.886   3.823   5.424  0.0357  0.2597  0.0243
 8853SOL    HW138021   1.974   3.808   5.459 -1.2337 -3.6926  1.5562
 8853SOL    HW238022   1.919   3.871   5.348  2.0944 -0.7460  0.2802
 8854SOL     OW38023   4.182   1.074   0.559 -0.0891  0.2762 -0.1812
 8854SOL    HW138024   4.209   1.092   0.650  2.6562  0.0338 -0.9450
 8854SOL    HW238025   4.164   0.980   0.555 -0.7551  0.3735  0.4932
 8855SOL     OW38026   0.184   4.507   6.672  0.1974  0.3982 -0.6213
 8855SOL    HW138027   0.250   4.566   6.707 -0.7542 -0.6240  2.9331
 8855SOL    HW238028   0.121   4.496   6.743 -1.8103  2.7147 -2.0359
 8856SOL     OW38029   3.589   3.919   2.474  0.1016 -0.6699 -0.2202
 8856SOL    HW138030   3.570   3.862   2.400 -0.7549  1.1841 -1.4469
 8856SOL    HW238031   3.678   3.937   2.444 -0.6414 -2.1650 -3.2754
 8857SOL     OW38032   1.806   0.756   7.781 -0.1363  0.5635 -0.2821
 8857SOL    HW138033   1.874   0.761   7.848 -1.8700  1.9202  1.3959
 8857SOL    HW238034   1.852   0.718   7.707  0.9790  0.8697  0.2507
 8858SOL     OW38035   2.278   3.182   3.132 -0.3345 -0.3105 -0.5586
 8858SOL    HW138036   2.203   3.238   3.155  1.0146  0.7429  1.2719
 8858SOL    HW238037   2.229   3.100   3.129 -1.1734  0.1340  0.7578
 8859SOL     OW38038   2.799   0.034   9.226  0.3627  0.5447 -0.1460
 8859SOL    HW138039   2.728   4.696   9.228  0.9169 -0.0978 -0.9754
 8859SOL    HW238040   2.832   0.029   9.137  1.9980  2.0881  0.3580
 8860SOL     OW38041   2.085   4.039   8.402  0.5821 -0.0276  0.1711
 8860SOL    HW138042   2.019   4.026   8.470  1.3728  0.5977  1.0649
 8860SOL    HW238043   2.038   4.101   8.347  0.5081 -0.4991 -0.3023
 8861SOL     OW38044   0.121   1.631   8.214 -0.3527 -0.1073 -0.3694
 8861SOL    HW138045   0.139   1.579   8.292  1.0944  0.7332 -0.1500
 8861SOL    HW238046   0.076   1.709   8.246  0.7701  0.6226 -0.5770
 8862SOL     OW38047   3.634   1.961  12.335 -0.3019  0.2343  0.0857
 8862SOL    HW138048   3.614   1.964  12.429 -2.0606 -0.7259 -0.2490
 8862SOL    HW238049   3.652   1.867  12.331  1.9193  0.7954 -2.8670
 8863SOL     OW38050   4.293   1.763   7.005 -0.2729 -0.1053  0.2895
 8863SOL    HW138051   4.309   1.778   6.912  0.2384 -1.7398  0.1066
 8863SOL    HW238052   4.369   1.807   7.042 -1.4553  2.5042 -0.4245
 8864SOL     OW38053   3.807   2.504   5.823 -0.1538 -0.1787 -0.4091
 8864SOL    HW138054   3.895   2.541   5.831 -1.0477  1.3818  2.0350
 8864SOL    HW238055   3.790   2.470   5.910 -0.0841 -0.6032 -0.5625
 8865SOL     OW38056   1.899   0.295   8.026  0.0360  0.1137  0.1490
 8865SOL    HW138057   1.928   0.351   7.954 -0.6127  0.2420 -0.0078
 8865SOL    HW238058   1.917   0.207   7.993 -1.3897 -0.3844  0.7301
 8866SOL     OW38059   1.223   1.643   3.113  0.2139  0.4432  0.0924
 8866SOL    HW138060   1.217   1.551   3.087  3.8467  0.9263 -2.4891
 8866SOL    HW238061   1.177   1.692   3.044  0.6856 -0.0435 -0.5655
 8867SOL     OW38062   3.715   2.058   2.512 -0.4296 -0.0124 -0.2141
 8867SOL    HW138063   3.714   2.149   2.540  0.8890 -1.0026  3.0756
 8867SOL    HW238064   3.658   2.067   2.435 -1.9388  0.4429  0.9643
 8868SOL     OW38065   2.227   1.867   7.457 -0.7426  0.0194 -0.4606
 8868SOL    HW138066   2.246   1.785   7.503 -0.5788  0.2474 -0.1303
 8868SOL    HW238067   2.155   1.905   7.508 -0.9378  1.7113 -1.9912
 8869SOL     OW38068   4.083   1.893   6.560  0.2207  0.6152  0.0081
 8869SOL    HW138069   4.019   1.951   6.601  1.3298  1.0065  1.1936
 8869SOL    HW238070   4.119   1.949   6.492  0.3813 -1.6881 -1.8055
 8870SOL     OW38071   2.765   0.178  17.378 -0.0173 -0.1454 -1.0214
 8870SOL    HW138072   2.681   0.156  17.338 -0.7236  2.7413 -1.1166
 8870SOL    HW238073   2.816   0.103  17.346  0.8248  0.0699 -0.1795
 8871SOL     OW38074   3.889   3.850   5.012 -0.1303  0.5792  0.2366
 8871SOL    HW138075   3.917   3.900   5.089 -1.3727  0.3719  0.8227
 8871SOL    HW238076   3.859   3.922   4.956 -1.5025 -0.2620 -0.1084
 8872SOL     OW38077   3.997   3.188  13.785 -0.2673  0.0215 -0.0156
 8872SOL    HW138078   3.912   3.231  13.770  0.1383  1.0629  0.6541
 8872SOL    HW238079   4.059   3.260  13.795 -0.6881  0.0635  2.3506
 8873SOL     OW38080   4.697   1.288  12.479 -0.3845 -0.5906  0.0872
 8873SOL    HW138081   4.628   1.333  12.529 -3.2040 -3.5769 -1.1142
 8873SOL    HW238082   0.049   1.308  12.532 -0.4427 -1.8949  0.6542
 8874SOL     OW38083   2.534   0.249   4.714 -0.5445 -0.4223  0.3730
 8874SOL    HW138084   2.559   0.172   4.663  2.2563  0.2568  0.7537
 8874SOL    HW238085   2.601   0.301   4.670  0.3445 -2.8665 -1.1664
 8875SOL     OW38086   1.777   3.241   8.839  0.0933  0.1888 -0.0468
 8875SOL    HW138087   1.835   3.170   8.867 -0.1947 -0.2713 -0.5952
 8875SOL    HW238088   1.693   3.199   8.858  0.0654  0.6371  0.8442
 8876SOL     OW38089   2.451   0.412   3.216 -0.2055 -0.1429 -0.1939
 8876SOL    HW138090   2.442   0.439   3.125  0.2313  0.7306  0.0257
 8876SOL    HW238091   2.431   0.318   3.213 -0.3564 -0.0080 -2.8943
 8877SOL     OW38092   4.032   0.059   3.312 -0.2518  0.6228  0.2284
 8877SOL    HW138093   4.051   4.690   3.321  3.0428  1.2734  0.1273
 8877SOL    HW238094   4.121   0.094   3.318  1.0165 -2.2898 -1.2840
 8878SOL     OW38095   0.640   1.521   0.119  0.0699 -0.0864  0.4718
 8878SOL    HW138096   0.620   1.601   0.168 -1.3586 -0.9336  1.2723
 8878SOL    HW238097   0.586   1.459   0.168  1.1675 -0.9008  0.6212
 8879SOL     OW38098   4.617   3.151   3.377  0.0505 -0.3762 -0.1358
 8879SOL    HW138099   4.675   3.084   3.414  0.6655  0.4094  0.3184
 8879SOL    HW238100   4.544   3.158   3.439 -0.3757  0.9812 -0.7861
 8880SOL     OW38101   3.138   3.607   4.910 -0.3968  0.2219 -0.4793
 8880SOL    HW138102   3.071   3.658   4.863 -0.3938  1.1550  0.5332
 8880SOL    HW238103   3.178   3.681   4.954  2.4786 -2.1167  0.7939
 8881SOL     OW38104   0.025   0.354   4.687 -0.6165  0.2932  0.0805
 8881SOL    HW138105   0.117   0.381   4.680 -0.9098  0.9861 -1.1403
 8881SOL    HW238106   0.030   0.258   4.685  0.6233  0.3524  0.1140
 8882SOL     OW38107   4.568   0.606  14.909 -0.1331  0.3199 -0.4954
 8882SOL    HW138108   4.644   0.655  14.940 -1.2645  1.1359  0.9688
 8882SOL    HW238109   4.510   0.679  14.890 -2.4427 -1.0035  1.5024
 8883SOL     OW38110   4.698   0.626  13.262  0.1234  0.3789 -1.1459
 8883SOL    HW138111   4.623   0.580  13.224 -0.6027  0.8422 -0.2719
 8883SOL    HW238112   4.647   0.687  13.315  1.8627  0.4484  0.4152
 8884SOL     OW38113   1.574   1.713   3.604 -0.0032  0.4223 -0.7046
 8884SOL    HW138114   1.554   1.795   3.558  0.7556 -0.2028 -2.1670
 8884SOL    HW238115   1.551   1.648   3.537 -0.5786 -1.7859  1.6356
 8885SOL     OW38116   1.182   0.067  13.245 -0.2882  0.4353 -0.5470
 8885SOL    HW138117   1.194   0.127  13.319  0.5469  1.6164 -1.6500
 8885SOL    HW238118   1.118   0.004  13.278  0.7840 -0.7434 -0.6964
 8886SOL     OW38119   3.034   4.056  14.642 -0.4214 -0.2805  0.3132
 8886SOL    HW138120   2.977   4.104  14.583  2.2123  1.0766 -1.1433
 8886SOL    HW238121   3.079   4.002  14.577 -0.8334 -2.0530  1.4970
 8887SOL     OW38122   3.707   0.374   9.022  0.0648  0.0119 -0.3291
 8887SOL    HW138123   3.622   0.401   8.987  0.0541 -1.7120 -1.6294
 8887SOL    HW238124   3.682   0.301   9.079  0.3718  1.2772  1.4108
 8888SOL     OW38125   4.711   2.303   6.237 -0.1152 -0.4011  0.5143
 8888SOL    HW138126   0.005   2.361   6.164  0.1932 -1.1179  0.0311
 8888SOL    HW238127   4.630   2.335   6.276  0.8566  1.9674  0.6219
 8889SOL     OW38128   1.279   3.163   8.880 -0.0346 -0.0645 -0.0001
 8889SOL    HW138129   1.204   3.221   8.893  0.5369  0.8345 -0.6604
 8889SOL    HW238130   1.287   3.124   8.967  0.1897 -0.0644 -0.0205
 8890SOL     OW38131   4.447   4.273   6.872  0.0528 -0.3723  0.1436
 8890SOL    HW138132   4.492   4.261   6.956 -0.3915 -0.1711  0.4103
 8890SOL    HW238133   4.512   4.253   6.804  0.5780 -0.7051  0.7491
 8891SOL     OW38134   0.376   3.937   8.092 -0.4334  0.0621  0.2345
 8891SOL    HW138135   0.308   3.987   8.137 -2.7702 -0.5925 -2.5420
 8891SOL    HW238136   0.389   3.865   8.154 -0.1147  0.6174  0.8074
 8892SOL     OW38137   0.837   3.907   4.955 -0.1775 -0.1706  0.2844
 8892SOL    HW138138   0.885   3.825   4.963  1.0111  0.1350 -3.5792
 8892SOL    HW238139   0.903   3.970   4.982  0.1276  0.6856 -2.4983
 8893SOL     OW38140   0.613   4.489   8.431 -0.1840  0.6924 -0.3028
 8893SOL    HW138141   0.624   4.481   8.526  0.2381  0.0604 -0.4020
 8893SOL    HW238142   0.649   4.577   8.423 -2.1510  1.3594 -1.7513
 8894SOL     OW38143   4.255   3.160   7.807  0.1322 -0.1100 -0.2731
 8894SOL    HW138144   4.345   3.171   7.838  0.2649 -0.6847 -0.4645
 8894SOL    HW238145   4.275   3.148   7.714 -0.2271  1.5433 -0.5644
 8895SOL     OW38146   2.732   0.721   3.461 -0.0326  0.0277 -0.1037
 8895SOL    HW138147   2.711   0.785   3.530  1.7535 -1.0307  1.4272
 8895SOL    HW238148   2.825   0.744   3.453  0.3655 -0.8831  1.9231
 8896SOL     OW38149   0.030   2.102   1.252 -0.3005 -0.2950 -0.2303
 8896SOL    HW138150   0.039   2.183   1.303  0.6784 -1.4508  1.4349
 8896SOL    HW238151   4.697   2.137   1.185  0.7197 -0.5671 -1.2465
 8897SOL     OW38152   1.763   1.607   4.403  0.1998  0.1180 -0.7079
 8897SOL    HW138153   1.836   1.587   4.461  0.9603 -0.0062 -1.7142
 8897SOL    HW238154   1.798   1.563   4.326 -0.0628  0.0003 -0.7582
 8898SOL     OW38155   4.424   3.016   4.946 -0.0548 -0.2720  0.4755
 8898SOL    HW138156   4.502   2.973   4.978 -0.9052 -1.4768  0.9149
 8898SOL    HW238157   4.445   3.037   4.855 -3.4032  1.2271  0.0279
 8899SOL     OW38158   2.637   0.480  17.237  0.1305  0.1433  0.0791
 8899SOL    HW138159   2.583   0.559  17.230  1.6258  1.1212 -0.5728
 8899SOL    HW238160   2.657   0.473  17.144  0.1235 -1.9987  0.2373
 8900SOL     OW38161   4.006   2.986   5.890  0.2784 -0.4812  0.4749
 8900SOL    HW138162   4.081   2.941   5.929  1.4283  0.0124 -1.1627
 8900SOL    HW238163   3.932   2.926   5.897  0.4590 -0.6015  1.3358
 8901SOL     OW38164   4.264   4.296   0.930  0.0595  0.1199  0.2489
 8901SOL    HW138165   4.255   4.289   0.835  2.3912  2.8629 -0.1528
 8901SOL    HW238166   4.281   4.207   0.961  0.2127 -0.2463 -0.9022
 8902SOL     OW38167   1.164   2.517  15.209  0.2541  0.3053 -0.0719
 8902SOL    HW138168   1.195   2.522  15.118  4.3702 -2.2243  1.1729
 8902SOL    HW238169   1.071   2.498  15.196  0.4701 -1.3960  0.7366
 8903SOL     OW38170   0.306   1.322   1.672 -0.6757  0.0783 -0.2965
 8903SOL    HW138171   0.299   1.263   1.597  2.4463 -1.9835  1.0466
 8903SOL    HW238172   0.298   1.257   1.742  0.1522 -0.6232 -0.8580
 8904SOL     OW38173   4.231   0.515   2.706 -0.3243  0.3867  0.0150
 8904SOL    HW138174   4.305   0.531   2.765  0.8040 -0.9667 -1.0278
 8904SOL    HW238175   4.251   0.425   2.680  2.7706  0.1787  3.0087
 8905SOL     OW38176   2.805   1.403  15.976 -0.4803  0.2176 -0.3891
 8905SOL    HW138177   2.751   1.482  15.978 -1.2217 -0.2727 -1.0262
 8905SOL    HW238178   2.765   1.351  16.046  1.1052  0.8667  0.9910
 8906SOL     OW38179   0.219   0.809   9.885 -0.8027  0.0429  0.5424
 8906SOL    HW138180   0.308   0.824   9.855 -0.4529  0.8036  1.9245
 8906SOL    HW238181   0.210   0.717   9.907 -1.2446  0.2041  1.0459
 8907SOL     OW38182   2.344   3.061   5.275  0.5277  0.1231 -0.1721
 8907SOL    HW138183   2.304   3.111   5.347  1.2776 -2.7185  2.2048
 8907SOL    HW238184   2.272   3.002   5.253  0.2888  0.0348  0.8466
 8908SOL     OW38185   3.969   4.165   5.015  0.1671  0.0431  0.6580
 8908SOL    HW138186   3.902   4.171   4.947 -0.1300 -0.0441  0.9493
 8908SOL    HW238187   3.925   4.231   5.068 -1.3451  0.0890 -0.6662
 8909SOL     OW38188   1.519   1.502   3.422  0.2218 -0.5569 -0.4421
 8909SOL    HW138189   1.505   1.548   3.339 -0.0985 -1.9652 -1.1618
 8909SOL    HW238190   1.613   1.483   3.424  0.6777  1.5721 -1.1674
 8910SOL     OW38191   2.109   1.459   6.370  0.0436  0.4038  0.3405
 8910SOL    HW138192   2.061   1.521   6.315 -0.1766  0.1903  0.2950
 8910SOL    HW238193   2.038   1.423   6.423  1.3698  0.2248  1.9733
 8911SOL     OW38194   0.282   4.458   7.038  0.1629  0.7562 -0.1447
 8911SOL    HW138195   0.240   4.544   7.027  1.8063  1.5255 -0.3181
 8911SOL    HW238196   0.219   4.415   7.096  1.0930 -1.5950 -0.8976
 8912SOL     OW38197   1.552   2.144   2.778 -0.2902  0.0872 -0.2924
 8912SOL    HW138198   1.473   2.155   2.830  0.0742 -1.0426  0.4842
 8912SOL    HW238199   1.625   2.189   2.821  0.0217 -0.9459  0.2685
 8913SOL     OW38200   3.135   1.815   1.195  0.9410 -0.0540  0.6586
 8913SOL    HW138201   3.212   1.846   1.242  0.1562  1.5648  0.8950
 8913SOL    HW238202   3.068   1.883   1.200  0.2064 -0.6953 -0.3987
 8914SOL     OW38203   1.496   1.551   8.286 -0.5054 -1.2937 -0.2484
 8914SOL    HW138204   1.450   1.630   8.258  1.2177  0.2543  1.4089
 8914SOL    HW238205   1.504   1.508   8.201 -1.3262  2.2663 -2.0983
 8915SOL     OW38206   3.002   3.966   3.968  0.0532 -0.3546  0.1888
 8915SOL    HW138207   3.070   4.032   3.960 -0.7891  0.3903 -0.6966
 8915SOL    HW238208   2.933   4.021   4.006 -0.7539 -0.5007 -1.0795
 8916SOL     OW38209   2.091   0.927   1.677  0.8971 -0.1591 -0.0469
 8916SOL    HW138210   2.129   1.014   1.687  0.1503  0.3828 -1.8001
 8916SOL    HW238211   1.999   0.950   1.664  0.8946 -0.4517 -0.5742
 8917SOL     OW38212   2.545   0.875   2.167  0.3249  0.3401  0.0190
 8917SOL    HW138213   2.472   0.907   2.113 -1.2723 -1.7478  0.9356
 8917SOL    HW238214   2.614   0.856   2.104 -1.5149 -0.0641 -1.9115
 8918SOL     OW38215   2.927   1.107  12.173  0.4541  0.4010  1.0273
 8918SOL    HW138216   2.872   1.163  12.118  1.9340 -0.3060 -1.1345
 8918SOL    HW238217   2.866   1.037  12.197 -0.5675  0.0782 -2.5327
 8919SOL     OW38218   2.643   3.643   6.776  0.3154 -0.0128 -0.1929
 8919SOL    HW138219   2.676   3.591   6.849 -0.2800  0.5913  0.5052
 8919SOL    HW238220   2.725   3.636   6.728 -0.8253 -1.0650 -2.0029
 8920SOL     OW38221   2.508   3.576  10.272  0.3045 -0.5271  0.0280
 8920SOL    HW138222   2.556   3.553  10.352  0.3203  1.1876  0.5032
 8920SOL    HW238223   2.517   3.671  10.273 -0.2193 -0.4644 -3.2363
 8921SOL     OW38224   4.312   0.159   3.369 -0.5608  0.0868  0.2724
 8921SOL    HW138225   4.400   0.138   3.338 -0.1851  1.4632  0.4203
 8921SOL    HW238226   4.301   0.248   3.337  0.3789 -0.0829 -0.5310
 8922SOL     OW38227   3.924   3.811  10.431  0.1196  0.4890  0.0258
 8922SOL    HW138228   4.018   3.828  10.430  0.5546 -1.7718  2.7957
 8922SOL    HW238229   3.881   3.895  10.412  1.9879  1.1277 -1.3831
 8923SOL     OW38230   3.839   3.927  14.939 -0.3338  0.0510 -0.3060
 8923SOL    HW138231   3.837   3.848  14.886  1.0237 -0.5182  0.4990
 8923SOL    HW238232   3.887   3.979  14.875  1.4526 -0.6875  0.4149
 8924SOL     OW38233   2.092   4.436  10.611 -0.0036 -0.0987 -0.0491
 8924SOL    HW138234   2.004   4.431  10.649 -0.0853  1.4426 -0.0507
 8924SOL    HW238235   2.064   4.471  10.527  1.9417  1.5443 -0.0266
 8925SOL     OW38236   4.186   4.452   3.677  0.2150 -0.2895 -0.1754
 8925SOL    HW138237   4.223   4.521   3.622 -0.0546  0.1936  0.2452
 8925SOL    HW238238   4.233   4.377   3.640 -0.4341 -1.6281  1.7498
 8926SOL     OW38239   1.650   1.487  16.214  0.0851  0.6480 -0.2591
 8926SOL    HW138240   1.671   1.578  16.194 -1.5997  1.4188  1.4984
 8926SOL    HW238241   1.639   1.485  16.309  0.0005  1.8886 -0.2420
 8927SOL     OW38242   0.674   2.055  13.607 -0.0195  0.3003 -0.5034
 8927SOL    HW138243   0.615   2.129  13.594  0.9456  1.0012 -0.9092
 8927SOL    HW238244   0.763   2.090  13.596 -0.5653  0.7884 -3.3516
 8928SOL     OW38245   1.690   1.778  11.094  0.1483 -0.2392  0.2199
 8928SOL    HW138246   1.744   1.853  11.067 -0.6705  0.2390 -0.1159
 8928SOL    HW238247   1.654   1.754  11.009 -0.0245  0.6150  0.0450
 8929SOL     OW38248   0.413   4.020   2.978  0.4156 -0.0585  0.1195
 8929SOL    HW138249   0.340   3.973   2.938 -0.9038  2.2347 -0.2274
 8929SOL    HW238250   0.472   3.946   2.992 -0.3150 -0.3555  1.6667
 8930SOL     OW38251   0.517   1.633   9.788  0.3584 -0.2895 -0.2979
 8930SOL    HW138252   0.432   1.677   9.792  0.3787 -0.3898  1.5883
 8930SOL    HW238253   0.571   1.698   9.832  0.7609 -0.7270 -0.1429
 8931SOL     OW38254   0.670   4.539  16.493 -0.5642  0.2178 -0.0486
 8931SOL    HW138255   0.642   4.585  16.414  1.0590  1.0106 -0.1716
 8931SOL    HW238256   0.751   4.588  16.505  0.5574 -0.9876 -2.6027
 8932SOL     OW38257   2.738   4.375   9.929  0.0375  0.5368  0.2131
 8932SOL    HW138258   2.806   4.403   9.867  0.0679  0.7752  0.3543
 8932SOL    HW238259   2.779   4.304   9.978  0.5970  0.4847 -0.3198
 8933SOL     OW38260   1.125   2.391   4.990  0.0194  0.2575  0.2319
 8933SOL    HW138261   1.191   2.341   5.038 -1.0287 -1.4673 -0.1282
 8933SOL    HW238262   1.165   2.388   4.903  0.9730 -2.4820  0.7586
 8934SOL     OW38263   0.151   2.097   2.945  0.3283  0.0261  0.0059
 8934SOL    HW138264   0.060   2.109   2.973 -0.2826 -0.1042 -1.9007
 8934SOL    HW238265   0.190   2.085   3.031  0.3293  1.2657  0.1817
 8935SOL     OW38266   1.828   1.443   5.939 -0.1153  0.0756  0.4234
 8935SOL    HW138267   1.922   1.427   5.928 -0.2520  0.0763 -0.7775
 8935SOL    HW238268   1.798   1.354   5.923 -2.2270  0.8316  0.2159
 8936SOL     OW38269   2.542   1.145  14.554  0.6466  0.2545 -0.5197
 8936SOL    HW138270   2.450   1.140  14.579  1.0141  0.1078  0.7917
 8936SOL    HW238271   2.529   1.239  14.563  1.0810  0.3888 -1.2817
 8937SOL     OW38272   2.787   0.621   7.610  0.0295 -0.1724 -0.3782
 8937SOL    HW138273   2.742   0.554   7.662  0.3909 -1.0573 -1.2160
 8937SOL    HW238274   2.755   0.691   7.667 -1.3305 -0.9657 -0.1623
 8938SOL     OW38275   4.272   2.124   5.928 -0.5218  0.2716  0.3469
 8938SOL    HW138276   4.206   2.083   5.984 -0.4924  0.1593  0.3007
 8938SOL    HW238277   4.290   2.054   5.865 -2.3495  1.3727 -1.3789
 8939SOL     OW38278   0.852   2.871  16.730  0.0490  1.0663  0.1963
 8939SOL    HW138279   0.865   2.778  16.709 -0.5192  0.8743  0.6858
 8939SOL    HW238280   0.760   2.868  16.704  0.4048 -2.2457 -0.7491
 8940SOL     OW38281   1.708   4.382   9.480 -0.6137  0.6770 -0.0535
 8940SOL    HW138282   1.703   4.288   9.463 -2.2232  0.5350  1.0974
 8940SOL    HW238283   1.674   4.382   9.570  0.7868 -0.4815  0.4658
 8941SOL     OW38284   3.322   0.724   7.235 -0.3149  0.0585 -0.6270
 8941SOL    HW138285   3.313   0.819   7.239  1.2556  0.2073 -0.5888
 8941SOL    HW238286   3.402   0.722   7.286 -0.1862  1.2260 -0.7813
 8942SOL     OW38287   4.575   0.725   8.810  0.7353  0.1845 -0.2887
 8942SOL    HW138288   4.525   0.717   8.729  0.3579  2.3521 -0.2860
 8942SOL    HW238289   4.650   0.780   8.786 -1.0374  2.4255 -0.6809
 8943SOL     OW38290   3.952   0.434   6.479  0.3230  0.3099 -0.1362
 8943SOL    HW138291   3.981   0.376   6.549 -0.2653  1.3371  0.9507
 8943SOL    HW238292   3.918   0.502   6.537  2.0492  0.5726  0.5619
 8944SOL     OW38293   3.751   4.117   8.607 -0.1666  0.2687  0.7083
 8944SOL    HW138294   3.730   4.123   8.700 -1.9691 -0.1414  0.3242
 8944SOL    HW238295   3.719   4.197   8.565  0.6318 -0.6467 -1.6281
 8945SOL     OW38296   3.070   3.820   3.142  0.4932 -0.2480 -0.1736
 8945SOL    HW138297   3.041   3.879   3.211  1.9403  1.7015 -1.2181
 8945SOL    HW238298   2.984   3.784   3.123 -0.0774  0.9386  0.1207
 8946SOL     OW38299   3.988   2.900   8.420 -0.0897  0.5244 -0.4205
 8946SOL    HW138300   3.987   2.818   8.370 -2.5111 -0.4008  1.1243
 8946SOL    HW238301   4.063   2.949   8.389 -0.2151  0.6620 -0.5055
 8947SOL     OW38302   1.440   3.455   9.904  0.0948  0.0910  0.6865
 8947SOL    HW138303   1.350   3.488   9.900 -0.1235 -0.1695  3.6219
 8947SOL    HW238304   1.434   3.402   9.824 -3.4365 -0.5028  1.3360
 8948SOL     OW38305   3.202   2.789  12.836  0.2028 -0.1172 -0.1831
 8948SOL    HW138306   3.177   2.762  12.748 -2.2824  2.4936 -0.3041
 8948SOL    HW238307   3.167   2.878  12.842 -1.3879 -0.9873  3.4363
 8949SOL     OW38308   1.031   3.733   9.620  0.1142  0.2702 -0.6278
 8949SOL    HW138309   1.000   3.731   9.529 -1.0674 -0.2981 -0.2117
 8949SOL    HW238310   0.944   3.730   9.660  0.1624  0.5727 -0.4998
 8950SOL     OW38311   2.901   2.218   2.991  0.5913  0.7354  0.2935
 8950SOL    HW138312   2.933   2.252   3.074  1.1968  0.4028  0.1978
 8950SOL    HW238313   2.985   2.183   2.960  0.5343 -1.0605  2.1806
 8951SOL     OW38314   2.499   3.364   7.379  0.5373  0.0137 -0.5291
 8951SOL    HW138315   2.411   3.401   7.389  0.9417  0.9170 -0.3526
 8951SOL    HW238316   2.520   3.354   7.286 -0.8953 -0.8039 -0.7683
 8952SOL     OW38317   1.274   3.310   3.675 -0.7443  0.0610  0.4890
 8952SOL    HW138318   1.217   3.341   3.746 -0.0988  1.3802  0.4368
 8952SOL    HW238319   1.296   3.223   3.706 -1.4120  0.6798  2.6453
 8953SOL     OW38320   2.141   1.356   8.389 -0.0481 -0.1146  0.0266
 8953SOL    HW138321   2.229   1.318   8.395 -0.8105 -2.2074 -1.7199
 8953SOL    HW238322   2.091   1.298   8.446  0.0046  1.9896  2.1786
 8954SOL     OW38323   1.559   4.286  10.342  0.1966 -0.0794 -0.2501
 8954SOL    HW138324   1.614   4.250  10.412  0.1690  1.0916  0.3911
 8954SOL    HW238325   1.604   4.371  10.343  0.2904 -0.1300 -1.3002
 8955SOL     OW38326   0.912   2.485   5.482 -0.0087 -0.4918  0.6107
 8955SOL    HW138327   0.899   2.394   5.456 -0.3125  0.2774 -1.8995
 8955SOL    HW238328   0.820   2.507   5.497  0.3904  0.9757  0.9501
 8956SOL     OW38329   1.450   3.108   5.776  0.3775 -0.2857  0.3780
 8956SOL    HW138330   1.488   3.175   5.831 -1.1564  0.5394  0.4391
 8956SOL    HW238331   1.463   3.140   5.686  0.7270  2.2360  1.3347
 8957SOL     OW38332   2.685   0.379   8.417 -0.4080  0.5613  0.3790
 8957SOL    HW138333   2.606   0.352   8.370  0.2507 -0.4032 -0.1662
 8957SOL    HW238334   2.699   0.292   8.454 -0.8740 -0.3617 -1.5974
 8958SOL     OW38335   1.935   2.814  13.581  0.1501 -0.0588  0.3521
 8958SOL    HW138336   1.844   2.810  13.609  0.9144 -0.7266  2.8510
 8958SOL    HW238337   1.931   2.842  13.490 -0.7447 -0.4000  0.2898
 8959SOL     OW38338   3.657   1.015   4.739  0.0978 -0.3259 -0.1599
 8959SOL    HW138339   3.728   0.971   4.785  0.2042  0.9022  0.8525
 8959SOL    HW238340   3.697   1.102   4.732  0.6564 -0.2929  3.0543
 8960SOL     OW38341   2.827   2.569   9.356 -0.2150  0.2102  0.1813
 8960SOL    HW138342   2.824   2.474   9.372 -1.2802  0.2418  0.1583
 8960SOL    HW238343   2.765   2.585   9.286  0.7080 -0.0326 -0.6961
 8961SOL     OW38344   1.952   4.335   4.997 -0.1465 -0.7697 -0.6069
 8961SOL    HW138345   1.995   4.328   5.083 -2.7977  1.7211  0.9286
 8961SOL    HW238346   1.929   4.243   4.984  1.6944 -1.7964  3.2023
 8962SOL     OW38347   2.385   3.425  17.690 -0.0130  0.2406  0.0963
 8962SOL    HW138348   2.310   3.365  17.691 -0.2471  0.5179 -1.1779
 8962SOL    HW238349   2.430   3.414   0.071 -0.8391 -0.8008  0.4174
 8963SOL     OW38350   1.403   4.412   5.014  0.5005 -0.8330 -0.4653
 8963SOL    HW138351   1.406   4.320   5.039 -1.7928  0.0280  2.9184
 8963SOL    HW238352   1.496   4.415   4.991  0.4552 -3.0159 -0.9317
 8964SOL     OW38353   3.497   3.630   3.618 -0.5604  0.2229 -0.1096
 8964SOL    HW138354   3.537   3.620   3.531  0.1765  0.0071  0.2539
 8964SOL    HW238355   3.404   3.618   3.603 -0.5028 -0.5792  0.2083
 8965SOL     OW38356   0.346   2.341  13.786  0.1564 -0.5078  0.1119
 8965SOL    HW138357   0.402   2.298  13.721 -0.2033  1.4936 -1.5269
 8965SOL    HW238358   0.346   2.270  13.850 -1.5592 -0.9688 -0.4120
 8966SOL     OW38359   4.250   2.674   3.246  0.5601 -0.5571  0.4643
 8966SOL    HW138360   4.293   2.703   3.166  0.3090 -1.6717 -0.0731
 8966SOL    HW238361   4.265   2.581   3.234 -2.9507 -0.5013 -4.1548
 8967SOL     OW38362   1.542   0.188   7.619  0.3571  0.1024 -0.2330
 8967SOL    HW138363   1.501   0.259   7.669  2.8955  1.6961 -0.4360
 8967SOL    HW238364   1.616   0.161   7.672  1.1500  0.5079 -1.1378
 8968SOL     OW38365   3.162   4.269  13.770 -0.7146 -0.3265  0.1418
 8968SOL    HW138366   3.164   4.177  13.744 -0.0910 -0.7666  1.7752
 8968SOL    HW238367   3.226   4.272  13.840  0.5759 -0.6223 -1.0162
 8969SOL     OW38368   1.526   3.408  16.125 -0.0796  0.3040 -0.0492
 8969SOL    HW138369   1.588   3.464  16.079 -1.5906  1.0967 -1.1234
 8969SOL    HW238370   1.444   3.418  16.077 -0.0382 -2.3661 -0.6553
 8970SOL     OW38371   3.779   3.760   9.724  0.2984  0.0960  0.3230
 8970SOL    HW138372   3.823   3.695   9.669  0.0120 -1.4645  1.9172
 8970SOL    HW238373   3.853   3.817   9.744  0.1219  0.4258  0.0530
 8971SOL     OW38374   0.034   3.593   2.480  0.1300 -0.3718 -0.5368
 8971SOL    HW138375   0.078   3.667   2.439  0.3939 -0.1249  0.1873
 8971SOL    HW238376   0.057   3.529   2.413 -2.2084 -1.1829 -0.5444
 8972SOL     OW38377   2.813   3.735   1.862 -0.6017  0.6434  0.1406
 8972SOL    HW138378   2.806   3.646   1.828 -0.8776  0.4529  0.7066
 8972SOL    HW238379   2.908   3.746   1.873 -0.6592  2.2861 -0.8953
 8973SOL     OW38380   1.916   2.343   2.275  0.1661 -0.0098 -0.1241
 8973SOL    HW138381   1.994   2.288   2.279  1.1469  1.4821  0.8789
 8973SOL    HW238382   1.927   2.404   2.348  0.0685  0.6502 -0.6616
 8974SOL     OW38383   3.508   1.363   9.896  0.4131 -0.0298  0.5221
 8974SOL    HW138384   3.597   1.393   9.916  0.1934  0.8374  0.1896
 8974SOL    HW238385   3.506   1.279   9.941  0.5876  0.9663  2.4222
 8975SOL     OW38386   0.303   1.271   7.326 -0.4360 -0.2751 -0.2664
 8975SOL    HW138387   0.311   1.331   7.400 -1.6374 -0.5295  0.0703
 8975SOL    HW238388   0.299   1.191   7.379 -0.2888  0.3054  0.6114
 8976SOL     OW38389   1.941   2.238   4.252  0.3204  0.3122  0.0294
 8976SOL    HW138390   2.024   2.190   4.237  1.0413  0.9412  2.1190
 8976SOL    HW238391   1.896   2.251   4.168 -0.9854  1.7894  0.9796
 8977SOL     OW38392   2.347   3.384   3.735 -0.1158 -0.0792 -0.3004
 8977SOL    HW138393   2.378   3.410   3.648  0.3417 -0.1009 -0.1471
 8977SOL    HW238394   2.326   3.291   3.729 -1.5757  0.1572  1.1915
 8978SOL     OW38395   0.469   3.445   9.791 -0.1688 -0.0259  0.0462
 8978SOL    HW138396   0.466   3.509   9.719 -2.4435 -0.8360 -0.5797
 8978SOL    HW238397   0.505   3.500   9.860  0.1928 -0.2306  0.0198
 8979SOL     OW38398   3.946   1.310   5.460  0.0535  0.2736  0.3138
 8979SOL    HW138399   3.850   1.313   5.451 -0.2478 -3.9985  1.7094
 8979SOL    HW238400   3.950   1.216   5.482 -0.0412  0.1527 -0.1916
 8980SOL     OW38401   2.987   4.703   3.284  0.2176  0.5552 -0.5591
 8980SOL    HW138402   3.010   4.706   3.191 -0.1848 -3.0068 -0.8053
 8980SOL    HW238403   3.049   0.037   3.326 -0.3499  1.2528 -0.7155
 8981SOL     OW38404   4.283   4.265   3.484  0.7855  0.4998  0.4097
 8981SOL    HW138405   4.200   4.255   3.438  1.0001  1.9967 -0.3230
 8981SOL    HW238406   4.343   4.273   3.411 -0.2599  3.1179 -0.1651
 8982SOL     OW38407   1.340   2.458   3.887  0.1305 -0.2445  0.3090
 8982SOL    HW138408   1.361   2.368   3.914  0.4616  0.1288  1.3062
 8982SOL    HW238409   1.245   2.456   3.878  0.3152 -0.3946 -1.5081
 8983SOL     OW38410   0.762   2.396  14.867 -0.4177 -0.3795  0.1964
 8983SOL    HW138411   0.852   2.412  14.841 -0.4704  1.3063  1.0193
 8983SOL    HW238412   0.743   2.321  14.811  0.0373  1.1618 -2.0387
 8984SOL     OW38413   3.336   1.610   6.041  0.5189 -0.0042 -0.0066
 8984SOL    HW138414   3.315   1.685   5.985 -0.2264  0.6480  1.1580
 8984SOL    HW238415   3.318   1.637   6.131 -0.8913 -2.4545  0.4613
 8985SOL     OW38416   3.841   1.162   1.458  0.1920 -0.6775 -0.3232
 8985SOL    HW138417   3.777   1.091   1.444  0.6105 -1.5888  2.4921
 8985SOL    HW238418   3.780   1.232   1.436 -0.6882 -0.4756  2.7670
 8986SOL     OW38419   3.863   1.862   6.014  0.3791  0.4083  0.1473
 8986SOL    HW138420   3.896   1.851   5.925  3.3238  1.2649  1.1116
 8986SOL    HW238421   3.794   1.797   6.013 -2.0852  3.0026  2.2231
 8987SOL     OW38422   2.302   0.320   0.284  0.2511 -0.7125  0.1448
 8987SOL    HW138423   2.264   0.238   0.315 -0.5183  0.4338  2.2302
 8987SOL    HW238424   2.305   0.369   0.366  1.5795 -2.3139  1.0377
 8988SOL     OW38425   3.237   3.934   6.399  0.6359  0.3136  0.1552
 8988SOL    HW138426   3.153   3.914   6.442  0.8938 -2.0106 -0.4042
 8988SOL    HW238427   3.243   3.846   6.363 -0.8364 -0.0238  0.7215
 8989SOL     OW38428   0.778   3.950  13.883 -0.2015 -0.5220 -0.4328
 8989SOL    HW138429   0.779   3.927  13.790 -2.1861  2.2209 -1.1261
 8989SOL    HW238430   0.862   3.910  13.906 -0.3876 -0.1263  0.8956
 8990SOL     OW38431   2.588   0.201  17.113 -0.3868  0.3352 -0.1913
 8990SOL    HW138432   2.513   0.262  17.113 -0.1284  0.6477  0.1720
 8990SOL    HW238433   2.555   0.139  17.177  2.4984  0.6169  1.5429
 8991SOL     OW38434   0.502   3.613  15.911  0.3695  0.4913 -0.7494
 8991SOL    HW138435   0.548   3.679  15.858 -0.1637  1.9415  0.5801
 8991SOL    HW238436   0.482   3.555  15.838  1.5328 -1.3566  0.3942
 8992SOL     OW38437   2.349   1.531   2.457 -0.0228 -0.5091 -0.2151
 8992SOL    HW138438   2.372   1.464   2.393 -1.4448 -0.3675 -0.8728
 8992SOL    HW238439   2.405   1.604   2.430 -1.9210  1.0599  0.0384
 8993SOL     OW38440   0.242   0.780   8.346  0.0778  0.3400 -0.2806
 8993SOL    HW138441   0.278   0.762   8.433 -1.6619 -1.2097  0.1271
 8993SOL    HW238442   0.260   0.873   8.340  0.0437  0.2296 -2.0848
 8994SOL     OW38443   1.775   2.880   5.468  0.1738 -0.6178  0.0338
 8994SOL    HW138444   1.687   2.850   5.492 -0.1365 -0.3951 -0.8441
 8994SOL    HW238445   1.787   2.959   5.521  1.1473 -0.8840  0.1990
 8995SOL     OW38446   3.623   2.179  10.090  0.2987  0.5003  0.3150
 8995SOL    HW138447   3.646   2.208  10.002 -0.5475  0.9126  0.2324
 8995SOL    HW238448   3.532   2.151  10.082  1.7579 -3.4139 -2.7976
 8996SOL     OW38449   0.522   2.038  11.969  0.5484  0.0085 -0.0637
 8996SOL    HW138450   0.588   2.019  12.035 -1.3891 -1.8103  1.3176
 8996SOL    HW238451   0.564   1.992  11.896  1.6581  0.8277  0.0524
 8997SOL     OW38452   4.238   1.022   2.554  0.1024 -0.3767 -0.0756
 8997SOL    HW138453   4.169   1.068   2.600 -0.2283  1.2329 -2.1570
 8997SOL    HW238454   4.213   0.931   2.568 -2.2109 -0.1270 -2.6240
 8998SOL     OW38455   4.016   4.332   5.713 -0.4066  0.3752  0.1434
 8998SOL    HW138456   3.921   4.344   5.721 -0.2053  1.8731  0.3908
 8998SOL    HW238457   4.048   4.410   5.759  0.2213 -0.6887  1.5262
 8999SOL     OW38458   1.035   1.155   6.358 -0.3129  0.4935  0.0474
 8999SOL    HW138459   0.956   1.104   6.340 -0.2455 -0.4036  2.1652
 8999SOL    HW238460   1.003   1.175   6.446  0.6292 -0.3734  0.6045
 9000SOL     OW38461   3.149   1.611  14.038 -0.4474  0.1046 -0.5211
 9000SOL    HW138462   3.242   1.633  14.047 -0.2311 -1.7749  2.1570
 9000SOL    HW238463   3.139   1.520  14.067  0.8465  0.7055  1.8512
 9001SOL     OW38464   0.263   0.309   8.432  0.2206 -0.4229 -0.3975
 9001SOL    HW138465   0.169   0.322   8.425  0.2281 -0.7054 -1.0536
 9001SOL    HW238466   0.281   0.256   8.354  0.7403 -0.4351 -0.2673
 9002SOL     OW38467   3.613   2.252   4.262  0.2734  0.0120 -0.3891
 9002SOL    HW138468   3.697   2.298   4.267  1.0098 -1.2148 -1.5489
 9002SOL    HW238469   3.653   2.168   4.284  2.2178  0.5212 -2.0650
 9003SOL     OW38470   0.483   4.412  11.079  0.4218 -0.3480 -0.1692
 9003SOL    HW138471   0.395   4.401  11.115  0.2090 -0.1677 -0.6313
 9003SOL    HW238472   0.466   4.436  10.988 -2.9204  1.1815  0.8832
 9004SOL     OW38473   2.056   3.653   9.155  0.5704 -0.0846  0.0960
 9004SOL    HW138474   2.088   3.570   9.121  1.3761  0.3110 -0.1181
 9004SOL    HW238475   2.036   3.694   9.071  0.4342 -1.6771 -0.6476
 9005SOL     OW38476   1.325   0.778   3.472  0.0430  0.1193  0.0083
 9005SOL    HW138477   1.248   0.825   3.441 -0.3585 -0.9082 -0.5487
 9005SOL    HW238478   1.344   0.731   3.391 -0.9356  1.6372 -1.1139
 9006SOL     OW38479   1.248   1.252  14.681 -0.6448  0.3326  0.1319
 9006SOL    HW138480   1.303   1.193  14.733  0.0139  1.7293  1.0062
 9006SOL    HW238481   1.174   1.191  14.682 -0.2258 -0.2331 -3.7616
 9007SOL     OW38482   0.497   1.116   2.212 -0.2856 -0.2700  0.0041
 9007SOL    HW138483   0.418   1.170   2.216  0.7041  1.2138 -0.4646
 9007SOL    HW238484   0.518   1.122   2.119  3.3136  0.6229  0.8651
 9008SOL     OW38485   1.109   2.074   7.399  0.1285 -0.2645  0.2942
 9008SOL    HW138486   1.055   2.140   7.444  0.8359 -0.1377  0.9552
 9008SOL    HW238487   1.162   2.046   7.473  1.5072  4.8970  1.2521
 9009SOL     OW38488   2.760   4.277   9.142 -0.3094  0.4045  0.3531
 9009SOL    HW138489   2.809   4.329   9.206 -1.1672  0.5874  0.8556
 9009SOL    HW238490   2.763   4.188   9.178  0.5073  0.1881 -0.2621
 9010SOL     OW38491   4.022   2.340   4.746  0.8134  0.1837 -0.1846
 9010SOL    HW138492   4.078   2.358   4.822  0.3638  2.3540 -0.3717
 9010SOL    HW238493   4.040   2.246   4.739 -1.4938 -0.0349 -3.0611
 9011SOL     OW38494   4.340   4.445   9.831 -0.1045 -0.2067  0.1201
 9011SOL    HW138495   4.413   4.383   9.832  0.5401  0.5476  0.6931
 9011SOL    HW238496   4.379   4.525   9.795 -2.1717  0.5985 -0.2897
 9012SOL     OW38497   1.965   1.278   3.923 -0.5754  0.6187 -0.0963
 9012SOL    HW138498   2.033   1.333   3.884  1.3226  0.4349  2.9319
 9012SOL    HW238499   1.903   1.350   3.930 -0.6821  0.6281 -1.1671
 9013SOL     OW38500   0.331   1.088   9.774  0.5005  0.7227 -0.2580
 9013SOL    HW138501   0.245   1.106   9.737  0.4010 -2.1111 -1.3609
 9013SOL    HW238502   0.310   1.058   9.862  2.2737 -0.9832 -0.4035
 9014SOL     OW38503   4.102   1.585  10.071 -0.3074 -0.0314 -0.4084
 9014SOL    HW138504   4.161   1.542  10.133 -1.1438  1.1235  1.1884
 9014SOL    HW238505   4.078   1.524  10.001  0.6493 -0.7349 -0.1191
 9015SOL     OW38506   1.317   3.460   5.844  0.2192 -0.0083  0.6112
 9015SOL    HW138507   1.315   3.398   5.771 -1.5190 -0.4414  1.0084
 9015SOL    HW238508   1.241   3.428   5.894  0.1497  4.2082  3.1994
 9016SOL     OW38509   2.009   3.602   5.556  0.1887  0.1867 -0.7534
 9016SOL    HW138510   2.059   3.548   5.617  0.0446  1.1389  0.2049
 9016SOL    HW238511   1.921   3.578   5.585 -1.0823  2.1360 -2.9843
 9017SOL     OW38512   1.658   2.297   8.392  0.3125 -0.3124 -0.0194
 9017SOL    HW138513   1.751   2.317   8.380 -0.1836  2.0795  0.0635
 9017SOL    HW238514   1.613   2.350   8.326  1.6848  0.2724 -0.4962
 9018SOL     OW38515   3.895   4.685   1.116 -0.0849 -0.1792  0.2557
 9018SOL    HW138516   3.988   4.699   1.096 -0.5029  1.3567 -0.5880
 9018SOL    HW238517   3.858   0.040   1.080  1.0192 -0.3031 -1.1422
 9019SOL     OW38518   1.274   2.491  15.638 -0.3948 -0.0254  0.0282
 9019SOL    HW138519   1.296   2.444  15.557 -1.5037  2.6286 -1.8313
 9019SOL    HW238520   1.315   2.445  15.711 -1.1850 -0.3995  0.2278
 9020SOL     OW38521   2.699   4.081   3.457  0.0437  0.2446  0.4333
 9020SOL    HW138522   2.686   4.174   3.438 -1.0041  0.7443  3.5180
 9020SOL    HW238523   2.739   4.071   3.543  1.4992  0.1015 -0.2601
 9021SOL     OW38524   1.575   2.564  12.345 -0.4362  0.3978 -0.6435
 9021SOL    HW138525   1.506   2.572  12.279  0.1957  0.3629 -1.2961
 9021SOL    HW238526   1.541   2.496  12.403 -1.4018  0.4847 -1.1141
 9022SOL     OW38527   3.255   0.771   5.321 -0.1724  0.8317  0.0068
 9022SOL    HW138528   3.328   0.724   5.280 -0.8701 -0.3760  0.1616
 9022SOL    HW238529   3.299   0.856   5.313  1.5516  0.2330  3.0363
 9023SOL     OW38530   2.355   0.662  15.596  0.0547  0.6773 -0.0884
 9023SOL    HW138531   2.297   0.617  15.657  0.0965  0.8047  0.0443
 9023SOL    HW238532   2.435   0.609  15.590  0.8345  1.9384 -0.9619
 9024SOL     OW38533   0.479   1.549  16.563 -0.3014  0.0826  0.2029
 9024SOL    HW138534   0.460   1.505  16.646  0.1990  1.2904  0.9510
 9024SOL    HW238535   0.422   1.621  16.590  0.0923  0.5550 -0.2243
 9025SOL     OW38536   3.835   0.080   6.303  0.0627 -0.5919  0.2490
 9025SOL    HW138537   3.854   0.171   6.283 -0.3182 -0.7728 -0.9602
 9025SOL    HW238538   3.824   0.071   6.398  0.9493 -2.4302  0.1760
 9026SOL     OW38539   2.214   0.607  13.021  0.0423  0.3416 -0.4147
 9026SOL    HW138540   2.194   0.527  13.070 -0.4035 -0.8145 -2.4670
 9026SOL    HW238541   2.200   0.679  13.083 -0.6446 -1.6743  1.8053
 9027SOL     OW38542   2.275   4.516   4.563  0.4827 -0.5223  0.0100
 9027SOL    HW138543   2.220   4.491   4.489  1.3876  1.1243 -1.2207
 9027SOL    HW238544   2.242   4.605   4.557 -0.5347 -0.9838 -1.2459
 9028SOL     OW38545   1.225   1.356   7.037 -0.3302  0.0329  0.2085
 9028SOL    HW138546   1.263   1.421   6.978 -1.3204 -0.5850 -1.1240
 9028SOL    HW238547   1.298   1.303   7.068  1.3833  2.0273 -0.4485
 9029SOL     OW38548   2.937   0.314   1.617  0.4937 -0.5922  0.2795
 9029SOL    HW138549   2.929   0.366   1.697  1.3682  0.8193 -0.5543
 9029SOL    HW238550   2.869   0.247   1.623 -1.7663  1.6114 -1.0873
 9030SOL     OW38551   0.094   2.398  13.684  0.3560  0.4704  0.4869
 9030SOL    HW138552   0.162   2.383  13.748 -1.4387 -1.1210  2.0284
 9030SOL    HW238553   0.136   2.405  13.598 -1.1333 -0.7227 -0.3459
 9031SOL     OW38554   4.642   1.793  11.080 -0.0777 -0.2616 -0.0030
 9031SOL    HW138555   4.708   1.862  11.091  0.1361 -0.7382  1.6969
 9031SOL    HW238556   4.655   1.732  11.153  1.3501 -0.8755 -0.7803
 9032SOL     OW38557   1.506   3.987   0.802  0.1742  0.5071 -0.0502
 9032SOL    HW138558   1.596   3.983   0.771 -0.1153 -0.1525 -0.8329
 9032SOL    HW238559   1.460   3.987   0.718  3.0165 -1.0628 -1.6127
 9033SOL     OW38560   2.027   4.131   3.017  0.5976 -0.1293  0.3054
 9033SOL    HW138561   1.958   4.172   2.965  0.9574 -0.2865 -0.3048
 9033SOL    HW238562   1.994   4.042   3.031 -2.5797  0.3124 -4.3281
 9034SOL     OW38563   4.084   1.315   5.758  0.0188 -0.2500 -0.0672
 9034SOL    HW138564   4.133   1.274   5.687 -0.5492 -1.9055  0.4946
 9034SOL    HW238565   4.009   1.256   5.753  0.8958 -1.5592  2.1783
 9035SOL     OW38566   1.501   1.013   4.370  0.5490  0.0171 -0.1522
 9035SOL    HW138567   1.475   1.031   4.460 -1.9963  0.7173 -1.0521
 9035SOL    HW238568   1.501   0.917   4.368 -1.6562  0.0694 -1.8876
 9036SOL     OW38569   1.977   1.015   2.474 -0.3281 -0.1218  0.0189
 9036SOL    HW138570   1.922   1.037   2.400 -0.9079 -1.0368  0.1896
 9036SOL    HW238571   1.982   0.921   2.459 -0.2233 -0.0597 -0.3350
 9037SOL     OW38572   3.740   2.958   3.502  0.4832  0.0977  0.0365
 9037SOL    HW138573   3.691   2.949   3.584 -1.3743  1.6455 -0.9363
 9037SOL    HW238574   3.831   2.964   3.532  0.2810  1.2016  0.4018
 9038SOL     OW38575   0.696   2.420   3.482  0.0843 -0.0866 -0.0480
 9038SOL    HW138576   0.619   2.368   3.504 -2.0247  3.7752  1.5458
 9038SOL    HW238577   0.663   2.507   3.462  1.1512  0.6530  1.3624
 9039SOL     OW38578   3.050   1.416  14.958  0.1422  0.5225 -0.2834
 9039SOL    HW138579   3.011   1.449  15.039  1.6547  1.7696 -0.0512
 9039SOL    HW238580   3.124   1.363  14.988  2.0761  0.0053 -5.8900
 9040SOL     OW38581   0.550   0.261   4.966 -0.1734  0.3255  1.0947
 9040SOL    HW138582   0.508   0.229   4.886 -2.1645  1.5092  1.6624
 9040SOL    HW238583   0.604   0.188   4.996  1.8016  1.4230  0.2633
 9041SOL     OW38584   1.302   0.926   1.702  0.4397 -0.1796  0.1537
 9041SOL    HW138585   1.253   0.847   1.727  2.7888 -1.6958 -0.0169
 9041SOL    HW238586   1.270   0.979   1.775  1.2640  0.5073  0.0116
 9042SOL     OW38587   1.124   0.892   3.062  0.4670  0.3978  0.7495
 9042SOL    HW138588   1.176   0.941   3.126 -0.9935  0.0878  2.1621
 9042SOL    HW238589   1.127   0.810   3.111  0.4609 -0.7308 -1.1366
 9043SOL     OW38590   0.173   3.160   3.270 -0.2972 -0.4876 -0.5052
 9043SOL    HW138591   0.151   3.073   3.235 -1.1814 -0.5233  0.1398
 9043SOL    HW238592   0.103   3.216   3.237  0.5581  1.0974  0.3664
 9044SOL     OW38593   3.437   0.945  10.379  0.2290 -0.3620 -0.3553
 9044SOL    HW138594   3.421   0.851  10.384 -0.0029 -0.3284 -0.5273
 9044SOL    HW238595   3.386   0.961  10.301  1.5706  2.2103 -0.6982
 9045SOL     OW38596   1.717   4.424   1.031 -0.4740  0.8051  0.5126
 9045SOL    HW138597   1.741   4.340   0.990 -0.8364  0.7489  0.4164
 9045SOL    HW238598   1.752   4.410   1.119 -1.0965  0.3473  0.6888
 9046SOL     OW38599   1.217   2.704  16.378 -0.5079  0.0827 -0.1275
 9046SOL    HW138600   1.311   2.705  16.360 -0.1543 -0.9795  1.6492
 9046SOL    HW238601   1.187   2.755  16.303  0.5969  2.3215  0.9561
 9047SOL     OW38602   4.306   3.231  17.466 -0.0680  0.3544  0.6119
 9047SOL    HW138603   4.297   3.308  17.522  0.2077  2.7432 -2.6301
 9047SOL    HW238604   4.215   3.211  17.444  0.0940 -0.9687  1.1638
 9048SOL     OW38605   3.070   2.638   2.570 -0.5731  0.0510 -0.9206
 9048SOL    HW138606   2.987   2.656   2.613 -0.3262 -2.2239  0.5136
 9048SOL    HW238607   3.040   2.603   2.486  2.9104 -1.0764 -1.6964
 9049SOL     OW38608   0.189   0.295  14.417 -0.4404  0.4352 -0.1090
 9049SOL    HW138609   0.231   0.380  14.432  1.2144 -0.5464  0.7445
 9049SOL    HW238610   0.158   0.281  14.506  0.9076 -1.1436  0.1108
 9050SOL     OW38611   4.278   2.156   4.436 -0.1980  0.0535 -0.2491
 9050SOL    HW138612   4.255   2.073   4.478 -0.6548  0.2912 -0.0301
 9050SOL    HW238613   4.354   2.186   4.484  0.8327  0.2179 -1.9690
 9051SOL     OW38614   4.316   4.060   1.050 -0.5176 -0.5437 -0.2475
 9051SOL    HW138615   4.262   4.013   0.987  0.0645  0.5151 -1.5145
 9051SOL    HW238616   4.310   4.005   1.128  2.6134  0.8072  0.9386
 9052SOL     OW38617   1.162   0.965   8.660 -0.2170 -0.2298 -0.4108
 9052SOL    HW138618   1.223   0.915   8.607  1.5711  0.8694  0.5912
 9052SOL    HW238619   1.153   0.911   8.738  0.2720  1.2226  0.6552
 9053SOL     OW38620   0.505   3.296  11.395  0.2048  0.0570  0.3309
 9053SOL    HW138621   0.599   3.304  11.409  0.5066 -1.0151 -1.0952
 9053SOL    HW238622   0.496   3.352  11.318 -1.6899  0.1647  0.6317
 9054SOL     OW38623   1.463   4.279   8.794  0.2301  0.1961  0.0147
 9054SOL    HW138624   1.545   4.285   8.746  2.0127 -1.2790  2.8791
 9054SOL    HW238625   1.403   4.329   8.739 -1.7545  0.0799  2.0745
 9055SOL     OW38626   1.757   4.469   0.738  0.1771  0.3228  0.0799
 9055SOL    HW138627   1.755   4.459   0.834  3.2325 -0.9044 -0.0066
 9055SOL    HW238628   1.734   4.559   0.717 -1.5322  0.1324  1.0887
 9056SOL     OW38629   1.416   1.627   2.693 -0.1443  0.1911  0.0656
 9056SOL    HW138630   1.433   1.536   2.717 -0.0819 -0.2589 -1.7141
 9056SOL    HW238631   1.464   1.679   2.758 -1.0359  2.0986 -0.8227
 9057SOL     OW38632   1.667   3.611  10.533  0.0058  0.8083 -0.1554
 9057SOL    HW138633   1.753   3.652  10.535  0.8173 -0.8628 -0.5956
 9057SOL    HW238634   1.649   3.646  10.446 -0.8086 -1.0294 -0.7274
 9058SOL     OW38635   1.894   3.597   4.044  0.1672  0.2410  0.3653
 9058SOL    HW138636   1.859   3.564   3.961  0.5466 -0.3904  0.4524
 9058SOL    HW238637   1.963   3.532   4.062  0.9926  1.8838  3.1062
 9059SOL     OW38638   0.901   3.420   9.504  0.2706  0.0289  0.9900
 9059SOL    HW138639   0.861   3.503   9.477 -1.1206 -1.0511 -0.3120
 9059SOL    HW238640   0.885   3.375   9.421  2.4057 -1.4381  1.3804
 9060SOL     OW38641   3.112   1.466  15.533  0.2364 -0.3379  0.1161
 9060SOL    HW138642   3.203   1.445  15.552  0.6041 -1.3089 -2.7497
 9060SOL    HW238643   3.057   1.453  15.610 -0.8473 -0.8948 -0.7369
 9061SOL     OW38644   0.266   1.978  11.429  0.0048 -0.2349  0.6564
 9061SOL    HW138645   0.283   2.024  11.512  1.7122  1.0238 -0.3988
 9061SOL    HW238646   0.205   2.041  11.391  1.3715  1.4878  1.3095
 9062SOL     OW38647   1.824   0.227   9.064  0.3881 -0.1408  0.1628
 9062SOL    HW138648   1.836   0.161   9.132 -0.2390 -0.6318 -0.2005
 9062SOL    HW238649   1.797   0.299   9.121  0.6494  1.0369 -1.2087
 9063SOL     OW38650   0.494   4.431   4.212 -0.4578  0.5221 -0.0375
 9063SOL    HW138651   0.424   4.496   4.205 -0.1588  0.6364 -1.9360
 9063SOL    HW238652   0.571   4.481   4.240  0.1044 -0.1213 -0.4471
 9064SOL     OW38653   4.340   3.163   5.471  0.2324  0.0569 -0.0901
 9064SOL    HW138654   4.369   3.102   5.403  0.6884 -1.1420  1.1768
 9064SOL    HW238655   4.423   3.163   5.519  0.9038  1.5884 -1.2712
 9065SOL     OW38656   4.658   2.102  10.562  0.0552 -0.0880 -0.0450
 9065SOL    HW138657   4.630   2.015  10.591 -1.1777  0.5312  0.6620
 9065SOL    HW238658   4.655   2.095  10.467  0.0591  0.2451 -0.0676
 9066SOL     OW38659   3.338   3.718   5.287 -0.3230  0.8408 -0.5253
 9066SOL    HW138660   3.402   3.688   5.222 -1.3847  0.7149 -1.5068
 9066SOL    HW238661   3.374   3.803   5.311  2.0883 -0.2542 -0.2638
 9067SOL     OW38662   0.820   3.119   8.097  0.0678  0.0956  0.1765
 9067SOL    HW138663   0.916   3.114   8.095  0.1850  0.5023  4.4021
 9067SOL    HW238664   0.805   3.180   8.169  2.7985 -0.1895  1.0042
 9068SOL     OW38665   3.339   4.149  12.696  0.0320  0.4212 -0.2714
 9068SOL    HW138666   3.397   4.077  12.669  0.3292 -0.5175  2.7910
 9068SOL    HW238667   3.255   4.103  12.699 -1.4209  3.0794 -0.9830
 9069SOL     OW38668   4.591   4.617   3.851  0.3405  0.0211  0.0951
 9069SOL    HW138669   4.589   4.700   3.898 -2.7260  0.0238 -0.0420
 9069SOL    HW238670   4.589   4.545   3.914 -2.2225 -0.3718 -0.4226
 9070SOL     OW38671   0.836   0.880   7.693  0.5215 -0.3870  0.4523
 9070SOL    HW138672   0.839   0.975   7.710  0.1323 -0.6025  1.7844
 9070SOL    HW238673   0.858   0.874   7.601  0.0034  1.5734  0.1979
 9071SOL     OW38674   3.886   0.195   2.665 -0.0090 -0.5592  0.2075
 9071SOL    HW138675   3.932   0.130   2.610 -0.4597 -0.6940 -0.0062
 9071SOL    HW238676   3.891   0.273   2.609 -2.0246 -1.6270 -1.4836
 9072SOL     OW38677   4.349   0.459   0.403  0.6317 -0.2708 -0.1613
 9072SOL    HW138678   4.326   0.372   0.435 -1.5070  0.4635  0.2645
 9072SOL    HW238679   4.380   0.439   0.315 -1.0400 -0.8307 -0.6058
 9073SOL     OW38680   2.532   1.693   4.965 -0.5632  0.1633 -0.2860
 9073SOL    HW138681   2.624   1.684   4.988 -1.0832 -0.3530  1.5606
 9073SOL    HW238682   2.528   1.670   4.872  2.2392 -1.5457  0.0306
 9074SOL     OW38683   1.476   4.285   7.971 -0.6075 -0.2220  0.2538
 9074SOL    HW138684   1.428   4.206   7.948 -2.7223  0.9751  0.5485
 9074SOL    HW238685   1.409   4.340   8.011 -2.2218 -1.9714 -0.0622
 9075SOL     OW38686   2.190   0.664  12.748 -0.0947  0.1579  0.0705
 9075SOL    HW138687   2.251   0.737  12.758  1.4227 -0.8812 -1.5962
 9075SOL    HW238688   2.169   0.638  12.837  1.2198 -1.5500 -0.1179
 9076SOL     OW38689   2.292   1.784   4.872  0.8046 -0.0293  0.1245
 9076SOL    HW138690   2.373   1.757   4.914  2.3650  0.5215 -2.5638
 9076SOL    HW238691   2.312   1.791   4.779 -1.4873  2.2822 -0.1905
 9077SOL     OW38692   4.270   3.667   6.725 -0.5534 -0.3614  0.4821
 9077SOL    HW138693   4.297   3.647   6.814  1.2136 -0.9449 -0.1964
 9077SOL    HW238694   4.191   3.719   6.743 -1.1509 -0.4054 -1.9433
 9078SOL     OW38695   2.940   2.202   1.841 -0.7105  0.1092 -0.1573
 9078SOL    HW138696   2.853   2.180   1.875  0.0827  1.2548  2.6036
 9078SOL    HW238697   2.922   2.247   1.758  2.9294  2.7953  0.5199
 9079SOL     OW38698   2.575   3.616   0.873  0.1056 -0.1091 -0.1501
 9079SOL    HW138699   2.564   3.544   0.934 -2.6052 -0.5364 -1.1395
 9079SOL    HW238700   2.670   3.624   0.873 -0.0129  1.4456 -0.6639
 9080SOL     OW38701   3.806   0.613   7.987  0.4230  0.3894  0.5513
 9080SOL    HW138702   3.798   0.611   7.892 -1.4148  0.3773  0.7159
 9080SOL    HW238703   3.717   0.642   8.005  1.2604  1.4814  2.9541
 9081SOL     OW38704   2.949   1.699   5.966 -0.4165  0.0421  0.2133
 9081SOL    HW138705   2.913   1.647   6.038  0.0185  0.1462  0.5127
 9081SOL    HW238706   3.005   1.636   5.921 -0.1511 -0.6696  1.5199
 9082SOL     OW38707   2.076   2.958  17.345  0.2685 -0.2443 -0.2450
 9082SOL    HW138708   2.055   2.921  17.431 -1.4388  1.0712 -0.0925
 9082SOL    HW238709   2.072   2.880  17.292  2.4072 -0.5679  0.0450
 9083SOL     OW38710   1.626   4.214  14.456 -0.6048  0.2023 -0.6505
 9083SOL    HW138711   1.548   4.240  14.408 -0.3093  2.7992  0.2601
 9083SOL    HW238712   1.606   4.121  14.467  1.2759 -0.4396 -2.6997
 9084SOL     OW38713   1.596   0.192   7.935  0.0389 -0.6255 -0.1709
 9084SOL    HW138714   1.637   0.158   8.015 -0.1664 -0.3626  0.0491
 9084SOL    HW238715   1.658   0.263   7.922 -3.7600  2.8520  0.5536
 9085SOL     OW38716   2.235   0.013   7.197 -0.2127  0.4626 -0.0548
 9085SOL    HW138717   2.324   4.705   7.188 -0.0853  0.2378  2.0695
 9085SOL    HW238718   2.176   4.665   7.177  0.2498 -0.5469  2.2953
 9086SOL     OW38719   2.415   0.491   6.635  0.0553 -0.8432  0.6204
 9086SOL    HW138720   2.491   0.442   6.603  0.1885 -0.6088  0.5737
 9086SOL    HW238721   2.403   0.555   6.565 -2.3381 -2.5163 -0.4872
 9087SOL     OW38722   3.275   3.389   5.341 -0.2325  0.1239 -0.3129
 9087SOL    HW138723   3.216   3.371   5.268  0.0615  0.5123 -0.6389
 9087SOL    HW238724   3.353   3.383   5.287  0.6979  0.6290  0.9731
 9088SOL     OW38725   3.880   0.518   9.183  0.5156  0.0247 -0.2824
 9088SOL    HW138726   3.831   0.467   9.119 -0.6169 -1.0837  1.5023
 9088SOL    HW238727   3.806   0.578   9.187  0.9885  0.8783 -3.6607
 9089SOL     OW38728   3.668   1.444   7.779 -0.4031 -0.2089  0.2257
 9089SOL    HW138729   3.593   1.422   7.833 -0.9818 -2.4228 -1.4809
 9089SOL    HW238730   3.725   1.461   7.855 -1.8612  0.2084  1.2201
 9090SOL     OW38731   4.272   3.729   4.771 -0.3238 -0.2478 -0.0726
 9090SOL    HW138732   4.312   3.816   4.764 -1.1746  0.0993 -0.6214
 9090SOL    HW238733   4.232   3.736   4.858  1.7645 -2.6713  1.0714
 9091SOL     OW38734   3.914   1.485   2.454  0.0982  0.0205  0.3236
 9091SOL    HW138735   3.962   1.547   2.509  0.6015 -0.1825  0.1078
 9091SOL    HW238736   3.847   1.450   2.513  1.6852 -2.7333  0.4648
 9092SOL     OW38737   3.232   2.955   3.375 -0.1830 -0.0876  0.0442
 9092SOL    HW138738   3.236   3.009   3.454 -1.4763  0.2458 -0.1162
 9092SOL    HW238739   3.173   3.012   3.325  0.0980  0.6680  0.5602
 9093SOL     OW38740   1.284   1.721   5.939 -0.0379  0.0948 -0.1788
 9093SOL    HW138741   1.222   1.746   5.871  0.9386 -2.8770 -2.1506
 9093SOL    HW238742   1.230   1.703   6.016  0.8072  0.6902  0.5490
 9094SOL     OW38743   2.057   1.672   5.349 -0.1159  0.2480 -0.4818
 9094SOL    HW138744   2.072   1.717   5.433  0.4895 -2.9936  1.1591
 9094SOL    HW238745   2.146   1.638   5.338  0.0668  0.0020  1.7320
 9095SOL     OW38746   2.526   3.992   5.634 -0.2929  0.1643  0.0223
 9095SOL    HW138747   2.436   3.993   5.666 -0.9182 -1.6099 -1.7038
 9095SOL    HW238748   2.537   3.904   5.599 -0.3612  0.3408 -0.4510
 9096SOL     OW38749   0.911   3.639   1.293  0.6517 -0.2139  0.2645
 9096SOL    HW138750   0.896   3.704   1.361 -2.8579  1.2472 -1.9337
 9096SOL    HW238751   0.984   3.588   1.328 -0.8234 -1.1808  1.8909
 9097SOL     OW38752   4.119   2.055   4.714  0.7549  0.0727 -0.3672
 9097SOL    HW138753   4.110   2.003   4.634  0.1033 -0.8017  0.2813
 9097SOL    HW238754   4.191   2.010   4.759  0.3588 -0.9550 -0.7714
 9098SOL     OW38755   2.314   1.862   4.618  0.6457  0.5835 -0.2846
 9098SOL    HW138756   2.406   1.875   4.594  0.6049 -1.2645 -1.4747
 9098SOL    HW238757   2.272   1.884   4.535  0.7540 -0.0917 -0.5198
 9099SOL     OW38758   4.041   2.562   1.583  0.2088 -0.7874 -0.1924
 9099SOL    HW138759   4.016   2.552   1.491 -0.0386 -0.7545 -0.1284
 9099SOL    HW238760   4.097   2.640   1.587  0.4342 -0.9257 -0.6292
 9100SOL     OW38761   0.485   4.170   7.798 -0.3453  0.7278 -0.1837
 9100SOL    HW138762   0.405   4.196   7.753 -1.0820 -0.8221  0.2083
 9100SOL    HW238763   0.550   4.187   7.731 -1.1210 -2.6889 -1.8173
 9101SOL     OW38764   3.784   3.018   4.055  0.5840 -0.9965  0.4869
 9101SOL    HW138765   3.754   3.002   3.965  1.7220  1.9998 -0.4327
 9101SOL    HW238766   3.717   3.076   4.092 -1.1965 -2.6020 -0.2329
 9102SOL     OW38767   2.956   2.433   7.078 -0.2371 -0.0423 -0.0811
 9102SOL    HW138768   2.901   2.388   7.014 -1.1271 -1.7879  1.9349
 9102SOL    HW238769   3.030   2.373   7.068 -1.0986 -1.0291 -0.5279
 9103SOL     OW38770   4.659   3.261  10.609  0.2042 -0.6183 -0.1857
 9103SOL    HW138771   4.572   3.223  10.595  0.6654 -1.9064  0.4516
 9103SOL    HW238772   4.717   3.192  10.641 -0.6969 -0.4163  1.9418
 9104SOL     OW38773   1.749   1.455   3.940 -0.3801  0.5935  0.1396
 9104SOL    HW138774   1.716   1.544   3.927  0.0841  0.9575  1.4746
 9104SOL    HW238775   1.704   1.408   3.870  2.5884  0.2878 -1.5478
 9105SOL     OW38776   0.702   3.128  14.200 -0.4133 -0.3191  0.1481
 9105SOL    HW138777   0.629   3.067  14.208 -1.0252  0.2156 -1.2902
 9105SOL    HW238778   0.659   3.213  14.202 -0.9554 -0.5709 -0.9530
 9106SOL     OW38779   1.011   3.600   0.513 -0.1973 -0.3503  0.0326
 9106SOL    HW138780   1.060   3.518   0.504  2.2663  0.9669  1.5230
 9106SOL    HW238781   1.004   3.604   0.608  2.2297  0.6153  0.1598
 9107SOL     OW38782   0.123   2.010  13.251  0.2033  0.0753  0.1263
 9107SOL    HW138783   0.193   1.958  13.212  0.5091  0.7730 -0.2651
 9107SOL    HW238784   0.045   1.977  13.206 -0.3045  1.7813 -0.2647
 9108SOL     OW38785   0.600   2.523   4.118  0.3828  0.1011  0.5990
 9108SOL    HW138786   0.624   2.609   4.150 -0.3263  0.9443 -1.1357
 9108SOL    HW238787   0.542   2.560   4.051  0.0586 -0.1163  0.7559
 9109SOL     OW38788   4.581   1.470  12.683  0.1662  0.2921 -0.3127
 9109SOL    HW138789   4.536   1.511  12.609  2.8477  1.9884 -0.9896
 9109SOL    HW238790   4.633   1.540  12.722 -2.1136  1.3432  0.8596
 9110SOL     OW38791   3.905   4.446   9.298 -0.8010  0.9642 -0.2770
 9110SOL    HW138792   3.908   4.384   9.226 -0.9611 -1.0401  1.4397
 9110SOL    HW238793   3.906   4.382   9.370 -0.0435  2.3588  0.9634
 9111SOL     OW38794   0.023   2.853   0.901  0.0976  0.2100 -0.2636
 9111SOL    HW138795   4.663   2.882   0.936  0.1621 -1.5378  1.3676
 9111SOL    HW238796   0.021   2.881   0.810 -3.1491 -0.3726 -0.3593
 9112SOL     OW38797   1.731   4.545  10.912 -0.1016  0.4323  0.5397
 9112SOL    HW138798   1.660   4.516  10.970 -0.3953 -1.1692 -0.6404
 9112SOL    HW238799   1.710   4.636  10.890 -2.2043 -0.0901  0.3426
 9113SOL     OW38800   4.157   0.432   3.840  0.7091 -0.1141  0.0194
 9113SOL    HW138801   4.123   0.495   3.904 -3.0040  0.8521 -2.8894
 9113SOL    HW238802   4.251   0.438   3.853  1.0728 -0.6560 -2.4455
 9114SOL     OW38803   0.847   3.018   3.588  0.4597 -0.9690  0.6263
 9114SOL    HW138804   0.791   3.087   3.553 -0.0444 -1.7127 -0.0275
 9114SOL    HW238805   0.932   3.056   3.565  2.1185 -4.7726  0.3825
 9115SOL     OW38806   4.033   0.457  13.018  0.1638  0.4040  0.0116
 9115SOL    HW138807   3.960   0.499  13.063  1.4733  2.0498  0.5826
 9115SOL    HW238808   4.096   0.529  13.016 -0.8549  1.3026  0.7327
 9116SOL     OW38809   1.195   4.495   4.299  0.2118 -0.3078  0.4094
 9116SOL    HW138810   1.240   4.500   4.214 -0.6061  0.8150  0.0305
 9116SOL    HW238811   1.194   4.400   4.308  0.4410 -0.6103 -2.6168
 9117SOL     OW38812   3.485   3.679  13.492 -0.2297  0.4934  0.6003
 9117SOL    HW138813   3.574   3.679  13.457 -0.8819  1.6829 -1.0441
 9117SOL    HW238814   3.508   3.650  13.580 -1.2193 -1.4307  0.2228
 9118SOL     OW38815   0.982   3.973  10.652 -0.1948 -0.0316 -0.6280
 9118SOL    HW138816   0.927   3.906  10.692  1.0740  0.0821  1.3091
 9118SOL    HW238817   1.013   3.927  10.573  0.0209 -0.4334 -0.3067
 9119SOL     OW38818   1.754   4.415   3.704 -0.3472  0.6371 -0.4998
 9119SOL    HW138819   1.822   4.351   3.682 -1.8313 -1.6526  1.4895
 9119SOL    HW238820   1.765   4.431   3.798 -0.1062 -0.1492 -0.3883
 9120SOL     OW38821   0.236   4.685   8.625  0.3971 -0.1442  0.2259
 9120SOL    HW138822   0.228   4.591   8.644 -2.3193  0.4096  1.8258
 9120SOL    HW238823   0.292   4.685   8.548 -0.3285  0.1015 -0.2981
 9121SOL     OW38824   0.015   2.136  11.557  0.0221 -0.3447 -0.1653
 9121SOL    HW138825   0.054   2.193  11.624 -0.0781  1.4230 -1.6362
 9121SOL    HW238826   4.648   2.144  11.581 -0.2724 -1.4396 -0.9520
 9122SOL     OW38827   3.258   4.082  12.401  0.1061  0.1297 -0.2129
 9122SOL    HW138828   3.335   4.139  12.394 -0.5651  0.7764 -2.1044
 9122SOL    HW238829   3.213   4.112  12.480  0.5306  1.5811 -0.5342
 9123SOL     OW38830   0.959   2.177   2.363 -0.2111  0.5587 -0.0185
 9123SOL    HW138831   0.929   2.216   2.281 -0.8698 -0.2069 -0.1446
 9123SOL    HW238832   0.960   2.252   2.422 -2.1219  1.7174 -1.4436
 9124SOL     OW38833   0.909   4.195   3.437 -0.7919  0.0917  0.4805
 9124SOL    HW138834   0.968   4.266   3.463 -0.2732 -0.6380  1.3286
 9124SOL    HW238835   0.835   4.194   3.498 -0.6109  1.9969  0.7292
 9125SOL     OW38836   2.682   2.427  13.391  0.2050  0.1594  0.0267
 9125SOL    HW138837   2.705   2.368  13.319 -0.5835 -0.3117  0.1499
 9125SOL    HW238838   2.588   2.415  13.374 -0.1095  0.0207  1.8866
 9126SOL     OW38839   2.322   0.234   5.461  0.2062 -0.5741 -0.1197
 9126SOL    HW138840   2.376   0.160   5.434  0.9824 -1.4130  3.7325
 9126SOL    HW238841   2.237   0.192   5.452 -1.2775  2.3766 -0.0172
 9127SOL     OW38842   2.404   3.393   5.499 -0.0632 -0.5071  0.0926
 9127SOL    HW138843   2.390   3.485   5.522 -0.0932 -0.6103  0.4891
 9127SOL    HW238844   2.353   3.382   5.419 -0.3267 -0.0611  0.1965
 9128SOL     OW38845   2.000   3.984   5.227  0.2752 -0.1489  0.3200
 9128SOL    HW138846   2.084   3.956   5.191 -0.7392 -1.2699 -1.2345
 9128SOL    HW238847   1.967   4.053   5.169 -2.7627 -0.5807  1.5170
 9129SOL     OW38848   1.818   3.223  13.390 -0.4278  0.0044 -0.4701
 9129SOL    HW138849   1.858   3.307  13.371  1.6956 -1.3016 -1.7334
 9129SOL    HW238850   1.855   3.172  13.318 -1.6613  0.8360 -1.6882
 9130SOL     OW38851   1.336   1.253  10.200 -0.0083 -0.4922 -0.1346
 9130SOL    HW138852   1.273   1.197  10.246  0.7894 -0.1129  1.4467
 9130SOL    HW238853   1.280   1.306  10.143  0.5196  1.6694  1.3502
 9131SOL     OW38854   0.835   2.328   3.973 -0.2751 -0.0008  0.7200
 9131SOL    HW138855   0.772   2.267   3.934 -1.1946  1.6514 -0.3731
 9131SOL    HW238856   0.849   2.397   3.908 -1.0911  0.6215  1.1977
 9132SOL     OW38857   3.253   4.617   4.318 -0.1332 -0.4633  0.0306
 9132SOL    HW138858   3.300   4.623   4.235 -1.4934  0.7504 -0.6372
 9132SOL    HW238859   3.165   4.587   4.297  0.3857 -1.6879 -0.4121
 9133SOL     OW38860   2.749   3.731  14.335 -0.0373  0.3460 -0.3869
 9133SOL    HW138861   2.737   3.716  14.241  0.3554 -0.0280 -0.3750
 9133SOL    HW238862   2.685   3.674  14.378  0.3695  0.6357  0.6008
 9134SOL     OW38863   1.973   4.577   3.924 -0.2454 -0.5938  0.0155
 9134SOL    HW138864   1.944   4.657   3.881  3.5401  0.7831  0.0269
 9134SOL    HW238865   2.060   4.559   3.889 -0.0233 -2.0091  1.2580
 9135SOL     OW38866   4.716   1.704   3.056  0.0116  0.0103  0.0725
 9135SOL    HW138867   4.665   1.639   3.105 -0.8867 -0.0640 -0.9522
 9135SOL    HW238868   4.671   1.698   2.972  1.1339 -0.2260 -0.4991
 9136SOL     OW38869   2.259   4.660   4.934  0.0958 -0.4392  0.2642
 9136SOL    HW138870   2.175   4.649   4.889 -0.1330  0.6950  0.4273
 9136SOL    HW238871   2.322   4.646   4.863  0.1443  1.8920 -0.1333
 9137SOL     OW38872   4.543   0.600   2.359 -0.4990  0.8799  0.4873
 9137SOL    HW138873   4.486   0.540   2.407  0.6162  0.3898  1.1908
 9137SOL    HW238874   4.548   0.555   2.274  1.4631  0.9418  0.5744
 9138SOL     OW38875   2.233   0.585   5.184  0.0159 -0.5631  0.1843
 9138SOL    HW138876   2.216   0.576   5.090  0.5412  0.9004 -0.0497
 9138SOL    HW238877   2.310   0.529   5.193  0.1959  0.0451  2.5186
 9139SOL     OW38878   0.439   2.815  13.445 -1.4294 -0.1213 -0.0656
 9139SOL    HW138879   0.387   2.779  13.373 -0.1599  0.1828 -1.1487
 9139SOL    HW238880   0.489   2.878  13.392 -1.5439 -0.1477 -0.2041
 9140SOL     OW38881   2.525   4.451   1.862 -0.0836 -0.1307 -0.3813
 9140SOL    HW138882   2.597   4.398   1.828 -0.3438 -1.1799  0.7096
 9140SOL    HW238883   2.551   4.534   1.822  0.5649 -0.7907 -1.3253
 9141SOL     OW38884   3.000   0.752   3.451  0.1119  0.4526 -0.4872
 9141SOL    HW138885   3.021   0.757   3.545 -1.2949  0.4922 -0.1707
 9141SOL    HW238886   3.074   0.805   3.422 -0.6799  0.6550 -2.1400
 9142SOL     OW38887   3.615   1.240   1.725  0.2572 -0.7230  0.2914
 9142SOL    HW138888   3.709   1.239   1.746  0.5971 -0.8614 -1.2678
 9142SOL    HW238889   3.598   1.332   1.746 -1.5143 -0.5154 -2.0718
 9143SOL     OW38890   4.495   2.980   5.317 -0.4454 -0.6066 -0.3508
 9143SOL    HW138891   4.514   2.921   5.244  1.0794 -1.3482  0.6601
 9143SOL    HW238892   4.558   3.051   5.301  1.7688 -2.1575  1.4620
 9144SOL     OW38893   2.845   3.251  11.086 -0.1663  0.6950 -0.3977
 9144SOL    HW138894   2.842   3.155  11.096 -2.7164  1.0125  2.0905
 9144SOL    HW238895   2.805   3.248  10.999 -0.7068  1.9245 -0.1937
 9145SOL     OW38896   1.988   3.977   5.728 -0.0499  0.0551  0.0175
 9145SOL    HW138897   1.970   4.052   5.783 -2.8211  1.1870 -2.4321
 9145SOL    HW238898   1.918   3.912   5.734 -0.1591 -0.0400 -1.9704
 9146SOL     OW38899   0.360   2.915   3.044  0.3180 -0.4119 -0.7389
 9146SOL    HW138900   0.302   2.974   3.094  4.1112  2.5530  0.2106
 9146SOL    HW238901   0.436   2.963   3.010 -0.3782  1.6209  0.5632
 9147SOL     OW38902   2.894   1.608   2.191  0.1286  0.6089  0.0441
 9147SOL    HW138903   2.976   1.577   2.229  0.9621 -1.4860 -3.5698
 9147SOL    HW238904   2.897   1.559   2.109 -2.6634 -1.2456  1.0754
 9148SOL     OW38905   3.307   3.073   9.759 -0.4656 -0.8988  0.3520
 9148SOL    HW138906   3.386   3.034   9.721  0.9469  0.4555  1.8919
 9148SOL    HW238907   3.333   3.165   9.768 -1.6725 -0.4834 -0.4280
 9149SOL     OW38908   1.834   0.021  11.802  0.2122 -0.2233 -1.1048
 9149SOL    HW138909   1.790   0.103  11.822  1.7752  0.4377 -0.4293
 9149SOL    HW238910   1.905   0.072  11.763  1.4251  0.0730  1.4960
 9150SOL     OW38911   2.884   0.450   2.722 -0.2815 -0.2903 -0.2326
 9150SOL    HW138912   2.822   0.445   2.794 -1.3287 -0.2774 -1.1308
 9150SOL    HW238913   2.889   0.545   2.711 -2.2294  0.0524  1.7570
 9151SOL     OW38914   0.096   1.557   9.834 -0.4625  0.0359 -0.1646
 9151SOL    HW138915   0.133   1.537   9.748 -2.1857 -0.5741 -0.7626
 9151SOL    HW238916   0.080   1.469   9.867  0.7831  0.5947  1.9532
 9152SOL     OW38917   1.037   4.143   1.797  0.2966 -0.2928 -0.0662
 9152SOL    HW138918   1.076   4.158   1.711 -0.6232  1.1369 -0.2358
 9152SOL    HW238919   1.117   4.139   1.850  0.3098 -0.5781 -0.1106
 9153SOL     OW38920   3.125   4.514   8.900 -0.0645  0.3338 -0.2151
 9153SOL    HW138921   3.170   4.451   8.957  3.2432  0.4458 -2.7314
 9153SOL    HW238922   3.066   4.567   8.953 -1.1005 -1.3766  0.3482
 9154SOL     OW38923   1.927   0.561   9.312  0.9571 -0.2802  0.2566
 9154SOL    HW138924   2.012   0.539   9.350  0.2197 -1.9261  0.9780
 9154SOL    HW238925   1.865   0.547   9.384 -0.0541  1.3325 -0.2983
 9155SOL     OW38926   1.390   0.493   9.256  0.1645 -0.3491  0.7382
 9155SOL    HW138927   1.297   0.478   9.275 -0.7725  1.4605 -2.3711
 9155SOL    HW238928   1.420   0.403   9.243  1.3051  0.2310 -0.6582
 9156SOL     OW38929   3.692   2.439   9.453  0.5436 -0.2423  0.4515
 9156SOL    HW138930   3.734   2.472   9.533 -1.3744  2.0631  0.4778
 9156SOL    HW238931   3.692   2.516   9.397  1.4014 -1.3546 -1.0904
 9157SOL     OW38932   4.182   4.143   7.191  0.5704  0.5984 -0.2814
 9157SOL    HW138933   4.132   4.079   7.140  3.5354 -0.2836 -2.0916
 9157SOL    HW238934   4.273   4.115   7.181  0.4886 -0.1568  1.0402
 9158SOL     OW38935   4.107   4.467   1.079  0.3664 -0.4020  0.1164
 9158SOL    HW138936   4.166   4.409   1.030 -2.5894 -3.3983  0.1394
 9158SOL    HW238937   4.108   4.423   1.164 -1.6737  0.1834  0.4460
 9159SOL     OW38938   2.836   3.948  12.700 -0.7526 -0.0866  0.1913
 9159SOL    HW138939   2.746   3.974  12.722 -1.4570 -1.7052 -0.8306
 9159SOL    HW238940   2.830   3.861  12.738  0.0517  0.5295  1.7278
 9160SOL     OW38941   0.943   1.824   9.420  0.3767 -0.0059  0.4642
 9160SOL    HW138942   0.884   1.899   9.430  0.3550  0.0078  0.2347
 9160SOL    HW238943   0.918   1.782   9.502 -0.8567  3.0273  1.6781
 9161SOL     OW38944   2.015   4.635   9.549  0.1037  0.2689 -0.2561
 9161SOL    HW138945   2.078   4.683   9.602  1.1358 -2.5354  1.0484
 9161SOL    HW238946   1.940   4.660   9.602  1.6206  0.2396  1.8877
 9162SOL     OW38947   0.805   1.421  16.859  0.0936 -0.1045  0.0994
 9162SOL    HW138948   0.895   1.426  16.889  0.0308 -0.0767  0.2803
 9162SOL    HW238949   0.818   1.416  16.764 -0.2472  0.6581  0.0120
 9163SOL     OW38950   3.002   2.459   8.414  0.7745  0.4678  0.1746
 9163SOL    HW138951   2.966   2.375   8.442  0.0850  1.4209  2.0971
 9163SOL    HW238952   2.927   2.517   8.403  1.1622  0.6679 -1.5126
 9164SOL     OW38953   1.167   0.095   6.567 -0.4277  0.5141 -0.0744
 9164SOL    HW138954   1.222   0.069   6.493 -1.7833 -0.7664 -0.6555
 9164SOL    HW238955   1.168   0.010   6.611 -2.8990  0.6710  0.2695
 9165SOL     OW38956   3.578   3.213   0.495 -0.2995  0.3486  0.3804
 9165SOL    HW138957   3.614   3.227   0.583  4.0985 -1.0989 -1.1962
 9165SOL    HW238958   3.636   3.141   0.469  0.3838  1.8109 -2.0878
 9166SOL     OW38959   0.108   0.270  14.658 -0.1346  0.5215 -0.2588
 9166SOL    HW138960   0.089   0.247  14.749 -1.7989  1.7530 -0.2986
 9166SOL    HW238961   0.042   0.339  14.645 -2.4999 -1.8334 -0.7722
 9167SOL     OW38962   4.395   0.260   0.868 -0.2539 -0.1786  0.3576
 9167SOL    HW138963   4.350   0.344   0.880  3.1987  1.7937 -0.2745
 9167SOL    HW238964   4.320   0.223   0.822 -0.2158 -1.5732  1.4561
 9168SOL     OW38965   1.147   0.638  14.782 -0.7026  0.1768  0.2620
 9168SOL    HW138966   1.188   0.582  14.716  0.4622  1.3381  0.0073
 9168SOL    HW238967   1.147   0.580  14.858 -1.2658  1.0363  0.9086
 9169SOL     OW38968   2.462   2.845  13.256 -0.6580  0.3950 -0.6536
 9169SOL    HW138969   2.437   2.853  13.164 -0.4447 -0.9721 -0.8323
 9169SOL    HW238970   2.415   2.770  13.293 -0.3358 -0.3110 -1.6737
 9170SOL     OW38971   0.081   1.764   6.063  0.0694 -0.0728  0.2073
 9170SOL    HW138972   0.023   1.823   6.112  0.4483 -0.5986  1.2876
 9170SOL    HW238973   0.039   1.679   6.072 -0.4073 -0.1453 -2.7158
 9171SOL     OW38974   0.334   0.357   1.565 -0.1147  0.1555  0.2410
 9171SOL    HW138975   0.240   0.375   1.559  0.2435  2.1613  0.5809
 9171SOL    HW238976   0.333   0.331   1.658 -1.4248 -0.3760  0.0811
 9172SOL     OW38977   2.502   0.704   4.394 -0.8934  0.1204 -0.1795
 9172SOL    HW138978   2.484   0.610   4.391  0.1751 -0.0918 -0.0043
 9172SOL    HW238979   2.598   0.708   4.393 -0.8854 -0.5183 -2.1197
 9173SOL     OW38980   1.268   1.492   0.856  0.1833  0.4973 -0.0894
 9173SOL    HW138981   1.333   1.559   0.878 -0.3759  1.2393 -0.6996
 9173SOL    HW238982   1.257   1.443   0.937 -1.5260 -0.3173 -0.8197
 9174SOL     OW38983   3.952   1.541   4.131 -0.5905  0.1258  0.2577
 9174SOL    HW138984   3.936   1.557   4.038  0.1247  2.3179  0.5137
 9174SOL    HW238985   3.864   1.511   4.154 -1.1161  1.9123  0.5827
 9175SOL     OW38986   4.675   2.150   0.230  0.9521  0.0523 -0.6570
 9175SOL    HW138987   4.691   2.244   0.239  2.6455 -0.3284  0.3025
 9175SOL    HW238988   0.031   2.115   0.193  1.4247 -0.8967  1.2728
 9176SOL     OW38989   3.787   1.812   2.978  0.4319 -0.1489 -0.6631
 9176SOL    HW138990   3.756   1.827   2.888 -2.2162  0.6339  0.3737
 9176SOL    HW238991   3.868   1.862   2.965  0.7909 -0.7695 -0.7823
 9177SOL     OW38992   2.470   0.563   8.711  0.1051  0.3387 -0.0386
 9177SOL    HW138993   2.492   0.626   8.779  1.1653  1.5631 -1.5056
 9177SOL    HW238994   2.375   0.564   8.719 -0.0351  0.0228 -1.6667
 9178SOL     OW38995   1.066   1.818   3.428 -0.3398 -0.2602  0.1844
 9178SOL    HW138996   1.082   1.909   3.402  1.3455 -0.4634  0.5254
 9178SOL    HW238997   1.079   1.820   3.522  0.1869  1.5825  0.0835
 9179SOL     OW38998   0.188   0.877   2.347 -0.1193 -0.6609 -0.3572
 9179SOL    HW138999   0.216   0.926   2.424  2.1479 -0.2114 -1.4615
 9179SOL    HW239000   0.263   0.822   2.326 -0.7314 -1.5199 -0.3195
 9180SOL     OW39001   4.642   1.704  10.447  0.0865  0.3775  0.2887
 9180SOL    HW139002   4.713   1.766  10.432 -0.3347  1.0720  1.1953
 9180SOL    HW239003   4.573   1.764  10.475 -2.7259 -3.8879  2.5965
 9181SOL     OW39004   0.085   3.750   4.436 -0.5031  0.2576 -0.4689
 9181SOL    HW139005   4.721   3.775   4.412 -0.1050  1.3807 -0.8017
 9181SOL    HW239006   0.141   3.806   4.382  1.6990 -0.3985  1.1302
 9182SOL     OW39007   2.140   4.571   0.813 -0.0801 -0.2710  0.4630
 9182SOL    HW139008   2.218   4.626   0.815  0.4469 -1.1562  4.3972
 9182SOL    HW239009   2.129   4.565   0.719  0.8977  2.7376  0.1425
 9183SOL     OW39010   3.512   2.480   6.141  0.1878  0.5638 -0.1719
 9183SOL    HW139011   3.465   2.455   6.221  1.9835 -0.6030  0.4990
 9183SOL    HW239012   3.461   2.548   6.096 -0.7774  0.2628  0.4594
 9184SOL     OW39013   0.252   0.662   3.450  0.1032  0.3728 -0.3401
 9184SOL    HW139014   0.303   0.582   3.462 -3.4440 -1.3520  3.0159
 9184SOL    HW239015   0.306   0.723   3.500 -0.3750  1.1729 -0.7829
 9185SOL     OW39016   2.379   4.125   1.704 -0.0580  0.1040 -0.0634
 9185SOL    HW139017   2.444   4.194   1.717  1.3867 -0.6529 -3.2245
 9185SOL    HW239018   2.345   4.141   1.615 -1.8664  1.1269  0.7977
 9186SOL     OW39019   0.322   3.644  17.696 -0.5026 -0.1265  0.3064
 9186SOL    HW139020   0.283   3.693   0.066  1.0924  0.0477  1.0566
 9186SOL    HW239021   0.283   3.557   0.005 -2.0636  0.2038 -2.4901
 9187SOL     OW39022   0.736   3.566   2.622 -0.4179  0.1880 -0.1216
 9187SOL    HW139023   0.709   3.648   2.579 -0.5950  0.9134  1.3903
 9187SOL    HW239024   0.655   3.516   2.608  0.4748 -1.0656 -0.7649
 9188SOL     OW39025   1.915   0.629  12.566  0.2104  0.4588 -0.0196
 9188SOL    HW139026   1.992   0.655  12.615  1.0330  0.2504 -1.1943
 9188SOL    HW239027   1.950   0.541  12.553  0.2333  0.3270  0.9162
 9189SOL     OW39028   0.178   2.443  13.424  0.6236  0.4127 -0.2329
 9189SOL    HW139029   0.266   2.409  13.406  0.8937  1.2377 -0.4675
 9189SOL    HW239030   0.141   2.438  13.336  0.2162  0.0248 -0.0361
 9190SOL     OW39031   2.823   3.268   6.807 -0.1282  0.3005  0.4466
 9190SOL    HW139032   2.819   3.211   6.884  1.1851  1.1598  1.1580
 9190SOL    HW239033   2.836   3.349   6.855  0.4593 -0.0938  0.9573
 9191SOL     OW39034   2.321   0.360   1.228 -0.4303 -0.2750  0.2806
 9191SOL    HW139035   2.389   0.293   1.229  0.1014  0.2816  0.8186
 9191SOL    HW239036   2.313   0.378   1.134  2.3425  1.1990  0.3509
 9192SOL     OW39037   3.576   3.708   9.270  0.3627 -0.0180 -0.7806
 9192SOL    HW139038   3.585   3.784   9.328 -2.6548 -0.0494 -0.2858
 9192SOL    HW239039   3.661   3.713   9.225  0.2320  0.4394 -0.9759
 9193SOL     OW39040   3.348   2.422   6.351  0.4671  0.0274  0.2228
 9193SOL    HW139041   3.338   2.336   6.393  0.5152 -1.2634 -2.4380
 9193SOL    HW239042   3.310   2.482   6.416  0.7232 -0.5069  0.8711
 9194SOL     OW39043   2.738   1.834   7.362  0.1823  1.0039  0.0214
 9194SOL    HW139044   2.754   1.847   7.268 -2.8453 -0.0195 -0.6432
 9194SOL    HW239045   2.657   1.881   7.377  0.6951  1.4641  1.3527
 9195SOL     OW39046   2.203   4.536   0.542  0.1077  0.0768  0.0430
 9195SOL    HW139047   2.289   4.576   0.533 -0.2634  0.4334 -2.0534
 9195SOL    HW239048   2.180   4.559   0.452 -0.7172  0.4046  0.3364
 9196SOL     OW39049   3.570   1.494   1.805  0.1622  0.7149  0.0950
 9196SOL    HW139050   3.603   1.534   1.885  2.6482  0.3878 -0.7735
 9196SOL    HW239051   3.478   1.517   1.814 -0.4291 -1.4181 -0.6488
 9197SOL     OW39052   3.096   0.024  13.395  0.1244 -0.3786 -0.2192
 9197SOL    HW139053   3.130   0.093  13.451 -0.0551  1.0523 -1.8567
 9197SOL    HW239054   3.133   0.059  13.314 -1.2826  2.0374  0.1875
 9198SOL     OW39055   4.601   0.344   4.180  0.2135  0.5392  0.2562
 9198SOL    HW139056   4.670   0.398   4.142 -1.5099  1.7844 -1.1065
 9198SOL    HW239057   4.582   0.384   4.265  1.1645 -0.2892  0.8537
 9199SOL     OW39058   2.219   0.868   8.160 -0.0101  0.2737 -0.6066
 9199SOL    HW139059   2.215   0.860   8.255  0.9936  0.3054 -0.5629
 9199SOL    HW239060   2.261   0.783   8.152  0.4006  0.3074  1.2600
 9200SOL     OW39061   1.240   4.208   5.874 -0.0421  0.2146  1.1336
 9200SOL    HW139062   1.219   4.117   5.855  1.4596  0.1258 -0.0872
 9200SOL    HW239063   1.331   4.213   5.846 -0.3351 -0.6850  0.0407
 9201SOL     OW39064   2.285   1.073   1.361 -0.0539  0.0991 -0.6810
 9201SOL    HW139065   2.309   1.023   1.439 -0.4838  1.1170  0.1092
 9201SOL    HW239066   2.318   1.162   1.372  1.4004 -0.4181 -0.9098
 9202SOL     OW39067   4.667   2.241   9.778 -0.1426  0.3147 -0.1065
 9202SOL    HW139068   0.033   2.243   9.807 -0.2405  1.0140  0.1674
 9202SOL    HW239069   4.640   2.158   9.815  0.2432  0.6304  0.8760
 9203SOL     OW39070   2.396   0.445   4.336  0.2631 -0.6302  0.2806
 9203SOL    HW139071   2.435   0.395   4.264 -1.0377 -0.1528 -0.7645
 9203SOL    HW239072   2.388   0.376   4.402  0.2062 -0.9991 -0.1059
 9204SOL     OW39073   1.104   1.286   6.628 -0.0573 -0.2065 -0.1488
 9204SOL    HW139074   1.042   1.356   6.651 -2.3159 -2.0114 -0.7473
 9204SOL    HW239075   1.165   1.335   6.574 -0.6834  0.9360  0.1727
 9205SOL     OW39076   1.109   4.676   9.034 -0.2641 -0.0917  0.1594
 9205SOL    HW139077   1.057   4.710   9.106  2.0435  1.1597  1.2291
 9205SOL    HW239078   1.131   4.590   9.071  0.5603 -0.4022 -1.0402
 9206SOL     OW39079   2.850   3.574   9.645  0.7391  0.4966 -0.0021
 9206SOL    HW139080   2.843   3.488   9.687  0.6070  0.5879  0.1650
 9206SOL    HW239081   2.758   3.597   9.632  0.4854 -0.3621  0.2701
 9207SOL     OW39082   3.485   2.014   7.251 -0.0414  0.5274 -0.1059
 9207SOL    HW139083   3.574   1.978   7.242 -1.3243 -3.2185  2.5065
 9207SOL    HW239084   3.457   1.987   7.338  1.1401 -0.0507  0.1042
 9208SOL     OW39085   1.820   3.561  11.638  0.1370  0.2161 -0.1702
 9208SOL    HW139086   1.844   3.469  11.630  1.3688  0.6045 -0.9986
 9208SOL    HW239087   1.733   3.557  11.598 -0.4675 -1.6423  1.3435
 9209SOL     OW39088   0.529   3.019   4.709  0.0744 -0.3283 -0.2224
 9209SOL    HW139089   0.620   2.990   4.716  0.0972 -0.4107 -0.8102
 9209SOL    HW239090   0.497   2.961   4.778  1.2393  1.1258  1.5268
 9210SOL     OW39091   3.030   0.369   3.998 -0.5620 -0.4630  0.3975
 9210SOL    HW139092   3.097   0.419   3.951 -0.8779 -1.9394 -1.5986
 9210SOL    HW239093   2.946   0.388   3.958 -0.9544 -0.3282  1.2771
 9211SOL     OW39094   3.460   4.559   1.038  0.1429  0.2218  0.7519
 9211SOL    HW139095   3.483   4.628   1.100  3.7484 -0.2485 -0.0931
 9211SOL    HW239096   3.540   4.506   1.036 -0.8197 -1.2690  1.2337
 9212SOL     OW39097   1.827   1.746   8.980  0.4324 -0.1835  0.0795
 9212SOL    HW139098   1.797   1.689   9.051 -1.1010  1.1575  0.5254
 9212SOL    HW239099   1.822   1.827   9.032  0.8533 -0.8297  1.1150
 9213SOL     OW39100   0.942   3.794   3.238  0.3125 -0.2705  0.1759
 9213SOL    HW139101   0.928   3.699   3.242 -0.7625 -0.2107 -1.8436
 9213SOL    HW239102   0.969   3.812   3.148  0.2789  0.3542  0.2933
 9214SOL     OW39103   3.254   0.522   7.753  0.0821  0.1830  1.1801
 9214SOL    HW139104   3.230   0.614   7.756 -2.2568 -0.4122  0.9094
 9214SOL    HW239105   3.187   0.482   7.809 -0.1403 -1.2505 -0.1128
 9215SOL     OW39106   3.373   2.575   5.847  0.3534  0.0666 -0.9361
 9215SOL    HW139107   3.391   2.608   5.935 -1.4107  0.3167 -0.6753
 9215SOL    HW239108   3.372   2.654   5.793 -2.3864  1.2440  0.8377
 9216SOL     OW39109   4.071   2.516  12.005  0.0388 -0.0726  0.0672
 9216SOL    HW139110   4.129   2.517  11.929  0.9159  1.3457  0.7686
 9216SOL    HW239111   4.011   2.446  11.979 -1.1701  0.8852  0.2868
 9217SOL     OW39112   2.272   0.388  15.429  0.6703  0.0644  0.2597
 9217SOL    HW139113   2.226   0.304  15.436  1.4870 -0.2717  1.6030
 9217SOL    HW239114   2.354   0.365  15.473  2.7067  1.7277 -2.6861
 9218SOL     OW39115   1.409   1.101   7.596 -0.0592 -0.3852 -1.1496
 9218SOL    HW139116   1.482   1.058   7.640  0.0977  0.6522 -0.4008
 9218SOL    HW239117   1.384   1.165   7.663 -1.1710 -0.4423 -1.5113
 9219SOL     OW39118   3.482   0.192   5.575 -0.6751  0.1393  0.5395
 9219SOL    HW139119   3.476   0.205   5.670 -3.4633  1.1200  0.2497
 9219SOL    HW239120   3.416   0.123   5.568  0.1404 -0.6883  0.9012
 9220SOL     OW39121   1.893   2.371  12.228 -0.1744  0.0478 -0.3609
 9220SOL    HW139122   1.894   2.465  12.246  0.4654  0.0281 -0.3016
 9220SOL    HW239123   1.832   2.352  12.299  0.9720 -1.4887  0.2192
 9221SOL     OW39124   3.197   1.648  15.201  0.0664  0.0099  0.5801
 9221SOL    HW139125   3.244   1.719  15.246  1.2288  0.7795 -1.8562
 9221SOL    HW239126   3.179   1.696  15.120  0.8479  1.2702  1.1467
 9222SOL     OW39127   2.709   0.739   2.952 -0.6001 -0.0843  0.3791
 9222SOL    HW139128   2.694   0.646   2.937  2.5997 -0.6158  0.5943
 9222SOL    HW239129   2.649   0.750   3.026  0.6996  0.0365  1.4035
 9223SOL     OW39130   0.143   2.652   0.339  0.0867 -0.3975 -0.2137
 9223SOL    HW139131   0.185   2.616   0.417 -0.9165  1.7192  1.3033
 9223SOL    HW239132   0.207   2.719   0.317  0.2007  0.3530  2.3386
 9224SOL     OW39133   4.553   0.484   4.803  0.2415  0.1197 -0.2235
 9224SOL    HW139134   4.628   0.435   4.770 -1.0320 -2.0152 -0.0052
 9224SOL    HW239135   4.567   0.570   4.763 -0.5313 -1.0925 -3.1837
 9225SOL     OW39136   1.990   1.649   6.211 -0.4250 -0.3140 -0.3573
 9225SOL    HW139137   1.995   1.677   6.119 -1.3288 -1.0581 -0.6312
 9225SOL    HW239138   1.931   1.713   6.250 -0.6131 -2.1168  2.3046
 9226SOL     OW39139   2.975   1.932   6.406  0.2453  0.1614 -0.0745
 9226SOL    HW139140   2.903   1.934   6.343  0.0255  0.1783  0.1790
 9226SOL    HW239141   2.984   1.840   6.431 -2.5273  0.2370  1.2023
 9227SOL     OW39142   2.746   2.709   0.151 -0.3619  0.0622  0.1524
 9227SOL    HW139143   2.696   2.638   0.192 -1.3845  0.6145 -0.1437
 9227SOL    HW239144   2.716   2.783   0.205 -0.9792 -0.3027  0.3095
 9228SOL     OW39145   3.537   3.264  11.548 -0.4389  0.4898  0.0629
 9228SOL    HW139146   3.474   3.194  11.565  0.0064  0.2074  0.5504
 9228SOL    HW239147   3.526   3.323  11.623 -1.4205 -0.2912  0.5322
 9229SOL     OW39148   2.761   3.966   5.931  0.1637  0.1294 -0.4880
 9229SOL    HW139149   2.713   3.884   5.926 -0.6237  0.7854 -3.2299
 9229SOL    HW239150   2.787   3.980   5.840  2.3161 -1.3051 -0.1022
 9230SOL     OW39151   2.307   2.498   3.552  0.3593  0.2185 -0.1417
 9230SOL    HW139152   2.237   2.449   3.594 -0.0718 -0.5441 -1.7690
 9230SOL    HW239153   2.371   2.516   3.622  0.4943 -1.7559  0.2262
 9231SOL     OW39154   0.623   1.329   6.245 -0.1019  0.1934 -0.4090
 9231SOL    HW139155   0.587   1.418   6.246 -1.1244 -0.2230 -0.1157
 9231SOL    HW239156   0.587   1.286   6.167  1.5808 -1.9228 -0.0210
 9232SOL     OW39157   0.566   0.837   8.216  0.2034  0.3900  0.0140
 9232SOL    HW139158   0.508   0.765   8.239 -0.1419  0.7081  0.1427
 9232SOL    HW239159   0.646   0.787   8.200 -0.3949 -0.4071 -0.4506
 9233SOL     OW39160   1.486   1.049   2.462  0.0806  0.2930 -0.1320
 9233SOL    HW139161   1.478   1.145   2.465 -0.5660  0.2289  0.2832
 9233SOL    HW239162   1.566   1.038   2.513 -0.5188  0.2338  0.7871
 9234SOL     OW39163   2.529   1.180   2.142  0.2904  0.1419 -0.3034
 9234SOL    HW139164   2.580   1.221   2.071 -1.2987  2.7919  0.0959
 9234SOL    HW239165   2.556   1.088   2.146 -1.2012 -0.2416  0.7216
 9235SOL     OW39166   3.588   3.711   9.910  0.4195  0.4053 -0.8343
 9235SOL    HW139167   3.592   3.799   9.946  1.1162  0.6610 -1.5164
 9235SOL    HW239168   3.654   3.714   9.840  0.5940 -2.3452 -0.7892
 9236SOL     OW39169   0.895   0.805   5.411  0.6623 -0.2003 -0.1746
 9236SOL    HW139170   0.873   0.769   5.325 -1.6176  2.1373 -0.5415
 9236SOL    HW239171   0.984   0.838   5.398  0.3089 -0.1227 -2.3814
 9237SOL     OW39172   2.025   3.994   0.172 -0.1136  0.1765  0.2811
 9237SOL    HW139173   1.994   4.084   0.176 -0.7024 -0.0045 -0.1946
 9237SOL    HW239174   1.953   3.955   0.122 -1.2341  1.6962  0.6995
 9238SOL     OW39175   4.239   1.691  14.493 -0.3255  0.2804 -0.1385
 9238SOL    HW139176   4.304   1.627  14.464 -0.2230 -0.2685  1.3074
 9238SOL    HW239177   4.305   1.759  14.491  0.3782 -0.4349 -1.4108
 9239SOL     OW39178   0.578   3.841   5.517 -0.5947  0.1721  0.2719
 9239SOL    HW139179   0.516   3.788   5.466  0.6566 -1.0640  0.0412
 9239SOL    HW239180   0.636   3.766   5.532 -0.0222  0.9263  1.8623
 9240SOL     OW39181   1.150   2.078   9.474  0.2756 -0.0407  0.1476
 9240SOL    HW139182   1.161   1.985   9.493  0.7693 -0.4189 -2.0176
 9240SOL    HW239183   1.128   2.114   9.560 -0.6547  0.4011 -0.2757
 9241SOL     OW39184   3.172   1.278   6.975  0.1044 -0.4095  0.0856
 9241SOL    HW139185   3.226   1.315   7.045 -0.5465 -0.9303  0.8773
 9241SOL    HW239186   3.226   1.212   6.932 -1.2711 -0.2081 -1.9571
 9242SOL     OW39187   2.557   0.786   8.004 -0.1609 -0.1726 -0.4646
 9242SOL    HW139188   2.540   0.879   7.988 -0.4046 -0.1684 -0.1890
 9242SOL    HW239189   2.485   0.751   8.057 -2.0412  0.4094 -2.6421
 9243SOL     OW39190   0.956   2.982   7.847 -0.1335 -0.0642 -0.3707
 9243SOL    HW139191   1.040   3.003   7.808  0.1695 -0.6069 -0.0070
 9243SOL    HW239192   0.973   2.900   7.893 -1.9526 -2.6616 -4.2782
 9244SOL     OW39193   3.517   0.809   9.590 -0.1794 -0.3512 -0.2633
 9244SOL    HW139194   3.520   0.836   9.682  0.9601  0.3174 -0.4924
 9244SOL    HW239195   3.452   0.870   9.557  0.7979  1.2178  0.7309
 9245SOL     OW39196   3.499   3.387  16.544 -0.1846 -0.7613 -0.0228
 9245SOL    HW139197   3.555   3.368  16.469  0.5741 -1.4249  0.7144
 9245SOL    HW239198   3.486   3.481  16.540 -0.3689 -0.8251 -1.0161
 9246SOL     OW39199   0.272   2.194  10.552 -0.1950  0.2557 -0.1421
 9246SOL    HW139200   0.234   2.281  10.541  0.5945  0.3520 -2.1146
 9246SOL    HW239201   0.341   2.185  10.486  0.6767  0.3334  0.7654
 9247SOL     OW39202   0.490   4.333   1.402  1.0485 -0.1523  0.0235
 9247SOL    HW139203   0.552   4.268   1.434 -1.2789 -1.7986  1.1442
 9247SOL    HW239204   0.412   4.279   1.393  1.1599  0.0113 -2.0358
 9248SOL     OW39205   3.557   2.956  15.074  0.0181  0.2255 -0.1716
 9248SOL    HW139206   3.637   3.002  15.098  0.2777 -0.0194 -0.5729
 9248SOL    HW239207   3.574   2.867  15.103 -1.1756 -1.4377 -4.5423
 9249SOL     OW39208   1.346   1.927   2.461 -0.3018  0.3411  0.3005
 9249SOL    HW139209   1.399   1.999   2.493  0.8845 -0.7105  0.7094
 9249SOL    HW239210   1.342   1.954   2.369 -1.8021  1.8036  0.8126
 9250SOL     OW39211   0.169   1.658  12.550  0.1502 -0.0828  0.3559
 9250SOL    HW139212   0.181   1.563  12.548 -1.3977 -0.3293  2.5413
 9250SOL    HW239213   0.120   1.671  12.631  1.8617 -1.1058  1.5519
 9251SOL     OW39214   3.714   4.286   3.719  0.3617 -0.5709  0.0964
 9251SOL    HW139215   3.720   4.354   3.652 -2.3680  0.5223  0.9501
 9251SOL    HW239216   3.794   4.308   3.767  2.5336 -4.1438 -1.8952
 9252SOL     OW39217   3.508   3.799   5.027  0.1581  0.2910  0.2724
 9252SOL    HW139218   3.418   3.830   5.031 -0.8087 -2.6079  1.1376
 9252SOL    HW239219   3.550   3.853   5.094 -0.1453  1.9629 -0.8920
 9253SOL     OW39220   1.633   1.811  10.799 -0.3043  0.8723 -0.3323
 9253SOL    HW139221   1.715   1.802  10.750 -0.6574  1.2110 -1.0043
 9253SOL    HW239222   1.590   1.731  10.770  0.0539  1.1477 -1.6481
 9254SOL     OW39223   3.710   4.195  16.929 -0.2946  0.2160 -0.3401
 9254SOL    HW139224   3.759   4.212  16.849  1.5478  0.5037  0.8578
 9254SOL    HW239225   3.624   4.204  16.888 -0.9896 -2.1112  0.6127
 9255SOL     OW39226   1.560   2.263   5.619 -0.5988 -0.1576 -0.0806
 9255SOL    HW139227   1.610   2.196   5.667  0.8199  0.1538 -1.1393
 9255SOL    HW239228   1.606   2.260   5.535  0.4788  1.7618  0.4558
 9256SOL     OW39229   2.351   2.448   8.956  0.1088 -0.3041 -0.4697
 9256SOL    HW139230   2.340   2.485   9.044 -0.6819  1.3783 -1.2686
 9256SOL    HW239231   2.413   2.379   8.978 -0.6940 -1.2539 -1.1722
 9257SOL     OW39232   2.169   0.429   8.354 -0.1334  0.7110 -0.2419
 9257SOL    HW139233   2.099   0.477   8.310  0.8254  2.4504  0.1360
 9257SOL    HW239234   2.186   0.487   8.428 -2.1683  0.3485  0.4922
 9258SOL     OW39235   3.570   4.477   9.139  0.4486  0.0289 -0.1462
 9258SOL    HW139236   3.654   4.508   9.171  0.6747 -0.3057 -0.4151
 9258SOL    HW239237   3.571   4.385   9.168  0.4704 -0.6955 -2.4059
 9259SOL     OW39238   4.716   3.604   0.628  0.0754 -0.1385  0.0317
 9259SOL    HW139239   4.649   3.617   0.561  1.2962 -0.5642 -1.2703
 9259SOL    HW239240   0.023   3.693   0.645 -0.3425 -0.1963  1.1667
 9260SOL     OW39241   3.472   4.177  15.680 -0.1119 -0.2962 -0.5921
 9260SOL    HW139242   3.475   4.189  15.775 -1.2911  1.5155 -0.7852
 9260SOL    HW239243   3.490   4.083  15.676 -0.0478 -0.3462  1.0139
 9261SOL     OW39244   2.253   4.651  10.144 -0.0798  0.2923 -0.5260
 9261SOL    HW139245   2.180   4.640  10.084 -0.4633  0.3619 -0.0758
 9261SOL    HW239246   2.288   4.568  10.177 -1.1552 -0.3779 -1.0799
 9262SOL     OW39247   1.190   3.589   4.151 -0.4700 -0.4639  0.7698
 9262SOL    HW139248   1.258   3.573   4.216 -0.9460 -3.9155  0.4287
 9262SOL    HW239249   1.238   3.560   4.074  0.2148  0.6925  0.7672
 9263SOL     OW39250   2.203   2.188   1.440  0.1003 -0.1505  0.0614
 9263SOL    HW139251   2.280   2.132   1.438  0.7819  0.7041  2.2300
 9263SOL    HW239252   2.247   2.256   1.491 -1.2830  0.7329  0.0822
 9264SOL     OW39253   4.628   4.400  11.140  0.1067  0.5139 -0.0459
 9264SOL    HW139254   4.536   4.401  11.164  0.3664 -1.4989  0.9804
 9264SOL    HW239255   4.633   4.305  11.138  0.2923  0.4789  2.6453
 9265SOL     OW39256   4.352   0.487   9.191  0.0839  0.1561  0.0837
 9265SOL    HW139257   4.325   0.476   9.282  1.8687  1.3350  0.7705
 9265SOL    HW239258   4.277   0.533   9.154 -0.5729 -0.3474  0.7870
 9266SOL     OW39259   2.207   2.760   3.581 -0.9091  0.0697  0.2675
 9266SOL    HW139260   2.222   2.668   3.559  0.1110 -0.1696  1.9431
 9266SOL    HW239261   2.116   2.768   3.551 -1.7369 -1.4664  2.3274
 9267SOL     OW39262   0.251   4.113  15.161  0.2836 -0.0274 -0.5089
 9267SOL    HW139263   0.225   4.200  15.132  0.0525  0.2749  0.5773
 9267SOL    HW239264   0.249   4.120  15.257  1.3688  0.1185 -0.4928
 9268SOL     OW39265   1.037   0.432  10.911  0.0678  0.2174 -0.1992
 9268SOL    HW139266   1.002   0.496  10.848  0.3871  1.4809  0.8901
 9268SOL    HW239267   0.963   0.373  10.927  0.2921 -0.0979 -0.3405
 9269SOL     OW39268   1.805   1.973   9.092  0.6005  0.4693 -0.2378
 9269SOL    HW139269   1.732   2.024   9.128  1.5816  0.3791  1.8727
 9269SOL    HW239270   1.882   2.028   9.092  0.3134  0.8889  1.7593
 9270SOL     OW39271   0.866   2.173  15.075 -0.2424  0.5893 -0.6235
 9270SOL    HW139272   0.868   2.173  14.979  0.8449  1.1480 -0.5919
 9270SOL    HW239273   0.771   2.162  15.075 -0.2864  0.9731 -0.4549
 9271SOL     OW39274   3.336   2.470   7.044 -0.1101  0.2422  0.2734
 9271SOL    HW139275   3.303   2.522   7.117  0.9684  1.3043  0.0089
 9271SOL    HW239276   3.400   2.411   7.082  0.5551 -0.4436 -1.9079
 9272SOL     OW39277   1.708   1.572   7.720  0.7719 -0.1112  0.1437
 9272SOL    HW139278   1.680   1.600   7.807 -0.8070 -3.3190  0.6362
 9272SOL    HW239279   1.787   1.526   7.746  1.9582  2.4821  1.1463
 9273SOL     OW39280   2.194   0.786   2.801 -0.3085 -0.0136  0.4696
 9273SOL    HW139281   2.109   0.826   2.823  0.3515  1.4443  0.3536
 9273SOL    HW239282   2.205   0.711   2.859 -1.1957 -1.6791 -1.4989
 9274SOL     OW39283   1.402   3.520   4.329 -0.2780  0.1412  0.7270
 9274SOL    HW139284   1.488   3.539   4.290 -0.9820  0.9370 -0.4334
 9274SOL    HW239285   1.394   3.583   4.400 -1.6650  0.3102  0.4205
 9275SOL     OW39286   3.434   4.182   8.163 -0.1230 -0.8277  0.3654
 9275SOL    HW139287   3.474   4.265   8.189 -1.5597  0.5624 -1.7847
 9275SOL    HW239288   3.375   4.176   8.239  0.0260  0.1441  0.5584
 9276SOL     OW39289   3.329   1.718   2.767 -0.6021  0.6600 -0.2329
 9276SOL    HW139290   3.377   1.788   2.722 -0.3375  1.0686  0.6669
 9276SOL    HW239291   3.357   1.635   2.730  0.4130  0.8832  0.0333
 9277SOL     OW39292   0.161   4.095   9.449 -0.8859  0.2293  0.3982
 9277SOL    HW139293   0.157   4.001   9.468  1.3741  0.0818  0.1410
 9277SOL    HW239294   0.185   4.128   9.535 -1.9111  0.1909  0.7014
 9278SOL     OW39295   2.311   3.151   4.287  0.1354 -0.3889 -0.1846
 9278SOL    HW139296   2.275   3.064   4.270 -1.7588  0.7877 -2.3445
 9278SOL    HW239297   2.297   3.155   4.381 -0.7749  1.3344 -0.3875
 9279SOL     OW39298   0.803   0.775  17.315  0.5970  0.1878  0.2126
 9279SOL    HW139299   0.733   0.736  17.367 -0.4383  1.9163  0.1334
 9279SOL    HW239300   0.842   0.696  17.279  0.1772 -1.2559  2.9165
 9280SOL     OW39301   4.399   4.417   6.595 -0.0605  0.2976  0.5230
 9280SOL    HW139302   4.463   4.382   6.534  1.5044  1.5255  1.4603
 9280SOL    HW239303   4.451   4.496   6.610  0.2961  0.4276 -1.4665
 9281SOL     OW39304   1.651   1.187   7.310  0.2719  0.0016 -0.2199
 9281SOL    HW139305   1.660   1.243   7.387  4.1603 -0.1834 -0.5449
 9281SOL    HW239306   1.646   1.094   7.335 -0.5050 -0.0153 -0.4207
 9282SOL     OW39307   0.411   2.142  14.592  0.2327  0.3407  0.4397
 9282SOL    HW139308   0.393   2.081  14.663 -0.9790 -1.6918 -1.6215
 9282SOL    HW239309   0.396   2.229  14.628 -0.7242  0.0039  0.8324
 9283SOL     OW39310   3.874   0.858   5.816 -0.5191 -0.6655  0.3770
 9283SOL    HW139311   3.894   0.916   5.889 -0.1521  0.8903 -0.9722
 9283SOL    HW239312   3.811   0.911   5.767 -1.8659 -1.3791  1.3265
 9284SOL     OW39313   4.091   2.764   2.391  0.3048  0.4577 -0.6379
 9284SOL    HW139314   4.021   2.751   2.328 -1.3946 -0.3135  1.3969
 9284SOL    HW239315   4.168   2.773   2.334  0.4621  0.4683 -0.4269
 9285SOL     OW39316   3.164   0.577   5.501 -0.3564  0.2502  0.4494
 9285SOL    HW139317   3.251   0.548   5.472 -0.2384 -0.7366  1.7878
 9285SOL    HW239318   3.163   0.661   5.454 -3.8921 -0.5281 -0.8575
 9286SOL     OW39319   0.362   1.110   2.815  0.2717 -0.4507 -0.2727
 9286SOL    HW139320   0.275   1.070   2.809 -0.4978  1.3448 -1.0921
 9286SOL    HW239321   0.416   1.041   2.853  0.2413  0.0339  0.6374
 9287SOL     OW39322   3.245   2.994   8.919 -0.0007  0.0054 -0.6349
 9287SOL    HW139323   3.271   2.901   8.920 -0.9505 -0.2500  0.9732
 9287SOL    HW239324   3.303   3.031   8.986  1.9851 -0.2644 -2.2023
 9288SOL     OW39325   1.368   2.562   3.266  0.2611 -0.0573  0.7813
 9288SOL    HW139326   1.401   2.536   3.180  3.0176  0.8957  1.5338
 9288SOL    HW239327   1.273   2.548   3.266 -0.0579  2.1677 -1.7596
 9289SOL     OW39328   1.010   1.908  16.075  0.1807  0.1603 -0.0124
 9289SOL    HW139329   0.977   1.857  16.001  0.6609 -0.7627  0.4046
 9289SOL    HW239330   0.972   1.860  16.149 -1.3578 -0.1848 -1.0476
 9290SOL     OW39331   0.837   1.773  14.629  0.0514  0.7960  0.5321
 9290SOL    HW139332   0.832   1.817  14.714  0.6381 -0.6635  1.3176
 9290SOL    HW239333   0.853   1.848  14.572 -1.4648  0.3149 -0.5332
 9291SOL     OW39334   0.465   2.992   6.014  0.1460 -0.6072 -0.2263
 9291SOL    HW139335   0.439   3.077   6.047 -0.4452  0.7511 -4.2590
 9291SOL    HW239336   0.423   2.996   5.929 -2.1293  4.0265  1.1184
 9292SOL     OW39337   1.507   4.300   6.683 -0.6249 -0.0839  0.4288
 9292SOL    HW139338   1.492   4.383   6.637  0.7457 -0.4021 -0.5868
 9292SOL    HW239339   1.480   4.333   6.769  1.0687  2.7687 -0.1181
 9293SOL     OW39340   1.858   1.991  15.440 -0.0182 -0.1498 -0.0078
 9293SOL    HW139341   1.834   2.083  15.454  0.2792 -0.5933  3.4824
 9293SOL    HW239342   1.789   1.955  15.495 -0.3951 -1.2463 -1.2008
 9294SOL     OW39343   3.565   3.242   1.113 -0.5867 -0.0562 -0.0021
 9294SOL    HW139344   3.612   3.312   1.068 -0.3259 -0.5702 -0.5378
 9294SOL    HW239345   3.541   3.197   1.032 -0.8121 -0.6646  0.4013
 9295SOL     OW39346   0.678   4.641  14.665 -0.6490  0.1712 -0.4480
 9295SOL    HW139347   0.742   4.689  14.612  0.2114  1.4949  1.7761
 9295SOL    HW239348   0.592   4.649  14.624 -2.1969 -0.6611  2.6395
 9296SOL     OW39349   0.222   3.323   4.542  0.2456  0.1905 -0.3503
 9296SOL    HW139350   0.241   3.368   4.459  0.9071  1.1508  0.3317
 9296SOL    HW239351   0.295   3.355   4.595  2.2069  0.4171 -3.1429
 9297SOL     OW39352   0.617   0.240   5.962  0.0324 -0.5008 -0.3933
 9297SOL    HW139353   0.600   0.303   6.032  0.6617 -1.5768  0.7329
 9297SOL    HW239354   0.712   0.246   5.968 -0.0433  1.6042 -1.4530
 9298SOL     OW39355   4.592   2.725   7.516  0.0639 -0.0081 -0.1295
 9298SOL    HW139356   4.644   2.758   7.590  1.1389  1.2110 -1.4321
 9298SOL    HW239357   4.511   2.772   7.535 -0.1924 -0.4538 -0.1311
 9299SOL     OW39358   3.069   2.259  13.246  0.4612 -0.3741 -0.2248
 9299SOL    HW139359   3.019   2.277  13.166  1.4322 -1.3210 -1.0321
 9299SOL    HW239360   3.150   2.304  13.225  0.1861 -0.1519 -0.8123
 9300SOL     OW39361   1.915   3.366   3.436  0.7182 -0.6062  0.0792
 9300SOL    HW139362   1.941   3.274   3.442  1.4443 -0.5353 -1.9839
 9300SOL    HW239363   1.999   3.403   3.409 -1.1889  1.9787 -2.3092
 9301SOL     OW39364   1.295   4.130   6.697 -0.1427 -0.3859 -0.0541
 9301SOL    HW139365   1.212   4.177   6.688  0.3597  0.1253 -2.1663
 9301SOL    HW239366   1.361   4.197   6.679 -1.3084  1.4842  2.8022
 9302SOL     OW39367   3.072   2.499  12.950 -0.4064  0.2270  0.0064
 9302SOL    HW139368   3.003   2.435  12.968  0.7419 -0.8096  0.6496
 9302SOL    HW239369   3.068   2.559  13.025  0.6428 -1.1612  1.1807
 9303SOL     OW39370   2.571   4.373   0.204  0.6265  0.1273 -0.4503
 9303SOL    HW139371   2.632   4.382   0.277  0.1914  1.6146 -0.2780
 9303SOL    HW239372   2.609   4.432   0.139  0.8281  0.1394 -0.3202
 9304SOL     OW39373   4.415   2.383   5.590  0.2721 -0.1849  0.5040
 9304SOL    HW139374   4.460   2.385   5.674  1.5837 -1.6734 -0.1493
 9304SOL    HW239375   4.324   2.375   5.617  0.0528  0.4331 -0.0686
 9305SOL     OW39376   2.247   4.285   0.119 -0.5626 -0.2919  0.2344
 9305SOL    HW139377   2.243   4.227   0.043  3.5296 -1.2467  0.7331
 9305SOL    HW239378   2.155   4.297   0.144 -0.1301  1.7080  0.9087
 9306SOL     OW39379   4.325   1.060  12.668  0.1980  0.0911  0.1168
 9306SOL    HW139380   4.400   1.109  12.700  0.6912  0.1629 -1.1705
 9306SOL    HW239381   4.370   1.006  12.604  0.4546 -0.8379  1.0755
 9307SOL     OW39382   1.942   3.830   8.151 -0.8401  0.2204  0.4973
 9307SOL    HW139383   1.903   3.825   8.064 -0.1896  1.5923  0.1251
 9307SOL    HW239384   1.914   3.921   8.165 -0.4799  0.0838  2.0331
 9308SOL     OW39385   1.816   2.650  12.286 -0.3284  0.0953  0.2375
 9308SOL    HW139386   1.726   2.622  12.303 -1.0833  1.5597 -1.3872
 9308SOL    HW239387   1.799   2.734  12.242  2.5171  0.9041  0.7011
 9309SOL     OW39388   0.812   2.882  10.789  0.1620 -0.5887 -0.0404
 9309SOL    HW139389   0.716   2.883  10.780  0.0819 -0.3212  0.9079
 9309SOL    HW239390   0.824   2.935  10.867  0.6831  0.3734 -0.7815
 9310SOL     OW39391   3.960   0.464  11.023  0.5104 -0.3137 -0.1064
 9310SOL    HW139392   3.999   0.454  11.109 -1.0953 -1.0007  0.5553
 9310SOL    HW239393   4.028   0.516  10.981  1.9756  0.2806  3.0219
 9311SOL     OW39394   0.430   0.037  12.903 -0.5476  0.0832 -0.2545
 9311SOL    HW139395   0.334   0.030  12.910 -0.5787 -1.0640 -1.8117
 9311SOL    HW239396   0.446   4.687  12.960  2.3619  0.2950 -0.8343
 9312SOL     OW39397   3.941   1.046   5.465  0.4598  0.6138  0.4689
 9312SOL    HW139398   3.945   1.024   5.372  0.8833  3.6859 -0.2109
 9312SOL    HW239399   3.955   0.956   5.497 -0.3748  0.6123  0.8397
 9313SOL     OW39400   2.590   2.595   7.452  0.1049 -0.7444  0.3309
 9313SOL    HW139401   2.567   2.568   7.541  3.2085 -0.2045  1.3124
 9313SOL    HW239402   2.632   2.679   7.471 -1.4031  0.2618 -0.8542
 9314SOL     OW39403   1.200   2.188   5.568 -0.1978 -0.0816  0.1148
 9314SOL    HW139404   1.281   2.151   5.534  1.2947  1.9892  1.4031
 9314SOL    HW239405   1.132   2.163   5.505  0.9415 -3.1359  0.0883
 9315SOL     OW39406   4.440   1.188   1.901 -0.7275 -0.0549 -0.4884
 9315SOL    HW139407   4.347   1.165   1.908 -0.8565  0.6186 -0.0186
 9315SOL    HW239408   4.425   1.258   1.838 -2.4188  0.5651  0.6043
 9316SOL     OW39409   1.984   0.889   2.933 -0.0917 -0.1854  0.2865
 9316SOL    HW139410   1.921   0.830   2.973 -0.5184  0.9860  1.3350
 9316SOL    HW239411   1.945   0.977   2.927  1.3551  0.6489  3.1453
 9317SOL     OW39412   2.162   3.605   5.002  0.5418 -0.0897  0.0504
 9317SOL    HW139413   2.163   3.641   5.091  0.8095 -0.5411  0.2269
 9317SOL    HW239414   2.099   3.534   5.011  2.0933 -1.4527  0.0643
 9318SOL     OW39415   0.748   0.929   7.398 -0.1391  0.1830 -0.0138
 9318SOL    HW139416   0.799   0.912   7.318  0.1023  0.1071  0.1577
 9318SOL    HW239417   0.663   0.958   7.364 -0.5093 -3.0533 -1.9266
 9319SOL     OW39418   0.226   4.372   9.637  0.1068  0.3447  0.0560
 9319SOL    HW139419   0.180   4.454   9.620 -1.0363  0.1243  2.1238
 9319SOL    HW239420   0.286   4.360   9.564  2.0065 -1.9411  2.0138
 9320SOL     OW39421   2.078   2.994  10.229 -0.0797  0.6539 -0.3323
 9320SOL    HW139422   2.132   3.049  10.285  1.9162  1.0820 -2.6780
 9320SOL    HW239423   2.114   2.908  10.253 -1.1475  0.2911 -0.0218
 9321SOL     OW39424   1.461   0.419   2.465 -0.0029  0.5457 -0.3658
 9321SOL    HW139425   1.410   0.404   2.386  1.6227  0.2428 -1.3488
 9321SOL    HW239426   1.435   0.510   2.475 -1.7147 -0.1865  2.0706
 9322SOL     OW39427   4.233   3.769  12.052 -0.6685  0.0583  0.2014
 9322SOL    HW139428   4.164   3.824  12.091  0.2908  2.1253 -1.0002
 9322SOL    HW239429   4.231   3.787  11.958  0.7347 -0.0063  0.1613
 9323SOL     OW39430   2.742   4.319   7.001  0.3013  0.1751 -0.2507
 9323SOL    HW139431   2.648   4.307   7.016  0.3473 -1.0056 -0.9746
 9323SOL    HW239432   2.774   4.304   7.089  1.4301 -0.1025 -0.7108
 9324SOL     OW39433   0.438   3.027   2.287  0.6599  0.4240  0.3406
 9324SOL    HW139434   0.416   3.120   2.277  2.6150  0.8156 -0.2277
 9324SOL    HW239435   0.348   2.995   2.276  1.5439 -2.1473  0.6708
 9325SOL     OW39436   3.697   2.221   6.981  0.4329 -0.4229 -0.3352
 9325SOL    HW139437   3.604   2.245   6.973 -0.0962 -1.7499  1.6874
 9325SOL    HW239438   3.737   2.275   6.913 -0.9865  0.0810 -0.7881
 9326SOL     OW39439   1.081   1.411   7.272  0.3587  0.2413  0.1885
 9326SOL    HW139440   1.131   1.492   7.285 -1.1743  1.3391 -0.6607
 9326SOL    HW239441   1.118   1.382   7.189 -1.5699  2.0753 -1.3213
 9327SOL     OW39442   1.225   2.826   6.674  0.2489  0.6393  0.1112
 9327SOL    HW139443   1.160   2.839   6.744  0.1059 -0.0084  0.0988
 9327SOL    HW239444   1.304   2.864   6.713  0.5544 -0.2285  0.3270
 9328SOL     OW39445   1.303   1.981  10.339 -0.0285 -0.1629 -0.3965
 9328SOL    HW139446   1.369   2.027  10.286  0.2950 -1.0806 -0.7789
 9328SOL    HW239447   1.325   1.888  10.335 -1.6861 -0.5021 -1.5470
 9329SOL     OW39448   2.415   1.909   8.871  0.2687  0.0498  0.3921
 9329SOL    HW139449   2.381   1.848   8.805 -0.2101 -0.1077  0.7850
 9329SOL    HW239450   2.498   1.915   8.823 -1.6893  0.5045 -2.9617
 9330SOL     OW39451   4.279   0.371   7.608  0.3429  0.0456 -0.9923
 9330SOL    HW139452   4.365   0.337   7.583  0.9084  1.4144 -0.8995
 9330SOL    HW239453   4.315   0.445   7.656 -0.1941 -0.6972  0.5886
 9331SOL     OW39454   1.015   0.663   4.141  0.9252  0.0985  0.0470
 9331SOL    HW139455   1.081   0.628   4.200 -0.5700 -1.6789  0.6676
 9331SOL    HW239456   1.034   0.613   4.062  0.0686  1.6844 -1.1834
 9332SOL     OW39457   4.426   2.410   6.972  0.6850 -0.5368  0.3493
 9332SOL    HW139458   4.425   2.469   6.897  0.5067  0.5715  1.2250
 9332SOL    HW239459   4.382   2.458   7.042  0.0891  0.5963 -0.8258
 9333SOL     OW39460   1.698   2.671   3.331 -0.0361 -0.1994 -0.1448
 9333SOL    HW139461   1.680   2.648   3.240 -2.4644  1.0412  0.0095
 9333SOL    HW239462   1.625   2.732   3.342 -0.9199 -1.1503 -0.7815
 9334SOL     OW39463   1.642   3.862   3.492  0.3945  0.4463  0.1004
 9334SOL    HW139464   1.663   3.850   3.400  1.8777 -1.5454  0.6939
 9334SOL    HW239465   1.581   3.790   3.510  0.2390  1.0896  2.2355
 9335SOL     OW39466   3.231   4.571  10.915 -0.0384  0.4208 -0.2930
 9335SOL    HW139467   3.220   4.622  10.835  1.6450 -0.5329 -1.1478
 9335SOL    HW239468   3.143   4.572  10.953  0.1057 -0.7279  0.0743
 9336SOL     OW39469   3.945   0.061   9.731  0.5310  0.3156 -0.0380
 9336SOL    HW139470   3.915   0.023   9.813 -1.2811  2.2445  0.2031
 9336SOL    HW239471   4.037   0.058   9.756  0.2562  0.8097  1.0331
 9337SOL     OW39472   2.395   2.459   2.725  0.1706 -0.5068 -0.0722
 9337SOL    HW139473   2.308   2.440   2.691 -0.2973  0.0087  0.8288
 9337SOL    HW239474   2.420   2.381   2.775 -2.0858 -0.9132  0.4346
 9338SOL     OW39475   4.253   3.698  17.036 -0.0132 -0.2723  0.1912
 9338SOL    HW139476   4.282   3.658  17.118 -0.5376  1.8310  1.3876
 9338SOL    HW239477   4.164   3.733  17.042 -0.2454 -1.2194  2.2693
 9339SOL     OW39478   0.347   4.393   7.957 -0.0121 -0.4698 -0.0256
 9339SOL    HW139479   0.328   4.357   7.870 -1.0173  1.8683 -0.7931
 9339SOL    HW239480   0.308   4.325   8.012 -0.0075 -0.6503 -0.2425
 9340SOL     OW39481   2.284   0.974   4.130  0.6486 -0.3893 -0.0943
 9340SOL    HW139482   2.362   0.985   4.183 -0.2173 -1.2818  1.3839
 9340SOL    HW239483   2.212   1.002   4.186  0.8946 -0.1958  0.1170
 9341SOL     OW39484   0.030   2.642  13.879 -0.2790 -0.9387 -0.1981
 9341SOL    HW139485   0.015   2.658  13.972 -2.3365  2.1955 -1.1020
 9341SOL    HW239486   0.031   2.546  13.884 -0.9526 -0.9529 -0.3564
 9342SOL     OW39487   3.480   4.200  15.947 -0.2512  0.4811 -0.0781
 9342SOL    HW139488   3.454   4.112  15.973 -1.1923  0.5248 -0.8367
 9342SOL    HW239489   3.498   4.233  16.035  0.2713  1.9871 -0.7395
 9343SOL     OW39490   2.813   4.503   8.127 -1.1423  0.4139 -0.0338
 9343SOL    HW139491   2.802   4.589   8.168  0.2765  0.8911 -0.6947
 9343SOL    HW239492   2.733   4.506   8.075 -0.9400  2.4702 -0.2035
 9344SOL     OW39493   4.676   0.499   6.864 -1.0565 -0.1607 -1.1178
 9344SOL    HW139494   4.670   0.593   6.881 -2.5263 -0.8180  1.7711
 9344SOL    HW239495   4.633   0.459   6.939 -0.0351 -0.7884 -0.8616
 9345SOL     OW39496   2.680   0.623   2.339  0.1263  0.0417 -0.4408
 9345SOL    HW139497   2.681   0.713   2.307  0.3370 -0.8019 -2.8153
 9345SOL    HW239498   2.749   0.633   2.405 -1.0648 -0.4968  0.8842
 9346SOL     OW39499   4.356   4.104   8.580  0.1249  0.3012  0.0758
 9346SOL    HW139500   4.434   4.064   8.618  0.7731  0.4828 -1.0716
 9346SOL    HW239501   4.316   4.139   8.660  0.2146  0.9887 -0.1734
 9347SOL     OW39502   4.303   2.314  10.026 -0.4162 -0.1794  0.3614
 9347SOL    HW139503   4.231   2.256  10.001 -0.4330  0.3676 -0.8868
 9347SOL    HW239504   4.299   2.320  10.121 -1.9896  0.7724  0.2415
 9348SOL     OW39505   1.849   2.745  14.387  0.1645 -0.5440  0.2972
 9348SOL    HW139506   1.850   2.691  14.466 -3.7762  0.4319  1.0337
 9348SOL    HW239507   1.925   2.799  14.408 -1.3722  2.0571 -0.7303
 9349SOL     OW39508   3.600   0.492   7.630 -0.3686  0.5711  0.3262
 9349SOL    HW139509   3.676   0.433   7.635 -1.9555 -1.4748  0.2729
 9349SOL    HW239510   3.523   0.436   7.624  0.7848 -1.1615  1.6206
 9350SOL     OW39511   3.031   1.514   1.952  0.3596 -0.0390 -0.0005
 9350SOL    HW139512   2.947   1.541   1.915  1.2843  1.5843 -0.9248
 9350SOL    HW239513   3.074   1.594   1.922  0.3453  1.1224  3.1570
 9351SOL     OW39514   3.650   1.828   9.529  0.2715  0.2938  0.0060
 9351SOL    HW139515   3.667   1.914   9.567 -0.2680 -0.9336  3.0168
 9351SOL    HW239516   3.704   1.825   9.449  0.7761  1.9602  0.2797
 9352SOL     OW39517   3.029   2.947   4.299 -0.4566  0.3406 -0.3919
 9352SOL    HW139518   3.067   2.910   4.220  0.6978  0.5326  0.0792
 9352SOL    HW239519   3.041   3.039   4.275  1.3785 -0.2139 -1.5717
 9353SOL     OW39520   1.658   4.332   8.601  0.9303 -0.0967  0.4121
 9353SOL    HW139521   1.631   4.406   8.547 -0.4304 -0.6756  0.2853
 9353SOL    HW239522   1.650   4.257   8.542 -0.6024  0.3087  0.1034
 9354SOL     OW39523   0.802   1.861   5.700 -0.2962 -0.2999 -0.2094
 9354SOL    HW139524   0.722   1.815   5.724 -0.2098 -1.5390 -2.3379
 9354SOL    HW239525   0.829   1.806   5.627  2.6884  0.6454  0.1614
 9355SOL     OW39526   0.297   3.474   5.929  0.0095 -0.1504  0.2979
 9355SOL    HW139527   0.337   3.401   5.882 -0.7735  0.0073 -0.6143
 9355SOL    HW239528   0.220   3.433   5.969  0.2508 -1.3279 -0.4409
 9356SOL     OW39529   2.302   1.918   8.161 -0.3780 -0.0138  0.2522
 9356SOL    HW139530   2.344   1.842   8.122  1.2148  1.8576 -1.6816
 9356SOL    HW239531   2.374   1.981   8.158 -0.5163  0.3001  2.8892
 9357SOL     OW39532   2.192   1.363   6.120  0.2128  0.0198 -0.0805
 9357SOL    HW139533   2.169   1.426   6.189  2.4594  0.2897  0.4216
 9357SOL    HW239534   2.197   1.283   6.171  1.2194 -0.7654 -1.4035
 9358SOL     OW39535   1.116   4.714   7.978  0.2464  0.6396 -0.1263
 9358SOL    HW139536   1.040   0.012   8.031 -0.4603  0.3199 -1.0070
 9358SOL    HW239537   1.173   0.057   8.013  0.8531 -0.6687  1.4428
 9359SOL     OW39538   1.527   1.011   9.044 -0.1860 -0.2268  0.2423
 9359SOL    HW139539   1.571   0.977   9.122  1.1398 -0.0923 -0.4522
 9359SOL    HW239540   1.442   0.968   9.053 -1.2145  2.0235  1.1288
 9360SOL     OW39541   2.555   4.546   4.247 -0.0590 -0.3893 -0.5483
 9360SOL    HW139542   2.557   4.641   4.259 -0.2675 -0.2527 -1.6151
 9360SOL    HW239543   2.610   4.528   4.171  0.8094 -0.0097 -0.0163
 9361SOL     OW39544   3.903   0.142  11.150 -0.0794  0.3331  0.5395
 9361SOL    HW139545   3.943   0.144  11.063  1.8726 -2.0114  1.3868
 9361SOL    HW239546   3.972   0.176  11.207  0.2456 -0.7115  0.7741
 9362SOL     OW39547   4.643   1.990   4.353  0.0256 -0.0158  0.0366
 9362SOL    HW139548   4.607   2.039   4.279  1.8556  2.5276  0.8474
 9362SOL    HW239549   4.720   2.032   4.391 -0.6199 -0.5002  1.8377
 9363SOL     OW39550   3.059   3.354   3.317  0.3246 -0.1512  0.7961
 9363SOL    HW139551   3.112   3.400   3.252 -2.9511 -1.2671 -2.6429
 9363SOL    HW239552   3.110   3.367   3.397  1.2840  0.3740  0.0977
 9364SOL     OW39553   1.212   1.537   6.491  0.3480 -0.1098  0.2440
 9364SOL    HW139554   1.122   1.537   6.459 -0.2976 -2.6167  2.0594
 9364SOL    HW239555   1.221   1.632   6.483 -0.5064 -0.2324 -2.2262
 9365SOL     OW39556   3.198   3.069   7.473  0.3978  0.8888  0.3195
 9365SOL    HW139557   3.274   3.114   7.510 -0.7219  1.6466  1.6613
 9365SOL    HW239558   3.173   3.121   7.397  1.6795 -2.5911 -2.5127
 9366SOL     OW39559   0.585   4.012   6.665  0.4676  0.2514  0.2352
 9366SOL    HW139560   0.651   4.072   6.700  0.4086  0.6273 -0.2972
 9366SOL    HW239561   0.511   4.070   6.644 -0.2566 -0.1737  1.6069
 9367SOL     OW39562   3.620   2.983   3.825  0.0454  0.1431 -0.3902
 9367SOL    HW139563   3.533   2.987   3.784  0.6093  0.8441 -1.5030
 9367SOL    HW239564   3.647   2.900   3.787 -0.7204 -0.2854  0.0028
 9368SOL     OW39565   2.857   2.136  12.238  0.2047 -0.3751  0.2901
 9368SOL    HW139566   2.823   2.218  12.202  1.2749  0.9037  2.2155
 9368SOL    HW239567   2.934   2.104  12.193  0.9853 -0.0875  1.4177
 9369SOL     OW39568   4.634   2.493  16.955 -0.7884  0.2484  0.3041
 9369SOL    HW139569   4.707   2.514  16.897 -0.9179  0.3968  0.1965
 9369SOL    HW239570   4.680   2.508  17.038  1.0985 -1.2643 -0.4688
 9370SOL     OW39571   0.869   0.172   4.534  0.6059  0.1061  0.3169
 9370SOL    HW139572   0.805   0.103   4.522  0.4593  0.0048  1.7738
 9370SOL    HW239573   0.935   0.130   4.589 -0.0381 -1.1748  0.1016
 9371SOL     OW39574   3.379   3.033   2.858 -0.1563 -0.2219  0.7613
 9371SOL    HW139575   3.412   2.947   2.833 -2.5870 -0.4737 -1.5301
 9371SOL    HW239576   3.462   3.066   2.892  0.3808 -0.3877 -0.3888
 9372SOL     OW39577   2.758   2.988  17.151 -0.1888  0.0850 -0.2000
 9372SOL    HW139578   2.775   2.976  17.245 -0.2410  1.3494 -0.0268
 9372SOL    HW239579   2.672   3.029  17.158 -0.8572 -1.1021 -1.5920
 9373SOL     OW39580   1.100   2.513   3.698  0.2957  0.1198 -0.5122
 9373SOL    HW139581   1.147   2.443   3.744 -0.9534 -2.0422 -2.5191
 9373SOL    HW239582   1.161   2.586   3.696 -2.0082  2.1039  0.4354
 9374SOL     OW39583   1.309   1.410   3.004 -0.4587  0.5486 -0.4155
 9374SOL    HW139584   1.381   1.438   2.947  0.9529 -1.3077  0.4702
 9374SOL    HW239585   1.360   1.368   3.073  0.4733 -0.3205 -1.6257
 9375SOL     OW39586   3.783   1.097   8.422 -0.3185 -0.6214  0.2378
 9375SOL    HW139587   3.697   1.126   8.392 -0.2516 -0.7073 -0.0435
 9375SOL    HW239588   3.827   1.062   8.344 -0.9954  0.5365 -0.6508
 9376SOL     OW39589   4.455   1.814   2.226 -0.4986 -0.4355  0.1044
 9376SOL    HW139590   4.385   1.858   2.274 -1.1158 -2.7030  1.2622
 9376SOL    HW239591   4.527   1.876   2.239  0.2220 -0.7253 -2.4283
 9377SOL     OW39592   3.736   3.082  15.412  0.4279  0.0312  0.4037
 9377SOL    HW139593   3.741   3.002  15.463  0.1286  0.9429  1.8725
 9377SOL    HW239594   3.644   3.106  15.423 -0.3442 -2.7568  0.0394
 9378SOL     OW39595   4.338   0.189   3.777 -0.4563 -0.1414  0.1146
 9378SOL    HW139596   4.321   0.198   3.870  0.0743  0.4002  0.1638
 9378SOL    HW239597   4.333   0.282   3.755 -0.0788 -0.2480 -0.4376
 9379SOL     OW39598   0.018   3.751  13.286  0.4075  0.0322  0.0911
 9379SOL    HW139599   4.668   3.709  13.329  2.9326 -2.8623  1.6725
 9379SOL    HW239600   0.039   3.676  13.230 -1.9426  0.1098 -0.8958
 9380SOL     OW39601   2.248   0.293   7.408 -0.2447  0.3339  0.2298
 9380SOL    HW139602   2.201   0.290   7.325  0.1154  1.9259 -0.0308
 9380SOL    HW239603   2.343   0.297   7.394 -0.1178  0.5138  1.1385
 9381SOL     OW39604   0.784   2.452   9.393  0.2735  0.3363 -0.5174
 9381SOL    HW139605   0.729   2.526   9.368 -1.3736 -0.6701  0.0857
 9381SOL    HW239606   0.799   2.460   9.488 -1.1428 -1.1112 -0.1701
 9382SOL     OW39607   0.845   4.272   1.292 -0.3100 -0.2254  0.0769
 9382SOL    HW139608   0.825   4.334   1.362  1.4333 -2.0594  2.1796
 9382SOL    HW239609   0.820   4.315   1.210  1.8301 -2.4665 -1.7572
 9383SOL     OW39610   4.725   2.734   8.446 -0.2766 -0.1364  0.2069
 9383SOL    HW139611   0.036   2.795   8.382 -0.6064 -0.6073 -0.4231
 9383SOL    HW239612   4.679   2.793   8.506 -0.8717 -2.1076  1.6888
 9384SOL     OW39613   3.369   0.094   0.556 -0.0640  0.3577 -0.5423
 9384SOL    HW139614   3.299   0.157   0.572 -1.0587 -1.1613  1.0852
 9384SOL    HW239615   3.403   0.128   0.473  1.7514  1.2828  0.5861
 9385SOL     OW39616   0.609   2.409   6.564  0.1611 -0.0002 -0.0211
 9385SOL    HW139617   0.651   2.428   6.480  1.8228 -1.5847  0.4356
 9385SOL    HW239618   0.679   2.442   6.620  1.0387  2.3291 -2.5083
 9386SOL     OW39619   4.347   3.128   4.493  0.3305  0.3097  0.5468
 9386SOL    HW139620   4.328   3.195   4.428  3.2410 -0.6131 -1.2168
 9386SOL    HW239621   4.407   3.183   4.543  2.0745 -0.2546 -0.9460
 9387SOL     OW39622   0.868   2.235   4.483  0.1103  0.8496 -0.3994
 9387SOL    HW139623   0.949   2.267   4.444 -0.2527  2.4217  0.1515
 9387SOL    HW239624   0.809   2.283   4.424 -2.4377  0.2363  1.6417
 9388SOL     OW39625   1.894   0.981   5.338 -0.7895 -0.4621  0.1866
 9388SOL    HW139626   1.904   1.043   5.410  0.0660  0.9816 -1.1875
 9388SOL    HW239627   1.959   0.912   5.354  1.8463  1.7564 -0.8561
 9389SOL     OW39628   3.887   1.017   3.573 -0.4440 -0.1253 -1.0296
 9389SOL    HW139629   3.904   1.098   3.621  1.9549  0.2175 -2.4799
 9389SOL    HW239630   3.868   1.068   3.495  2.9646 -0.4937 -2.0874
 9390SOL     OW39631   1.247   1.250   2.224  0.0721  0.1198 -0.3350
 9390SOL    HW139632   1.304   1.174   2.233  1.0187  0.6147 -2.1789
 9390SOL    HW239633   1.207   1.231   2.138 -1.7716 -0.2760  0.5992
 9391SOL     OW39634   4.156   2.428   9.607  0.5070  0.1550  0.1223
 9391SOL    HW139635   4.208   2.480   9.668  0.4450  0.6450 -0.2452
 9391SOL    HW239636   4.073   2.418   9.654 -0.0708 -0.9696 -1.1389
 9392SOL     OW39637   4.722   2.902   5.128 -0.0364 -0.7631  0.1774
 9392SOL    HW139638   0.007   2.982   5.180 -0.4003 -1.6635  1.6416
 9392SOL    HW239639   0.034   2.932   5.045 -0.1535 -2.8613 -0.6174
 9393SOL     OW39640   0.882   3.079   7.038  0.0494 -0.0485  0.1163
 9393SOL    HW139641   0.848   3.161   7.072  0.7357 -0.0565  0.8295
 9393SOL    HW239642   0.897   3.039   7.124 -0.6729 -1.1068 -0.2537
 9394SOL     OW39643   0.080   1.609   8.955 -0.3605 -0.4983 -0.7619
 9394SOL    HW139644   0.099   1.590   9.047 -2.8901  0.0590 -0.1097
 9394SOL    HW239645   0.011   1.675   8.954  0.8501  0.7476 -1.6988
 9395SOL     OW39646   2.550   1.240   7.237 -0.5655 -0.1225  0.4887
 9395SOL    HW139647   2.571   1.279   7.152 -0.7909  0.8839  0.8952
 9395SOL    HW239648   2.482   1.184   7.201 -0.0070 -0.6126  0.1964
 9396SOL     OW39649   4.073   1.953   7.092 -0.2779 -0.0456  0.4659
 9396SOL    HW139650   4.128   1.883   7.055  2.0026  0.8189  2.2622
 9396SOL    HW239651   4.125   1.960   7.172  0.5903 -0.3747 -0.0608
 9397SOL     OW39652   2.844   0.669   0.713 -0.1252 -0.0002 -0.5470
 9397SOL    HW139653   2.897   0.609   0.765  0.4866  1.6629  0.7809
 9397SOL    HW239654   2.861   0.754   0.755 -3.4960 -0.8901  2.5406
 9398SOL     OW39655   2.105   3.731   3.230  0.1717  0.3857 -0.5028
 9398SOL    HW139656   2.063   3.785   3.297 -1.1457 -0.3063 -0.7673
 9398SOL    HW239657   2.187   3.779   3.214 -0.1575  0.9569 -0.4751
 9399SOL     OW39658   1.493   0.378   8.220  0.7257  0.3467  0.0832
 9399SOL    HW139659   1.474   0.367   8.314 -1.1532  1.8383 -0.1235
 9399SOL    HW239660   1.421   0.434   8.191  0.3886  0.0153  0.2645
 9400SOL     OW39661   2.798   2.716   7.031  0.1302  0.6257  0.4845
 9400SOL    HW139662   2.771   2.692   6.943 -0.5588 -1.2997  1.2220
 9400SOL    HW239663   2.804   2.634   7.080  0.3605  0.0860 -0.4538
 9401SOL     OW39664   0.002   3.365   3.517 -0.5127 -0.6821  0.6129
 9401SOL    HW139665   4.684   3.409   3.444  3.5352  2.5548  0.1675
 9401SOL    HW239666   4.692   3.277   3.501 -0.1580 -0.6446 -0.3890
 9402SOL     OW39667   1.134   0.689   1.692  0.6939 -0.1909  0.2818
 9402SOL    HW139668   1.205   0.626   1.686  0.3653 -0.6500  1.1927
 9402SOL    HW239669   1.063   0.635   1.658 -0.9883  0.4753  2.7138
 9403SOL     OW39670   0.757   4.654  10.699 -0.5618 -0.0769 -0.1991
 9403SOL    HW139671   0.673   4.692  10.725  0.4669  2.1155 -0.0958
 9403SOL    HW239672   0.751   4.566  10.735 -0.0056 -0.5669 -1.3093
 9404SOL     OW39673   3.287   1.794   9.648  0.1720 -0.0483 -0.1350
 9404SOL    HW139674   3.274   1.776   9.741 -1.6492 -0.5127 -0.4702
 9404SOL    HW239675   3.356   1.732   9.626 -0.1503 -0.3125 -0.4023
 9405SOL     OW39676   0.006   2.574   4.558  0.3778 -0.0536  0.6443
 9405SOL    HW139677   0.034   2.496   4.510  0.4888  2.0308 -2.7151
 9405SOL    HW239678   0.002   2.645   4.494  0.3295 -0.3941  0.2716
 9406SOL     OW39679   3.117   1.763   5.156 -0.1457 -0.0982 -0.2519
 9406SOL    HW139680   3.143   1.832   5.095 -0.7474 -0.1295 -0.5451
 9406SOL    HW239681   3.202   1.729   5.184 -0.1460  1.8122  2.0815
 9407SOL     OW39682   4.438   2.954   9.041 -0.0496  0.2843  0.0432
 9407SOL    HW139683   4.501   3.026   9.037 -0.3276  0.4927 -0.5910
 9407SOL    HW239684   4.430   2.950   9.137  0.5918 -2.1673 -0.0282
 9408SOL     OW39685   0.627   1.038   7.864 -0.0602  0.0784  0.7535
 9408SOL    HW139686   0.611   1.103   7.795 -1.6132  0.0979  1.1481
 9408SOL    HW239687   0.612   0.956   7.817 -1.0400  0.3557  0.5931
 9409SOL     OW39688   2.023   0.481   6.306 -0.0762 -0.3086 -0.0840
 9409SOL    HW139689   2.036   0.576   6.306 -2.3983 -0.0051  0.2105
 9409SOL    HW239690   1.999   0.466   6.397 -1.5626  0.0348 -0.4256
 9410SOL     OW39691   0.125   0.994   5.107 -0.1859 -0.2019  0.4977
 9410SOL    HW139692   0.191   0.967   5.172 -0.7819 -4.7469 -0.7842
 9410SOL    HW239693   0.074   0.913   5.114  1.4134 -1.3908 -1.6288
 9411SOL     OW39694   0.327   1.625  10.344  0.2387  0.5539 -0.0605
 9411SOL    HW139695   0.271   1.699  10.366 -1.1037 -0.5505  0.3129
 9411SOL    HW239696   0.315   1.615  10.249 -0.3332  1.0061 -0.0349
 9412SOL     OW39697   1.578   4.580  12.169  0.3545 -0.3384  0.6686
 9412SOL    HW139698   1.526   4.500  12.176 -1.2190  0.6589  0.3513
 9412SOL    HW239699   1.578   4.606  12.261 -2.9216 -0.4829  0.7146
 9413SOL     OW39700   3.464   1.640   4.314 -0.0357  0.6818  0.2451
 9413SOL    HW139701   3.415   1.564   4.344  1.9886 -1.3331 -1.5047
 9413SOL    HW239702   3.395   1.705   4.304  0.9547  1.4853 -1.3675
 9414SOL     OW39703   1.628   1.817   8.537 -0.0165  0.1057  0.2968
 9414SOL    HW139704   1.713   1.773   8.541  0.1030  0.4831  1.7636
 9414SOL    HW239705   1.648   1.909   8.551  1.6964 -0.2980  0.5031
 9415SOL     OW39706   3.224   2.706   9.285 -0.0693 -0.5823  0.0827
 9415SOL    HW139707   3.275   2.738   9.210  0.4090  1.7799  1.4273
 9415SOL    HW239708   3.290   2.677   9.347  0.8915 -0.9548 -1.1064
 9416SOL     OW39709   4.716   3.725   7.772  0.0028 -0.1806  0.2411
 9416SOL    HW139710   0.034   3.762   7.695 -1.1297 -1.4645 -1.0057
 9416SOL    HW239711   0.055   3.726   7.844 -1.2989  2.5170  1.3877
 9417SOL     OW39712   4.047   0.839   6.770 -0.2813  0.4327 -0.2553
 9417SOL    HW139713   4.125   0.820   6.717  1.3948 -2.3848  3.2389
 9417SOL    HW239714   4.071   0.809   6.858 -0.3900 -0.3042 -0.4778
 9418SOL     OW39715   0.659   1.445  17.433 -0.5110  0.2559 -0.2003
 9418SOL    HW139716   0.725   1.509  17.459 -0.6578  0.2367  0.2267
 9418SOL    HW239717   0.701   1.412  17.353 -1.0783  0.6857 -0.6767
 9419SOL     OW39718   4.316   3.495   6.945  0.4096 -0.0448  0.0946
 9419SOL    HW139719   4.243   3.433   6.948  0.8903 -0.5786  0.7737
 9419SOL    HW239720   4.321   3.538   7.030  3.0412  1.2884 -0.7599
 9420SOL     OW39721   0.313   0.873   5.254  0.2285 -0.3796  0.2829
 9420SOL    HW139722   0.374   0.875   5.180 -2.1424  0.4216 -1.6941
 9420SOL    HW239723   0.322   0.784   5.286 -0.8230  0.0901  1.8775
 9421SOL     OW39724   3.260   4.365  15.707 -0.5191  0.0613 -0.7547
 9421SOL    HW139725   3.327   4.433  15.700 -1.2036  0.9666  1.4086
 9421SOL    HW239726   3.312   4.288  15.686 -0.6126  0.3528 -2.0727
 9422SOL     OW39727   3.494   1.238   4.093 -0.2929  0.1858  0.0208
 9422SOL    HW139728   3.412   1.214   4.136 -1.2368 -0.3296 -2.0871
 9422SOL    HW239729   3.484   1.210   4.002 -1.1855 -1.3337  0.5876
 9423SOL     OW39730   3.839   4.385   8.847 -0.2522 -0.5896 -0.1056
 9423SOL    HW139731   3.768   4.447   8.831  0.5519  0.1667 -0.7267
 9423SOL    HW239732   3.870   4.387   8.756  1.5167  1.5613  0.5419
 9424SOL     OW39733   0.384   0.448   5.105  0.3947  0.2672  0.4304
 9424SOL    HW139734   0.440   0.379   5.070 -0.0589  0.5203 -0.7896
 9424SOL    HW239735   0.295   0.419   5.083  0.3562 -0.7660  1.8992
 9425SOL     OW39736   4.022   3.138   2.561  0.1790  0.2000 -0.4317
 9425SOL    HW139737   3.958   3.069   2.581 -1.2183  1.7742  0.5544
 9425SOL    HW239738   4.095   3.089   2.524 -0.4413  0.9670 -2.6535
 9426SOL     OW39739   1.955   4.554   9.020 -0.0971 -0.0057  0.0158
 9426SOL    HW139740   2.028   4.595   9.066 -1.1035  0.7415  0.9758
 9426SOL    HW239741   1.961   4.462   9.046  1.6331  0.2033  0.3518
 9427SOL     OW39742   2.763   2.528   8.767 -0.0531  0.5873  0.1419
 9427SOL    HW139743   2.856   2.508   8.771  0.0798  0.9475 -1.0470
 9427SOL    HW239744   2.740   2.522   8.859 -0.3444  1.3559  0.1267
 9428SOL     OW39745   3.677   1.811  12.010 -0.2354  0.3613  0.0170
 9428SOL    HW139746   3.683   1.779  12.101 -0.0931  0.7142  0.1298
 9428SOL    HW239747   3.595   1.769  11.983  0.7471 -1.5993  0.0758
 9429SOL     OW39748   3.803   4.579  15.976 -0.1078  0.4233  0.0763
 9429SOL    HW139749   3.846   4.655  16.015  0.9783  1.1827 -2.5940
 9429SOL    HW239750   3.765   4.543  16.056 -1.4083 -1.7003 -1.5151
 9430SOL     OW39751   4.469   3.046   8.305  0.3286 -0.2946 -0.0087
 9430SOL    HW139752   4.504   3.135   8.293 -1.3659  0.1569 -1.5442
 9430SOL    HW239753   4.376   3.064   8.318  0.9609  0.4452  3.8266
 9431SOL     OW39754   3.884   2.982   2.981  0.2662  0.3714 -0.3835
 9431SOL    HW139755   3.968   3.028   2.984  0.7735 -0.6732  0.9808
 9431SOL    HW239756   3.856   2.961   3.070  0.3357  0.4485 -0.3435
 9432SOL     OW39757   1.330   0.066   1.957 -0.1592 -1.0307  0.2044
 9432SOL    HW139758   1.294   4.705   1.977  1.4928 -1.2056  2.5370
 9432SOL    HW239759   1.300   0.113   2.035 -1.4621 -1.8009  0.1582
 9433SOL     OW39760   1.752   2.927  13.398  0.5881 -0.2664  0.1357
 9433SOL    HW139761   1.759   3.013  13.439 -3.4770  1.2895 -2.4267
 9433SOL    HW239762   1.657   2.930  13.383  0.2711 -2.8410  1.7047
 9434SOL     OW39763   4.720   4.642  14.846 -0.0286 -0.0656 -0.1816
 9434SOL    HW139764   4.699   4.619  14.936 -1.7007  3.8269  0.4335
 9434SOL    HW239765   0.020   0.009  14.856  0.6045 -0.0857 -1.5736
 9435SOL     OW39766   2.276   0.233   8.069  0.0883 -0.0126 -0.3262
 9435SOL    HW139767   2.251   0.152   8.113  0.6771 -0.2574 -0.4427
 9435SOL    HW239768   2.220   0.235   7.992  0.9051  2.7529 -0.8237
 9436SOL     OW39769   4.587   1.666   6.860 -0.2084  0.2464 -0.1286
 9436SOL    HW139770   4.574   1.613   6.938  2.5146 -2.6182 -1.6019
 9436SOL    HW239771   4.501   1.655   6.820 -0.1610 -0.0423 -0.1502
 9437SOL     OW39772   1.095   2.855   5.287 -0.0238  0.2135 -0.6589
 9437SOL    HW139773   1.091   2.921   5.218  2.5688 -1.5289 -2.4677
 9437SOL    HW239774   1.040   2.879   5.361 -1.1514  1.4779 -1.9093
 9438SOL     OW39775   2.993   0.695   3.897  0.4916 -0.0542 -0.5127
 9438SOL    HW139776   2.941   0.624   3.860  3.0561 -2.1532 -0.0688
 9438SOL    HW239777   3.083   0.662   3.890  0.8204  0.4265  1.4010
 9439SOL     OW39778   3.817   1.813   3.246 -0.3959 -0.4452  0.0510
 9439SOL    HW139779   3.824   1.781   3.156 -0.4489  0.1294 -0.1578
 9439SOL    HW239780   3.898   1.780   3.284  0.1336  1.7464  0.8103
 9440SOL     OW39781   4.425   2.597   8.468 -0.2278 -0.0703 -0.4459
 9440SOL    HW139782   4.355   2.637   8.520  1.4293 -0.1136  1.8206
 9440SOL    HW239783   4.384   2.533   8.409 -0.2512 -2.0708  1.7145
 9441SOL     OW39784   0.266   1.996  15.899  0.2475  0.3897  0.1512
 9441SOL    HW139785   0.300   2.084  15.911  3.5150 -0.6735 -1.4757
 9441SOL    HW239786   0.200   1.995  15.969  0.5206  1.4268  0.4180
 9442SOL     OW39787   0.819   3.329   4.369 -0.0869  0.0885  0.1702
 9442SOL    HW139788   0.834   3.375   4.287  0.8933  1.2386  1.0015
 9442SOL    HW239789   0.893   3.270   4.360 -1.3000 -1.9598  3.7343
 9443SOL     OW39790   0.154   1.249  10.546  0.0808 -0.4449 -1.0339
 9443SOL    HW139791   0.146   1.303  10.624 -2.8861 -0.6756 -1.1962
 9443SOL    HW239792   0.216   1.186  10.581  1.0461  0.4128 -1.1991
 9444SOL     OW39793   3.362   3.226   3.651 -0.2224 -0.1159 -0.4041
 9444SOL    HW139794   3.267   3.217   3.643 -0.2865 -0.3063  0.5853
 9444SOL    HW239795   3.388   3.135   3.666  0.4103  0.0039 -0.7744
 9445SOL     OW39796   1.809   1.854   6.755 -0.1679 -0.3485  0.0890
 9445SOL    HW139797   1.868   1.898   6.816  1.9436 -1.6651 -1.0038
 9445SOL    HW239798   1.870   1.784   6.729  0.7660  0.2780  0.5847
 9446SOL     OW39799   4.441   4.464  13.529  0.5057 -0.0096  0.0362
 9446SOL    HW139800   4.415   4.556  13.521 -0.8385 -0.3260  0.6724
 9446SOL    HW239801   4.497   4.447  13.453  0.5725 -0.1581  0.1178
 9447SOL     OW39802   1.592   3.606  11.426  0.7741 -0.1618  0.2141
 9447SOL    HW139803   1.511   3.635  11.385 -0.1667 -0.6345  1.7164
 9447SOL    HW239804   1.660   3.654  11.378  0.3565 -1.7390 -1.9550
 9448SOL     OW39805   3.749   4.162   4.418 -1.0096  0.6473 -0.1582
 9448SOL    HW139806   3.779   4.110   4.343 -1.6184  0.5358 -0.3175
 9448SOL    HW239807   3.821   4.222   4.435 -1.6760  1.1483  0.8531
 9449SOL     OW39808   4.686   1.102   9.407 -0.0372 -0.5345 -0.5846
 9449SOL    HW139809   0.044   1.076   9.369  0.5281  0.6821 -0.1665
 9449SOL    HW239810   4.630   1.053   9.346 -1.2153  1.4948 -1.1169
 9450SOL     OW39811   2.749   0.238   6.839  0.6482  0.6555  0.6355
 9450SOL    HW139812   2.818   0.205   6.897  1.8316  1.3465 -0.4006
 9450SOL    HW239813   2.728   0.323   6.878  2.7436  1.9670 -1.0983
 9451SOL     OW39814   3.965   2.620  14.231  0.3061  0.7077 -0.0503
 9451SOL    HW139815   3.961   2.611  14.136  2.0248  0.1614 -0.0723
 9451SOL    HW239816   3.877   2.637  14.264  0.3114  0.6377 -0.0021
 9452SOL     OW39817   4.656   3.111   3.992 -0.5132  0.0594 -0.0273
 9452SOL    HW139818   4.625   3.197   3.961 -1.1457  0.7355  2.4509
 9452SOL    HW239819   4.604   3.099   4.071  0.0354 -2.8848 -0.1222
 9453SOL     OW39820   4.711   2.104   4.709 -0.6120 -0.0642 -0.5314
 9453SOL    HW139821   0.001   2.195   4.732 -1.6352  0.3639 -1.5578
 9453SOL    HW239822   4.687   2.078   4.798  0.8051  1.6371  0.3476
 9454SOL     OW39823   2.584   3.599  11.911  0.2521  0.0496 -0.3314
 9454SOL    HW139824   2.602   3.692  11.902 -0.3698  0.2391  0.4208
 9454SOL    HW239825   2.657   3.556  11.867 -0.2855 -2.4270  1.1884
 9455SOL     OW39826   2.166   2.195   3.942  0.2092 -0.3327 -0.3443
 9455SOL    HW139827   2.085   2.168   3.899  0.4350 -1.7131  0.0631
 9455SOL    HW239828   2.224   2.194   3.866  1.1538 -0.4157  0.3675
 9456SOL     OW39829   2.869   0.145  17.658 -0.2531  0.1401  0.3821
 9456SOL    HW139830   2.893   0.164  17.568  1.0031 -1.4723  0.3673
 9456SOL    HW239831   2.776   0.169  17.654 -0.7013 -2.0769 -2.8703
 9457SOL     OW39832   1.407   2.748   8.120 -0.3143  0.1991  0.1135
 9457SOL    HW139833   1.388   2.799   8.041 -1.4632  0.5341  0.6026
 9457SOL    HW239834   1.342   2.679   8.107  0.7265 -0.7400 -0.0771
 9458SOL     OW39835   4.543   2.779  12.905 -0.1984  0.6495 -0.1638
 9458SOL    HW139836   4.573   2.852  12.851  1.9253  0.7362  1.1325
 9458SOL    HW239837   4.622   2.727  12.889 -0.0082  0.1851  2.3253
 9459SOL     OW39838   4.274   3.888   1.269 -0.1325  0.1450  0.2701
 9459SOL    HW139839   4.338   3.816   1.268  0.8932  1.0735 -4.5196
 9459SOL    HW239840   4.220   3.859   1.342 -0.9060  1.8147  0.3719
 9460SOL     OW39841   0.259   3.420  10.564 -0.6418  0.0755 -0.1791
 9460SOL    HW139842   0.318   3.408  10.639 -1.6781  1.2947  0.8286
 9460SOL    HW239843   0.239   3.330  10.543 -0.4627 -0.2843  1.1577
 9461SOL     OW39844   0.385   2.248  15.974 -0.5266 -0.0903  0.0032
 9461SOL    HW139845   0.339   2.331  15.963  1.1338  0.6124 -1.6992
 9461SOL    HW239846   0.471   2.270  16.008 -0.0279 -0.6403 -0.8916
 9462SOL     OW39847   0.834   3.597   1.038  0.0106 -0.7928  0.0718
 9462SOL    HW139848   0.741   3.576   1.042  0.0420 -0.8979  0.2240
 9462SOL    HW239849   0.853   3.618   1.129 -0.5196 -0.1209  0.0247
 9463SOL     OW39850   0.312   3.620  16.361 -0.4355  0.0581  0.1816
 9463SOL    HW139851   0.352   3.688  16.305 -1.4943 -0.8679 -1.7032
 9463SOL    HW239852   0.366   3.637  16.438  1.3171  1.6146 -1.3820
 9464SOL     OW39853   1.993   3.732   8.885  0.1433 -0.2491 -0.4086
 9464SOL    HW139854   2.046   3.806   8.857  2.3139 -1.2048  1.1215
 9464SOL    HW239855   1.991   3.664   8.817 -1.3444 -0.7613  0.1570
 9465SOL     OW39856   0.792   0.928  11.831  0.2228 -0.0893  0.5055
 9465SOL    HW139857   0.858   0.990  11.799  2.3640 -0.8161  3.4933
 9465SOL    HW239858   0.851   0.875  11.885  0.2737  0.2803  0.8141
 9466SOL     OW39859   4.480   0.527   7.996 -0.3504  0.0058  0.3309
 9466SOL    HW139860   4.531   0.446   7.992  3.1276  2.2359 -0.0625
 9466SOL    HW239861   4.402   0.472   8.006 -0.1474 -0.5791 -1.2712
 9467SOL     OW39862   1.101   1.055   3.579  0.1488 -0.2333 -0.4533
 9467SOL    HW139863   1.185   1.038   3.622 -0.0426 -1.1780 -0.4573
 9467SOL    HW239864   1.089   1.150   3.588  1.3576 -0.0185 -1.1766
 9468SOL     OW39865   2.965   4.001   3.317 -0.0563 -0.2424 -0.2854
 9468SOL    HW139866   3.036   4.000   3.380 -0.0463  1.3021 -0.2601
 9468SOL    HW239867   2.881   4.024   3.357 -0.3302 -2.8691  0.6461
 9469SOL     OW39868   1.344   0.822   5.185 -0.6419 -0.1935  0.2434
 9469SOL    HW139869   1.355   0.829   5.091 -2.0873 -1.4184 -0.0159
 9469SOL    HW239870   1.421   0.877   5.202  0.4998 -1.5400 -0.6260
 9470SOL     OW39871   1.491   3.927   1.980 -0.0471 -0.0251  0.2719
 9470SOL    HW139872   1.586   3.912   1.982 -0.0696 -0.4908 -1.5909
 9470SOL    HW239873   1.468   3.837   1.959 -3.9615  1.1932 -0.6351
 9471SOL     OW39874   1.827   2.294   4.014 -0.1996  0.4174  0.1210
 9471SOL    HW139875   1.797   2.384   4.025  1.2235  1.1353 -1.8982
 9471SOL    HW239876   1.815   2.270   3.922  0.8701  0.0956  0.0705
 9472SOL     OW39877   1.439   3.110   6.118  0.3869  0.8082 -0.0500
 9472SOL    HW139878   1.360   3.061   6.096  0.5229  1.4047 -1.8326
 9472SOL    HW239879   1.465   3.132   6.029 -1.6442 -1.3383 -1.1551
 9473SOL     OW39880   3.198   0.264   5.564 -0.6855  0.5735  0.2469
 9473SOL    HW139881   3.192   0.169   5.569  0.3596  0.4339 -1.2723
 9473SOL    HW239882   3.267   0.287   5.626 -1.3613  1.2499  0.7491
 9474SOL     OW39883   1.518   3.812  13.112  0.3394 -0.1351 -0.1536
 9474SOL    HW139884   1.437   3.763  13.126  0.0276  0.6207  0.6412
 9474SOL    HW239885   1.539   3.838  13.202 -0.0646  2.4982 -0.8487
 9475SOL     OW39886   4.231   3.857   8.642 -0.0564 -0.5771 -0.8310
 9475SOL    HW139887   4.249   3.947   8.613  0.4635 -0.0132  1.2013
 9475SOL    HW239888   4.306   3.837   8.698 -0.4352  1.1605  0.3073
 9476SOL     OW39889   2.365   4.686   2.843  0.1489  0.0831  0.0895
 9476SOL    HW139890   2.324   4.613   2.797 -1.2380  1.3557 -0.6863
 9476SOL    HW239891   2.355   0.036   2.784  0.9549  0.7415  0.7895
 9477SOL     OW39892   2.462   0.277   3.595  0.3890 -0.7086  0.6779
 9477SOL    HW139893   2.412   0.230   3.528  0.4558  0.3137 -0.0821
 9477SOL    HW239894   2.479   0.359   3.550  0.4354 -1.4415 -0.6237
 9478SOL     OW39895   3.580   1.056   7.726 -0.1390  0.9899  0.1291
 9478SOL    HW139896   3.550   1.136   7.684 -0.2211  0.4336 -0.9030
 9478SOL    HW239897   3.600   0.999   7.651  0.1486  0.5888  0.5131
 9479SOL     OW39898   1.781   4.275  13.817 -0.0579  0.0200  0.0308
 9479SOL    HW139899   1.744   4.332  13.749 -1.1872 -0.2598  0.4113
 9479SOL    HW239900   1.866   4.320  13.820 -0.2604  0.2858  1.9677
 9480SOL     OW39901   2.811   2.496  10.632  0.8504  0.4860 -0.0928
 9480SOL    HW139902   2.755   2.441  10.686  0.1683  0.7768 -0.5145
 9480SOL    HW239903   2.895   2.464  10.664  1.3859 -0.0865 -2.0844
 9481SOL     OW39904   0.647   4.171  16.865 -0.4418 -0.0820 -0.0961
 9481SOL    HW139905   0.616   4.107  16.800  0.6491  0.9952 -1.6670
 9481SOL    HW239906   0.687   4.123  16.937 -1.1587 -1.2392 -0.4702
 9482SOL     OW39907   4.411   4.668   4.273  0.1970 -0.4415  0.7775
 9482SOL    HW139908   4.387   0.021   4.322  0.6968 -0.7265  1.4707
 9482SOL    HW239909   4.503   4.685   4.250 -0.1409 -1.2106 -1.1848
 9483SOL     OW39910   1.749   2.976   7.305  0.1214  0.5860 -0.9837
 9483SOL    HW139911   1.783   3.024   7.381  1.7038 -1.1974 -0.5676
 9483SOL    HW239912   1.730   2.890   7.342 -0.1736  1.0376 -0.0763
 9484SOL     OW39913   1.763   3.278  16.169  0.1692  0.3024  0.1136
 9484SOL    HW139914   1.686   3.334  16.178  1.1156  1.3492  1.6886
 9484SOL    HW239915   1.755   3.256  16.076 -1.2648 -1.7838  0.7158
 9485SOL     OW39916   1.435   1.873   7.989  0.3381  0.3368  0.2245
 9485SOL    HW139917   1.450   1.894   8.081  0.4831  0.5496  0.1534
 9485SOL    HW239918   1.438   1.954   7.938  0.6598  0.2902  0.1709
 9486SOL     OW39919   3.869   1.082   9.965  0.3945  0.3025 -0.0018
 9486SOL    HW139920   3.942   1.054  10.021 -1.4956 -2.3910  1.1307
 9486SOL    HW239921   3.894   1.038   9.884 -0.4174  0.0123 -0.0877
 9487SOL     OW39922   3.352   3.501   2.595 -0.0704 -0.5236  0.2147
 9487SOL    HW139923   3.400   3.429   2.636 -0.3568 -1.6285 -1.3813
 9487SOL    HW239924   3.378   3.482   2.505 -0.5206 -2.9361  0.6069
 9488SOL     OW39925   2.985   1.206   5.269 -0.1234  0.0997 -0.2544
 9488SOL    HW139926   2.909   1.262   5.281 -1.7110 -2.4888  1.6149
 9488SOL    HW239927   2.969   1.134   5.330 -0.5959  1.1096  0.8094
 9489SOL     OW39928   4.167   3.733   6.399 -0.3965 -0.1882  0.0700
 9489SOL    HW139929   4.161   3.668   6.469  1.3846 -1.2310 -0.7334
 9489SOL    HW239930   4.251   3.713   6.357 -1.2452 -1.9655 -0.7729
 9490SOL     OW39931   2.714   1.603   6.986  0.0383 -0.5018 -0.4313
 9490SOL    HW139932   2.803   1.574   6.966  0.9975  0.9982  1.5832
 9490SOL    HW239933   2.742   1.672   7.047  1.7719  1.4245 -3.4234
 9491SOL     OW39934   4.264   1.536   7.342  0.3548 -0.3462  0.3237
 9491SOL    HW139935   4.320   1.614   7.343  0.7981 -0.6458 -0.4551
 9491SOL    HW239936   4.209   1.547   7.264 -2.1844 -3.0050  1.7473
 9492SOL     OW39937   2.185   4.650  10.440  0.0248 -0.3262  0.2601
 9492SOL    HW139938   2.266   4.624  10.397 -1.5257 -1.4633 -1.9411
 9492SOL    HW239939   2.212   4.689  10.523 -0.4197  0.6472 -0.0439
 9493SOL     OW39940   4.538   1.566   6.252 -0.1085 -0.2472  0.1548
 9493SOL    HW139941   4.458   1.613   6.228 -0.2027 -0.5919 -0.2101
 9493SOL    HW239942   4.536   1.489   6.196 -2.1361  1.3910 -2.0399
 9494SOL     OW39943   3.781   3.296   4.520 -0.1659 -0.0046 -0.0990
 9494SOL    HW139944   3.744   3.210   4.541 -0.8494 -0.0104 -1.3521
 9494SOL    HW239945   3.860   3.300   4.574 -1.3736  1.6436  1.5485
 9495SOL     OW39946   4.253   2.309   4.949 -0.4396 -0.1401  0.4282
 9495SOL    HW139947   4.321   2.255   4.907  0.1679  0.7611  0.2578
 9495SOL    HW239948   4.299   2.392   4.962 -0.8424  0.5481 -2.7446
 9496SOL     OW39949   0.893   3.327   7.422  0.4591  0.0242  0.1453
 9496SOL    HW139950   0.860   3.241   7.448  0.8433 -0.5383 -1.1950
 9496SOL    HW239951   0.865   3.322   7.331  1.0549 -0.8391  0.0092
 9497SOL     OW39952   0.744   1.400  16.232 -0.2087 -0.3391 -0.2697
 9497SOL    HW139953   0.656   1.422  16.264  0.0579  1.5055 -0.7510
 9497SOL    HW239954   0.765   1.459  16.159 -0.9737 -1.9048 -1.7685
 9498SOL     OW39955   2.417   2.249   2.243  0.2320 -1.0799 -0.2358
 9498SOL    HW139956   2.446   2.300   2.167 -0.9165 -0.0237  0.0310
 9498SOL    HW239957   2.450   2.162   2.224  2.6257 -0.4784  1.2439
 9499SOL     OW39958   4.047   1.385   2.250  0.1405  1.0100  0.3839
 9499SOL    HW139959   3.999   1.424   2.322 -1.0526  1.5943 -0.7358
 9499SOL    HW239960   4.126   1.353   2.293 -0.0988  1.1364  0.9103
 9500SOL     OW39961   2.015   3.305   6.299 -0.1049 -0.4518 -0.3288
 9500SOL    HW139962   2.054   3.307   6.212 -3.0258 -2.1878 -1.6991
 9500SOL    HW239963   1.994   3.396   6.319 -0.4788 -0.8144  0.9406
 9501SOL     OW39964   3.173   4.616   3.690  0.0144  0.0498 -0.1350
 9501SOL    HW139965   3.239   4.670   3.733 -1.3971  0.1029  1.9253
 9501SOL    HW239966   3.229   4.564   3.632 -0.0129  1.0221 -1.0277
 9502SOL     OW39967   4.080   0.163   9.038 -0.4404  0.3526  0.0333
 9502SOL    HW139968   4.052   0.074   9.061 -1.3128  0.7576  0.5174
 9502SOL    HW239969   4.110   0.206   9.118 -0.3799 -0.6800  0.5732
 9503SOL     OW39970   0.165   0.869   8.987  0.5343 -0.4214  0.0830
 9503SOL    HW139971   0.196   0.802   8.927 -1.2073 -2.4697  1.4532
 9503SOL    HW239972   0.150   0.934   8.918  0.0693 -2.5247 -1.8173
 9504SOL     OW39973   3.173   1.382   5.516 -1.1667 -0.3273 -0.1479
 9504SOL    HW139974   3.223   1.307   5.547 -1.1339 -0.8601 -1.4785
 9504SOL    HW239975   3.162   1.346   5.428 -0.7925  1.5847 -0.9598
 9505SOL     OW39976   0.621   4.473   6.759  0.4970 -0.0228  0.4063
 9505SOL    HW139977   0.693   4.490   6.820 -0.9587  0.6659  1.9157
 9505SOL    HW239978   0.561   4.546   6.770  2.2369  1.1822  1.8772
 9506SOL     OW39979   1.732   0.709   3.835 -0.1461 -0.2408 -0.3381
 9506SOL    HW139980   1.814   0.683   3.792 -1.2137 -1.5229 -1.5851
 9506SOL    HW239981   1.668   0.683   3.770  1.2160 -2.8599 -0.6434
 9507SOL     OW39982   3.337   1.772  12.444 -0.0641  0.1166 -0.0449
 9507SOL    HW139983   3.377   1.834  12.382  4.8717 -1.3650  1.6828
 9507SOL    HW239984   3.300   1.825  12.514 -0.8493  0.5604 -0.7908
 9508SOL     OW39985   1.401   1.835  12.289 -0.0638  0.2480 -0.4531
 9508SOL    HW139986   1.496   1.824  12.287  0.0662  1.5059 -0.9654
 9508SOL    HW239987   1.398   1.929  12.274  2.0982  0.2845 -0.5708
 9509SOL     OW39988   0.354   3.276  13.408  0.0912 -0.3793  0.0940
 9509SOL    HW139989   0.313   3.196  13.377 -2.2533  1.3042 -1.1746
 9509SOL    HW239990   0.388   3.247  13.492 -1.1281 -2.7711 -0.2454
 9510SOL     OW39991   1.080   4.561   2.579 -0.5374  0.0489 -0.2423
 9510SOL    HW139992   1.150   4.548   2.516  0.3636  1.2289  0.5196
 9510SOL    HW239993   1.117   4.539   2.665 -0.9007 -1.1571 -0.3905
 9511SOL     OW39994   3.783   3.414  14.383  0.0334  0.3848 -0.1349
 9511SOL    HW139995   3.857   3.454  14.336 -1.5571  1.2009 -1.9109
 9511SOL    HW239996   3.724   3.430  14.310 -3.2199  1.0642  2.6584
 9512SOL     OW39997   2.432   2.092   7.122  0.1043 -0.2919  0.2307
 9512SOL    HW139998   2.425   2.064   7.031 -0.5818  1.8603 -0.3767
 9512SOL    HW239999   2.527   2.099   7.131  0.0652 -0.8341  1.1482
 9513SOL     OW40000   3.353   3.297   7.567 -0.1777  0.5996 -0.8657
 9513SOL    HW140001   3.418   3.334   7.627  1.6035 -0.4764 -2.0923
 9513SOL    HW240002   3.349   3.363   7.498 -1.9869 -0.4169 -1.7334
 9514SOL     OW40003   1.653   4.687  15.389  0.5586 -0.3087 -0.1387
 9514SOL    HW140004   1.599   4.653  15.460  0.5623  0.4660  0.2401
 9514SOL    HW240005   1.726   4.719  15.442 -0.9406  0.1488  1.6411
 9515SOL     OW40006   1.702   4.475   6.000 -0.1824 -0.3136 -0.5611
 9515SOL    HW140007   1.676   4.567   6.009 -1.1555 -1.1327  4.7978
 9515SOL    HW240008   1.643   4.430   6.060 -1.7749  1.2442 -0.9248
 9516SOL     OW40009   0.842   4.620  10.435  0.3601 -0.4469  0.7574
 9516SOL    HW140010   0.758   4.609  10.390  0.1098  0.7830  0.9411
 9516SOL    HW240011   0.805   4.661  10.513  0.5335  0.6511  0.2544
 9517SOL     OW40012   1.732   3.662   1.162  0.0335  0.8498 -0.7557
 9517SOL    HW140013   1.813   3.611   1.155  0.4253  1.6628 -2.0194
 9517SOL    HW240014   1.752   3.724   1.232  4.2035 -0.0389 -1.1784
 9518SOL     OW40015   0.036   2.942   3.485  0.3122 -0.0192 -0.3483
 9518SOL    HW140016   0.032   2.960   3.579  1.5102  1.6833 -0.6156
 9518SOL    HW240017   0.127   2.913   3.474  0.2998 -0.2526  0.2058
 9519SOL     OW40018   2.276   2.318   8.187  0.1003  0.5842 -0.0554
 9519SOL    HW140019   2.283   2.242   8.245  0.7956  1.1243  0.5587
 9519SOL    HW240020   2.329   2.287   8.114  0.0978 -0.9746  0.6028
 9520SOL     OW40021   1.025   3.625   8.385  0.2437 -0.1338  0.0547
 9520SOL    HW140022   0.942   3.614   8.432 -1.8338  3.2063 -2.7830
 9520SOL    HW240023   1.088   3.613   8.456  0.4759 -0.5595 -0.2216
 9521SOL     OW40024   4.376   2.420   3.506  0.0654  0.0805  0.2481
 9521SOL    HW140025   4.364   2.438   3.413 -0.1795 -2.3328 -0.2036
 9521SOL    HW240026   4.425   2.499   3.530  3.2955 -1.7059 -0.4593
 9522SOL     OW40027   0.606   4.283   5.704  0.0720 -0.1221 -0.2934
 9522SOL    HW140028   0.639   4.204   5.747 -0.4925 -0.8873 -1.2847
 9522SOL    HW240029   0.607   4.269   5.610  1.7499 -2.6621  0.1142
 9523SOL     OW40030   1.402   0.115   6.021 -0.2938 -0.3480 -0.4079
 9523SOL    HW140031   1.468   0.185   6.022 -0.8904  0.2041  0.6889
 9523SOL    HW240032   1.471   0.053   6.047  0.3593  0.6312  0.1912
 9524SOL     OW40033   1.272   0.530   6.366 -0.0875  0.2380  0.4743
 9524SOL    HW140034   1.290   0.439   6.390 -0.0055  0.7866  2.5029
 9524SOL    HW240035   1.234   0.554   6.451 -0.4119  1.9163 -0.1372
 9525SOL     OW40036   3.376   1.357   7.148 -0.0726  0.2090  0.1090
 9525SOL    HW140037   3.461   1.313   7.148  0.0711  0.5007 -2.6674
 9525SOL    HW240038   3.360   1.368   7.242 -1.2548 -2.8321  0.2511
 9526SOL     OW40039   1.473   2.632   7.481 -0.7069  1.2581  0.1572
 9526SOL    HW140040   1.473   2.678   7.565  1.7476  0.3068  0.6868
 9526SOL    HW240041   1.401   2.571   7.496 -0.4776  0.6694 -1.1742
 9527SOL     OW40042   3.885   0.260   2.289 -0.5393 -0.5330  0.1020
 9527SOL    HW140043   3.857   0.292   2.203 -0.0891  1.4771  0.7142
 9527SOL    HW240044   3.901   0.166   2.274  1.3518 -0.1675 -0.1870
 9528SOL     OW40045   1.646   0.979   6.923 -0.0504 -0.1953  0.2545
 9528SOL    HW140046   1.659   1.069   6.895  0.7990 -0.8339 -1.4356
 9528SOL    HW240047   1.583   0.944   6.860 -0.6894  0.8897  0.2904
 9529SOL     OW40048   4.512   4.155   5.588 -0.0123 -0.2713 -0.0252
 9529SOL    HW140049   4.593   4.180   5.632 -0.0983  0.8274 -0.4882
 9529SOL    HW240050   4.513   4.222   5.520  1.0950 -0.8257 -0.5476
 9530SOL     OW40051   4.476   0.206   7.499  0.2242 -0.3272 -0.3261
 9530SOL    HW140052   4.485   0.129   7.556  1.7699  0.2737  0.2431
 9530SOL    HW240053   4.505   0.180   7.412 -0.4361 -1.9637 -0.0619
 9531SOL     OW40054   1.221   0.615  13.678  0.0535  0.0423  0.4544
 9531SOL    HW140055   1.203   0.701  13.640  1.2300 -0.7387 -1.8374
 9531SOL    HW240056   1.230   0.571  13.594  1.8636  1.1282  0.0904
 9532SOL     OW40057   2.291   0.171  11.228  0.0032 -0.8597  0.0843
 9532SOL    HW140058   2.364   0.227  11.254 -0.6894  1.1709 -2.3945
 9532SOL    HW240059   2.336   0.118  11.163  0.5196  1.5589 -1.5358
 9533SOL     OW40060   0.548   1.783   6.306 -0.0431  0.4972 -0.1920
 9533SOL    HW140061   0.524   1.869   6.339 -0.1377  0.0517  0.8819
 9533SOL    HW240062   0.556   1.795   6.211 -0.6073  1.1508 -0.1601
 9534SOL     OW40063   2.261   4.076  14.466 -0.0363 -0.6000 -0.3925
 9534SOL    HW140064   2.322   4.111  14.400 -2.0313 -1.3172 -2.5992
 9534SOL    HW240065   2.199   4.149  14.464 -0.8167 -1.2463  0.7028
 9535SOL     OW40066   2.080   3.443   7.886  0.1385  0.3223  0.0619
 9535SOL    HW140067   2.150   3.404   7.833 -0.7183 -0.5156 -0.4432
 9535SOL    HW240068   2.127   3.488   7.957 -1.2334  1.6480  0.1433
 9536SOL     OW40069   1.791   0.629  11.331  0.3035  0.5427 -0.1881
 9536SOL    HW140070   1.711   0.647  11.281  0.3725  4.2706  1.0070
 9536SOL    HW240071   1.769   0.675  11.412 -1.8576  3.6959 -2.5517
 9537SOL     OW40072   2.989   0.133   3.908 -0.4563  0.6208  0.1508
 9537SOL    HW140073   3.053   0.105   3.842 -0.8138  1.8505 -0.7094
 9537SOL    HW240074   3.025   0.211   3.951 -1.5405  1.4470 -0.4501
 9538SOL     OW40075   1.160   3.152  11.335 -0.0327 -0.2211 -0.2187
 9538SOL    HW140076   1.248   3.148  11.296  0.0299  2.4136 -0.3756
 9538SOL    HW240077   1.152   3.057  11.344  0.5809 -0.1435  1.1999
 9539SOL     OW40078   1.506   3.163   4.009  0.1206  1.1610 -0.1391
 9539SOL    HW140079   1.544   3.086   4.053 -0.3178  0.9414 -0.1404
 9539SOL    HW240080   1.415   3.161   4.040  1.3014  0.1372  3.3453
 9540SOL     OW40081   1.313   2.728   2.154 -0.4578  0.5188 -0.1168
 9540SOL    HW140082   1.254   2.658   2.126  2.3909 -1.3633 -1.4938
 9540SOL    HW240083   1.280   2.808   2.114 -1.2095  1.6055  2.7101
 9541SOL     OW40084   4.450   0.608   3.266  0.3225 -0.5692  0.3904
 9541SOL    HW140085   4.417   0.676   3.324 -0.1929 -1.2200  0.8569
 9541SOL    HW240086   4.491   0.651   3.191 -1.1247  1.7265  0.9187
 9542SOL     OW40087   3.235   2.281   9.042 -0.0197 -0.2092  0.2378
 9542SOL    HW140088   3.233   2.371   9.009  0.2977 -0.8838 -1.5904
 9542SOL    HW240089   3.170   2.285   9.112 -0.9953 -1.4502 -0.5912
 9543SOL     OW40090   0.711   3.889   3.328  0.1321  0.3624  0.6128
 9543SOL    HW140091   0.802   3.861   3.316 -0.6884 -2.4923  0.9899
 9543SOL    HW240092   0.668   3.840   3.258  2.3112 -0.3414 -0.2487
 9544SOL     OW40093   4.314   1.389   8.357 -0.2290  0.4751 -0.6909
 9544SOL    HW140094   4.247   1.338   8.312  1.6989 -0.3705 -2.6360
 9544SOL    HW240095   4.349   1.323   8.417  0.6638  0.9141 -0.7258
 9545SOL     OW40096   1.612   3.492   1.498  0.1404 -0.0072 -0.5423
 9545SOL    HW140097   1.687   3.525   1.548  0.2432 -0.9172 -0.0860
 9545SOL    HW240098   1.539   3.515   1.555  0.3982  0.5979 -0.4602
 9546SOL     OW40099   2.063   2.978   6.217 -0.7147 -0.2848 -0.4269
 9546SOL    HW140100   2.126   3.045   6.190  0.6355 -1.8211 -1.1113
 9546SOL    HW240101   2.113   2.932   6.285 -1.3587 -0.2603  0.0610
 9547SOL     OW40102   4.473   0.554   7.677 -0.5223 -0.3745  0.0258
 9547SOL    HW140103   4.488   0.619   7.608  2.8227 -1.1198  0.0866
 9547SOL    HW240104   4.560   0.518   7.693 -1.0107 -1.5479  0.1208
 9548SOL     OW40105   3.426   0.322  16.432 -0.4233 -0.0066 -0.7430
 9548SOL    HW140106   3.465   0.409  16.434  1.9356 -1.1102  2.3614
 9548SOL    HW240107   3.337   0.339  16.403  0.1363  1.1420 -1.7561
 9549SOL     OW40108   2.997   0.894   7.401  0.3943  0.3758 -0.0900
 9549SOL    HW140109   3.010   0.801   7.420 -0.3581  0.1841 -0.4773
 9549SOL    HW240110   3.006   0.941   7.484  0.7027  0.1829 -0.0151
 9550SOL     OW40111   4.589   3.017   3.752  0.4211 -0.3012 -0.8642
 9550SOL    HW140112   4.618   3.041   3.840 -2.7213  1.1431 -0.2303
 9550SOL    HW240113   4.565   2.928   3.780 -0.3428  1.1947  3.2348
 9551SOL     OW40114   3.666   4.388   8.501  0.8081  0.2683  0.2214
 9551SOL    HW140115   3.698   4.477   8.512  0.7496  0.4965 -1.5563
 9551SOL    HW240116   3.571   4.402   8.499  0.8865  0.5186 -1.5466
 9552SOL     OW40117   0.983   4.017   5.169  0.3649  0.8306  0.3110
 9552SOL    HW140118   0.890   4.037   5.176  0.9122  3.2581  0.6982
 9552SOL    HW240119   1.001   3.972   5.252 -1.9815  0.0748  0.4049
 9553SOL     OW40120   2.743   1.027   4.336 -0.1209 -0.2562  0.2664
 9553SOL    HW140121   2.652   1.013   4.310  0.0686  2.5771 -1.9562
 9553SOL    HW240122   2.792   0.981   4.268  0.9629  1.6887 -0.2632
 9554SOL     OW40123   3.709   2.332  10.977 -0.3473 -0.0751 -0.2225
 9554SOL    HW140124   3.621   2.345  11.012  0.3091  1.0500  1.0025
 9554SOL    HW240125   3.692   2.383  10.898  1.5260  0.7638 -0.1013
 9555SOL     OW40126   3.716   3.084   9.769 -0.0376  0.1442  0.5964
 9555SOL    HW140127   3.667   3.166   9.769  1.0977  0.8242 -0.1150
 9555SOL    HW240128   3.803   3.113   9.740 -1.6505  1.3251 -3.1548
 9556SOL     OW40129   3.154   4.226   8.972  0.0938  0.0896  0.0285
 9556SOL    HW140130   3.249   4.215   8.979  0.2764  0.9853 -1.1941
 9556SOL    HW240131   3.129   4.145   8.927 -1.0064 -0.3020  1.3326
 9557SOL     OW40132   3.453   0.277   3.898 -0.2440  0.2087  0.2705
 9557SOL    HW140133   3.479   0.274   3.990  1.0750  0.5707 -0.0909
 9557SOL    HW240134   3.532   0.251   3.850 -0.5401 -0.3085  0.0655
 9558SOL     OW40135   0.394   1.529   5.867  0.7858  0.1546 -0.1647
 9558SOL    HW140136   0.461   1.467   5.895 -0.3806 -1.9931 -2.0718
 9558SOL    HW240137   0.342   1.534   5.947 -0.2475  2.4514 -0.9851
 9559SOL     OW40138   4.711   0.987   6.030 -0.2605  0.4225  0.3297
 9559SOL    HW140139   4.656   0.966   6.106 -0.3307  1.1514  0.4774
 9559SOL    HW240140   4.644   0.977   5.962 -0.8485 -1.8881  1.2240
 9560SOL     OW40141   4.059   3.770   5.673 -0.4068 -0.3605  0.0323
 9560SOL    HW140142   3.988   3.801   5.729  0.7347  1.3409  0.5147
 9560SOL    HW240143   4.082   3.842   5.615 -0.8375  2.1477  3.0202
 9561SOL     OW40144   4.644   0.153   6.681 -0.9919  0.0071 -0.0317
 9561SOL    HW140145   4.582   0.221   6.654  0.6356  0.7565 -1.8154
 9561SOL    HW240146   0.002   0.189   6.651 -0.3742 -0.4852  1.1058
 9562SOL     OW40147   4.311   2.811   7.915  0.8402  0.5092  0.3897
 9562SOL    HW140148   4.271   2.895   7.937 -0.0562  0.6599 -1.8653
 9562SOL    HW240149   4.360   2.800   7.996 -1.5977 -1.0568  1.6255
 9563SOL     OW40150   3.783   3.376   9.705 -0.2568 -0.1582  0.0944
 9563SOL    HW140151   3.783   3.429   9.626 -2.8142 -0.1991  0.0739
 9563SOL    HW240152   3.848   3.421   9.759 -1.4710  1.9412 -0.2058
 9564SOL     OW40153   0.991   2.017   8.119  0.4609 -0.0470 -0.1896
 9564SOL    HW140154   0.906   1.989   8.151 -0.0820  0.8830 -0.8319
 9564SOL    HW240155   1.040   1.988   8.196 -1.3135 -0.6213  0.7249
 9565SOL     OW40156   3.519   0.865  13.129  0.1075 -0.5249  0.0091
 9565SOL    HW140157   3.563   0.896  13.208  1.0810 -0.1337 -0.6769
 9565SOL    HW240158   3.591   0.829  13.077 -0.8584 -0.9126 -1.0561
 9566SOL     OW40159   3.542   3.291  10.967  0.2698  0.0389  0.3252
 9566SOL    HW140160   3.475   3.234  11.005 -0.5960 -1.2706 -3.1899
 9566SOL    HW240161   3.609   3.227  10.944  2.8489  2.4379  1.2078
 9567SOL     OW40162   3.829   1.655   7.104 -0.1447  0.2584 -0.7637
 9567SOL    HW140163   3.843   1.617   7.191  0.9506  3.3418  0.4138
 9567SOL    HW240164   3.736   1.680   7.108 -0.5846 -1.9274  2.9877
 9568SOL     OW40165   3.133   4.120   9.801  0.4376  0.0644  0.0138
 9568SOL    HW140166   3.166   4.045   9.851  0.3416 -0.7395 -1.1181
 9568SOL    HW240167   3.058   4.080   9.756 -0.1778 -0.1497  1.2222
   4.72518   4.72518  17.70209
